Generated by trjconv : CNT in water t=  23.00000
33518
    1C        C    1   2.837   2.764   4.745
    1C        C    2   2.893   2.714   4.864
    1C        C    3   2.841   2.772   4.981
    1C        C    4   2.848   2.771   4.259
    1C        C    5   2.898   2.723   4.382
    1C        C    6   2.842   2.765   4.504
    1C        C    7   3.012   2.637   4.625
    1C        C    8   2.895   2.716   4.625
    1C        C    9   3.076   2.606   4.747
    1C        C   10   3.008   2.632   4.868
    1C        C   11   3.180   2.490   4.977
    1C        C   12   3.059   2.560   4.977
    1C        C   13   2.843   2.769   3.769
    1C        C   14   2.896   2.720   3.890
    1C        C   15   2.848   2.767   4.015
    1C        C   16   3.018   2.641   4.135
    1C        C   17   2.903   2.724   4.137
    1C        C   18   3.077   2.612   4.260
    1C        C   19   3.016   2.645   4.383
    1C        C   20   3.207   2.550   4.501
    1C        C   21   3.077   2.605   4.504
    1C        C   22   3.276   2.537   4.624
    1C        C   23   3.206   2.549   4.746
    1C        C   24   3.407   2.467   4.863
    1C        C   25   3.267   2.497   4.863
    1C        C   26   3.481   2.467   4.981
    1C        C   27   2.847   2.768   3.280
    1C        C   28   2.902   2.727   3.404
    1C        C   29   2.849   2.774   3.526
    1C        C   30   3.015   2.643   3.645
    1C        C   31   2.900   2.725   3.648
    1C        C   32   3.074   2.605   3.768
    1C        C   33   3.013   2.641   3.890
    1C        C   34   3.204   2.546   4.013
    1C        C   35   3.075   2.603   4.012
    1C        C   36   3.274   2.529   4.134
    1C        C   37   3.207   2.557   4.256
    1C        C   38   3.413   2.506   4.379
    1C        C   39   3.274   2.534   4.378
    1C        C   40   3.483   2.496   4.501
    1C        C   41   3.413   2.500   4.623
    1C        C   42   3.624   2.483   4.743
    1C        C   43   3.482   2.472   4.743
    1C        C   44   3.700   2.483   4.863
    1C        C   45   3.620   2.473   4.978
    1C        C   46   2.838   2.753   2.793
    1C        C   47   2.893   2.709   2.915
    1C        C   48   2.847   2.766   3.036
    1C        C   49   3.014   2.637   3.160
    1C        C   50   2.900   2.720   3.158
    1C        C   51   3.082   2.610   3.281
    1C        C   52   3.018   2.647   3.402
    1C        C   53   3.206   2.547   3.522
    1C        C   54   3.077   2.606   3.524
    1C        C   55   3.271   2.523   3.645
    1C        C   56   3.202   2.545   3.767
    1C        C   57   3.409   2.504   3.892
    1C        C   58   3.270   2.525   3.889
    1C        C   59   3.482   2.499   4.013
    1C        C   60   3.413   2.505   4.136
    1C        C   61   3.625   2.501   4.255
    1C        C   62   3.484   2.493   4.258
    1C        C   63   3.695   2.510   4.378
    1C        C   64   3.625   2.498   4.500
    1C        C   65   3.831   2.541   4.621
    1C        C   66   3.694   2.505   4.623
    1C        C   67   3.900   2.562   4.742
    1C        C   68   3.835   2.524   4.862
    1C        C   69   4.046   2.585   4.974
    1C        C   70   3.917   2.531   4.975
    1C        C   71   2.821   2.736   2.308
    1C        C   72   2.885   2.698   2.428
    1C        C   73   2.828   2.743   2.549
    1C        C   74   3.002   2.621   2.671
    1C        C   75   2.884   2.698   2.671
    1C        C   76   3.069   2.593   2.792
    1C        C   77   3.010   2.629   2.915
    1C        C   78   3.203   2.543   3.033
    1C        C   79   3.074   2.600   3.038
    1C        C   80   3.273   2.525   3.154
    1C        C   81   3.208   2.547   3.278
    1C        C   82   3.413   2.501   3.401
    1C        C   83   3.273   2.521   3.401
    1C        C   84   3.483   2.499   3.524
    1C        C   85   3.411   2.506   3.645
    1C        C   86   3.620   2.510   3.767
    1C        C   87   3.479   2.505   3.769
    1C        C   88   3.692   2.513   3.888
    1C        C   89   3.623   2.505   4.011
    1C        C   90   3.831   2.552   4.135
    1C        C   91   3.695   2.513   4.133
    1C        C   92   3.895   2.578   4.257
    1C        C   93   3.831   2.548   4.379
    1C        C   94   4.024   2.637   4.500
    1C        C   95   3.899   2.570   4.501
    1C        C   96   4.086   2.673   4.621
    1C        C   97   4.026   2.628   4.741
    1C        C   98   4.191   2.763   4.862
    1C        C   99   4.100   2.652   4.860
    1C        C  100   4.212   2.841   4.977
    1C        C  101   2.814   2.727   2.070
    1C        C  102   2.984   2.590   2.190
    1C        C  103   2.876   2.684   2.188
    1C        C  104   3.058   2.568   2.309
    1C        C  105   3.000   2.616   2.428
    1C        C  106   3.198   2.537   2.549
    1C        C  107   3.066   2.586   2.549
    1C        C  108   3.271   2.523   2.669
    1C        C  109   3.201   2.543   2.790
    1C        C  110   3.408   2.491   2.913
    1C        C  111   3.269   2.516   2.911
    1C        C  112   3.481   2.485   3.034
    1C        C  113   3.411   2.494   3.156
    1C        C  114   3.623   2.497   3.278
    1C        C  115   3.481   2.492   3.278
    1C        C  116   3.692   2.503   3.401
    1C        C  117   3.625   2.493   3.525
    1C        C  118   3.832   2.541   3.644
    1C        C  119   3.694   2.510   3.646
    1C        C  120   3.898   2.567   3.766
    1C        C  121   3.831   2.541   3.888
    1C        C  122   4.021   2.634   4.011
    1C        C  123   3.896   2.569   4.010
    1C        C  124   4.080   2.677   4.132
    1C        C  125   4.023   2.638   4.255
    1C        C  126   4.191   2.766   4.374
    1C        C  127   4.083   2.675   4.378
    1C        C  128   4.242   2.817   4.495
    1C        C  129   4.193   2.765   4.617
    1C        C  130   4.320   2.935   4.739
    1C        C  131   4.235   2.821   4.740
    1C        C  132   4.353   3.002   4.859
    1C        C  133   4.292   2.955   4.976
    1C        C  134   3.170   2.471   2.077
    1C        C  135   3.035   2.510   2.083
    1C        C  136   3.256   2.485   2.186
    1C        C  137   3.192   2.519   2.307
    1C        C  138   3.402   2.482   2.426
    1C        C  139   3.263   2.502   2.428
    1C        C  140   3.478   2.479   2.545
    1C        C  141   3.408   2.492   2.667
    1C        C  142   3.619   2.497   2.788
    1C        C  143   3.478   2.483   2.790
    1C        C  144   3.691   2.504   2.910
    1C        C  145   3.622   2.495   3.033
    1C        C  146   3.829   2.540   3.153
    1C        C  147   3.692   2.504   3.155
    1C        C  148   3.898   2.557   3.275
    1C        C  149   3.829   2.538   3.397
    1C        C  150   4.021   2.627   3.523
    1C        C  151   3.896   2.563   3.519
    1C        C  152   4.078   2.671   3.645
    1C        C  153   4.021   2.635   3.769
    1C        C  154   4.189   2.767   3.886
    1C        C  155   4.080   2.678   3.891
    1C        C  156   4.240   2.814   4.010
    1C        C  157   4.187   2.770   4.133
    1C        C  158   4.337   2.924   4.249
    1C        C  159   4.244   2.818   4.253
    1C        C  160   4.377   2.978   4.374
    1C        C  161   4.332   2.926   4.497
    1C        C  162   4.433   3.115   4.613
    1C        C  163   4.365   2.991   4.618
    1C        C  164   4.463   3.183   4.733
    1C        C  165   4.432   3.119   4.855
    1C        C  166   4.507   3.319   4.971
    1C        C  167   4.470   3.185   4.973
    1C        C  168   3.471   2.421   2.074
    1C        C  169   3.394   2.455   2.186
    1C        C  170   3.613   2.461   2.304
    1C        C  171   3.471   2.460   2.305
    1C        C  172   3.688   2.484   2.422
    1C        C  173   3.619   2.485   2.545
    1C        C  174   3.828   2.533   2.662
    1C        C  175   3.690   2.502   2.666
    1C        C  176   3.895   2.558   2.784
    1C        C  177   3.828   2.536   2.906
    1C        C  178   4.022   2.620   3.030
    1C        C  179   3.893   2.561   3.029
    1C        C  180   4.085   2.655   3.151
    1C        C  181   4.025   2.619   3.273
    1C        C  182   4.182   2.756   3.398
    1C        C  183   4.078   2.660   3.398
    1C        C  184   4.236   2.811   3.517
    1C        C  185   4.186   2.761   3.640
    1C        C  186   4.333   2.916   3.763
    1C        C  187   4.238   2.812   3.761
    1C        C  188   4.372   2.978   3.884
    1C        C  189   4.327   2.925   4.007
    1C        C  190   4.444   3.106   4.128
    1C        C  191   4.375   2.983   4.126
    1C        C  192   4.470   3.171   4.251
    1C        C  193   4.442   3.103   4.371
    1C        C  194   4.503   3.312   4.490
    1C        C  195   4.467   3.176   4.490
    1C        C  196   4.518   3.385   4.611
    1C        C  197   4.507   3.318   4.735
    1C        C  198   4.553   3.533   4.849
    1C        C  199   4.530   3.392   4.854
    1C        C  200   4.578   3.619   4.961
    1C        C  201   3.610   2.411   2.073
    1C        C  202   3.821   2.511   2.179
    1C        C  203   3.688   2.458   2.183
    1C        C  204   3.894   2.541   2.298
    1C        C  205   3.824   2.521   2.419
    1C        C  206   4.020   2.613   2.539
    1C        C  207   3.894   2.550   2.538
    1C        C  208   4.080   2.653   2.661
    1C        C  209   4.020   2.623   2.786
    1C        C  210   4.189   2.751   2.906
    1C        C  211   4.079   2.662   2.908
    1C        C  212   4.242   2.795   3.029
    1C        C  213   4.193   2.747   3.152
    1C        C  214   4.331   2.905   3.273
    1C        C  215   4.237   2.799   3.276
    1C        C  216   4.371   2.969   3.392
    1C        C  217   4.332   2.914   3.516
    1C        C  218   4.436   3.097   3.639
    1C        C  219   4.373   2.970   3.639
    1C        C  220   4.461   3.168   3.758
    1C        C  221   4.437   3.104   3.881
    1C        C  222   4.507   3.304   4.003
    1C        C  223   4.469   3.168   4.003
    1C        C  224   4.518   3.378   4.123
    1C        C  225   4.507   3.307   4.244
    1C        C  226   4.521   3.519   4.364
    1C        C  227   4.515   3.378   4.366
    1C        C  228   4.518   3.596   4.483
    1C        C  229   4.529   3.526   4.605
    1C        C  230   4.504   3.739   4.724
    1C        C  231   4.536   3.600   4.725
    1C        C  232   4.495   3.816   4.841
    1C        C  233   4.540   3.754   4.958
    1C        C  234   4.014   2.610   2.061
    1C        C  235   3.892   2.543   2.062
    1C        C  236   4.080   2.650   2.178
    1C        C  237   4.018   2.610   2.298
    1C        C  238   4.197   2.731   2.419
    1C        C  239   4.085   2.644   2.417
    1C        C  240   4.251   2.783   2.539
    1C        C  241   4.192   2.739   2.660
    1C        C  242   4.329   2.903   2.784
    1C        C  243   4.239   2.794   2.781
    1C        C  244   4.373   2.959   2.906
    1C        C  245   4.334   2.903   3.030
    1C        C  246   4.438   3.089   3.149
    1C        C  247   4.371   2.965   3.151
    1C        C  248   4.457   3.159   3.270
    1C        C  249   4.429   3.099   3.394
    1C        C  250   4.492   3.301   3.512
    1C        C  251   4.457   3.164   3.516
    1C        C  252   4.506   3.372   3.633
    1C        C  253   4.501   3.304   3.757
    1C        C  254   4.521   3.514   3.878
    1C        C  255   4.519   3.372   3.879
    1C        C  256   4.509   3.588   3.998
    1C        C  257   4.520   3.519   4.121
    1C        C  258   4.487   3.729   4.240
    1C        C  259   4.516   3.591   4.243
    1C        C  260   4.471   3.802   4.360
    1C        C  261   4.486   3.733   4.482
    1C        C  262   4.420   3.936   4.603
    1C        C  263   4.470   3.804   4.603
    1C        C  264   4.398   4.007   4.723
    1C        C  265   4.434   3.943   4.844
    1C        C  266   4.325   4.131   4.954
    1C        C  267   4.394   4.010   4.960
    1C        C  268   4.257   2.773   2.060
    1C        C  269   4.196   2.730   2.179
    1C        C  270   4.344   2.889   2.298
    1C        C  271   4.250   2.782   2.298
    1C        C  272   4.375   2.955   2.419
    1C        C  273   4.340   2.893   2.541
    1C        C  274   4.444   3.080   2.662
    1C        C  275   4.373   2.958   2.662
    1C        C  276   4.473   3.147   2.783
    1C        C  277   4.441   3.083   2.905
    1C        C  278   4.499   3.289   3.023
    1C        C  279   4.468   3.151   3.025
    1C        C  280   4.507   3.362   3.143
    1C        C  281   4.493   3.296   3.268
    1C        C  282   4.513   3.509   3.387
    1C        C  283   4.509   3.367   3.389
    1C        C  284   4.514   3.580   3.509
    1C        C  285   4.516   3.513   3.633
    1C        C  286   4.489   3.722   3.751
    1C        C  287   4.519   3.584   3.755
    1C        C  288   4.474   3.792   3.873
    1C        C  289   4.492   3.728   3.998
    1C        C  290   4.425   3.933   4.114
    1C        C  291   4.471   3.799   4.118
    1C        C  292   4.396   3.998   4.236
    1C        C  293   4.425   3.936   4.360
    1C        C  294   4.321   4.123   4.477
    1C        C  295   4.396   4.003   4.481
    1C        C  296   4.278   4.184   4.596
    1C        C  297   4.325   4.129   4.718
    1C        C  298   4.201   4.311   4.837
    1C        C  299   4.290   4.199   4.837
    1C        C  300   4.170   4.400   4.945
    1C        C  301   4.343   2.883   2.061
    1C        C  302   4.465   3.067   2.176
    1C        C  303   4.395   2.942   2.177
    1C        C  304   4.481   3.140   2.296
    1C        C  305   4.445   3.078   2.418
    1C        C  306   4.502   3.283   2.535
    1C        C  307   4.469   3.145   2.539
    1C        C  308   4.515   3.353   2.657
    1C        C  309   4.503   3.285   2.780
    1C        C  310   4.517   3.500   2.898
    1C        C  311   4.511   3.359   2.900
    1C        C  312   4.512   3.573   3.020
    1C        C  313   4.517   3.503   3.142
    1C        C  314   4.489   3.716   3.261
    1C        C  315   4.514   3.577   3.263
    1C        C  316   4.472   3.783   3.384
    1C        C  317   4.490   3.719   3.509
    1C        C  318   4.427   3.925   3.627
    1C        C  319   4.469   3.790   3.629
    1C        C  320   4.394   3.985   3.750
    1C        C  321   4.427   3.925   3.874
    1C        C  322   4.318   4.115   3.990
    1C        C  323   4.395   3.996   3.992
    1C        C  324   4.273   4.167   4.113
    1C        C  325   4.321   4.117   4.236
    1C        C  326   4.182   4.282   4.352
    1C        C  327   4.285   4.185   4.355
    1C        C  328   4.134   4.338   4.472
    1C        C  329   4.189   4.294   4.594
    1C        C  330   4.021   4.427   4.712
    1C        C  331   4.139   4.349   4.714
    1C        C  332   3.968   4.485   4.829
    1C        C  333   4.052   4.475   4.940
    1C        C  334   4.547   3.268   2.062
    1C        C  335   4.529   3.129   2.063
    1C        C  336   4.540   3.350   2.175
    1C        C  337   4.512   3.279   2.294
    1C        C  338   4.518   3.495   2.411
    1C        C  339   4.513   3.354   2.414
    1C        C  340   4.523   3.568   2.532
    1C        C  341   4.525   3.494   2.653
    1C        C  342   4.487   3.705   2.771
    1C        C  343   4.516   3.567   2.774
    1C        C  344   4.471   3.777   2.892
    1C        C  345   4.489   3.712   3.016
    1C        C  346   4.421   3.914   3.136
    1C        C  347   4.471   3.781   3.137
    1C        C  348   4.394   3.979   3.258
    1C        C  349   4.423   3.915   3.380
    1C        C  350   4.319   4.102   3.501
    1C        C  351   4.395   3.982   3.502
    1C        C  352   4.272   4.160   3.620
    1C        C  353   4.317   4.104   3.742
    1C        C  354   4.177   4.263   3.866
    1C        C  355   4.277   4.163   3.863
    1C        C  356   4.119   4.312   3.985
    1C        C  357   4.169   4.263   4.108
    1C        C  358   4.007   4.399   4.228
    1C        C  359   4.121   4.315   4.230
    1C        C  360   3.953   4.451   4.348
    1C        C  361   4.018   4.420   4.469
    1C        C  362   3.825   4.509   4.592
    1C        C  363   3.954   4.452   4.590
    1C        C  364   3.758   4.543   4.712
    1C        C  365   3.836   4.537   4.829
    1C        C  366   3.626   4.590   4.948
    1C        C  367   3.764   4.574   4.943
    1C        C  368   4.507   3.562   2.049
    1C        C  369   4.523   3.490   2.167
    1C        C  370   4.504   3.704   2.284
    1C        C  371   4.518   3.564   2.287
    1C        C  372   4.489   3.776   2.404
    1C        C  373   4.500   3.707   2.527
    1C        C  374   4.425   3.906   2.646
    1C        C  375   4.473   3.773   2.648
    1C        C  376   4.392   3.973   2.766
    1C        C  377   4.424   3.910   2.889
    1C        C  378   4.315   4.092   3.011
    1C        C  379   4.390   3.972   3.011
    1C        C  380   4.269   4.149   3.131
    1C        C  381   4.311   4.094   3.254
    1C        C  382   4.168   4.247   3.377
    1C        C  383   4.269   4.149   3.377
    1C        C  384   4.116   4.299   3.498
    1C        C  385   4.173   4.261   3.622
    1C        C  386   4.001   4.384   3.741
    1C        C  387   4.120   4.307   3.745
    1C        C  388   3.941   4.424   3.863
    1C        C  389   4.002   4.391   3.986
    1C        C  390   3.812   4.488   4.105
    1C        C  391   3.941   4.429   4.107
    1C        C  392   3.750   4.517   4.229
    1C        C  393   3.821   4.502   4.350
    1C        C  394   3.614   4.551   4.469
    1C        C  395   3.753   4.524   4.472
    1C        C  396   3.544   4.564   4.591
    1C        C  397   3.618   4.566   4.711
    1C        C  398   3.409   4.550   4.836
    1C        C  399   3.547   4.576   4.833
    1C        C  400   3.340   4.520   4.955
    1C        C  401   4.507   3.702   2.046
    1C        C  402   4.456   3.912   2.165
    1C        C  403   4.497   3.777   2.163
    1C        C  404   4.414   3.975   2.285
    1C        C  405   4.437   3.907   2.406
    1C        C  406   4.328   4.095   2.523
    1C        C  407   4.406   3.977   2.526
    1C        C  408   4.277   4.146   2.644
    1C        C  409   4.318   4.093   2.769
    1C        C  410   4.168   4.247   2.888
    1C        C  411   4.269   4.148   2.889
    1C        C  412   4.119   4.296   3.011
    1C        C  413   4.170   4.250   3.134
    1C        C  414   4.001   4.380   3.252
    1C        C  415   4.118   4.300   3.256
    1C        C  416   3.939   4.416   3.373
    1C        C  417   4.002   4.382   3.495
    1C        C  418   3.813   4.475   3.614
    1C        C  419   3.943   4.420   3.617
    1C        C  420   3.745   4.501   3.736
    1C        C  421   3.813   4.482   3.858
    1C        C  422   3.611   4.539   3.982
    1C        C  423   3.750   4.513   3.981
    1C        C  424   3.542   4.547   4.105
    1C        C  425   3.610   4.537   4.228
    1C        C  426   3.398   4.551   4.354
    1C        C  427   3.539   4.549   4.350
    1C        C  428   3.328   4.546   4.477
    1C        C  429   3.403   4.553   4.596
    1C        C  430   3.192   4.516   4.719
    1C        C  431   3.333   4.541   4.718
    1C        C  432   3.122   4.495   4.840
    1C        C  433   3.202   4.497   4.955
    1C        C  434   4.385   4.118   2.052
    1C        C  435   4.446   3.993   2.051
    1C        C  436   4.303   4.156   2.163
    1C        C  437   4.334   4.093   2.286
    1C        C  438   4.180   4.249   2.401
    1C        C  439   4.286   4.156   2.403
    1C        C  440   4.121   4.293   2.521
    1C        C  441   4.176   4.244   2.642
    1C        C  442   4.002   4.371   2.760
    1C        C  443   4.118   4.290   2.763
    1C        C  444   3.944   4.414   2.881
    1C        C  445   4.005   4.379   3.004
    1C        C  446   3.813   4.467   3.125
    1C        C  447   3.942   4.410   3.127
    1C        C  448   3.747   4.495   3.247
    1C        C  449   3.810   4.474   3.372
    1C        C  450   3.606   4.531   3.493
    1C        C  451   3.743   4.498   3.494
    1C        C  452   3.540   4.545   3.617
    1C        C  453   3.608   4.536   3.741
    1C        C  454   3.395   4.547   3.863
    1C        C  455   3.537   4.545   3.862
    1C        C  456   3.330   4.534   3.987
    1C        C  457   3.400   4.547   4.109
    1C        C  458   3.192   4.509   4.234
    1C        C  459   3.329   4.543   4.231
    1C        C  460   3.123   4.487   4.355
    1C        C  461   3.191   4.512   4.477
    1C        C  462   2.991   4.440   4.601
    1C        C  463   3.121   4.494   4.599
    1C        C  464   2.930   4.401   4.723
    1C        C  465   2.988   4.443   4.845
    1C        C  466   2.803   4.337   4.958
    1C        C  467   2.905   4.433   4.961
    1C        C  468   4.124   4.276   2.038
    1C        C  469   4.186   4.238   2.158
    1C        C  470   4.006   4.366   2.276
    1C        C  471   4.124   4.287   2.276
    1C        C  472   3.941   4.404   2.395
    1C        C  473   4.003   4.370   2.518
    1C        C  474   3.808   4.460   2.639
    1C        C  475   3.937   4.402   2.639
    1C        C  476   3.742   4.480   2.762
    1C        C  477   3.813   4.465   2.884
    1C        C  478   3.603   4.513   3.009
    1C        C  479   3.741   4.483   3.005
    1C        C  480   3.534   4.531   3.131
    1C        C  481   3.608   4.520   3.251
    1C        C  482   3.394   4.531   3.374
    1C        C  483   3.535   4.537   3.371
    1C        C  484   3.326   4.528   3.498
    1C        C  485   3.399   4.539   3.618
    1C        C  486   3.192   4.496   3.741
    1C        C  487   3.327   4.535   3.740
    1C        C  488   3.129   4.468   3.865
    1C        C  489   3.195   4.490   3.987
    1C        C  490   3.002   4.416   4.111
    1C        C  491   3.130   4.475   4.112
    1C        C  492   2.938   4.387   4.234
    1C        C  493   2.995   4.427   4.357
    1C        C  494   2.831   4.298   4.481
    1C        C  495   2.935   4.393   4.480
    1C        C  496   2.775   4.253   4.603
    1C        C  497   2.818   4.313   4.723
    1C        C  498   2.666   4.163   4.842
    1C        C  499   2.756   4.272   4.843
    1C        C  500   2.594   4.116   4.953
    1C        C  501   4.002   4.343   2.036
    1C        C  502   3.815   4.454   2.152
    1C        C  503   3.943   4.395   2.152
    1C        C  504   3.744   4.476   2.272
    1C        C  505   3.810   4.457   2.395
    1C        C  506   3.604   4.511   2.519
    1C        C  507   3.742   4.482   2.516
    1C        C  508   3.531   4.514   2.640
    1C        C  509   3.603   4.504   2.762
    1C        C  510   3.394   4.522   2.885
    1C        C  511   3.535   4.518   2.885
    1C        C  512   3.321   4.522   3.006
    1C        C  513   3.393   4.532   3.127
    1C        C  514   3.187   4.494   3.254
    1C        C  515   3.325   4.526   3.251
    1C        C  516   3.120   4.470   3.376
    1C        C  517   3.188   4.497   3.498
    1C        C  518   2.995   4.411   3.623
    1C        C  519   3.121   4.476   3.620
    1C        C  520   2.941   4.371   3.747
    1C        C  521   3.003   4.404   3.869
    1C        C  522   2.833   4.281   3.994
    1C        C  523   2.939   4.374   3.992
    1C        C  524   2.783   4.237   4.119
    1C        C  525   2.835   4.290   4.239
    1C        C  526   2.694   4.132   4.362
    1C        C  527   2.784   4.240   4.361
    1C        C  528   2.659   4.071   4.484
    1C        C  529   2.692   4.139   4.604
    1C        C  530   2.580   3.959   4.728
    1C        C  531   2.639   4.089   4.725
    1C        C  532   2.535   3.900   4.849
    1C        C  533   2.524   3.994   4.957
    1C        C  534   3.617   4.549   2.038
    1C        C  535   3.748   4.501   2.039
    1C        C  536   3.535   4.529   2.154
    1C        C  537   3.605   4.508   2.275
    1C        C  538   3.393   4.517   2.397
    1C        C  539   3.534   4.520   2.397
    1C        C  540   3.322   4.511   2.518
    1C        C  541   3.390   4.515   2.642
    1C        C  542   3.181   4.492   2.764
    1C        C  543   3.320   4.515   2.765
    1C        C  544   3.119   4.466   2.888
    1C        C  545   3.185   4.484   3.012
    1C        C  546   2.989   4.406   3.133
    1C        C  547   3.118   4.463   3.134
    1C        C  548   2.936   4.362   3.256
    1C        C  549   2.996   4.403   3.377
    1C        C  550   2.832   4.275   3.504
    1C        C  551   2.937   4.369   3.501
    1C        C  552   2.782   4.225   3.627
    1C        C  553   2.832   4.282   3.746
    1C        C  554   2.701   4.119   3.874
    1C        C  555   2.787   4.231   3.870
    1C        C  556   2.661   4.062   3.997
    1C        C  557   2.694   4.128   4.118
    1C        C  558   2.593   3.944   4.245
    1C        C  559   2.651   4.072   4.241
    1C        C  560   2.566   3.879   4.367
    1C        C  561   2.597   3.944   4.489
    1C        C  562   2.528   3.745   4.610
    1C        C  563   2.562   3.882   4.611
    1C        C  564   2.513   3.678   4.734
    1C        C  565   2.517   3.758   4.851
    1C        C  566   2.528   3.547   4.977
    1C        C  567   2.523   3.685   4.970
    1C        C  568   3.326   4.473   2.040
    1C        C  569   3.394   4.513   2.156
    1C        C  570   3.181   4.475   2.281
    1C        C  571   3.319   4.510   2.276
    1C        C  572   3.113   4.455   2.403
    1C        C  573   3.183   4.484   2.523
    1C        C  574   2.984   4.407   2.646
    1C        C  575   3.111   4.470   2.643
    1C        C  576   2.929   4.363   2.768
    1C        C  577   2.995   4.398   2.888
    1C        C  578   2.826   4.271   3.014
    1C        C  579   2.933   4.363   3.010
    1C        C  580   2.774   4.223   3.137
    1C        C  581   2.828   4.271   3.258
    1C        C  582   2.693   4.114   3.385
    1C        C  583   2.780   4.224   3.383
    1C        C  584   2.653   4.055   3.507
    1C        C  585   2.694   4.115   3.628
    1C        C  586   2.595   3.934   3.756
    1C        C  587   2.659   4.059   3.753
    1C        C  588   2.570   3.869   3.879
    1C        C  589   2.602   3.933   4.001
    1C        C  590   2.535   3.736   4.129
    1C        C  591   2.572   3.873   4.124
    1C        C  592   2.521   3.668   4.251
    1C        C  593   2.530   3.742   4.371
    1C        C  594   2.510   3.528   4.499
    1C        C  595   2.520   3.669   4.492
    1C        C  596   2.511   3.460   4.622
    1C        C  597   2.508   3.536   4.742
    1C        C  598   2.533   3.324   4.865
    1C        C  599   2.520   3.465   4.863
    1C        C  600   2.529   3.243   4.980
    1C        C  601   3.194   4.433   2.042
    1C        C  602   2.983   4.387   2.157
    1C        C  603   3.117   4.437   2.160
    1C        C  604   2.922   4.359   2.282
    1C        C  605   2.987   4.393   2.403
    1C        C  606   2.817   4.270   2.528
    1C        C  607   2.926   4.359   2.527
    1C        C  608   2.772   4.218   2.651
    1C        C  609   2.821   4.272   2.772
    1C        C  610   2.686   4.108   2.895
    1C        C  611   2.772   4.220   2.894
    1C        C  612   2.651   4.048   3.018
    1C        C  613   2.691   4.109   3.139
    1C        C  614   2.596   3.924   3.266
    1C        C  615   2.656   4.052   3.263
    1C        C  616   2.570   3.861   3.390
    1C        C  617   2.593   3.927   3.513
    1C        C  618   2.527   3.728   3.637
    1C        C  619   2.564   3.864   3.637
    1C        C  620   2.514   3.660   3.761
    1C        C  621   2.533   3.732   3.880
    1C        C  622   2.514   3.527   4.010
    1C        C  623   2.524   3.668   4.006
    1C        C  624   2.517   3.454   4.131
    1C        C  625   2.515   3.527   4.252
    1C        C  626   2.537   3.320   4.377
    1C        C  627   2.513   3.459   4.376
    1C        C  628   2.559   3.254   4.500
    1C        C  629   2.539   3.322   4.622
    1C        C  630   2.593   3.117   4.744
    1C        C  631   2.552   3.254   4.745
    1C        C  632   2.614   3.045   4.864
    1C        C  633   2.559   3.106   4.981
    1C        C  634   2.778   4.305   2.059
    1C        C  635   2.893   4.383   2.046
    1C        C  636   2.745   4.229   2.172
    1C        C  637   2.808   4.275   2.289
    1C        C  638   2.678   4.104   2.410
    1C        C  639   2.757   4.221   2.409
    1C        C  640   2.642   4.044   2.532
    1C        C  641   2.686   4.106   2.651
    1C        C  642   2.588   3.918   2.778
    1C        C  643   2.650   4.045   2.773
    1C        C  644   2.564   3.852   2.900
    1C        C  645   2.593   3.920   3.020
    1C        C  646   2.529   3.722   3.147
    1C        C  647   2.568   3.857   3.145
    1C        C  648   2.514   3.653   3.269
    1C        C  649   2.533   3.725   3.390
    1C        C  650   2.507   3.519   3.518
    1C        C  651   2.522   3.659   3.514
    1C        C  652   2.514   3.449   3.640
    1C        C  653   2.510   3.519   3.763
    1C        C  654   2.534   3.315   3.888
    1C        C  655   2.509   3.454   3.889
    1C        C  656   2.552   3.247   4.010
    1C        C  657   2.537   3.314   4.134
    1C        C  658   2.603   3.115   4.257
    1C        C  659   2.550   3.246   4.257
    1C        C  660   2.639   3.058   4.381
    1C        C  661   2.601   3.119   4.503
    1C        C  662   2.705   2.933   4.621
    1C        C  663   2.629   3.052   4.624
    1C        C  664   2.744   2.871   4.742
    1C        C  665   2.692   2.925   4.863
    1C        C  666   2.744   2.872   4.982
    1C        C  667   2.679   4.022   2.053
    1C        C  668   2.681   4.103   2.167
    1C        C  669   2.584   3.912   2.286
    1C        C  670   2.644   4.041   2.288
    1C        C  671   2.555   3.850   2.410
    1C        C  672   2.581   3.916   2.531
    1C        C  673   2.516   3.719   2.657
    1C        C  674   2.557   3.854   2.656
    1C        C  675   2.508   3.647   2.778
    1C        C  676   2.525   3.716   2.900
    1C        C  677   2.495   3.511   3.027
    1C        C  678   2.513   3.651   3.025
    1C        C  679   2.500   3.441   3.149
    1C        C  680   2.501   3.513   3.271
    1C        C  681   2.528   3.308   3.399
    1C        C  682   2.504   3.447   3.396
    1C        C  683   2.549   3.239   3.520
    1C        C  684   2.533   3.309   3.642
    1C        C  685   2.599   3.112   3.772
    1C        C  686   2.548   3.243   3.767
    1C        C  687   2.631   3.047   3.893
    1C        C  688   2.600   3.114   4.013
    1C        C  689   2.713   2.934   4.137
    1C        C  690   2.631   3.050   4.135
    1C        C  691   2.757   2.879   4.260
    1C        C  692   2.715   2.938   4.381
    1C        C  693   2.754   2.877   4.502
    1C        C  694   2.627   3.892   2.051
    1C        C  695   2.525   3.704   2.176
    1C        C  696   2.577   3.835   2.169
    1C        C  697   2.502   3.637   2.298
    1C        C  698   2.518   3.714   2.415
    1C        C  699   2.488   3.504   2.539
    1C        C  700   2.497   3.645   2.537
    1C        C  701   2.496   3.435   2.662
    1C        C  702   2.498   3.506   2.784
    1C        C  703   2.525   3.298   2.908
    1C        C  704   2.499   3.437   2.907
    1C        C  705   2.544   3.233   3.033
    1C        C  706   2.529   3.303   3.154
    1C        C  707   2.597   3.104   3.277
    1C        C  708   2.546   3.236   3.278
    1C        C  709   2.631   3.044   3.400
    1C        C  710   2.601   3.107   3.522
    1C        C  711   2.703   2.929   3.649
    1C        C  712   2.629   3.050   3.648
    1C        C  713   2.751   2.877   3.771
    1C        C  714   2.712   2.930   3.896
    1C        C  715   2.756   2.874   4.017
    1C        C  716   2.452   3.498   2.060
    1C        C  717   2.496   3.632   2.059
    1C        C  718   2.460   3.421   2.180
    1C        C  719   2.481   3.496   2.299
    1C        C  720   2.504   3.287   2.421
    1C        C  721   2.480   3.426   2.422
    1C        C  722   2.528   3.221   2.543
    1C        C  723   2.518   3.295   2.662
    1C        C  724   2.591   3.099   2.787
    1C        C  725   2.535   3.228   2.786
    1C        C  726   2.620   3.035   2.910
    1C        C  727   2.587   3.098   3.032
    1C        C  728   2.708   2.926   3.155
    1C        C  729   2.623   3.038   3.155
    1C        C  730   2.752   2.872   3.279
    1C        C  731   2.711   2.927   3.402
    1C        C  732   2.749   2.875   3.527
    1C        C  733   2.491   3.200   2.068
    1C        C  734   2.481   3.279   2.183
    1C        C  735   2.585   3.086   2.301
    1C        C  736   2.516   3.210   2.303
    1C        C  737   2.619   3.027   2.425
    1C        C  738   2.584   3.091   2.546
    1C        C  739   2.698   2.911   2.670
    1C        C  740   2.623   3.031   2.667
    1C        C  741   2.742   2.856   2.792
    1C        C  742   2.700   2.919   2.911
    1C        C  743   2.747   2.866   3.033
    1C        C  744   2.539   3.070   2.069
    1C        C  745   2.678   2.896   2.186
    1C        C  746   2.606   3.017   2.180
    1C        C  747   2.721   2.837   2.307
    1C        C  748   2.689   2.904   2.427
    1C        C  749   2.742   2.855   2.548
    1C        C  750   2.735   2.841   2.070
    1C        C  751   3.675   2.328   1.969
    1C        O  752   3.701   2.209   2.001
    1C        O  753   3.648   2.359   1.835
    1C        C  754   4.593   3.052   1.954
    1C        O  755   4.583   3.090   1.834
    1C        O  756   4.708   2.974   1.974
    1C        C  757   4.455   4.228   1.981
    1C        O  758   4.530   4.310   2.040
    1C        O  759   4.414   4.262   1.852
    1C        C  760   3.598   4.667   1.951
    1C        O  761   3.654   4.780   1.959
    1C        O  762   3.512   4.649   1.842
    1C        C  763   2.881   4.484   1.937
    1C        O  764   2.896   4.436   1.821
    1C        O  765   2.782   4.583   1.942
    1C        C  766   2.336   3.474   1.972
    1C        O  767   2.356   3.444   1.851
    1C        O  768   2.205   3.469   2.020
    1C        C  769   4.697   3.592   5.044
    1C        O  770   4.685   3.579   5.169
    1C        O  771   4.820   3.547   4.995
    1C        C  772   4.265   4.428   5.055
    1C        O  773   4.242   4.397   5.176
    1C        O  774   4.361   4.529   5.044
    1C        C  775   4.150   2.526   5.062
    1C        O  776   4.218   2.433   5.011
    1C        O  777   4.148   2.523   5.202
    1C        C  778   2.893   4.536   5.066
    1C        O  779   2.870   4.655   5.032
    1C        O  780   2.900   4.517   5.205
    1C        C  781   2.465   3.025   5.061
    1C        O  782   2.372   2.962   5.003
    1C        O  783   2.489   2.983   5.192
    1C        C  784   2.430   3.975   5.070
    1C        O  785   2.314   4.022   5.057
    1C        O  786   2.486   4.004   5.194
    1C        C  787   2.944   2.444   1.987
    1C        O  788   2.973   2.446   1.865
    1C        O  789   2.860   2.341   2.029
    1C        C  790   3.155   2.355   5.031
    1C        O  791   3.209   2.257   4.974
    1C        O  792   3.128   2.335   5.167
    1C        H  793   4.345   2.975   5.068
    1C        H  794   4.185   2.804   5.073
    1C        H  795   4.517   3.130   5.053
    1C        H  796   4.544   3.353   5.065
    1C        H  797   4.552   3.804   5.052
    1C        H  798   4.450   3.994   5.050
    1C        H  799   4.268   4.164   5.038
    1C        H  800   4.043   4.550   5.016
    1C        H  801   3.816   4.635   5.015
    1C        H  802   3.578   4.612   5.040
    1C        H  803   3.391   4.487   5.042
    1C        H  804   3.163   4.443   5.038
    1C        H  805   3.872   2.528   5.072
    1C        H  806   3.663   2.427   5.064
    1C        H  807   3.005   2.558   5.070
    1C        H  808   3.426   2.478   5.072
    1C        H  809   2.877   2.737   5.075
    1C        H  810   2.725   2.930   5.070
    1C        H  811   2.475   3.283   5.063
    1C        H  812   2.568   3.506   5.068
    1C        H  813   2.495   3.736   5.060
    1C        H  814   2.635   4.147   5.047
    1C        H  815   2.792   4.278   5.047
    1C        H  816   2.687   2.868   1.978
    1C        H  817   2.862   2.710   1.975
    1C        H  818   3.203   2.416   1.991
    1C        H  819   3.417   2.373   1.994
    1C        H  820   3.855   2.495   1.974
    1C        H  821   4.071   2.613   1.970
    1C        H  822   4.278   2.700   1.985
    1C        H  823   4.378   2.910   1.964
    1C        H  824   4.572   3.311   1.967
    1C        H  825   4.477   3.510   1.960
    1C        H  826   4.467   3.739   1.954
    1C        H  827   3.805   4.523   1.950
    1C        H  828   3.933   4.310   1.961
    1C        H  829   4.182   4.275   1.948
    1C        H  830   4.496   3.955   1.964
    1C        H  831   2.653   3.834   1.965
    1C        H  832   2.737   4.058   1.970
    1C        H  833   2.694   4.326   1.995
    1C        H  834   3.373   4.463   1.945
    1C        H  835   3.140   4.436   1.950
    1C        H  836   2.469   3.003   2.024
    1C        H  837   2.408   3.217   2.003
    1C        H  838   2.459   3.691   1.978
    2V3OU   H29  839   2.800   3.541   0.795
    2V3OU   C27  840   2.775   3.504   0.898
    2V3OU   H27  841   2.714   3.576   0.958
    2V3OU   H28  842   2.731   3.401   0.892
    2V3OU   O11  843   2.900   3.480   0.963
    2V3OU   C15  844   2.917   3.400   1.074
    2V3OU   C13  845   3.047   3.374   1.121
    2V3OU   C14  846   3.073   3.266   1.207
    2V3OU   C16  847   2.969   3.183   1.246
    2V3OU    H6  848   2.991   3.096   1.311
    2V3OU   C12  849   3.210   3.229   1.248
    2V3OU    O2  850   3.228   3.115   1.296
    2V3OU   C10  851   3.324   3.305   1.195
    2V3OU    C8  852   3.457   3.264   1.207
    2V3OU   O10  853   3.489   3.154   1.279
    2V3OU   H26  854   3.403   3.114   1.297
    2V3OU    C6  855   3.565   3.344   1.157
    2V3OU    C5  856   3.536   3.464   1.094
    2V3OU    C4  857   3.706   3.296   1.159
    2V3OU    H4  858   3.724   3.229   1.249
    2V3OU    H5  859   3.717   3.224   1.074
    2V3OU    C2  860   3.817   3.402   1.154
    2V3OU    O6  861   3.802   3.472   1.277
    2V3OU   H21  862   3.760   3.552   1.242
    2V3OU    C3  863   3.782   3.496   1.038
    2V3OU    H2  864   3.865   3.569   1.021
    2V3OU    H3  865   3.779   3.436   0.943
    2V3OU   C25  866   3.952   3.330   1.140
    2V3OU    O7  867   4.000   3.301   1.031
    2V3OU   C26  868   4.026   3.290   1.266
    2V3OU   H22  869   4.061   3.382   1.318
    2V3OU   H23  870   4.117   3.230   1.240
    2V3OU    O8  871   3.962   3.205   1.358
    2V3OU   H24  872   3.917   3.263   1.421
    2V3OU    C1  873   3.646   3.560   1.058
    2V3OU    H1  874   3.621   3.617   0.964
    2V3OU    O3  875   3.658   3.650   1.168
    2V3OU   C19  876   3.616   3.786   1.152
    2V3OU    H9  877   3.517   3.790   1.098
    2V3OU    O4  878   3.708   3.850   1.066
    2V3OU   C20  879   3.840   3.872   1.117
    2V3OU   H10  880   3.890   3.772   1.134
    2V3OU   C24  881   3.608   3.854   1.289
    2V3OU   H16  882   3.542   3.792   1.354
    2V3OU   H17  883   3.565   3.955   1.267
    2V3OU   C23  884   3.748   3.873   1.348
    2V3OU   H15  885   3.792   3.770   1.367
    2V3OU    N1  886   3.732   3.948   1.471
    2V3OU   H19  887   3.808   3.928   1.533
    2V3OU   H20  888   3.649   3.928   1.524
    2V3OU   C21  889   3.845   3.947   1.250
    2V3OU   H11  890   3.949   3.927   1.290
    2V3OU    O5  891   3.819   4.087   1.253
    2V3OU   H18  892   3.776   4.104   1.338
    2V3OU   C22  893   3.910   3.946   1.004
    2V3OU   H12  894   3.863   4.045   0.982
    2V3OU   H13  895   3.901   3.888   0.908
    2V3OU   H14  896   4.017   3.962   1.031
    2V3OU   C11  897   3.156   3.470   1.097
    2V3OU    O1  898   3.132   3.586   1.055
    2V3OU    C9  899   3.294   3.423   1.122
    2V3OU    C7  900   3.399   3.500   1.073
    2V3OU    O9  901   3.386   3.612   0.994
    2V3OU   H25  902   3.291   3.627   0.982
    2V3OU   C17  903   2.817   3.314   1.124
    2V3OU    H7  904   2.720   3.339   1.082
    2V3OU   C18  905   2.837   3.205   1.209
    2V3OU    H8  906   2.756   3.140   1.245
    3SOL     OW  907   0.569   4.610   0.694
    3SOL    HW1  908   0.485   4.608   0.747
    3SOL    HW2  909   0.576   4.527   0.638
    4SOL     OW  910   5.759   0.853   2.143
    4SOL    HW1  911   5.739   0.759   2.171
    4SOL    HW2  912   5.819   0.852   2.063
    5SOL     OW  913   3.884   2.981   1.200
    5SOL    HW1  914   3.934   3.054   1.246
    5SOL    HW2  915   3.828   2.932   1.267
    6SOL     OW  916   3.218   2.628   0.239
    6SOL    HW1  917   3.228   2.577   0.153
    6SOL    HW2  918   3.179   2.568   0.309
    7SOL     OW  919   5.491   0.711   1.870
    7SOL    HW1  920   5.548   0.792   1.883
    7SOL    HW2  921   5.518   0.664   1.786
    8SOL     OW  922   3.393   2.064   3.399
    8SOL    HW1  923   3.472   2.065   3.338
    8SOL    HW2  924   3.313   2.100   3.350
    9SOL     OW  925   6.387   4.321   6.144
    9SOL    HW1  926   6.453   4.356   6.078
    9SOL    HW2  927   6.418   4.340   6.237
   10SOL     OW  928   6.959   4.659   1.192
   10SOL    HW1  929   6.897   4.675   1.269
   10SOL    HW2  930   6.906   4.656   1.107
   11SOL     OW  931   4.141   6.924   6.739
   11SOL    HW1  932   4.093   6.842   6.769
   11SOL    HW2  933   4.083   6.976   6.676
   12SOL     OW  934   5.376   6.928   2.168
   12SOL    HW1  935   5.464   6.973   2.152
   12SOL    HW2  936   5.367   6.851   2.105
   13SOL     OW  937   2.296   0.058   2.630
   13SOL    HW1  938   2.258   0.096   2.545
   13SOL    HW2  939   2.223   0.018   2.684
   14SOL     OW  940   2.899   0.214   3.201
   14SOL    HW1  941   2.810   0.256   3.222
   14SOL    HW2  942   2.965   0.285   3.178
   15SOL     OW  943   2.456   6.348   6.165
   15SOL    HW1  944   2.495   6.269   6.117
   15SOL    HW2  945   2.410   6.408   6.100
   16SOL     OW  946   6.491   2.337   6.959
   16SOL    HW1  947   6.395   2.315   6.941
   16SOL    HW2  948   6.499   2.378   0.030
   17SOL     OW  949   4.271   5.834   2.862
   17SOL    HW1  950   4.207   5.910   2.872
   17SOL    HW2  951   4.229   5.762   2.806
   18SOL     OW  952   1.367   0.722   6.772
   18SOL    HW1  953   1.354   0.656   6.847
   18SOL    HW2  954   1.296   0.709   6.703
   19SOL     OW  955   1.086   6.885   1.304
   19SOL    HW1  956   1.087   6.895   1.404
   19SOL    HW2  957   1.042   6.965   1.263
   20SOL     OW  958   3.499   0.493   4.246
   20SOL    HW1  959   3.433   0.440   4.194
   20SOL    HW2  960   3.590   0.482   4.206
   21SOL     OW  961   2.861   3.251   1.594
   21SOL    HW1  962   2.767   3.218   1.601
   21SOL    HW2  963   2.871   3.307   1.512
   22SOL     OW  964   1.125   1.456   5.332
   22SOL    HW1  965   1.142   1.513   5.412
   22SOL    HW2  966   1.057   1.499   5.273
   23SOL     OW  967   2.641   6.273   5.046
   23SOL    HW1  968   2.548   6.269   5.010
   23SOL    HW2  969   2.638   6.269   5.146
   24SOL     OW  970   4.171   1.663   5.253
   24SOL    HW1  971   4.242   1.730   5.277
   24SOL    HW2  972   4.107   1.705   5.189
   25SOL     OW  973   2.264   5.720   0.845
   25SOL    HW1  974   2.204   5.639   0.849
   25SOL    HW2  975   2.212   5.801   0.869
   26SOL     OW  976   5.664   1.181   2.789
   26SOL    HW1  977   5.724   1.154   2.865
   26SOL    HW2  978   5.604   1.255   2.819
   27SOL     OW  979   5.904   0.302   2.575
   27SOL    HW1  980   5.921   0.206   2.600
   27SOL    HW2  981   5.895   0.357   2.658
   28SOL     OW  982   2.893   0.902   0.273
   28SOL    HW1  983   2.958   0.978   0.273
   28SOL    HW2  984   2.817   0.924   0.210
   29SOL     OW  985   4.736   2.965   1.633
   29SOL    HW1  986   4.690   2.998   1.715
   29SOL    HW2  987   4.824   2.925   1.658
   30SOL     OW  988   3.988   1.647   5.783
   30SOL    HW1  989   4.025   1.712   5.717
   30SOL    HW2  990   3.907   1.687   5.827
   31SOL     OW  991   0.628   1.685   5.232
   31SOL    HW1  992   0.719   1.670   5.272
   31SOL    HW2  993   0.572   1.738   5.295
   32SOL     OW  994   6.829   1.980   2.009
   32SOL    HW1  995   6.884   2.002   2.090
   32SOL    HW2  996   6.783   1.893   2.023
   33SOL     OW  997   1.519   1.427   5.223
   33SOL    HW1  998   1.532   1.379   5.136
   33SOL    HW2  999   1.536   1.365   5.299
   34SOL     OW 1000   0.524   1.321   5.013
   34SOL    HW1 1001   0.521   1.391   5.085
   34SOL    HW2 1002   0.566   1.359   4.931
   35SOL     OW 1003   4.344   2.176   6.467
   35SOL    HW1 1004   4.245   2.182   6.483
   35SOL    HW2 1005   4.391   2.158   6.553
   36SOL     OW 1006   0.908   2.045   5.703
   36SOL    HW1 1007   0.898   2.116   5.773
   36SOL    HW2 1008   0.886   2.083   5.614
   37SOL     OW 1009   3.060   6.600   1.849
   37SOL    HW1 1010   3.142   6.566   1.801
   37SOL    HW2 1011   3.088   6.658   1.925
   38SOL     OW 1012   0.034   6.057   1.870
   38SOL    HW1 1013   0.132   6.064   1.848
   38SOL    HW2 1014   0.005   5.962   1.863
   39SOL     OW 1015   6.903   2.631   6.381
   39SOL    HW1 1016   6.910   2.676   6.470
   39SOL    HW2 1017   6.809   2.642   6.346
   40SOL     OW 1018   6.977   1.383   1.722
   40SOL    HW1 1019   0.031   1.377   1.654
   40SOL    HW2 1020   6.892   1.350   1.682
   41SOL     OW 1021   1.200   0.810   6.174
   41SOL    HW1 1022   1.280   0.811   6.115
   41SOL    HW2 1023   1.166   0.903   6.186
   42SOL     OW 1024   3.680   0.059   0.499
   42SOL    HW1 1025   3.609   0.122   0.470
   42SOL    HW2 1026   3.694   7.008   0.430
   43SOL     OW 1027   4.576   5.812   5.433
   43SOL    HW1 1028   4.489   5.779   5.469
   43SOL    HW2 1029   4.595   5.766   5.346
   44SOL     OW 1030   1.006   4.019   6.884
   44SOL    HW1 1031   1.024   4.013   6.786
   44SOL    HW2 1032   0.907   4.023   6.899
   45SOL     OW 1033   2.276   0.399   1.569
   45SOL    HW1 1034   2.309   0.478   1.518
   45SOL    HW2 1035   2.258   0.425   1.663
   46SOL     OW 1036   0.852   5.434   3.709
   46SOL    HW1 1037   0.802   5.370   3.650
   46SOL    HW2 1038   0.788   5.502   3.745
   47SOL     OW 1039   5.860   4.412   2.979
   47SOL    HW1 1040   5.796   4.354   2.928
   47SOL    HW2 1041   5.896   4.361   3.057
   48SOL     OW 1042   0.464   1.433   5.776
   48SOL    HW1 1043   0.505   1.378   5.703
   48SOL    HW2 1044   0.490   1.394   5.865
   49SOL     OW 1045   5.946   3.225   0.245
   49SOL    HW1 1046   6.013   3.248   0.316
   49SOL    HW2 1047   5.911   3.309   0.204
   50SOL     OW 1048   0.625   3.855   4.516
   50SOL    HW1 1049   0.636   3.935   4.575
   50SOL    HW2 1050   0.676   3.868   4.432
   51SOL     OW 1051   3.545   5.783   2.162
   51SOL    HW1 1052   3.607   5.707   2.142
   51SOL    HW2 1053   3.472   5.752   2.222
   52SOL     OW 1054   0.711   2.271   2.033
   52SOL    HW1 1055   0.697   2.173   2.025
   52SOL    HW2 1056   0.796   2.289   2.084
   53SOL     OW 1057   4.503   6.523   3.862
   53SOL    HW1 1058   4.507   6.619   3.889
   53SOL    HW2 1059   4.585   6.500   3.809
   54SOL     OW 1060   5.195   4.571   5.301
   54SOL    HW1 1061   5.111   4.610   5.338
   54SOL    HW2 1062   5.208   4.478   5.336
   55SOL     OW 1063   3.490   2.269   1.097
   55SOL    HW1 1064   3.551   2.290   1.174
   55SOL    HW2 1065   3.494   2.171   1.078
   56SOL     OW 1066   0.599   0.214   1.978
   56SOL    HW1 1067   0.540   0.161   1.916
   56SOL    HW2 1068   0.628   0.157   2.054
   57SOL     OW 1069   5.622   0.499   0.838
   57SOL    HW1 1070   5.571   0.579   0.805
   57SOL    HW2 1071   5.575   0.416   0.807
   58SOL     OW 1072   6.467   0.099   6.931
   58SOL    HW1 1073   6.416   0.027   6.884
   58SOL    HW2 1074   6.557   0.109   6.888
   59SOL     OW 1075   0.569   7.002   5.365
   59SOL    HW1 1076   0.574   6.932   5.293
   59SOL    HW2 1077   0.489   6.984   5.423
   60SOL     OW 1078   4.948   0.032   4.830
   60SOL    HW1 1079   5.025   0.095   4.842
   60SOL    HW2 1080   4.981   6.963   4.799
   61SOL     OW 1081   3.845   6.911   5.561
   61SOL    HW1 1082   3.889   6.994   5.526
   61SOL    HW2 1083   3.756   6.900   5.517
   62SOL     OW 1084   2.727   0.457   5.023
   62SOL    HW1 1085   2.784   0.378   4.999
   62SOL    HW2 1086   2.785   0.530   5.059
   63SOL     OW 1087   0.044   3.130   3.396
   63SOL    HW1 1088   0.078   3.111   3.488
   63SOL    HW2 1089   0.121   3.147   3.335
   64SOL     OW 1090   0.100   2.584   5.626
   64SOL    HW1 1091   0.177   2.536   5.666
   64SOL    HW2 1092   0.020   2.524   5.623
   65SOL     OW 1093   0.986   3.861   6.242
   65SOL    HW1 1094   0.897   3.878   6.285
   65SOL    HW2 1095   0.976   3.867   6.143
   66SOL     OW 1096   2.565   0.889   1.390
   66SOL    HW1 1097   2.645   0.926   1.344
   66SOL    HW2 1098   2.589   0.803   1.435
   67SOL     OW 1099   4.896   5.157   4.548
   67SOL    HW1 1100   4.928   5.164   4.454
   67SOL    HW2 1101   4.846   5.071   4.560
   68SOL     OW 1102   5.619   3.037   6.863
   68SOL    HW1 1103   5.538   3.070   6.910
   68SOL    HW2 1104   5.603   3.038   6.764
   69SOL     OW 1105   2.549   2.868   5.830
   69SOL    HW1 1106   2.540   2.966   5.814
   69SOL    HW2 1107   2.467   2.821   5.798
   70SOL     OW 1108   5.779   6.993   2.481
   70SOL    HW1 1109   5.775   0.064   2.439
   70SOL    HW2 1110   5.732   6.927   2.423
   71SOL     OW 1111   2.027   4.234   2.310
   71SOL    HW1 1112   1.991   4.151   2.353
   71SOL    HW2 1113   1.963   4.310   2.325
   72SOL     OW 1114   3.579   5.188   3.333
   72SOL    HW1 1115   3.549   5.258   3.397
   72SOL    HW2 1116   3.518   5.187   3.253
   73SOL     OW 1117   3.722   2.878   6.503
   73SOL    HW1 1118   3.747   2.926   6.587
   73SOL    HW2 1119   3.623   2.883   6.491
   74SOL     OW 1120   5.124   6.642   6.065
   74SOL    HW1 1121   5.096   6.606   6.154
   74SOL    HW2 1122   5.095   6.737   6.056
   75SOL     OW 1123   3.504   5.130   4.991
   75SOL    HW1 1124   3.527   5.089   5.079
   75SOL    HW2 1125   3.577   5.113   4.926
   76SOL     OW 1126   2.592   3.176   0.909
   76SOL    HW1 1127   2.507   3.224   0.889
   76SOL    HW2 1128   2.576   3.108   0.980
   77SOL     OW 1129   5.990   4.070   6.556
   77SOL    HW1 1130   5.960   4.162   6.533
   77SOL    HW2 1131   6.066   4.043   6.497
   78SOL     OW 1132   6.031   6.680   6.051
   78SOL    HW1 1133   6.069   6.705   6.140
   78SOL    HW2 1134   6.001   6.762   6.003
   79SOL     OW 1135   3.134   6.999   0.616
   79SOL    HW1 1136   3.153   0.031   0.532
   79SOL    HW2 1137   3.214   6.944   0.640
   80SOL     OW 1138   0.477   1.228   4.297
   80SOL    HW1 1139   0.408   1.172   4.251
   80SOL    HW2 1140   0.532   1.275   4.227
   81SOL     OW 1141   2.157   0.138   3.155
   81SOL    HW1 1142   2.142   0.041   3.136
   81SOL    HW2 1143   2.097   0.168   3.228
   82SOL     OW 1144   6.674   4.756   5.955
   82SOL    HW1 1145   6.590   4.750   6.010
   82SOL    HW2 1146   6.652   4.739   5.859
   83SOL     OW 1147   6.489   6.580   5.645
   83SOL    HW1 1148   6.554   6.580   5.568
   83SOL    HW2 1149   6.408   6.632   5.620
   84SOL     OW 1150   6.933   3.963   1.594
   84SOL    HW1 1151   6.985   4.035   1.547
   84SOL    HW2 1152   6.866   4.005   1.655
   85SOL     OW 1153   0.499   0.753   5.034
   85SOL    HW1 1154   0.502   0.853   5.025
   85SOL    HW2 1155   0.567   0.712   4.973
   86SOL     OW 1156   2.037   1.225   4.793
   86SOL    HW1 1157   2.046   1.289   4.717
   86SOL    HW2 1158   1.943   1.225   4.826
   87SOL     OW 1159   4.449   6.921   1.529
   87SOL    HW1 1160   4.505   6.987   1.479
   87SOL    HW2 1161   4.368   6.898   1.475
   88SOL     OW 1162   6.116   1.114   1.641
   88SOL    HW1 1163   6.055   1.175   1.589
   88SOL    HW2 1164   6.063   1.036   1.674
   89SOL     OW 1165   1.634   1.719   5.209
   89SOL    HW1 1166   1.640   1.747   5.113
   89SOL    HW2 1167   1.616   1.621   5.214
   90SOL     OW 1168   6.508   6.057   3.758
   90SOL    HW1 1169   6.458   5.989   3.704
   90SOL    HW2 1170   6.594   6.080   3.712
   91SOL     OW 1171   4.415   4.994   4.726
   91SOL    HW1 1172   4.345   5.055   4.764
   91SOL    HW2 1173   4.504   5.018   4.765
   92SOL     OW 1174   3.510   5.750   1.474
   92SOL    HW1 1175   3.544   5.661   1.444
   92SOL    HW2 1176   3.420   5.740   1.515
   93SOL     OW 1177   3.076   5.036   6.056
   93SOL    HW1 1178   2.983   5.030   6.093
   93SOL    HW2 1179   3.117   4.945   6.055
   94SOL     OW 1180   1.988   6.605   1.848
   94SOL    HW1 1181   2.013   6.683   1.792
   94SOL    HW2 1182   2.069   6.571   1.896
   95SOL     OW 1183   6.615   0.092   5.153
   95SOL    HW1 1184   6.613   0.126   5.247
   95SOL    HW2 1185   6.706   0.057   5.132
   96SOL     OW 1186   1.779   6.941   5.198
   96SOL    HW1 1187   1.859   6.982   5.243
   96SOL    HW2 1188   1.806   6.906   5.108
   97SOL     OW 1189   6.232   2.681   4.407
   97SOL    HW1 1190   6.293   2.629   4.467
   97SOL    HW2 1191   6.153   2.713   4.460
   98SOL     OW 1192   5.016   1.058   5.753
   98SOL    HW1 1193   4.993   0.972   5.708
   98SOL    HW2 1194   5.040   1.040   5.849
   99SOL     OW 1195   4.919   1.762   0.815
   99SOL    HW1 1196   4.863   1.679   0.809
   99SOL    HW2 1197   4.990   1.749   0.884
  100SOL     OW 1198   6.236   5.626   6.328
  100SOL    HW1 1199   6.287   5.550   6.289
  100SOL    HW2 1200   6.288   5.711   6.316
  101SOL     OW 1201   1.293   6.898   4.089
  101SOL    HW1 1202   1.305   6.915   4.187
  101SOL    HW2 1203   1.380   6.909   4.042
  102SOL     OW 1204   4.346   0.371   2.971
  102SOL    HW1 1205   4.286   0.448   2.994
  102SOL    HW2 1206   4.306   0.287   3.006
  103SOL     OW 1207   3.824   1.869   1.869
  103SOL    HW1 1208   3.759   1.908   1.803
  103SOL    HW2 1209   3.873   1.943   1.915
  104SOL     OW 1210   6.571   6.023   2.277
  104SOL    HW1 1211   6.605   6.110   2.241
  104SOL    HW2 1212   6.644   5.979   2.330
  105SOL     OW 1213   5.439   0.780   6.371
  105SOL    HW1 1214   5.381   0.861   6.361
  105SOL    HW2 1215   5.407   0.709   6.308
  106SOL     OW 1216   3.453   6.696   1.563
  106SOL    HW1 1217   3.524   6.686   1.632
  106SOL    HW2 1218   3.494   6.699   1.472
  107SOL     OW 1219   2.529   3.614   0.143
  107SOL    HW1 1220   2.517   3.530   0.089
  107SOL    HW2 1221   2.625   3.643   0.138
  108SOL     OW 1222   4.801   4.278   4.961
  108SOL    HW1 1223   4.822   4.250   5.054
  108SOL    HW2 1224   4.885   4.287   4.909
  109SOL     OW 1225   6.142   0.888   1.952
  109SOL    HW1 1226   6.108   0.913   1.861
  109SOL    HW2 1227   6.080   0.821   1.993
  110SOL     OW 1228   3.608   6.371   4.496
  110SOL    HW1 1229   3.701   6.364   4.460
  110SOL    HW2 1230   3.600   6.320   4.581
  111SOL     OW 1231   3.071   1.237   3.403
  111SOL    HW1 1232   3.049   1.330   3.372
  111SOL    HW2 1233   3.143   1.199   3.344
  112SOL     OW 1234   0.003   1.115   6.603
  112SOL    HW1 1235   6.966   1.198   6.599
  112SOL    HW2 1236   0.020   1.082   6.510
  113SOL     OW 1237   6.828   6.604   3.708
  113SOL    HW1 1238   6.770   6.596   3.789
  113SOL    HW2 1239   6.837   6.514   3.664
  114SOL     OW 1240   1.065   6.481   0.575
  114SOL    HW1 1241   1.077   6.399   0.631
  114SOL    HW2 1242   1.044   6.454   0.481
  115SOL     OW 1243   5.116   0.744   5.281
  115SOL    HW1 1244   5.169   0.668   5.243
  115SOL    HW2 1245   5.178   0.818   5.307
  116SOL     OW 1246   6.230   4.044   3.031
  116SOL    HW1 1247   6.140   4.016   2.996
  116SOL    HW2 1248   6.301   4.021   2.965
  117SOL     OW 1249   1.006   6.715   6.554
  117SOL    HW1 1250   1.032   6.660   6.475
  117SOL    HW2 1251   1.066   6.693   6.631
  118SOL     OW 1252   2.098   0.883   2.884
  118SOL    HW1 1253   2.181   0.828   2.885
  118SOL    HW2 1254   2.018   0.823   2.884
  119SOL     OW 1255   6.724   2.541   5.971
  119SOL    HW1 1256   6.753   2.451   5.940
  119SOL    HW2 1257   6.789   2.576   6.039
  120SOL     OW 1258   4.821   6.031   1.680
  120SOL    HW1 1259   4.746   6.057   1.619
  120SOL    HW2 1260   4.783   6.000   1.767
  121SOL     OW 1261   2.859   2.935   5.546
  121SOL    HW1 1262   2.918   2.867   5.589
  121SOL    HW2 1263   2.763   2.904   5.550
  122SOL     OW 1264   1.030   3.172   4.915
  122SOL    HW1 1265   0.944   3.176   4.864
  122SOL    HW2 1266   1.018   3.214   5.005
  123SOL     OW 1267   0.071   2.027   1.596
  123SOL    HW1 1268   0.119   2.068   1.673
  123SOL    HW2 1269   0.027   1.942   1.625
  124SOL     OW 1270   4.773   3.586   1.502
  124SOL    HW1 1271   4.836   3.510   1.517
  124SOL    HW2 1272   4.772   3.645   1.583
  125SOL     OW 1273   2.297   3.605   1.679
  125SOL    HW1 1274   2.334   3.693   1.711
  125SOL    HW2 1275   2.303   3.538   1.753
  126SOL     OW 1276   4.253   4.157   0.744
  126SOL    HW1 1277   4.323   4.156   0.672
  126SOL    HW2 1278   4.199   4.073   0.739
  127SOL     OW 1279   0.664   5.511   5.595
  127SOL    HW1 1280   0.758   5.488   5.572
  127SOL    HW2 1281   0.624   5.567   5.522
  128SOL     OW 1282   4.662   2.528   0.485
  128SOL    HW1 1283   4.653   2.429   0.475
  128SOL    HW2 1284   4.705   2.566   0.404
  129SOL     OW 1285   2.806   3.762   0.121
  129SOL    HW1 1286   2.829   3.848   0.076
  129SOL    HW2 1287   2.864   3.751   0.202
  130SOL     OW 1288   1.625   2.408   4.612
  130SOL    HW1 1289   1.662   2.429   4.703
  130SOL    HW2 1290   1.592   2.491   4.569
  131SOL     OW 1291   5.657   1.559   1.976
  131SOL    HW1 1292   5.722   1.484   1.986
  131SOL    HW2 1293   5.564   1.524   1.982
  132SOL     OW 1294   0.468   2.406   1.972
  132SOL    HW1 1295   0.547   2.353   2.003
  132SOL    HW2 1296   0.391   2.345   1.958
  133SOL     OW 1297   6.726   5.891   3.036
  133SOL    HW1 1298   6.656   5.926   2.974
  133SOL    HW2 1299   6.682   5.852   3.117
  134SOL     OW 1300   1.290   3.503   2.731
  134SOL    HW1 1301   1.285   3.403   2.726
  134SOL    HW2 1302   1.326   3.530   2.820
  135SOL     OW 1303   4.476   1.305   4.075
  135SOL    HW1 1304   4.535   1.295   3.995
  135SOL    HW2 1305   4.384   1.332   4.046
  136SOL     OW 1306   4.999   4.976   5.964
  136SOL    HW1 1307   5.035   4.883   5.978
  136SOL    HW2 1308   4.919   4.990   6.022
  137SOL     OW 1309   3.645   0.910   5.525
  137SOL    HW1 1310   3.642   0.812   5.508
  137SOL    HW2 1311   3.684   0.957   5.445
  138SOL     OW 1312   5.694   4.340   5.569
  138SOL    HW1 1313   5.771   4.347   5.506
  138SOL    HW2 1314   5.717   4.275   5.642
  139SOL     OW 1315   3.244   5.581   6.025
  139SOL    HW1 1316   3.149   5.588   5.995
  139SOL    HW2 1317   3.304   5.621   5.955
  140SOL     OW 1318   6.245   3.678   4.731
  140SOL    HW1 1319   6.212   3.760   4.778
  140SOL    HW2 1320   6.259   3.698   4.634
  141SOL     OW 1321   1.328   2.048   2.343
  141SOL    HW1 1322   1.242   2.037   2.392
  141SOL    HW2 1323   1.395   1.981   2.376
  142SOL     OW 1324   1.863   5.048   1.126
  142SOL    HW1 1325   1.915   4.964   1.109
  142SOL    HW2 1326   1.855   5.100   1.041
  143SOL     OW 1327   5.108   4.090   2.275
  143SOL    HW1 1328   5.077   4.142   2.355
  143SOL    HW2 1329   5.050   4.010   2.262
  144SOL     OW 1330   2.686   6.655   1.171
  144SOL    HW1 1331   2.640   6.576   1.209
  144SOL    HW2 1332   2.746   6.695   1.240
  145SOL     OW 1333   6.580   5.464   0.887
  145SOL    HW1 1334   6.522   5.384   0.899
  145SOL    HW2 1335   6.661   5.439   0.834
  146SOL     OW 1336   6.633   4.946   0.626
  146SOL    HW1 1337   6.535   4.939   0.608
  146SOL    HW2 1338   6.683   4.946   0.540
  147SOL     OW 1339   6.078   2.420   0.930
  147SOL    HW1 1340   6.009   2.397   0.999
  147SOL    HW2 1341   6.035   2.470   0.854
  148SOL     OW 1342   0.959   5.590   5.328
  148SOL    HW1 1343   0.925   5.555   5.416
  148SOL    HW2 1344   0.900   5.558   5.254
  149SOL     OW 1345   3.169   1.280   6.097
  149SOL    HW1 1346   3.084   1.324   6.069
  149SOL    HW2 1347   3.224   1.259   6.016
  150SOL     OW 1348   6.904   5.925   5.131
  150SOL    HW1 1349   6.897   5.836   5.088
  150SOL    HW2 1350   6.825   5.981   5.105
  151SOL     OW 1351   4.395   0.794   2.239
  151SOL    HW1 1352   4.477   0.767   2.187
  151SOL    HW2 1353   4.403   0.760   2.333
  152SOL     OW 1354   2.713   0.835   4.777
  152SOL    HW1 1355   2.724   0.750   4.829
  152SOL    HW2 1356   2.686   0.909   4.840
  153SOL     OW 1357   0.997   0.590   2.819
  153SOL    HW1 1358   0.967   0.500   2.852
  153SOL    HW2 1359   0.967   0.660   2.884
  154SOL     OW 1360   0.607   2.298   3.135
  154SOL    HW1 1361   0.634   2.201   3.138
  154SOL    HW2 1362   0.676   2.349   3.083
  155SOL     OW 1363   0.315   1.109   2.940
  155SOL    HW1 1364   0.314   1.010   2.946
  155SOL    HW2 1365   0.265   1.138   2.858
  156SOL     OW 1366   0.271   2.502   1.527
  156SOL    HW1 1367   0.287   2.575   1.461
  156SOL    HW2 1368   0.193   2.446   1.496
  157SOL     OW 1369   6.840   2.603   2.835
  157SOL    HW1 1370   6.798   2.602   2.926
  157SOL    HW2 1371   6.798   2.673   2.778
  158SOL     OW 1372   1.882   1.809   3.800
  158SOL    HW1 1373   1.860   1.782   3.706
  158SOL    HW2 1374   1.866   1.907   3.811
  159SOL     OW 1375   5.266   3.112   2.092
  159SOL    HW1 1376   5.204   3.052   2.143
  159SOL    HW2 1377   5.273   3.080   1.997
  160SOL     OW 1378   6.097   4.361   6.163
  160SOL    HW1 1379   6.190   4.326   6.179
  160SOL    HW2 1380   6.091   4.455   6.197
  161SOL     OW 1381   3.032   4.714   5.324
  161SOL    HW1 1382   2.980   4.635   5.293
  161SOL    HW2 1383   3.064   4.766   5.245
  162SOL     OW 1384   4.545   6.114   2.321
  162SOL    HW1 1385   4.546   6.037   2.257
  162SOL    HW2 1386   4.609   6.185   2.289
  163SOL     OW 1387   6.261   0.678   1.701
  163SOL    HW1 1388   6.187   0.743   1.717
  163SOL    HW2 1389   6.228   0.604   1.643
  164SOL     OW 1390   6.492   3.181   0.975
  164SOL    HW1 1391   6.583   3.141   0.965
  164SOL    HW2 1392   6.423   3.115   0.947
  165SOL     OW 1393   6.414   3.461   6.839
  165SOL    HW1 1394   6.439   3.514   6.758
  165SOL    HW2 1395   6.348   3.512   6.894
  166SOL     OW 1396   1.412   0.367   0.935
  166SOL    HW1 1397   1.501   0.411   0.947
  166SOL    HW2 1398   1.378   0.385   0.843
  167SOL     OW 1399   6.295   2.257   1.213
  167SOL    HW1 1400   6.318   2.304   1.129
  167SOL    HW2 1401   6.195   2.249   1.221
  168SOL     OW 1402   2.449   5.473   1.348
  168SOL    HW1 1403   2.398   5.541   1.401
  168SOL    HW2 1404   2.449   5.386   1.397
  169SOL     OW 1405   0.934   0.047   1.161
  169SOL    HW1 1406   0.953   0.071   1.066
  169SOL    HW2 1407   0.924   0.131   1.215
  170SOL     OW 1408   0.440   1.703   3.255
  170SOL    HW1 1409   0.522   1.657   3.220
  170SOL    HW2 1410   0.379   1.724   3.178
  171SOL     OW 1411   3.689   4.005   0.296
  171SOL    HW1 1412   3.742   3.977   0.216
  171SOL    HW2 1413   3.751   4.026   0.372
  172SOL     OW 1414   6.999   2.952   1.873
  172SOL    HW1 1415   0.064   2.911   1.908
  172SOL    HW2 1416   6.927   2.942   1.942
  173SOL     OW 1417   0.257   6.302   5.841
  173SOL    HW1 1418   0.263   6.202   5.850
  173SOL    HW2 1419   0.196   6.324   5.765
  174SOL     OW 1420   2.837   5.943   4.076
  174SOL    HW1 1421   2.864   5.851   4.103
  174SOL    HW2 1422   2.800   5.992   4.155
  175SOL     OW 1423   0.284   5.252   3.588
  175SOL    HW1 1424   0.222   5.198   3.531
  175SOL    HW2 1425   0.356   5.192   3.624
  176SOL     OW 1426   2.577   5.348   6.814
  176SOL    HW1 1427   2.650   5.321   6.878
  176SOL    HW2 1428   2.582   5.446   6.797
  177SOL     OW 1429   4.546   1.795   2.861
  177SOL    HW1 1430   4.624   1.732   2.867
  177SOL    HW2 1431   4.574   1.878   2.813
  178SOL     OW 1432   5.317   3.962   6.158
  178SOL    HW1 1433   5.236   3.995   6.109
  178SOL    HW2 1434   5.308   3.864   6.176
  179SOL     OW 1435   2.969   6.633   0.643
  179SOL    HW1 1436   2.945   6.540   0.670
  179SOL    HW2 1437   2.933   6.697   0.711
  180SOL     OW 1438   1.354   2.043   6.992
  180SOL    HW1 1439   1.412   2.121   7.016
  180SOL    HW2 1440   1.369   1.968   0.037
  181SOL     OW 1441   2.960   3.530   4.153
  181SOL    HW1 1442   2.948   3.601   4.222
  181SOL    HW2 1443   2.964   3.440   4.196
  182SOL     OW 1444   5.059   2.732   4.731
  182SOL    HW1 1445   5.151   2.752   4.699
  182SOL    HW2 1446   5.063   2.679   4.815
  183SOL     OW 1447   5.794   1.714   2.153
  183SOL    HW1 1448   5.876   1.662   2.177
  183SOL    HW2 1449   5.732   1.655   2.101
  184SOL     OW 1450   0.405   4.909   2.775
  184SOL    HW1 1451   0.465   4.899   2.855
  184SOL    HW2 1452   0.435   4.845   2.704
  185SOL     OW 1453   2.809   3.660   6.309
  185SOL    HW1 1454   2.834   3.565   6.297
  185SOL    HW2 1455   2.833   3.712   6.227
  186SOL     OW 1456   6.081   6.399   3.635
  186SOL    HW1 1457   6.074   6.494   3.604
  186SOL    HW2 1458   6.035   6.339   3.570
  187SOL     OW 1459   5.187   0.229   4.051
  187SOL    HW1 1460   5.123   0.293   4.092
  187SOL    HW2 1461   5.261   0.210   4.116
  188SOL     OW 1462   6.341   2.144   4.752
  188SOL    HW1 1463   6.332   2.064   4.812
  188SOL    HW2 1464   6.250   2.182   4.734
  189SOL     OW 1465   1.562   4.634   3.445
  189SOL    HW1 1466   1.529   4.719   3.403
  189SOL    HW2 1467   1.529   4.556   3.391
  190SOL     OW 1468   3.472   1.128   6.499
  190SOL    HW1 1469   3.411   1.143   6.421
  190SOL    HW2 1470   3.544   1.198   6.498
  191SOL     OW 1471   5.206   5.972   6.378
  191SOL    HW1 1472   5.208   5.874   6.359
  191SOL    HW2 1473   5.128   5.992   6.438
  192SOL     OW 1474   6.072   0.708   0.075
  192SOL    HW1 1475   6.134   0.781   0.104
  192SOL    HW2 1476   6.122   0.622   0.072
  193SOL     OW 1477   6.165   3.987   0.069
  193SOL    HW1 1478   6.142   3.952   0.160
  193SOL    HW2 1479   6.258   4.023   0.070
  194SOL     OW 1480   4.077   7.014   4.844
  194SOL    HW1 1481   4.132   6.938   4.811
  194SOL    HW2 1482   4.073   7.012   4.944
  195SOL     OW 1483   6.977   5.232   2.995
  195SOL    HW1 1484   6.929   5.201   3.077
  195SOL    HW2 1485   6.950   5.326   2.975
  196SOL     OW 1486   0.797   1.181   0.820
  196SOL    HW1 1487   0.746   1.107   0.863
  196SOL    HW2 1488   0.752   1.208   0.735
  197SOL     OW 1489   1.683   0.681   0.826
  197SOL    HW1 1490   1.610   0.749   0.817
  197SOL    HW2 1491   1.726   0.667   0.737
  198SOL     OW 1492   2.883   1.117   4.411
  198SOL    HW1 1493   2.939   1.194   4.441
  198SOL    HW2 1494   2.938   1.055   4.355
  199SOL     OW 1495   1.046   1.556   4.668
  199SOL    HW1 1496   0.965   1.591   4.621
  199SOL    HW2 1497   1.074   1.620   4.739
  200SOL     OW 1498   6.115   2.250   0.215
  200SOL    HW1 1499   6.152   2.280   0.302
  200SOL    HW2 1500   6.061   2.323   0.174
  201SOL     OW 1501   0.176   1.346   6.009
  201SOL    HW1 1502   0.145   1.427   5.960
  201SOL    HW2 1503   0.194   1.273   5.943
  202SOL     OW 1504   5.370   0.014   0.169
  202SOL    HW1 1505   5.333   6.941   0.171
  202SOL    HW2 1506   5.382   0.044   0.074
  203SOL     OW 1507   6.669   2.945   6.974
  203SOL    HW1 1508   6.769   2.946   6.964
  203SOL    HW2 1509   6.646   2.958   0.051
  204SOL     OW 1510   6.489   0.953   5.252
  204SOL    HW1 1511   6.479   0.859   5.285
  204SOL    HW2 1512   6.450   0.960   5.160
  205SOL     OW 1513   2.153   4.571   3.351
  205SOL    HW1 1514   2.099   4.560   3.268
  205SOL    HW2 1515   2.238   4.518   3.343
  206SOL     OW 1516   0.651   4.245   0.718
  206SOL    HW1 1517   0.614   4.306   0.648
  206SOL    HW2 1518   0.580   4.181   0.748
  207SOL     OW 1519   6.276   2.946   4.749
  207SOL    HW1 1520   6.353   2.895   4.712
  207SOL    HW2 1521   6.251   3.019   4.686
  208SOL     OW 1522   1.246   3.179   4.762
  208SOL    HW1 1523   1.313   3.128   4.816
  208SOL    HW2 1524   1.157   3.174   4.806
  209SOL     OW 1525   6.406   4.567   2.658
  209SOL    HW1 1526   6.442   4.638   2.598
  209SOL    HW2 1527   6.332   4.604   2.714
  210SOL     OW 1528   4.725   3.579   0.985
  210SOL    HW1 1529   4.630   3.552   0.977
  210SOL    HW2 1530   4.782   3.519   0.929
  211SOL     OW 1531   1.386   1.075   1.589
  211SOL    HW1 1532   1.382   0.976   1.579
  211SOL    HW2 1533   1.400   1.099   1.685
  212SOL     OW 1534   2.337   3.875   1.790
  212SOL    HW1 1535   2.256   3.927   1.820
  212SOL    HW2 1536   2.401   3.868   1.866
  213SOL     OW 1537   1.007   5.467   1.410
  213SOL    HW1 1538   0.989   5.386   1.355
  213SOL    HW2 1539   0.950   5.464   1.493
  214SOL     OW 1540   5.678   6.795   2.295
  214SOL    HW1 1541   5.647   6.758   2.208
  214SOL    HW2 1542   5.718   6.723   2.351
  215SOL     OW 1543   2.186   4.938   2.627
  215SOL    HW1 1544   2.127   4.962   2.550
  215SOL    HW2 1545   2.206   4.840   2.624
  216SOL     OW 1546   1.707   6.247   3.044
  216SOL    HW1 1547   1.682   6.159   3.002
  216SOL    HW2 1548   1.642   6.317   3.014
  217SOL     OW 1549   0.069   5.413   5.224
  217SOL    HW1 1550   0.073   5.341   5.155
  217SOL    HW2 1551   0.107   5.378   5.310
  218SOL     OW 1552   2.795   2.336   5.627
  218SOL    HW1 1553   2.743   2.396   5.565
  218SOL    HW2 1554   2.838   2.263   5.574
  219SOL     OW 1555   4.845   2.375   1.130
  219SOL    HW1 1556   4.852   2.333   1.039
  219SOL    HW2 1557   4.860   2.474   1.122
  220SOL     OW 1558   2.646   6.395   0.740
  220SOL    HW1 1559   2.637   6.492   0.759
  220SOL    HW2 1560   2.739   6.376   0.710
  221SOL     OW 1561   4.841   4.557   2.199
  221SOL    HW1 1562   4.916   4.492   2.195
  221SOL    HW2 1563   4.855   4.629   2.132
  222SOL     OW 1564   1.762   4.193   6.698
  222SOL    HW1 1565   1.746   4.144   6.613
  222SOL    HW2 1566   1.858   4.222   6.703
  223SOL     OW 1567   6.565   2.323   4.668
  223SOL    HW1 1568   6.500   2.248   4.681
  223SOL    HW2 1569   6.625   2.330   4.748
  224SOL     OW 1570   3.348   2.362   5.824
  224SOL    HW1 1571   3.381   2.276   5.785
  224SOL    HW2 1572   3.397   2.438   5.781
  225SOL     OW 1573   4.200   5.849   6.703
  225SOL    HW1 1574   4.282   5.904   6.691
  225SOL    HW2 1575   4.203   5.805   6.793
  226SOL     OW 1576   1.654   2.404   0.503
  226SOL    HW1 1577   1.576   2.455   0.466
  226SOL    HW2 1578   1.686   2.448   0.587
  227SOL     OW 1579   1.508   3.894   0.991
  227SOL    HW1 1580   1.414   3.909   0.959
  227SOL    HW2 1581   1.566   3.970   0.962
  228SOL     OW 1582   0.807   0.649   2.492
  228SOL    HW1 1583   0.711   0.630   2.471
  228SOL    HW2 1584   0.866   0.596   2.432
  229SOL     OW 1585   4.109   0.664   6.276
  229SOL    HW1 1586   4.062   0.751   6.292
  229SOL    HW2 1587   4.041   0.593   6.258
  230SOL     OW 1588   5.960   4.378   5.681
  230SOL    HW1 1589   6.031   4.405   5.746
  230SOL    HW2 1590   5.879   4.347   5.732
  231SOL     OW 1591   5.314   0.952   6.956
  231SOL    HW1 1592   5.272   1.043   6.959
  231SOL    HW2 1593   5.325   0.917   0.030
  232SOL     OW 1594   1.118   2.143   5.355
  232SOL    HW1 1595   1.032   2.159   5.403
  232SOL    HW2 1596   1.101   2.083   5.276
  233SOL     OW 1597   3.570   1.567   3.546
  233SOL    HW1 1598   3.632   1.540   3.620
  233SOL    HW2 1599   3.575   1.666   3.534
  234SOL     OW 1600   5.167   0.043   0.575
  234SOL    HW1 1601   5.238   0.056   0.644
  234SOL    HW2 1602   5.173   6.970   0.537
  235SOL     OW 1603   5.414   3.201   2.371
  235SOL    HW1 1604   5.455   3.168   2.286
  235SOL    HW2 1605   5.471   3.171   2.448
  236SOL     OW 1606   3.682   3.100   5.892
  236SOL    HW1 1607   3.661   3.087   5.795
  236SOL    HW2 1608   3.616   3.049   5.947
  237SOL     OW 1609   6.170   3.510   2.862
  237SOL    HW1 1610   6.261   3.547   2.881
  237SOL    HW2 1611   6.177   3.441   2.790
  238SOL     OW 1612   6.193   1.740   0.386
  238SOL    HW1 1613   6.221   1.660   0.334
  238SOL    HW2 1614   6.172   1.815   0.323
  239SOL     OW 1615   1.484   3.473   0.259
  239SOL    HW1 1616   1.454   3.553   0.208
  239SOL    HW2 1617   1.563   3.497   0.317
  240SOL     OW 1618   5.208   3.361   4.017
  240SOL    HW1 1619   5.179   3.430   4.083
  240SOL    HW2 1620   5.196   3.396   3.924
  241SOL     OW 1621   2.451   2.287   4.021
  241SOL    HW1 1622   2.499   2.202   4.041
  241SOL    HW2 1623   2.516   2.363   4.023
  242SOL     OW 1624   3.886   3.471   2.239
  242SOL    HW1 1625   3.902   3.402   2.169
  242SOL    HW2 1626   3.967   3.529   2.248
  243SOL     OW 1627   4.022   2.755   6.206
  243SOL    HW1 1628   4.097   2.779   6.267
  243SOL    HW2 1629   3.954   2.829   6.206
  244SOL     OW 1630   4.917   3.350   4.835
  244SOL    HW1 1631   4.866   3.415   4.893
  244SOL    HW2 1632   4.909   3.258   4.874
  245SOL     OW 1633   3.523   1.152   2.998
  245SOL    HW1 1634   3.603   1.207   3.026
  245SOL    HW2 1635   3.446   1.213   2.981
  246SOL     OW 1636   6.594   1.410   2.367
  246SOL    HW1 1637   6.693   1.398   2.372
  246SOL    HW2 1638   6.554   1.337   2.311
  247SOL     OW 1639   1.970   1.332   1.715
  247SOL    HW1 1640   2.015   1.393   1.650
  247SOL    HW2 1641   1.967   1.375   1.805
  248SOL     OW 1642   3.260   3.892   1.312
  248SOL    HW1 1643   3.199   3.814   1.324
  248SOL    HW2 1644   3.284   3.930   1.401
  249SOL     OW 1645   4.934   6.775   5.315
  249SOL    HW1 1646   4.897   6.683   5.313
  249SOL    HW2 1647   4.881   6.834   5.254
  250SOL     OW 1648   3.795   2.446   6.846
  250SOL    HW1 1649   3.883   2.450   6.800
  250SOL    HW2 1650   3.734   2.515   6.807
  251SOL     OW 1651   4.433   5.291   5.480
  251SOL    HW1 1652   4.483   5.205   5.488
  251SOL    HW2 1653   4.413   5.326   5.571
  252SOL     OW 1654   6.464   6.208   5.053
  252SOL    HW1 1655   6.378   6.158   5.045
  252SOL    HW2 1656   6.458   6.274   5.128
  253SOL     OW 1657   4.122   6.166   6.289
  253SOL    HW1 1658   4.064   6.190   6.367
  253SOL    HW2 1659   4.074   6.102   6.230
  254SOL     OW 1660   6.451   2.006   5.269
  254SOL    HW1 1661   6.383   2.042   5.204
  254SOL    HW2 1662   6.413   1.927   5.317
  255SOL     OW 1663   1.280   4.609   6.589
  255SOL    HW1 1664   1.377   4.601   6.615
  255SOL    HW2 1665   1.249   4.522   6.550
  256SOL     OW 1666   4.755   2.237   5.051
  256SOL    HW1 1667   4.667   2.265   5.014
  256SOL    HW2 1668   4.771   2.141   5.031
  257SOL     OW 1669   4.825   6.493   2.415
  257SOL    HW1 1670   4.839   6.572   2.476
  257SOL    HW2 1671   4.781   6.419   2.466
  258SOL     OW 1672   1.990   3.466   5.870
  258SOL    HW1 1673   1.914   3.408   5.840
  258SOL    HW2 1674   2.070   3.449   5.813
  259SOL     OW 1675   3.167   0.133   3.844
  259SOL    HW1 1676   3.098   0.192   3.885
  259SOL    HW2 1677   3.201   0.069   3.913
  260SOL     OW 1678   3.971   5.640   3.056
  260SOL    HW1 1679   3.885   5.654   3.007
  260SOL    HW2 1680   4.042   5.612   2.991
  261SOL     OW 1681   4.343   5.093   7.019
  261SOL    HW1 1682   4.283   5.059   6.946
  261SOL    HW2 1683   4.437   5.099   6.985
  262SOL     OW 1684   0.942   3.753   6.684
  262SOL    HW1 1685   0.894   3.670   6.656
  262SOL    HW2 1686   0.996   3.735   6.766
  263SOL     OW 1687   1.535   0.227   4.021
  263SOL    HW1 1688   1.441   0.194   4.011
  263SOL    HW2 1689   1.536   0.326   4.007
  264SOL     OW 1690   6.401   2.747   6.432
  264SOL    HW1 1691   6.367   2.671   6.486
  264SOL    HW2 1692   6.411   2.828   6.490
  265SOL     OW 1693   6.901   0.046   3.186
  265SOL    HW1 1694   6.864   0.047   3.279
  265SOL    HW2 1695   6.835   0.090   3.124
  266SOL     OW 1696   3.705   0.689   5.857
  266SOL    HW1 1697   3.746   0.761   5.913
  266SOL    HW2 1698   3.761   0.606   5.862
  267SOL     OW 1699   2.378   0.288   2.791
  267SOL    HW1 1700   2.389   0.198   2.749
  267SOL    HW2 1701   2.452   0.348   2.760
  268SOL     OW 1702   3.244   2.368   0.779
  268SOL    HW1 1703   3.201   2.458   0.771
  268SOL    HW2 1704   3.310   2.356   0.705
  269SOL     OW 1705   5.346   1.948   0.336
  269SOL    HW1 1706   5.274   1.880   0.326
  269SOL    HW2 1707   5.308   2.033   0.373
  270SOL     OW 1708   5.536   0.951   0.373
  270SOL    HW1 1709   5.635   0.940   0.361
  270SOL    HW2 1710   5.517   1.042   0.408
  271SOL     OW 1711   0.846   4.143   6.349
  271SOL    HW1 1712   0.864   4.068   6.413
  271SOL    HW2 1713   0.789   4.110   6.274
  272SOL     OW 1714   2.915   5.949   3.038
  272SOL    HW1 1715   3.003   5.973   3.080
  272SOL    HW2 1716   2.841   5.977   3.098
  273SOL     OW 1717   1.823   5.505   5.824
  273SOL    HW1 1718   1.888   5.494   5.748
  273SOL    HW2 1719   1.797   5.601   5.833
  274SOL     OW 1720   4.540   2.326   3.991
  274SOL    HW1 1721   4.478   2.277   3.930
  274SOL    HW2 1722   4.489   2.362   4.069
  275SOL     OW 1723   5.938   6.861   1.554
  275SOL    HW1 1724   6.030   6.898   1.539
  275SOL    HW2 1725   5.918   6.793   1.483
  276SOL     OW 1726   0.797   0.382   4.651
  276SOL    HW1 1727   0.886   0.343   4.626
  276SOL    HW2 1728   0.738   0.310   4.686
  277SOL     OW 1729   1.885   4.837   0.831
  277SOL    HW1 1730   1.914   4.835   0.927
  277SOL    HW2 1731   1.919   4.921   0.788
  278SOL     OW 1732   0.496   2.809   2.935
  278SOL    HW1 1733   0.453   2.866   3.006
  278SOL    HW2 1734   0.539   2.729   2.978
  279SOL     OW 1735   6.361   1.092   3.274
  279SOL    HW1 1736   6.319   1.065   3.187
  279SOL    HW2 1737   6.383   1.010   3.327
  280SOL     OW 1738   1.641   4.744   2.793
  280SOL    HW1 1739   1.678   4.742   2.700
  280SOL    HW2 1740   1.708   4.784   2.855
  281SOL     OW 1741   2.535   4.496   1.007
  281SOL    HW1 1742   2.572   4.586   1.027
  281SOL    HW2 1743   2.446   4.486   1.050
  282SOL     OW 1744   1.829   1.386   5.666
  282SOL    HW1 1745   1.872   1.462   5.617
  282SOL    HW2 1746   1.814   1.310   5.602
  283SOL     OW 1747   3.463   2.942   5.989
  283SOL    HW1 1748   3.445   2.942   5.890
  283SOL    HW2 1749   3.380   2.966   6.038
  284SOL     OW 1750   0.443   3.651   3.836
  284SOL    HW1 1751   0.361   3.681   3.788
  284SOL    HW2 1752   0.460   3.711   3.915
  285SOL     OW 1753   5.397   4.260   4.126
  285SOL    HW1 1754   5.438   4.218   4.046
  285SOL    HW2 1755   5.301   4.281   4.107
  286SOL     OW 1756   3.257   4.414   0.518
  286SOL    HW1 1757   3.281   4.494   0.572
  286SOL    HW2 1758   3.160   4.417   0.495
  287SOL     OW 1759   0.948   2.892   0.174
  287SOL    HW1 1760   1.035   2.882   0.222
  287SOL    HW2 1761   0.956   2.964   0.105
  288SOL     OW 1762   4.991   3.196   1.405
  288SOL    HW1 1763   4.903   3.150   1.412
  288SOL    HW2 1764   4.993   3.252   1.322
  289SOL     OW 1765   3.794   5.382   6.927
  289SOL    HW1 1766   3.838   5.447   6.989
  289SOL    HW2 1767   3.779   5.295   6.974
  290SOL     OW 1768   1.683   1.007   4.923
  290SOL    HW1 1769   1.734   1.067   4.984
  290SOL    HW2 1770   1.634   1.062   4.856
  291SOL     OW 1771   6.550   1.988   3.149
  291SOL    HW1 1772   6.563   1.892   3.122
  291SOL    HW2 1773   6.584   2.002   3.241
  292SOL     OW 1774   3.352   0.330   3.791
  292SOL    HW1 1775   3.330   0.392   3.866
  292SOL    HW2 1776   3.306   0.242   3.806
  293SOL     OW 1777   3.632   5.038   3.555
  293SOL    HW1 1778   3.589   4.957   3.515
  293SOL    HW2 1779   3.610   5.118   3.500
  294SOL     OW 1780   5.071   0.476   0.419
  294SOL    HW1 1781   4.990   0.421   0.398
  294SOL    HW2 1782   5.139   0.420   0.466
  295SOL     OW 1783   5.639   0.115   4.004
  295SOL    HW1 1784   5.627   0.214   3.999
  295SOL    HW2 1785   5.691   0.084   3.924
  296SOL     OW 1786   2.569   1.859   2.960
  296SOL    HW1 1787   2.615   1.778   2.925
  296SOL    HW2 1788   2.485   1.874   2.908
  297SOL     OW 1789   1.874   4.884   2.382
  297SOL    HW1 1790   1.962   4.931   2.382
  297SOL    HW2 1791   1.882   4.797   2.332
  298SOL     OW 1792   6.406   5.281   0.957
  298SOL    HW1 1793   6.390   5.273   1.055
  298SOL    HW2 1794   6.453   5.199   0.924
  299SOL     OW 1795   6.095   2.242   4.069
  299SOL    HW1 1796   6.148   2.297   4.133
  299SOL    HW2 1797   5.999   2.271   4.070
  300SOL     OW 1798   6.133   6.613   1.878
  300SOL    HW1 1799   6.100   6.580   1.790
  300SOL    HW2 1800   6.173   6.704   1.866
  301SOL     OW 1801   4.778   2.608   5.530
  301SOL    HW1 1802   4.742   2.522   5.494
  301SOL    HW2 1803   4.871   2.594   5.564
  302SOL     OW 1804   1.201   5.649   4.200
  302SOL    HW1 1805   1.135   5.703   4.148
  302SOL    HW2 1806   1.268   5.610   4.137
  303SOL     OW 1807   6.041   0.314   3.771
  303SOL    HW1 1808   5.947   0.294   3.745
  303SOL    HW2 1809   6.095   0.334   3.689
  304SOL     OW 1810   3.587   0.172   3.398
  304SOL    HW1 1811   3.648   0.104   3.440
  304SOL    HW2 1812   3.528   0.211   3.469
  305SOL     OW 1813   1.381   5.223   0.717
  305SOL    HW1 1814   1.455   5.184   0.771
  305SOL    HW2 1815   1.311   5.153   0.701
  306SOL     OW 1816   2.017   1.210   3.443
  306SOL    HW1 1817   2.053   1.257   3.523
  306SOL    HW2 1818   1.971   1.277   3.383
  307SOL     OW 1819   3.428   0.513   1.500
  307SOL    HW1 1820   3.443   0.430   1.553
  307SOL    HW2 1821   3.387   0.583   1.558
  308SOL     OW 1822   0.534   4.818   3.594
  308SOL    HW1 1823   0.614   4.758   3.587
  308SOL    HW2 1824   0.523   4.869   3.509
  309SOL     OW 1825   3.537   4.604   5.380
  309SOL    HW1 1826   3.554   4.505   5.383
  309SOL    HW2 1827   3.616   4.653   5.415
  310SOL     OW 1828   1.513   6.031   6.478
  310SOL    HW1 1829   1.539   6.012   6.383
  310SOL    HW2 1830   1.568   5.974   6.539
  311SOL     OW 1831   0.125   0.929   1.389
  311SOL    HW1 1832   0.153   0.887   1.475
  311SOL    HW2 1833   0.191   0.905   1.317
  312SOL     OW 1834   4.011   1.394   5.628
  312SOL    HW1 1835   4.079   1.392   5.555
  312SOL    HW2 1836   4.012   1.484   5.673
  313SOL     OW 1837   0.164   4.722   1.068
  313SOL    HW1 1838   0.230   4.772   1.124
  313SOL    HW2 1839   0.086   4.695   1.125
  314SOL     OW 1840   3.463   6.022   2.381
  314SOL    HW1 1841   3.479   6.006   2.284
  314SOL    HW2 1842   3.549   6.015   2.431
  315SOL     OW 1843   0.945   3.592   2.849
  315SOL    HW1 1844   1.006   3.652   2.797
  315SOL    HW2 1845   0.880   3.547   2.787
  316SOL     OW 1846   2.168   2.898   4.494
  316SOL    HW1 1847   2.116   2.967   4.544
  316SOL    HW2 1848   2.211   2.835   4.559
  317SOL     OW 1849   6.588   1.504   0.243
  317SOL    HW1 1850   6.497   1.491   0.283
  317SOL    HW2 1851   6.630   1.586   0.283
  318SOL     OW 1852   3.029   4.006   1.037
  318SOL    HW1 1853   3.010   3.918   0.992
  318SOL    HW2 1854   2.971   4.015   1.118
  319SOL     OW 1855   1.126   0.606   6.363
  319SOL    HW1 1856   1.145   0.656   6.279
  319SOL    HW2 1857   1.045   0.646   6.407
  320SOL     OW 1858   5.166   3.345   1.058
  320SOL    HW1 1859   5.222   3.278   1.108
  320SOL    HW2 1860   5.148   3.311   0.966
  321SOL     OW 1861   2.234   1.388   2.408
  321SOL    HW1 1862   2.319   1.410   2.360
  321SOL    HW2 1863   2.255   1.354   2.500
  322SOL     OW 1864   3.344   2.731   5.301
  322SOL    HW1 1865   3.263   2.774   5.259
  322SOL    HW2 1866   3.329   2.633   5.308
  323SOL     OW 1867   1.559   4.397   1.605
  323SOL    HW1 1868   1.654   4.383   1.580
  323SOL    HW2 1869   1.499   4.368   1.530
  324SOL     OW 1870   6.909   2.832   3.982
  324SOL    HW1 1871   6.941   2.754   4.035
  324SOL    HW2 1872   6.856   2.800   3.903
  325SOL     OW 1873   2.022   2.287   2.697
  325SOL    HW1 1874   1.951   2.223   2.727
  325SOL    HW2 1875   2.109   2.263   2.741
  326SOL     OW 1876   1.872   4.058   4.574
  326SOL    HW1 1877   1.883   4.049   4.475
  326SOL    HW2 1878   1.934   3.994   4.620
  327SOL     OW 1879   6.404   3.546   6.327
  327SOL    HW1 1880   6.492   3.542   6.279
  327SOL    HW2 1881   6.419   3.531   6.425
  328SOL     OW 1882   3.566   5.615   3.040
  328SOL    HW1 1883   3.647   5.607   3.098
  328SOL    HW2 1884   3.504   5.684   3.078
  329SOL     OW 1885   3.839   4.016   2.185
  329SOL    HW1 1886   3.787   4.082   2.131
  329SOL    HW2 1887   3.790   3.929   2.189
  330SOL     OW 1888   2.486   2.152   2.082
  330SOL    HW1 1889   2.561   2.180   2.022
  330SOL    HW2 1890   2.524   2.113   2.166
  331SOL     OW 1891   6.410   4.133   5.725
  331SOL    HW1 1892   6.485   4.072   5.752
  331SOL    HW2 1893   6.338   4.128   5.794
  332SOL     OW 1894   3.946   1.936   3.747
  332SOL    HW1 1895   3.896   2.021   3.730
  332SOL    HW2 1896   4.033   1.938   3.698
  333SOL     OW 1897   4.664   6.473   0.732
  333SOL    HW1 1898   4.611   6.496   0.814
  333SOL    HW2 1899   4.620   6.512   0.651
  334SOL     OW 1900   4.817   6.524   2.791
  334SOL    HW1 1901   4.742   6.574   2.833
  334SOL    HW2 1902   4.855   6.578   2.716
  335SOL     OW 1903   3.333   0.285   2.610
  335SOL    HW1 1904   3.412   0.345   2.623
  335SOL    HW2 1905   3.362   0.189   2.618
  336SOL     OW 1906   4.029   0.529   4.963
  336SOL    HW1 1907   4.037   0.592   5.040
  336SOL    HW2 1908   4.072   0.569   4.882
  337SOL     OW 1909   0.751   4.189   2.106
  337SOL    HW1 1910   0.846   4.184   2.138
  337SOL    HW2 1911   0.690   4.198   2.185
  338SOL     OW 1912   2.192   2.205   1.379
  338SOL    HW1 1913   2.129   2.283   1.372
  338SOL    HW2 1914   2.142   2.120   1.363
  339SOL     OW 1915   4.471   1.231   3.200
  339SOL    HW1 1916   4.494   1.175   3.279
  339SOL    HW2 1917   4.374   1.219   3.178
  340SOL     OW 1918   5.201   3.596   4.667
  340SOL    HW1 1919   5.277   3.562   4.723
  340SOL    HW2 1920   5.144   3.519   4.639
  341SOL     OW 1921   4.542   4.149   5.707
  341SOL    HW1 1922   4.469   4.191   5.654
  341SOL    HW2 1923   4.553   4.198   5.793
  342SOL     OW 1924   6.113   3.699   0.840
  342SOL    HW1 1925   6.207   3.705   0.872
  342SOL    HW2 1926   6.065   3.627   0.891
  343SOL     OW 1927   2.486   0.808   2.698
  343SOL    HW1 1928   2.557   0.757   2.649
  343SOL    HW2 1929   2.418   0.842   2.633
  344SOL     OW 1930   3.210   6.690   0.131
  344SOL    HW1 1931   3.166   6.612   0.088
  344SOL    HW2 1932   3.205   6.680   0.231
  345SOL     OW 1933   1.309   1.376   5.010
  345SOL    HW1 1934   1.314   1.466   5.053
  345SOL    HW2 1935   1.283   1.307   5.078
  346SOL     OW 1936   2.672   0.615   5.659
  346SOL    HW1 1937   2.583   0.592   5.618
  346SOL    HW2 1938   2.657   0.661   5.747
  347SOL     OW 1939   5.073   6.191   5.919
  347SOL    HW1 1940   5.150   6.201   5.857
  347SOL    HW2 1941   5.099   6.132   5.995
  348SOL     OW 1942   3.066   6.781   3.246
  348SOL    HW1 1943   3.161   6.769   3.215
  348SOL    HW2 1944   3.013   6.700   3.220
  349SOL     OW 1945   2.289   5.203   2.137
  349SOL    HW1 1946   2.253   5.294   2.118
  349SOL    HW2 1947   2.382   5.195   2.102
  350SOL     OW 1948   4.833   3.289   1.023
  350SOL    HW1 1949   4.766   3.321   1.089
  350SOL    HW2 1950   4.915   3.347   1.027
  351SOL     OW 1951   3.053   2.162   0.886
  351SOL    HW1 1952   2.971   2.125   0.843
  351SOL    HW2 1953   3.083   2.243   0.836
  352SOL     OW 1954   2.716   1.939   6.507
  352SOL    HW1 1955   2.771   2.016   6.541
  352SOL    HW2 1956   2.620   1.967   6.503
  353SOL     OW 1957   2.079   7.016   1.346
  353SOL    HW1 1958   2.009   7.016   1.418
  353SOL    HW2 1959   2.167   6.992   1.386
  354SOL     OW 1960   4.938   0.159   2.093
  354SOL    HW1 1961   4.851   0.195   2.059
  354SOL    HW2 1962   4.940   0.060   2.080
  355SOL     OW 1963   0.799   1.408   2.244
  355SOL    HW1 1964   0.854   1.481   2.286
  355SOL    HW2 1965   0.723   1.385   2.306
  356SOL     OW 1966   3.171   0.011   2.931
  356SOL    HW1 1967   3.173   7.007   2.834
  356SOL    HW2 1968   3.182   6.948   2.986
  357SOL     OW 1969   1.071   5.015   4.805
  357SOL    HW1 1970   1.167   5.006   4.830
  357SOL    HW2 1971   1.058   4.983   4.711
  358SOL     OW 1972   4.767   0.999   3.242
  358SOL    HW1 1973   4.830   1.000   3.320
  358SOL    HW2 1974   4.788   1.076   3.181
  359SOL     OW 1975   6.990   1.546   0.478
  359SOL    HW1 1976   7.008   1.492   0.396
  359SOL    HW2 1977   0.055   1.591   0.508
  360SOL     OW 1978   5.012   0.079   6.847
  360SOL    HW1 1979   4.924   0.108   6.811
  360SOL    HW2 1980   5.085   0.111   6.786
  361SOL     OW 1981   3.100   0.602   2.420
  361SOL    HW1 1982   3.193   0.618   2.386
  361SOL    HW2 1983   3.101   0.603   2.520
  362SOL     OW 1984   2.817   3.722   0.666
  362SOL    HW1 1985   2.845   3.635   0.626
  362SOL    HW2 1986   2.849   3.797   0.608
  363SOL     OW 1987   5.022   4.189   3.779
  363SOL    HW1 1988   5.023   4.279   3.737
  363SOL    HW2 1989   5.111   4.171   3.820
  364SOL     OW 1990   2.607   5.846   6.727
  364SOL    HW1 1991   2.630   5.880   6.635
  364SOL    HW2 1992   2.644   5.909   6.795
  365SOL     OW 1993   5.029   6.445   2.949
  365SOL    HW1 1994   5.041   6.527   3.005
  365SOL    HW2 1995   4.949   6.456   2.890
  366SOL     OW 1996   5.292   1.085   0.251
  366SOL    HW1 1997   5.379   1.121   0.286
  366SOL    HW2 1998   5.293   0.985   0.258
  367SOL     OW 1999   5.677   2.644   1.977
  367SOL    HW1 2000   5.612   2.719   1.992
  367SOL    HW2 2001   5.650   2.565   2.033
  368SOL     OW 2002   0.053   5.251   4.978
  368SOL    HW1 2003   6.974   5.247   4.995
  368SOL    HW2 2004   0.071   5.228   4.882
  369SOL     OW 2005   1.052   4.013   1.915
  369SOL    HW1 2006   1.011   3.972   1.997
  369SOL    HW2 2007   1.152   4.007   1.923
  370SOL     OW 2008   3.687   1.607   6.522
  370SOL    HW1 2009   3.686   1.584   6.619
  370SOL    HW2 2010   3.664   1.704   6.510
  371SOL     OW 2011   3.167   2.719   6.363
  371SOL    HW1 2012   3.236   2.702   6.293
  371SOL    HW2 2013   3.107   2.639   6.371
  372SOL     OW 2014   2.228   6.016   0.100
  372SOL    HW1 2015   2.135   6.034   0.134
  372SOL    HW2 2016   2.248   5.919   0.108
  373SOL     OW 2017   6.061   6.630   6.479
  373SOL    HW1 2018   6.105   6.551   6.437
  373SOL    HW2 2019   6.087   6.714   6.431
  374SOL     OW 2020   5.070   0.747   0.815
  374SOL    HW1 2021   5.082   0.767   0.912
  374SOL    HW2 2022   5.134   0.803   0.762
  375SOL     OW 2023   6.533   4.462   1.354
  375SOL    HW1 2024   6.553   4.473   1.256
  375SOL    HW2 2025   6.515   4.366   1.374
  376SOL     OW 2026   2.146   4.204   5.191
  376SOL    HW1 2027   2.163   4.218   5.288
  376SOL    HW2 2028   2.218   4.147   5.152
  377SOL     OW 2029   4.977   1.128   4.062
  377SOL    HW1 2030   4.890   1.088   4.034
  377SOL    HW2 2031   5.047   1.106   3.995
  378SOL     OW 2032   5.377   2.241   5.362
  378SOL    HW1 2033   5.426   2.218   5.446
  378SOL    HW2 2034   5.437   2.296   5.303
  379SOL     OW 2035   6.229   2.997   1.065
  379SOL    HW1 2036   6.259   2.907   1.033
  379SOL    HW2 2037   6.234   3.001   1.165
  380SOL     OW 2038   0.799   2.463   0.338
  380SOL    HW1 2039   0.886   2.512   0.350
  380SOL    HW2 2040   0.733   2.524   0.295
  381SOL     OW 2041   4.567   4.899   0.107
  381SOL    HW1 2042   4.529   4.927   0.195
  381SOL    HW2 2043   4.497   4.851   0.054
  382SOL     OW 2044   1.862   5.645   6.557
  382SOL    HW1 2045   1.913   5.559   6.553
  382SOL    HW2 2046   1.927   5.721   6.564
  383SOL     OW 2047   6.309   1.566   6.958
  383SOL    HW1 2048   6.387   1.503   6.951
  383SOL    HW2 2049   6.295   1.611   6.870
  384SOL     OW 2050   1.305   5.443   4.412
  384SOL    HW1 2051   1.244   5.465   4.488
  384SOL    HW2 2052   1.284   5.502   4.334
  385SOL     OW 2053   4.514   4.956   1.354
  385SOL    HW1 2054   4.499   5.044   1.309
  385SOL    HW2 2055   4.538   4.887   1.286
  386SOL     OW 2056   2.410   5.887   4.315
  386SOL    HW1 2057   2.500   5.848   4.301
  386SOL    HW2 2058   2.346   5.816   4.343
  387SOL     OW 2059   0.301   0.544   5.389
  387SOL    HW1 2060   0.391   0.522   5.351
  387SOL    HW2 2061   0.273   0.473   5.454
  388SOL     OW 2062   0.454   2.033   4.435
  388SOL    HW1 2063   0.497   1.991   4.515
  388SOL    HW2 2064   0.453   1.967   4.360
  389SOL     OW 2065   5.019   3.140   2.529
  389SOL    HW1 2066   4.936   3.091   2.503
  389SOL    HW2 2067   5.049   3.197   2.452
  390SOL     OW 2068   3.596   2.959   0.325
  390SOL    HW1 2069   3.617   2.996   0.235
  390SOL    HW2 2070   3.672   2.903   0.358
  391SOL     OW 2071   3.642   3.524   3.603
  391SOL    HW1 2072   3.668   3.427   3.598
  391SOL    HW2 2073   3.672   3.570   3.519
  392SOL     OW 2074   1.845   3.421   1.576
  392SOL    HW1 2075   1.919   3.406   1.511
  392SOL    HW2 2076   1.863   3.371   1.660
  393SOL     OW 2077   1.365   6.540   1.145
  393SOL    HW1 2078   1.316   6.485   1.077
  393SOL    HW2 2079   1.442   6.586   1.101
  394SOL     OW 2080   5.894   1.223   6.259
  394SOL    HW1 2081   5.824   1.174   6.206
  394SOL    HW2 2082   5.849   1.287   6.321
  395SOL     OW 2083   6.062   5.054   6.798
  395SOL    HW1 2084   6.064   5.031   6.701
  395SOL    HW2 2085   6.053   4.970   6.852
  396SOL     OW 2086   0.711   0.776   1.303
  396SOL    HW1 2087   0.792   0.834   1.312
  396SOL    HW2 2088   0.740   0.682   1.286
  397SOL     OW 2089   4.658   1.983   4.872
  397SOL    HW1 2090   4.737   1.955   4.819
  397SOL    HW2 2091   4.610   1.902   4.906
  398SOL     OW 2092   0.080   1.532   2.779
  398SOL    HW1 2093   7.014   1.514   2.828
  398SOL    HW2 2094   0.088   1.630   2.762
  399SOL     OW 2095   5.786   5.692   4.064
  399SOL    HW1 2096   5.809   5.594   4.060
  399SOL    HW2 2097   5.866   5.746   4.037
  400SOL     OW 2098   0.009   6.490   3.118
  400SOL    HW1 2099   0.056   6.404   3.138
  400SOL    HW2 2100   6.950   6.500   3.180
  401SOL     OW 2101   1.231   6.139   4.913
  401SOL    HW1 2102   1.310   6.079   4.908
  401SOL    HW2 2103   1.153   6.089   4.951
  402SOL     OW 2104   5.939   1.149   4.612
  402SOL    HW1 2105   5.873   1.221   4.635
  402SOL    HW2 2106   5.890   1.067   4.584
  403SOL     OW 2107   2.403   1.932   5.241
  403SOL    HW1 2108   2.311   1.919   5.204
  403SOL    HW2 2109   2.470   1.923   5.167
  404SOL     OW 2110   2.798   6.016   3.616
  404SOL    HW1 2111   2.858   6.074   3.672
  404SOL    HW2 2112   2.732   6.074   3.568
  405SOL     OW 2113   2.319   5.141   3.929
  405SOL    HW1 2114   2.360   5.073   3.990
  405SOL    HW2 2115   2.219   5.131   3.931
  406SOL     OW 2116   0.827   0.174   0.211
  406SOL    HW1 2117   0.752   0.148   0.272
  406SOL    HW2 2118   0.914   0.143   0.250
  407SOL     OW 2119   2.045   3.739   4.174
  407SOL    HW1 2120   2.070   3.779   4.085
  407SOL    HW2 2121   2.096   3.655   4.188
  408SOL     OW 2122   2.679   2.217   1.898
  408SOL    HW1 2123   2.751   2.265   1.947
  408SOL    HW2 2124   2.719   2.142   1.845
  409SOL     OW 2125   0.567   2.643   1.895
  409SOL    HW1 2126   0.537   2.558   1.936
  409SOL    HW2 2127   0.639   2.624   1.828
  410SOL     OW 2128   1.814   3.309   1.846
  410SOL    HW1 2129   1.792   3.212   1.847
  410SOL    HW2 2130   1.819   3.343   1.940
  411SOL     OW 2131   6.775   1.571   1.279
  411SOL    HW1 2132   6.713   1.516   1.335
  411SOL    HW2 2133   6.755   1.555   1.183
  412SOL     OW 2134   2.333   4.418   3.176
  412SOL    HW1 2135   2.329   4.482   3.100
  412SOL    HW2 2136   2.413   4.438   3.233
  413SOL     OW 2137   6.339   5.429   2.889
  413SOL    HW1 2138   6.271   5.414   2.961
  413SOL    HW2 2139   6.294   5.467   2.808
  414SOL     OW 2140   2.749   6.786   2.460
  414SOL    HW1 2141   2.827   6.829   2.506
  414SOL    HW2 2142   2.670   6.847   2.465
  415SOL     OW 2143   5.861   2.908   1.137
  415SOL    HW1 2144   5.929   2.949   1.197
  415SOL    HW2 2145   5.830   2.821   1.176
  416SOL     OW 2146   6.234   3.181   0.015
  416SOL    HW1 2147   6.217   3.168   0.113
  416SOL    HW2 2148   6.173   3.252   7.000
  417SOL     OW 2149   2.253   2.596   5.427
  417SOL    HW1 2150   2.283   2.502   5.439
  417SOL    HW2 2151   2.320   2.646   5.372
  418SOL     OW 2152   4.090   6.175   6.591
  418SOL    HW1 2153   4.167   6.197   6.651
  418SOL    HW2 2154   4.043   6.094   6.626
  419SOL     OW 2155   6.070   0.108   0.612
  419SOL    HW1 2156   6.076   0.175   0.686
  419SOL    HW2 2157   6.141   0.126   0.544
  420SOL     OW 2158   3.313   6.612   1.204
  420SOL    HW1 2159   3.284   6.661   1.122
  420SOL    HW2 2160   3.233   6.592   1.261
  421SOL     OW 2161   5.363   4.811   2.808
  421SOL    HW1 2162   5.265   4.812   2.827
  421SOL    HW2 2163   5.392   4.901   2.775
  422SOL     OW 2164   4.105   1.422   2.229
  422SOL    HW1 2165   4.178   1.442   2.163
  422SOL    HW2 2166   4.032   1.489   2.218
  423SOL     OW 2167   2.346   0.717   5.917
  423SOL    HW1 2168   2.321   0.751   6.007
  423SOL    HW2 2169   2.298   0.771   5.847
  424SOL     OW 2170   1.561   4.557   4.359
  424SOL    HW1 2171   1.477   4.533   4.310
  424SOL    HW2 2172   1.540   4.569   4.456
  425SOL     OW 2173   3.111   1.293   6.781
  425SOL    HW1 2174   3.131   1.359   6.709
  425SOL    HW2 2175   3.015   1.263   6.773
  426SOL     OW 2176   2.525   2.330   3.289
  426SOL    HW1 2177   2.429   2.327   3.315
  426SOL    HW2 2178   2.540   2.273   3.208
  427SOL     OW 2179   4.499   1.424   4.408
  427SOL    HW1 2180   4.565   1.469   4.469
  427SOL    HW2 2181   4.424   1.486   4.387
  428SOL     OW 2182   2.116   2.175   6.086
  428SOL    HW1 2183   2.030   2.219   6.059
  428SOL    HW2 2184   2.184   2.186   6.013
  429SOL     OW 2185   6.919   6.770   3.322
  429SOL    HW1 2186   6.859   6.822   3.381
  429SOL    HW2 2187   6.987   6.831   3.280
  430SOL     OW 2188   1.751   1.404   3.612
  430SOL    HW1 2189   1.785   1.497   3.600
  430SOL    HW2 2190   1.688   1.382   3.538
  431SOL     OW 2191   2.481   1.130   1.526
  431SOL    HW1 2192   2.401   1.106   1.581
  431SOL    HW2 2193   2.508   1.051   1.471
  432SOL     OW 2194   5.398   1.813   2.025
  432SOL    HW1 2195   5.449   1.785   2.106
  432SOL    HW2 2196   5.431   1.902   1.994
  433SOL     OW 2197   2.082   3.964   6.964
  433SOL    HW1 2198   2.040   3.877   6.938
  433SOL    HW2 2199   2.115   3.959   0.038
  434SOL     OW 2200   3.825   5.643   2.816
  434SOL    HW1 2201   3.827   5.545   2.797
  434SOL    HW2 2202   3.734   5.679   2.798
  435SOL     OW 2203   2.685   2.861   6.735
  435SOL    HW1 2204   2.617   2.899   6.673
  435SOL    HW2 2205   2.752   2.807   6.683
  436SOL     OW 2206   5.271   6.353   2.511
  436SOL    HW1 2207   5.245   6.344   2.607
  436SOL    HW2 2208   5.198   6.400   2.461
  437SOL     OW 2209   6.983   1.077   5.621
  437SOL    HW1 2210   6.972   1.014   5.544
  437SOL    HW2 2211   0.060   1.103   5.629
  438SOL     OW 2212   0.886   3.741   1.726
  438SOL    HW1 2213   0.950   3.801   1.679
  438SOL    HW2 2214   0.915   3.727   1.820
  439SOL     OW 2215   0.596   1.413   6.594
  439SOL    HW1 2216   0.662   1.417   6.669
  439SOL    HW2 2217   0.644   1.412   6.507
  440SOL     OW 2218   3.750   1.523   1.225
  440SOL    HW1 2219   3.714   1.474   1.304
  440SOL    HW2 2220   3.850   1.517   1.225
  441SOL     OW 2221   1.180   4.525   2.740
  441SOL    HW1 2222   1.196   4.603   2.679
  441SOL    HW2 2223   1.236   4.536   2.823
  442SOL     OW 2224   3.153   3.312   4.944
  442SOL    HW1 2225   3.156   3.247   4.868
  442SOL    HW2 2226   3.094   3.275   5.017
  443SOL     OW 2227   4.819   2.532   1.985
  443SOL    HW1 2228   4.799   2.444   1.943
  443SOL    HW2 2229   4.917   2.550   1.981
  444SOL     OW 2230   4.243   2.304   0.944
  444SOL    HW1 2231   4.183   2.229   0.918
  444SOL    HW2 2232   4.190   2.374   0.993
  445SOL     OW 2233   2.363   6.007   3.619
  445SOL    HW1 2234   2.290   6.022   3.687
  445SOL    HW2 2235   2.411   5.922   3.641
  446SOL     OW 2236   0.187   6.556   0.612
  446SOL    HW1 2237   0.275   6.509   0.615
  446SOL    HW2 2238   0.201   6.653   0.596
  447SOL     OW 2239   6.545   3.273   0.120
  447SOL    HW1 2240   6.547   3.243   0.024
  447SOL    HW2 2241   6.493   3.206   0.174
  448SOL     OW 2242   3.525   6.823   4.241
  448SOL    HW1 2243   3.600   6.757   4.248
  448SOL    HW2 2244   3.562   6.915   4.232
  449SOL     OW 2245   0.770   3.895   4.901
  449SOL    HW1 2246   0.819   3.814   4.934
  449SOL    HW2 2247   0.827   3.976   4.916
  450SOL     OW 2248   6.527   3.884   4.010
  450SOL    HW1 2249   6.514   3.853   4.105
  450SOL    HW2 2250   6.618   3.858   3.979
  451SOL     OW 2251   2.494   1.623   6.466
  451SOL    HW1 2252   2.488   1.698   6.532
  451SOL    HW2 2253   2.532   1.658   6.380
  452SOL     OW 2254   4.690   5.038   1.544
  452SOL    HW1 2255   4.750   5.101   1.496
  452SOL    HW2 2256   4.597   5.047   1.508
  453SOL     OW 2257   4.068   1.061   0.224
  453SOL    HW1 2258   4.113   1.146   0.197
  453SOL    HW2 2259   3.979   1.055   0.181
  454SOL     OW 2260   6.864   3.009   3.696
  454SOL    HW1 2261   6.856   2.910   3.682
  454SOL    HW2 2262   6.955   3.039   3.667
  455SOL     OW 2263   5.895   5.344   0.407
  455SOL    HW1 2264   5.918   5.295   0.491
  455SOL    HW2 2265   5.845   5.283   0.346
  456SOL     OW 2266   1.373   1.201   3.139
  456SOL    HW1 2267   1.354   1.228   3.233
  456SOL    HW2 2268   1.379   1.101   3.134
  457SOL     OW 2269   2.935   6.002   0.924
  457SOL    HW1 2270   2.982   5.975   1.007
  457SOL    HW2 2271   2.960   5.941   0.849
  458SOL     OW 2272   2.996   0.940   4.249
  458SOL    HW1 2273   2.974   0.843   4.259
  458SOL    HW2 2274   2.970   0.971   4.157
  459SOL     OW 2275   3.102   1.276   3.882
  459SOL    HW1 2276   3.162   1.202   3.914
  459SOL    HW2 2277   3.050   1.244   3.803
  460SOL     OW 2278   1.105   1.474   6.717
  460SOL    HW1 2279   1.071   1.393   6.764
  460SOL    HW2 2280   1.038   1.548   6.725
  461SOL     OW 2281   1.190   0.043   4.622
  461SOL    HW1 2282   1.143   0.003   4.700
  461SOL    HW2 2283   1.288   0.047   4.640
  462SOL     OW 2284   3.802   4.062   5.382
  462SOL    HW1 2285   3.873   4.001   5.346
  462SOL    HW2 2286   3.820   4.155   5.351
  463SOL     OW 2287   5.620   6.421   3.227
  463SOL    HW1 2288   5.558   6.420   3.306
  463SOL    HW2 2289   5.587   6.486   3.159
  464SOL     OW 2290   4.351   5.965   4.847
  464SOL    HW1 2291   4.308   5.885   4.806
  464SOL    HW2 2292   4.292   6.001   4.919
  465SOL     OW 2293   0.790   5.493   1.041
  465SOL    HW1 2294   0.836   5.582   1.039
  465SOL    HW2 2295   0.797   5.450   0.952
  466SOL     OW 2296   3.445   4.912   3.752
  466SOL    HW1 2297   3.508   4.894   3.828
  466SOL    HW2 2298   3.362   4.956   3.787
  467SOL     OW 2299   6.988   6.774   1.402
  467SOL    HW1 2300   6.919   6.701   1.401
  467SOL    HW2 2301   0.039   6.753   1.469
  468SOL     OW 2302   2.535   6.929   6.902
  468SOL    HW1 2303   2.589   6.893   6.978
  468SOL    HW2 2304   2.521   6.857   6.834
  469SOL     OW 2305   3.874   5.062   5.382
  469SOL    HW1 2306   3.955   5.017   5.343
  469SOL    HW2 2307   3.831   5.001   5.447
  470SOL     OW 2308   2.851   5.221   2.022
  470SOL    HW1 2309   2.907   5.167   1.960
  470SOL    HW2 2310   2.880   5.317   2.020
  471SOL     OW 2311   1.454   2.141   4.279
  471SOL    HW1 2312   1.488   2.057   4.238
  471SOL    HW2 2313   1.531   2.193   4.317
  472SOL     OW 2314   5.206   3.988   6.642
  472SOL    HW1 2315   5.215   4.026   6.550
  472SOL    HW2 2316   5.259   3.904   6.648
  473SOL     OW 2317   5.532   3.388   1.971
  473SOL    HW1 2318   5.565   3.311   2.025
  473SOL    HW2 2319   5.498   3.355   1.883
  474SOL     OW 2320   5.108   4.751   3.774
  474SOL    HW1 2321   5.101   4.850   3.763
  474SOL    HW2 2322   5.173   4.714   3.708
  475SOL     OW 2323   4.693   1.437   0.456
  475SOL    HW1 2324   4.754   1.402   0.528
  475SOL    HW2 2325   4.622   1.369   0.437
  476SOL     OW 2326   1.204   2.659   0.092
  476SOL    HW1 2327   1.280   2.723   0.074
  476SOL    HW2 2328   1.123   2.691   0.044
  477SOL     OW 2329   5.577   5.793   3.767
  477SOL    HW1 2330   5.618   5.723   3.825
  477SOL    HW2 2331   5.477   5.780   3.766
  478SOL     OW 2332   6.509   5.017   1.824
  478SOL    HW1 2333   6.522   5.031   1.726
  478SOL    HW2 2334   6.505   5.105   1.871
  479SOL     OW 2335   3.454   3.857   2.896
  479SOL    HW1 2336   3.501   3.928   2.844
  479SOL    HW2 2337   3.455   3.880   2.993
  480SOL     OW 2338   0.079   0.247   1.913
  480SOL    HW1 2339   0.138   0.320   1.946
  480SOL    HW2 2340   0.017   0.218   1.986
  481SOL     OW 2341   6.143   6.279   1.199
  481SOL    HW1 2342   6.164   6.181   1.198
  481SOL    HW2 2343   6.044   6.291   1.195
  482SOL     OW 2344   3.751   4.863   2.816
  482SOL    HW1 2345   3.797   4.938   2.768
  482SOL    HW2 2346   3.656   4.857   2.786
  483SOL     OW 2347   5.994   1.883   4.650
  483SOL    HW1 2348   5.962   1.848   4.738
  483SOL    HW2 2349   5.925   1.944   4.610
  484SOL     OW 2350   2.434   5.371   3.939
  484SOL    HW1 2351   2.532   5.358   3.954
  484SOL    HW2 2352   2.385   5.285   3.956
  485SOL     OW 2353   4.704   2.480   0.840
  485SOL    HW1 2354   4.643   2.474   0.919
  485SOL    HW2 2355   4.713   2.389   0.798
  486SOL     OW 2356   6.056   6.316   5.338
  486SOL    HW1 2357   6.110   6.392   5.373
  486SOL    HW2 2358   6.090   6.230   5.377
  487SOL     OW 2359   6.516   0.950   6.760
  487SOL    HW1 2360   6.420   0.972   6.776
  487SOL    HW2 2361   6.528   0.923   6.664
  488SOL     OW 2362   1.985   6.249   3.822
  488SOL    HW1 2363   1.914   6.285   3.883
  488SOL    HW2 2364   1.949   6.242   3.729
  489SOL     OW 2365   2.691   4.510   5.360
  489SOL    HW1 2366   2.727   4.437   5.417
  489SOL    HW2 2367   2.747   4.518   5.277
  490SOL     OW 2368   1.288   3.670   5.145
  490SOL    HW1 2369   1.383   3.654   5.172
  490SOL    HW2 2370   1.258   3.598   5.082
  491SOL     OW 2371   6.280   3.134   1.387
  491SOL    HW1 2372   6.271   3.050   1.441
  491SOL    HW2 2373   6.286   3.212   1.449
  492SOL     OW 2374   1.593   2.736   5.465
  492SOL    HW1 2375   1.513   2.751   5.522
  492SOL    HW2 2376   1.565   2.700   5.376
  493SOL     OW 2377   1.365   5.591   3.577
  493SOL    HW1 2378   1.433   5.519   3.590
  493SOL    HW2 2379   1.411   5.675   3.546
  494SOL     OW 2380   2.809   0.282   2.522
  494SOL    HW1 2381   2.897   0.314   2.557
  494SOL    HW2 2382   2.780   0.202   2.574
  495SOL     OW 2383   4.018   4.388   0.185
  495SOL    HW1 2384   4.009   4.478   0.228
  495SOL    HW2 2385   3.942   4.374   0.122
  496SOL     OW 2386   4.900   0.031   3.084
  496SOL    HW1 2387   4.859   0.118   3.109
  496SOL    HW2 2388   4.974   0.046   3.018
  497SOL     OW 2389   4.935   3.009   1.167
  497SOL    HW1 2390   4.876   3.075   1.120
  497SOL    HW2 2391   5.000   2.970   1.102
  498SOL     OW 2392   1.196   0.035   0.855
  498SOL    HW1 2393   1.212   7.019   0.947
  498SOL    HW2 2394   1.111   0.089   0.855
  499SOL     OW 2395   3.102   6.659   6.505
  499SOL    HW1 2396   3.145   6.749   6.497
  499SOL    HW2 2397   3.162   6.598   6.557
  500SOL     OW 2398   6.062   1.504   6.240
  500SOL    HW1 2399   6.006   1.435   6.194
  500SOL    HW2 2400   6.016   1.533   6.324
  501SOL     OW 2401   1.971   2.273   4.601
  501SOL    HW1 2402   2.004   2.243   4.512
  501SOL    HW2 2403   1.951   2.371   4.598
  502SOL     OW 2404   2.923   2.876   7.002
  502SOL    HW1 2405   2.910   2.802   6.936
  502SOL    HW2 2406   2.958   2.837   0.069
  503SOL     OW 2407   4.315   5.449   1.196
  503SOL    HW1 2408   4.404   5.434   1.237
  503SOL    HW2 2409   4.307   5.395   1.112
  504SOL     OW 2410   6.247   0.967   6.979
  504SOL    HW1 2411   6.311   1.044   6.986
  504SOL    HW2 2412   6.153   1.001   6.984
  505SOL     OW 2413   0.424   3.579   5.355
  505SOL    HW1 2414   0.446   3.653   5.291
  505SOL    HW2 2415   0.325   3.568   5.361
  506SOL     OW 2416   2.573   5.929   2.103
  506SOL    HW1 2417   2.624   5.951   2.186
  506SOL    HW2 2418   2.594   5.835   2.075
  507SOL     OW 2419   2.626   6.885   3.945
  507SOL    HW1 2420   2.635   6.980   3.975
  507SOL    HW2 2421   2.689   6.868   3.869
  508SOL     OW 2422   0.596   5.361   2.806
  508SOL    HW1 2423   0.521   5.421   2.835
  508SOL    HW2 2424   0.565   5.304   2.730
  509SOL     OW 2425   5.006   0.559   5.896
  509SOL    HW1 2426   5.068   0.625   5.853
  509SOL    HW2 2427   4.970   0.596   5.981
  510SOL     OW 2428   6.470   4.488   0.327
  510SOL    HW1 2429   6.395   4.443   0.278
  510SOL    HW2 2430   6.521   4.546   0.263
  511SOL     OW 2431   6.972   1.988   0.522
  511SOL    HW1 2432   6.897   1.935   0.562
  511SOL    HW2 2433   0.012   2.022   0.595
  512SOL     OW 2434   1.583   1.911   4.605
  512SOL    HW1 2435   1.521   1.962   4.545
  512SOL    HW2 2436   1.659   1.970   4.632
  513SOL     OW 2437   5.600   5.693   2.809
  513SOL    HW1 2438   5.654   5.609   2.805
  513SOL    HW2 2439   5.591   5.723   2.904
  514SOL     OW 2440   4.885   1.392   4.404
  514SOL    HW1 2441   4.903   1.473   4.461
  514SOL    HW2 2442   4.864   1.314   4.463
  515SOL     OW 2443   3.148   0.559   6.438
  515SOL    HW1 2444   3.182   0.505   6.362
  515SOL    HW2 2445   3.145   0.502   6.521
  516SOL     OW 2446   0.446   5.651   2.800
  516SOL    HW1 2447   0.519   5.717   2.818
  516SOL    HW2 2448   0.376   5.658   2.871
  517SOL     OW 2449   3.747   5.533   0.599
  517SOL    HW1 2450   3.805   5.596   0.547
  517SOL    HW2 2451   3.802   5.485   0.667
  518SOL     OW 2452   1.996   0.251   3.865
  518SOL    HW1 2453   1.984   0.159   3.904
  518SOL    HW2 2454   2.067   0.248   3.794
  519SOL     OW 2455   6.599   6.945   2.914
  519SOL    HW1 2456   6.693   6.962   2.944
  519SOL    HW2 2457   6.594   6.856   2.868
  520SOL     OW 2458   3.611   5.714   0.771
  520SOL    HW1 2459   3.624   5.685   0.866
  520SOL    HW2 2460   3.641   5.641   0.709
  521SOL     OW 2461   0.172   6.969   5.167
  521SOL    HW1 2462   0.211   6.906   5.099
  521SOL    HW2 2463   0.195   0.043   5.141
  522SOL     OW 2464   3.281   5.282   6.612
  522SOL    HW1 2465   3.345   5.215   6.650
  522SOL    HW2 2466   3.267   5.356   6.677
  523SOL     OW 2467   1.685   6.615   6.113
  523SOL    HW1 2468   1.644   6.670   6.039
  523SOL    HW2 2469   1.694   6.520   6.084
  524SOL     OW 2470   6.454   1.246   1.258
  524SOL    HW1 2471   6.403   1.181   1.315
  524SOL    HW2 2472   6.501   1.311   1.317
  525SOL     OW 2473   0.778   3.001   3.534
  525SOL    HW1 2474   0.779   3.060   3.453
  525SOL    HW2 2475   0.869   2.998   3.575
  526SOL     OW 2476   3.872   6.049   4.445
  526SOL    HW1 2477   3.852   6.139   4.406
  526SOL    HW2 2478   3.970   6.041   4.461
  527SOL     OW 2479   6.581   1.287   0.841
  527SOL    HW1 2480   6.650   1.223   0.875
  527SOL    HW2 2481   6.495   1.270   0.889
  528SOL     OW 2482   0.160   1.493   3.966
  528SOL    HW1 2483   0.240   1.536   4.008
  528SOL    HW2 2484   0.152   1.525   3.871
  529SOL     OW 2485   0.895   1.308   5.934
  529SOL    HW1 2486   0.953   1.378   5.893
  529SOL    HW2 2487   0.875   1.332   6.029
  530SOL     OW 2488   3.437   4.236   1.617
  530SOL    HW1 2489   3.466   4.268   1.707
  530SOL    HW2 2490   3.465   4.303   1.547
  531SOL     OW 2491   0.069   1.577   5.901
  531SOL    HW1 2492   0.093   1.607   5.993
  531SOL    HW2 2493   7.006   1.520   5.905
  532SOL     OW 2494   3.438   0.828   6.722
  532SOL    HW1 2495   3.445   0.774   6.638
  532SOL    HW2 2496   3.480   0.917   6.707
  533SOL     OW 2497   3.555   0.399   4.837
  533SOL    HW1 2498   3.608   0.450   4.905
  533SOL    HW2 2499   3.591   0.416   4.746
  534SOL     OW 2500   2.256   4.139   1.380
  534SOL    HW1 2501   2.247   4.179   1.289
  534SOL    HW2 2502   2.353   4.130   1.404
  535SOL     OW 2503   4.549   4.383   3.389
  535SOL    HW1 2504   4.480   4.440   3.432
  535SOL    HW2 2505   4.613   4.350   3.458
  536SOL     OW 2506   6.663   6.759   1.092
  536SOL    HW1 2507   6.715   6.690   1.042
  536SOL    HW2 2508   6.725   6.820   1.141
  537SOL     OW 2509   3.426   1.776   2.722
  537SOL    HW1 2510   3.413   1.699   2.659
  537SOL    HW2 2511   3.362   1.769   2.798
  538SOL     OW 2512   3.920   5.154   5.915
  538SOL    HW1 2513   3.914   5.164   6.015
  538SOL    HW2 2514   3.992   5.215   5.880
  539SOL     OW 2515   2.343   0.222   0.167
  539SOL    HW1 2516   2.271   0.204   0.234
  539SOL    HW2 2517   2.304   0.221   0.075
  540SOL     OW 2518   2.464   1.527   5.391
  540SOL    HW1 2519   2.448   1.626   5.388
  540SOL    HW2 2520   2.525   1.501   5.316
  541SOL     OW 2521   5.366   5.831   2.130
  541SOL    HW1 2522   5.357   5.918   2.178
  541SOL    HW2 2523   5.445   5.836   2.068
  542SOL     OW 2524   3.854   5.634   5.999
  542SOL    HW1 2525   3.905   5.720   6.011
  542SOL    HW2 2526   3.916   5.562   5.969
  543SOL     OW 2527   6.470   1.800   5.085
  543SOL    HW1 2528   6.450   1.776   5.180
  543SOL    HW2 2529   6.567   1.788   5.067
  544SOL     OW 2530   1.130   2.430   1.378
  544SOL    HW1 2531   1.116   2.366   1.453
  544SOL    HW2 2532   1.084   2.396   1.296
  545SOL     OW 2533   7.015   5.461   0.623
  545SOL    HW1 2534   0.000   5.362   0.635
  545SOL    HW2 2535   6.991   5.482   0.529
  546SOL     OW 2536   6.408   6.247   2.862
  546SOL    HW1 2537   6.429   6.183   2.935
  546SOL    HW2 2538   6.369   6.197   2.784
  547SOL     OW 2539   3.648   6.018   6.892
  547SOL    HW1 2540   3.625   6.035   6.989
  547SOL    HW2 2541   3.710   6.089   6.860
  548SOL     OW 2542   4.070   3.151   6.487
  548SOL    HW1 2543   4.141   3.207   6.529
  548SOL    HW2 2544   3.980   3.186   6.514
  549SOL     OW 2545   5.608   2.640   3.594
  549SOL    HW1 2546   5.666   2.710   3.636
  549SOL    HW2 2547   5.527   2.627   3.650
  550SOL     OW 2548   0.269   5.588   3.854
  550SOL    HW1 2549   0.232   5.512   3.907
  550SOL    HW2 2550   0.359   5.563   3.817
  551SOL     OW 2551   5.408   0.739   0.455
  551SOL    HW1 2552   5.460   0.824   0.449
  551SOL    HW2 2553   5.472   0.662   0.457
  552SOL     OW 2554   0.685   0.685   4.594
  552SOL    HW1 2555   0.695   0.658   4.689
  552SOL    HW2 2556   0.771   0.668   4.546
  553SOL     OW 2557   3.809   2.254   5.364
  553SOL    HW1 2558   3.771   2.343   5.389
  553SOL    HW2 2559   3.736   2.185   5.368
  554SOL     OW 2560   0.253   4.844   0.416
  554SOL    HW1 2561   0.204   4.820   0.332
  554SOL    HW2 2562   0.189   4.876   0.485
  555SOL     OW 2563   3.533   4.690   5.811
  555SOL    HW1 2564   3.537   4.777   5.763
  555SOL    HW2 2565   3.489   4.622   5.754
  556SOL     OW 2566   5.660   6.130   3.197
  556SOL    HW1 2567   5.587   6.143   3.264
  556SOL    HW2 2568   5.703   6.217   3.178
  557SOL     OW 2569   6.583   3.535   0.165
  557SOL    HW1 2570   6.625   3.553   0.076
  557SOL    HW2 2571   6.551   3.440   0.168
  558SOL     OW 2572   3.278   3.267   1.896
  558SOL    HW1 2573   3.316   3.321   1.971
  558SOL    HW2 2574   3.205   3.208   1.931
  559SOL     OW 2575   6.328   0.917   6.301
  559SOL    HW1 2576   6.261   0.959   6.239
  559SOL    HW2 2577   6.305   0.939   6.395
  560SOL     OW 2578   1.851   2.405   3.413
  560SOL    HW1 2579   1.857   2.346   3.333
  560SOL    HW2 2580   1.913   2.373   3.484
  561SOL     OW 2581   0.050   3.898   0.192
  561SOL    HW1 2582   0.059   3.918   0.095
  561SOL    HW2 2583   6.974   3.875   0.213
  562SOL     OW 2584   3.423   5.835   3.519
  562SOL    HW1 2585   3.429   5.768   3.445
  562SOL    HW2 2586   3.503   5.827   3.578
  563SOL     OW 2587   0.718   1.095   4.154
  563SOL    HW1 2588   0.718   1.032   4.076
  563SOL    HW2 2589   0.650   1.064   4.221
  564SOL     OW 2590   6.059   1.657   5.775
  564SOL    HW1 2591   6.099   1.736   5.728
  564SOL    HW2 2592   6.015   1.597   5.708
  565SOL     OW 2593   3.378   3.352   3.630
  565SOL    HW1 2594   3.433   3.388   3.706
  565SOL    HW2 2595   3.292   3.404   3.624
  566SOL     OW 2596   1.351   2.821   3.522
  566SOL    HW1 2597   1.367   2.738   3.574
  566SOL    HW2 2598   1.279   2.875   3.565
  567SOL     OW 2599   1.476   3.043   5.193
  567SOL    HW1 2600   1.548   3.039   5.263
  567SOL    HW2 2601   1.450   3.138   5.178
  568SOL     OW 2602   1.137   0.643   6.643
  568SOL    HW1 2603   1.150   0.571   6.576
  568SOL    HW2 2604   1.070   0.613   6.712
  569SOL     OW 2605   5.221   3.238   5.352
  569SOL    HW1 2606   5.266   3.306   5.294
  569SOL    HW2 2607   5.216   3.273   5.446
  570SOL     OW 2608   3.361   0.478   5.913
  570SOL    HW1 2609   3.292   0.408   5.928
  570SOL    HW2 2610   3.415   0.492   5.996
  571SOL     OW 2611   2.323   4.495   2.000
  571SOL    HW1 2612   2.392   4.556   1.962
  571SOL    HW2 2613   2.368   4.428   2.061
  572SOL     OW 2614   2.745   1.665   4.785
  572SOL    HW1 2615   2.682   1.678   4.861
  572SOL    HW2 2616   2.805   1.745   4.778
  573SOL     OW 2617   0.793   6.973   5.693
  573SOL    HW1 2618   0.708   6.988   5.742
  573SOL    HW2 2619   0.851   6.910   5.744
  574SOL     OW 2620   2.616   0.748   5.922
  574SOL    HW1 2621   2.680   0.713   5.990
  574SOL    HW2 2622   2.524   0.717   5.944
  575SOL     OW 2623   4.016   3.496   0.439
  575SOL    HW1 2624   3.987   3.568   0.376
  575SOL    HW2 2625   3.942   3.475   0.501
  576SOL     OW 2626   6.947   0.533   3.464
  576SOL    HW1 2627   6.956   0.617   3.411
  576SOL    HW2 2628   6.862   0.487   3.440
  577SOL     OW 2629   0.078   0.135   2.324
  577SOL    HW1 2630   0.157   0.086   2.287
  577SOL    HW2 2631   0.024   0.073   2.382
  578SOL     OW 2632   4.105   6.751   0.714
  578SOL    HW1 2633   4.171   6.784   0.646
  578SOL    HW2 2634   4.043   6.825   0.739
  579SOL     OW 2635   0.596   3.841   1.713
  579SOL    HW1 2636   0.668   3.776   1.738
  579SOL    HW2 2637   0.637   3.930   1.694
  580SOL     OW 2638   4.533   4.806   4.912
  580SOL    HW1 2639   4.559   4.902   4.907
  580SOL    HW2 2640   4.447   4.797   4.963
  581SOL     OW 2641   2.385   2.437   3.707
  581SOL    HW1 2642   2.465   2.378   3.694
  581SOL    HW2 2643   2.378   2.500   3.629
  582SOL     OW 2644   5.268   4.151   4.968
  582SOL    HW1 2645   5.329   4.230   4.966
  582SOL    HW2 2646   5.180   4.177   5.007
  583SOL     OW 2647   3.188   5.770   5.679
  583SOL    HW1 2648   3.192   5.671   5.665
  583SOL    HW2 2649   3.236   5.794   5.763
  584SOL     OW 2650   3.689   0.540   5.267
  584SOL    HW1 2651   3.727   0.632   5.263
  584SOL    HW2 2652   3.740   0.486   5.333
  585SOL     OW 2653   3.589   6.364   1.621
  585SOL    HW1 2654   3.503   6.314   1.621
  585SOL    HW2 2655   3.618   6.379   1.526
  586SOL     OW 2656   3.680   0.316   0.983
  586SOL    HW1 2657   3.713   0.276   1.069
  586SOL    HW2 2658   3.662   0.242   0.917
  587SOL     OW 2659   4.676   0.562   2.762
  587SOL    HW1 2660   4.740   0.594   2.693
  587SOL    HW2 2661   4.697   0.605   2.850
  588SOL     OW 2662   2.254   4.135   2.650
  588SOL    HW1 2663   2.289   4.221   2.613
  588SOL    HW2 2664   2.262   4.063   2.580
  589SOL     OW 2665   3.181   4.486   6.236
  589SOL    HW1 2666   3.133   4.573   6.233
  589SOL    HW2 2667   3.278   4.503   6.254
  590SOL     OW 2668   2.348   1.943   5.899
  590SOL    HW1 2669   2.302   1.908   5.980
  590SOL    HW2 2670   2.337   1.879   5.824
  591SOL     OW 2671   2.842   0.210   4.206
  591SOL    HW1 2672   2.919   0.227   4.268
  591SOL    HW2 2673   2.813   0.114   4.214
  592SOL     OW 2674   4.472   2.072   4.305
  592SOL    HW1 2675   4.416   2.149   4.276
  592SOL    HW2 2676   4.566   2.085   4.271
  593SOL     OW 2677   1.697   0.222   0.296
  593SOL    HW1 2678   1.690   0.322   0.296
  593SOL    HW2 2679   1.705   0.190   0.390
  594SOL     OW 2680   3.410   1.335   5.414
  594SOL    HW1 2681   3.354   1.415   5.394
  594SOL    HW2 2682   3.372   1.255   5.368
  595SOL     OW 2683   6.405   3.745   2.342
  595SOL    HW1 2684   6.468   3.672   2.371
  595SOL    HW2 2685   6.438   3.785   2.257
  596SOL     OW 2686   6.348   4.615   4.296
  596SOL    HW1 2687   6.421   4.671   4.257
  596SOL    HW2 2688   6.281   4.592   4.225
  597SOL     OW 2689   4.000   1.494   6.589
  597SOL    HW1 2690   3.968   1.586   6.567
  597SOL    HW2 2691   4.070   1.499   6.661
  598SOL     OW 2692   3.084   2.976   2.309
  598SOL    HW1 2693   3.022   2.912   2.354
  598SOL    HW2 2694   3.172   2.977   2.356
  599SOL     OW 2695   2.068   4.879   1.054
  599SOL    HW1 2696   2.137   4.932   1.006
  599SOL    HW2 2697   2.111   4.801   1.100
  600SOL     OW 2698   0.333   3.167   6.017
  600SOL    HW1 2699   0.323   3.096   6.086
  600SOL    HW2 2700   0.429   3.193   6.009
  601SOL     OW 2701   0.138   0.008   5.602
  601SOL    HW1 2702   0.122   0.090   5.547
  601SOL    HW2 2703   0.200   0.031   5.677
  602SOL     OW 2704   0.556   0.645   3.169
  602SOL    HW1 2705   0.612   0.678   3.093
  602SOL    HW2 2706   0.460   0.667   3.151
  603SOL     OW 2707   1.301   1.622   3.712
  603SOL    HW1 2708   1.257   1.556   3.652
  603SOL    HW2 2709   1.283   1.598   3.808
  604SOL     OW 2710   5.318   2.145   0.946
  604SOL    HW1 2711   5.296   2.133   1.043
  604SOL    HW2 2712   5.242   2.113   0.890
  605SOL     OW 2713   5.608   6.679   2.078
  605SOL    HW1 2714   5.696   6.677   2.029
  605SOL    HW2 2715   5.535   6.705   2.014
  606SOL     OW 2716   3.022   6.377   5.219
  606SOL    HW1 2717   2.946   6.314   5.233
  606SOL    HW2 2718   2.998   6.468   5.254
  607SOL     OW 2719   1.724   3.547   6.083
  607SOL    HW1 2720   1.694   3.596   6.001
  607SOL    HW2 2721   1.820   3.570   6.102
  608SOL     OW 2722   2.859   1.406   0.058
  608SOL    HW1 2723   2.867   1.414   6.979
  608SOL    HW2 2724   2.922   1.469   0.103
  609SOL     OW 2725   3.952   3.095   2.396
  609SOL    HW1 2726   3.974   3.168   2.332
  609SOL    HW2 2727   3.955   3.130   2.490
  610SOL     OW 2728   5.051   2.815   2.115
  610SOL    HW1 2729   5.127   2.757   2.088
  610SOL    HW2 2730   5.073   2.860   2.202
  611SOL     OW 2731   3.685   1.658   2.033
  611SOL    HW1 2732   3.746   1.729   1.998
  611SOL    HW2 2733   3.644   1.607   1.957
  612SOL     OW 2734   4.264   5.357   4.446
  612SOL    HW1 2735   4.203   5.287   4.483
  612SOL    HW2 2736   4.326   5.316   4.380
  613SOL     OW 2737   3.937   5.542   6.485
  613SOL    HW1 2738   3.872   5.576   6.417
  613SOL    HW2 2739   3.888   5.490   6.555
  614SOL     OW 2740   3.471   6.117   6.016
  614SOL    HW1 2741   3.470   6.193   6.081
  614SOL    HW2 2742   3.505   6.150   5.927
  615SOL     OW 2743   6.731   5.137   3.618
  615SOL    HW1 2744   6.790   5.069   3.663
  615SOL    HW2 2745   6.788   5.199   3.565
  616SOL     OW 2746   6.021   2.389   3.799
  616SOL    HW1 2747   6.062   2.463   3.853
  616SOL    HW2 2748   6.018   2.306   3.855
  617SOL     OW 2749   2.127   0.581   6.181
  617SOL    HW1 2750   2.223   0.608   6.185
  617SOL    HW2 2751   2.088   0.580   6.273
  618SOL     OW 2752   2.141   0.489   2.605
  618SOL    HW1 2753   2.093   0.438   2.534
  618SOL    HW2 2754   2.238   0.496   2.582
  619SOL     OW 2755   0.957   2.219   6.665
  619SOL    HW1 2756   0.979   2.162   6.585
  619SOL    HW2 2757   1.010   2.188   6.744
  620SOL     OW 2758   4.671   4.056   0.805
  620SOL    HW1 2759   4.724   4.127   0.851
  620SOL    HW2 2760   4.641   3.988   0.872
  621SOL     OW 2761   0.069   6.082   1.038
  621SOL    HW1 2762   0.101   6.067   1.131
  621SOL    HW2 2763   0.148   6.090   0.976
  622SOL     OW 2764   1.060   1.241   6.864
  622SOL    HW1 2765   1.137   1.184   6.894
  622SOL    HW2 2766   0.985   1.182   6.833
  623SOL     OW 2767   6.540   6.060   5.348
  623SOL    HW1 2768   6.480   5.995   5.300
  623SOL    HW2 2769   6.487   6.140   5.376
  624SOL     OW 2770   0.150   1.711   1.228
  624SOL    HW1 2771   0.090   1.649   1.278
  624SOL    HW2 2772   0.099   1.756   1.155
  625SOL     OW 2773   1.416   0.733   1.966
  625SOL    HW1 2774   1.472   0.815   1.960
  625SOL    HW2 2775   1.328   0.756   2.009
  626SOL     OW 2776   3.638   5.426   5.035
  626SOL    HW1 2777   3.580   5.382   5.104
  626SOL    HW2 2778   3.611   5.522   5.025
  627SOL     OW 2779   4.315   6.095   0.270
  627SOL    HW1 2780   4.278   6.080   0.362
  627SOL    HW2 2781   4.251   6.060   0.202
  628SOL     OW 2782   4.871   3.613   3.814
  628SOL    HW1 2783   4.853   3.706   3.783
  628SOL    HW2 2784   4.901   3.558   3.736
  629SOL     OW 2785   1.629   6.776   1.308
  629SOL    HW1 2786   1.701   6.711   1.283
  629SOL    HW2 2787   1.586   6.811   1.225
  630SOL     OW 2788   2.734   1.211   2.116
  630SOL    HW1 2789   2.669   1.197   2.041
  630SOL    HW2 2790   2.735   1.307   2.142
  631SOL     OW 2791   2.535   1.392   4.254
  631SOL    HW1 2792   2.451   1.343   4.231
  631SOL    HW2 2793   2.562   1.450   4.177
  632SOL     OW 2794   3.108   0.713   0.401
  632SOL    HW1 2795   3.183   0.649   0.417
  632SOL    HW2 2796   3.137   0.806   0.424
  633SOL     OW 2797   2.070   0.333   4.641
  633SOL    HW1 2798   2.051   0.344   4.543
  633SOL    HW2 2799   2.067   0.236   4.665
  634SOL     OW 2800   3.115   5.748   1.936
  634SOL    HW1 2801   3.028   5.791   1.916
  634SOL    HW2 2802   3.134   5.754   2.035
  635SOL     OW 2803   3.241   0.275   2.034
  635SOL    HW1 2804   3.162   0.272   1.973
  635SOL    HW2 2805   3.257   0.185   2.073
  636SOL     OW 2806   5.204   4.790   6.973
  636SOL    HW1 2807   5.185   4.885   6.949
  636SOL    HW2 2808   5.288   4.760   6.929
  637SOL     OW 2809   6.127   4.954   6.267
  637SOL    HW1 2810   6.161   5.030   6.211
  637SOL    HW2 2811   6.039   4.923   6.231
  638SOL     OW 2812   5.827   1.768   3.325
  638SOL    HW1 2813   5.746   1.710   3.314
  638SOL    HW2 2814   5.845   1.782   3.422
  639SOL     OW 2815   3.758   3.696   1.670
  639SOL    HW1 2816   3.662   3.682   1.647
  639SOL    HW2 2817   3.769   3.701   1.769
  640SOL     OW 2818   2.947   2.373   5.346
  640SOL    HW1 2819   3.021   2.349   5.283
  640SOL    HW2 2820   2.934   2.472   5.347
  641SOL     OW 2821   0.192   6.967   4.690
  641SOL    HW1 2822   0.259   6.946   4.760
  641SOL    HW2 2823   0.157   0.041   4.703
  642SOL     OW 2824   0.434   4.511   5.797
  642SOL    HW1 2825   0.519   4.516   5.744
  642SOL    HW2 2826   0.407   4.415   5.807
  643SOL     OW 2827   5.549   6.351   4.685
  643SOL    HW1 2828   5.530   6.439   4.641
  643SOL    HW2 2829   5.550   6.362   4.784
  644SOL     OW 2830   3.363   5.966   1.702
  644SOL    HW1 2831   3.393   5.923   1.787
  644SOL    HW2 2832   3.267   5.946   1.685
  645SOL     OW 2833   0.781   3.139   2.857
  645SOL    HW1 2834   0.757   3.081   2.779
  645SOL    HW2 2835   0.816   3.083   2.931
  646SOL     OW 2836   1.787   3.171   4.379
  646SOL    HW1 2837   1.829   3.196   4.292
  646SOL    HW2 2838   1.702   3.121   4.361
  647SOL     OW 2839   5.616   4.953   0.413
  647SOL    HW1 2840   5.527   4.940   0.457
  647SOL    HW2 2841   5.686   4.968   0.482
  648SOL     OW 2842   4.126   2.168   4.109
  648SOL    HW1 2843   4.032   2.181   4.077
  648SOL    HW2 2844   4.185   2.149   4.031
  649SOL     OW 2845   4.086   4.373   1.397
  649SOL    HW1 2846   4.005   4.344   1.448
  649SOL    HW2 2847   4.089   4.473   1.393
  650SOL     OW 2848   5.708   5.196   0.263
  650SOL    HW1 2849   5.660   5.134   0.325
  650SOL    HW2 2850   5.641   5.245   0.207
  651SOL     OW 2851   1.305   5.796   6.133
  651SOL    HW1 2852   1.257   5.766   6.215
  651SOL    HW2 2853   1.262   5.879   6.096
  652SOL     OW 2854   5.119   2.883   1.335
  652SOL    HW1 2855   5.052   2.936   1.283
  652SOL    HW2 2856   5.199   2.863   1.278
  653SOL     OW 2857   3.417   5.149   3.105
  653SOL    HW1 2858   3.436   5.056   3.075
  653SOL    HW2 2859   3.472   5.213   3.052
  654SOL     OW 2860   6.965   5.432   6.946
  654SOL    HW1 2861   6.990   5.426   6.849
  654SOL    HW2 2862   6.956   5.340   6.984
  655SOL     OW 2863   1.882   1.734   0.803
  655SOL    HW1 2864   1.938   1.664   0.846
  655SOL    HW2 2865   1.929   1.770   0.723
  656SOL     OW 2866   1.812   6.625   1.159
  656SOL    HW1 2867   1.764   6.603   1.074
  656SOL    HW2 2868   1.860   6.712   1.148
  657SOL     OW 2869   3.900   0.406   0.111
  657SOL    HW1 2870   3.972   0.356   0.063
  657SOL    HW2 2871   3.939   0.487   0.155
  658SOL     OW 2872   3.320   5.545   0.216
  658SOL    HW1 2873   3.247   5.476   0.213
  658SOL    HW2 2874   3.321   5.597   0.131
  659SOL     OW 2875   3.756   0.331   6.482
  659SOL    HW1 2876   3.674   0.386   6.498
  659SOL    HW2 2877   3.807   0.321   6.568
  660SOL     OW 2878   3.035   6.698   3.514
  660SOL    HW1 2879   3.103   6.756   3.559
  660SOL    HW2 2880   3.017   6.732   3.422
  661SOL     OW 2881   6.496   5.039   2.836
  661SOL    HW1 2882   6.406   5.070   2.804
  661SOL    HW2 2883   6.528   5.100   2.909
  662SOL     OW 2884   4.305   2.253   6.912
  662SOL    HW1 2885   4.223   2.274   6.965
  662SOL    HW2 2886   4.370   2.329   6.921
  663SOL     OW 2887   1.391   4.193   4.582
  663SOL    HW1 2888   1.448   4.120   4.546
  663SOL    HW2 2889   1.448   4.258   4.634
  664SOL     OW 2890   5.765   6.715   6.329
  664SOL    HW1 2891   5.781   6.696   6.426
  664SOL    HW2 2892   5.785   6.633   6.276
  665SOL     OW 2893   1.774   4.078   2.067
  665SOL    HW1 2894   1.744   4.012   2.136
  665SOL    HW2 2895   1.812   4.028   1.988
  666SOL     OW 2896   4.103   0.683   2.610
  666SOL    HW1 2897   4.188   0.631   2.604
  666SOL    HW2 2898   4.025   0.621   2.618
  667SOL     OW 2899   0.291   0.502   1.316
  667SOL    HW1 2900   0.299   0.459   1.226
  667SOL    HW2 2901   0.314   0.599   1.310
  668SOL     OW 2902   5.326   2.942   6.908
  668SOL    HW1 2903   5.340   2.869   6.840
  668SOL    HW2 2904   5.343   3.031   6.865
  669SOL     OW 2905   5.307   1.368   3.041
  669SOL    HW1 2906   5.342   1.351   2.949
  669SOL    HW2 2907   5.262   1.457   3.043
  670SOL     OW 2908   4.091   1.707   2.059
  670SOL    HW1 2909   4.112   1.627   2.003
  670SOL    HW2 2910   4.019   1.683   2.124
  671SOL     OW 2911   1.159   5.710   1.908
  671SOL    HW1 2912   1.222   5.727   1.831
  671SOL    HW2 2913   1.197   5.639   1.967
  672SOL     OW 2914   0.400   6.966   1.044
  672SOL    HW1 2915   0.407   6.870   1.070
  672SOL    HW2 2916   0.471   7.018   1.090
  673SOL     OW 2917   6.142   6.818   6.297
  673SOL    HW1 2918   6.061   6.871   6.273
  673SOL    HW2 2919   6.224   6.873   6.283
  674SOL     OW 2920   5.092   6.763   4.555
  674SOL    HW1 2921   5.099   6.777   4.457
  674SOL    HW2 2922   5.058   6.671   4.574
  675SOL     OW 2923   1.182   5.293   2.615
  675SOL    HW1 2924   1.178   5.348   2.699
  675SOL    HW2 2925   1.253   5.329   2.555
  676SOL     OW 2926   2.334   5.842   6.686
  676SOL    HW1 2927   2.317   5.771   6.755
  676SOL    HW2 2928   2.432   5.845   6.665
  677SOL     OW 2929   5.711   0.479   1.359
  677SOL    HW1 2930   5.703   0.573   1.326
  677SOL    HW2 2931   5.797   0.439   1.327
  678SOL     OW 2932   0.669   5.267   4.068
  678SOL    HW1 2933   0.574   5.293   4.081
  678SOL    HW2 2934   0.729   5.337   4.107
  679SOL     OW 2935   5.444   1.133   5.805
  679SOL    HW1 2936   5.382   1.211   5.809
  679SOL    HW2 2937   5.442   1.093   5.714
  680SOL     OW 2938   5.921   6.872   4.301
  680SOL    HW1 2939   5.859   6.819   4.242
  680SOL    HW2 2940   5.975   6.809   4.358
  681SOL     OW 2941   4.382   4.678   2.734
  681SOL    HW1 2942   4.314   4.685   2.661
  681SOL    HW2 2943   4.414   4.769   2.760
  682SOL     OW 2944   6.092   1.194   2.928
  682SOL    HW1 2945   6.037   1.244   2.862
  682SOL    HW2 2946   6.134   1.258   2.992
  683SOL     OW 2947   3.280   5.266   0.086
  683SOL    HW1 2948   3.203   5.275   0.149
  683SOL    HW2 2949   3.281   5.344   0.023
  684SOL     OW 2950   5.973   1.856   6.262
  684SOL    HW1 2951   5.966   1.833   6.165
  684SOL    HW2 2952   6.063   1.896   6.280
  685SOL     OW 2953   3.303   6.897   3.665
  685SOL    HW1 2954   3.300   6.799   3.685
  685SOL    HW2 2955   3.249   6.946   3.733
  686SOL     OW 2956   3.622   0.601   5.618
  686SOL    HW1 2957   3.548   0.536   5.633
  686SOL    HW2 2958   3.637   0.654   5.702
  687SOL     OW 2959   0.350   0.968   4.271
  687SOL    HW1 2960   0.410   0.934   4.199
  687SOL    HW2 2961   0.397   0.962   4.359
  688SOL     OW 2962   5.071   3.621   6.927
  688SOL    HW1 2963   5.021   3.700   6.891
  688SOL    HW2 2964   5.152   3.653   6.976
  689SOL     OW 2965   2.753   5.912   0.283
  689SOL    HW1 2966   2.672   5.906   0.343
  689SOL    HW2 2967   2.724   5.912   0.188
  690SOL     OW 2968   6.036   3.832   3.923
  690SOL    HW1 2969   6.098   3.905   3.952
  690SOL    HW2 2970   6.059   3.805   3.829
  691SOL     OW 2971   5.481   0.515   2.532
  691SOL    HW1 2972   5.414   0.442   2.517
  691SOL    HW2 2973   5.434   0.603   2.534
  692SOL     OW 2974   1.052   0.419   3.298
  692SOL    HW1 2975   1.109   0.365   3.235
  692SOL    HW2 2976   1.080   0.515   3.295
  693SOL     OW 2977   5.903   4.285   2.241
  693SOL    HW1 2978   5.858   4.279   2.330
  693SOL    HW2 2979   5.947   4.198   2.220
  694SOL     OW 2980   4.577   4.549   4.219
  694SOL    HW1 2981   4.567   4.519   4.314
  694SOL    HW2 2982   4.624   4.478   4.167
  695SOL     OW 2983   4.543   7.004   3.949
  695SOL    HW1 2984   4.559   6.971   4.042
  695SOL    HW2 2985   4.589   0.073   3.936
  696SOL     OW 2986   6.759   4.593   1.802
  696SOL    HW1 2987   6.750   4.692   1.814
  696SOL    HW2 2988   6.695   4.561   1.732
  697SOL     OW 2989   0.096   6.224   3.116
  697SOL    HW1 2990   0.020   6.168   3.150
  697SOL    HW2 2991   0.095   6.223   3.016
  698SOL     OW 2992   5.899   6.345   5.695
  698SOL    HW1 2993   5.994   6.373   5.679
  698SOL    HW2 2994   5.840   6.425   5.690
  699SOL     OW 2995   3.916   2.934   0.653
  699SOL    HW1 2996   3.938   3.011   0.594
  699SOL    HW2 2997   3.903   2.967   0.747
  700SOL     OW 2998   3.886   6.639   5.623
  700SOL    HW1 2999   3.986   6.629   5.622
  700SOL    HW2 3000   3.862   6.732   5.596
  701SOL     OW 3001   4.426   4.561   1.952
  701SOL    HW1 3002   4.456   4.579   2.046
  701SOL    HW2 3003   4.415   4.462   1.940
  702SOL     OW 3004   4.113   0.650   5.179
  702SOL    HW1 3005   4.211   0.670   5.184
  702SOL    HW2 3006   4.063   0.734   5.156
  703SOL     OW 3007   3.863   2.670   0.638
  703SOL    HW1 3008   3.861   2.768   0.655
  703SOL    HW2 3009   3.905   2.652   0.549
  704SOL     OW 3010   3.797   1.781   0.096
  704SOL    HW1 3011   3.833   1.709   0.155
  704SOL    HW2 3012   3.842   1.776   0.007
  705SOL     OW 3013   7.003   6.557   5.911
  705SOL    HW1 3014   6.938   6.566   5.836
  705SOL    HW2 3015   0.017   6.463   5.915
  706SOL     OW 3016   4.097   0.262   5.017
  706SOL    HW1 3017   4.045   0.215   5.089
  706SOL    HW2 3018   4.057   0.353   5.002
  707SOL     OW 3019   3.198   4.936   4.144
  707SOL    HW1 3020   3.136   4.966   4.217
  707SOL    HW2 3021   3.293   4.948   4.174
  708SOL     OW 3022   3.087   6.427   3.983
  708SOL    HW1 3023   3.056   6.357   3.918
  708SOL    HW2 3024   3.067   6.517   3.946
  709SOL     OW 3025   2.296   6.827   1.929
  709SOL    HW1 3026   2.305   6.926   1.918
  709SOL    HW2 3027   2.380   6.782   1.898
  710SOL     OW 3028   4.928   2.485   2.393
  710SOL    HW1 3029   4.860   2.525   2.331
  710SOL    HW2 3030   5.011   2.541   2.392
  711SOL     OW 3031   6.994   1.294   1.160
  711SOL    HW1 3032   0.015   1.257   1.076
  711SOL    HW2 3033   6.900   1.260   1.170
  712SOL     OW 3034   4.877   4.308   0.180
  712SOL    HW1 3035   4.900   4.289   0.084
  712SOL    HW2 3036   4.852   4.404   0.190
  713SOL     OW 3037   3.981   2.755   5.877
  713SOL    HW1 3038   4.024   2.842   5.856
  713SOL    HW2 3039   4.008   2.725   5.969
  714SOL     OW 3040   4.289   6.668   3.054
  714SOL    HW1 3041   4.325   6.708   2.970
  714SOL    HW2 3042   4.197   6.633   3.039
  715SOL     OW 3043   6.109   4.265   5.459
  715SOL    HW1 3044   6.201   4.264   5.498
  715SOL    HW2 3045   6.049   4.320   5.517
  716SOL     OW 3046   3.293   1.753   3.561
  716SOL    HW1 3047   3.390   1.777   3.571
  716SOL    HW2 3048   3.239   1.837   3.552
  717SOL     OW 3049   5.373   4.668   3.331
  717SOL    HW1 3050   5.379   4.650   3.233
  717SOL    HW2 3051   5.463   4.658   3.373
  718SOL     OW 3052   6.574   1.693   5.331
  718SOL    HW1 3053   6.665   1.733   5.341
  718SOL    HW2 3054   6.509   1.740   5.390
  719SOL     OW 3055   4.647   5.554   2.541
  719SOL    HW1 3056   4.667   5.578   2.636
  719SOL    HW2 3057   4.595   5.469   2.538
  720SOL     OW 3058   2.923   1.629   1.171
  720SOL    HW1 3059   2.947   1.669   1.260
  720SOL    HW2 3060   2.893   1.702   1.109
  721SOL     OW 3061   0.282   2.826   2.514
  721SOL    HW1 3062   0.362   2.838   2.454
  721SOL    HW2 3063   0.223   2.756   2.475
  722SOL     OW 3064   5.469   6.500   1.849
  722SOL    HW1 3065   5.444   6.470   1.941
  722SOL    HW2 3066   5.392   6.487   1.787
  723SOL     OW 3067   2.138   0.649   4.381
  723SOL    HW1 3068   2.188   0.711   4.441
  723SOL    HW2 3069   2.183   0.647   4.291
  724SOL     OW 3070   1.282   2.870   4.589
  724SOL    HW1 3071   1.231   2.904   4.667
  724SOL    HW2 3072   1.355   2.809   4.621
  725SOL     OW 3073   1.468   4.414   3.338
  725SOL    HW1 3074   1.455   4.384   3.244
  725SOL    HW2 3075   1.526   4.348   3.386
  726SOL     OW 3076   2.352   3.648   0.391
  726SOL    HW1 3077   2.402   3.726   0.430
  726SOL    HW2 3078   2.405   3.609   0.316
  727SOL     OW 3079   3.865   5.319   4.903
  727SOL    HW1 3080   3.791   5.358   4.957
  727SOL    HW2 3081   3.951   5.366   4.924
  728SOL     OW 3082   6.146   3.590   3.537
  728SOL    HW1 3083   6.201   3.662   3.580
  728SOL    HW2 3084   6.123   3.618   3.443
  729SOL     OW 3085   0.819   4.915   0.472
  729SOL    HW1 3086   0.752   4.952   0.409
  729SOL    HW2 3087   0.798   4.945   0.565
  730SOL     OW 3088   4.207   1.657   3.206
  730SOL    HW1 3089   4.164   1.581   3.158
  730SOL    HW2 3090   4.290   1.685   3.158
  731SOL     OW 3091   4.968   4.709   4.859
  731SOL    HW1 3092   5.007   4.688   4.769
  731SOL    HW2 3093   5.037   4.696   4.929
  732SOL     OW 3094   4.657   0.965   4.267
  732SOL    HW1 3095   4.753   0.937   4.273
  732SOL    HW2 3096   4.639   1.038   4.334
  733SOL     OW 3097   0.582   4.935   4.556
  733SOL    HW1 3098   0.547   4.937   4.463
  733SOL    HW2 3099   0.526   4.874   4.612
  734SOL     OW 3100   6.132   5.998   3.445
  734SOL    HW1 3101   6.060   5.929   3.447
  734SOL    HW2 3102   6.093   6.088   3.465
  735SOL     OW 3103   4.450   0.416   2.725
  735SOL    HW1 3104   4.530   0.475   2.737
  735SOL    HW2 3105   4.417   0.387   2.815
  736SOL     OW 3106   2.167   1.823   3.693
  736SOL    HW1 3107   2.088   1.804   3.751
  736SOL    HW2 3108   2.179   1.749   3.627
  737SOL     OW 3109   3.342   1.156   6.283
  737SOL    HW1 3110   3.386   1.078   6.239
  737SOL    HW2 3111   3.335   1.231   6.217
  738SOL     OW 3112   1.492   5.424   0.205
  738SOL    HW1 3113   1.472   5.472   0.290
  738SOL    HW2 3114   1.409   5.417   0.150
  739SOL     OW 3115   1.711   0.655   3.081
  739SOL    HW1 3116   1.662   0.600   3.013
  739SOL    HW2 3117   1.807   0.628   3.083
  740SOL     OW 3118   4.591   2.473   2.685
  740SOL    HW1 3119   4.685   2.457   2.715
  740SOL    HW2 3120   4.570   2.412   2.608
  741SOL     OW 3121   3.091   1.727   2.564
  741SOL    HW1 3122   3.011   1.669   2.578
  741SOL    HW2 3123   3.167   1.671   2.530
  742SOL     OW 3124   2.421   0.687   2.366
  742SOL    HW1 3125   2.498   0.672   2.304
  742SOL    HW2 3126   2.426   0.621   2.441
  743SOL     OW 3127   0.020   6.469   2.683
  743SOL    HW1 3128   7.003   6.505   2.597
  743SOL    HW2 3129   6.975   6.487   2.757
  744SOL     OW 3130   5.686   1.014   1.308
  744SOL    HW1 3131   5.641   1.096   1.342
  744SOL    HW2 3132   5.776   1.037   1.273
  745SOL     OW 3133   1.574   6.886   5.685
  745SOL    HW1 3134   1.627   6.951   5.632
  745SOL    HW2 3135   1.483   6.877   5.644
  746SOL     OW 3136   6.486   5.886   4.624
  746SOL    HW1 3137   6.405   5.872   4.681
  746SOL    HW2 3138   6.478   5.973   4.576
  747SOL     OW 3139   3.740   5.203   2.505
  747SOL    HW1 3140   3.751   5.296   2.470
  747SOL    HW2 3141   3.663   5.159   2.459
  748SOL     OW 3142   6.008   4.865   2.782
  748SOL    HW1 3143   5.942   4.820   2.843
  748SOL    HW2 3144   6.099   4.829   2.800
  749SOL     OW 3145   4.708   4.237   4.672
  749SOL    HW1 3146   4.713   4.312   4.738
  749SOL    HW2 3147   4.739   4.152   4.716
  750SOL     OW 3148   2.996   1.919   2.974
  750SOL    HW1 3149   3.051   1.927   2.891
  750SOL    HW2 3150   2.983   2.010   3.014
  751SOL     OW 3151   4.194   0.094   0.534
  751SOL    HW1 3152   4.192   0.127   0.628
  751SOL    HW2 3153   4.119   0.133   0.482
  752SOL     OW 3154   2.983   3.264   4.230
  752SOL    HW1 3155   3.053   3.228   4.168
  752SOL    HW2 3156   2.907   3.199   4.235
  753SOL     OW 3157   3.595   3.676   3.819
  753SOL    HW1 3158   3.592   3.776   3.807
  753SOL    HW2 3159   3.584   3.631   3.731
  754SOL     OW 3160   4.903   0.721   6.594
  754SOL    HW1 3161   4.891   0.688   6.688
  754SOL    HW2 3162   4.937   0.816   6.596
  755SOL     OW 3163   4.885   4.538   5.335
  755SOL    HW1 3164   4.838   4.450   5.340
  755SOL    HW2 3165   4.862   4.583   5.248
  756SOL     OW 3166   2.966   5.573   5.994
  756SOL    HW1 3167   2.888   5.555   5.934
  756SOL    HW2 3168   2.979   5.495   6.055
  757SOL     OW 3169   0.938   6.978   1.781
  757SOL    HW1 3170   0.872   6.924   1.834
  757SOL    HW2 3171   1.030   6.962   1.816
  758SOL     OW 3172   3.521   1.343   5.145
  758SOL    HW1 3173   3.531   1.408   5.221
  758SOL    HW2 3174   3.436   1.291   5.156
  759SOL     OW 3175   6.870   2.736   3.679
  759SOL    HW1 3176   6.858   2.722   3.580
  759SOL    HW2 3177   6.920   2.659   3.717
  760SOL     OW 3178   0.095   5.583   4.417
  760SOL    HW1 3179   0.173   5.640   4.443
  760SOL    HW2 3180   0.014   5.614   4.467
  761SOL     OW 3181   5.005   4.923   6.307
  761SOL    HW1 3182   4.953   4.940   6.223
  761SOL    HW2 3183   5.062   4.842   6.294
  762SOL     OW 3184   4.117   5.672   3.319
  762SOL    HW1 3185   4.092   5.611   3.245
  762SOL    HW2 3186   4.076   5.640   3.404
  763SOL     OW 3187   5.767   1.309   0.506
  763SOL    HW1 3188   5.810   1.333   0.419
  763SOL    HW2 3189   5.797   1.372   0.577
  764SOL     OW 3190   4.954   6.253   4.710
  764SOL    HW1 3191   5.018   6.187   4.750
  764SOL    HW2 3192   4.873   6.205   4.676
  765SOL     OW 3193   5.626   5.942   0.336
  765SOL    HW1 3194   5.717   5.915   0.366
  765SOL    HW2 3195   5.627   5.963   0.239
  766SOL     OW 3196   2.489   1.870   3.738
  766SOL    HW1 3197   2.427   1.809   3.689
  766SOL    HW2 3198   2.456   1.885   3.831
  767SOL     OW 3199   6.651   6.389   3.625
  767SOL    HW1 3200   6.568   6.385   3.570
  767SOL    HW2 3201   6.640   6.330   3.705
  768SOL     OW 3202   2.698   5.578   1.435
  768SOL    HW1 3203   2.635   5.503   1.452
  768SOL    HW2 3204   2.681   5.617   1.345
  769SOL     OW 3205   3.496   1.827   5.479
  769SOL    HW1 3206   3.550   1.749   5.508
  769SOL    HW2 3207   3.401   1.816   5.508
  770SOL     OW 3208   1.038   4.643   5.836
  770SOL    HW1 3209   1.075   4.655   5.744
  770SOL    HW2 3210   1.101   4.683   5.903
  771SOL     OW 3211   1.483   4.940   2.687
  771SOL    HW1 3212   1.553   5.012   2.685
  771SOL    HW2 3213   1.526   4.853   2.710
  772SOL     OW 3214   6.381   4.911   0.478
  772SOL    HW1 3215   6.316   4.838   0.458
  772SOL    HW2 3216   6.396   4.966   0.395
  773SOL     OW 3217   1.554   4.898   4.324
  773SOL    HW1 3218   1.552   4.966   4.250
  773SOL    HW2 3219   1.495   4.928   4.399
  774SOL     OW 3220   1.927   2.373   3.717
  774SOL    HW1 3221   1.850   2.341   3.773
  774SOL    HW2 3222   1.955   2.463   3.748
  775SOL     OW 3223   0.815   4.861   2.490
  775SOL    HW1 3224   0.858   4.915   2.562
  775SOL    HW2 3225   0.850   4.767   2.493
  776SOL     OW 3226   2.886   4.896   7.003
  776SOL    HW1 3227   2.831   4.838   6.943
  776SOL    HW2 3228   2.860   4.878   0.079
  777SOL     OW 3229   1.896   3.741   6.582
  777SOL    HW1 3230   1.831   3.749   6.506
  777SOL    HW2 3231   1.989   3.748   6.547
  778SOL     OW 3232   3.605   5.597   6.809
  778SOL    HW1 3233   3.650   5.519   6.853
  778SOL    HW2 3234   3.525   5.565   6.759
  779SOL     OW 3235   5.895   1.745   3.604
  779SOL    HW1 3236   5.994   1.752   3.588
  779SOL    HW2 3237   5.877   1.675   3.672
  780SOL     OW 3238   5.793   1.419   4.960
  780SOL    HW1 3239   5.889   1.394   4.947
  780SOL    HW2 3240   5.768   1.492   4.896
  781SOL     OW 3241   0.254   5.342   6.413
  781SOL    HW1 3242   0.248   5.373   6.508
  781SOL    HW2 3243   0.171   5.369   6.365
  782SOL     OW 3244   2.050   3.977   5.438
  782SOL    HW1 3245   2.096   4.066   5.441
  782SOL    HW2 3246   2.054   3.941   5.344
  783SOL     OW 3247   0.090   5.160   6.082
  783SOL    HW1 3248   0.155   5.127   6.151
  783SOL    HW2 3249   0.140   5.206   6.008
  784SOL     OW 3250   1.847   5.991   5.925
  784SOL    HW1 3251   1.934   6.040   5.922
  784SOL    HW2 3252   1.791   6.029   5.999
  785SOL     OW 3253   0.406   0.043   3.815
  785SOL    HW1 3254   0.472   0.067   3.886
  785SOL    HW2 3255   0.322   0.008   3.857
  786SOL     OW 3256   6.064   1.369   4.886
  786SOL    HW1 3257   6.081   1.332   4.795
  786SOL    HW2 3258   6.095   1.303   4.955
  787SOL     OW 3259   2.237   6.727   0.447
  787SOL    HW1 3260   2.140   6.727   0.470
  787SOL    HW2 3261   2.284   6.655   0.498
  788SOL     OW 3262   2.135   3.390   2.258
  788SOL    HW1 3263   2.081   3.465   2.297
  788SOL    HW2 3264   2.180   3.422   2.175
  789SOL     OW 3265   3.485   5.366   2.311
  789SOL    HW1 3266   3.411   5.299   2.312
  789SOL    HW2 3267   3.511   5.386   2.217
  790SOL     OW 3268   0.059   3.297   2.418
  790SOL    HW1 3269   7.018   3.226   2.453
  790SOL    HW2 3270   0.047   3.307   2.320
  791SOL     OW 3271   3.359   1.169   3.689
  791SOL    HW1 3272   3.316   1.128   3.609
  791SOL    HW2 3273   3.310   1.141   3.772
  792SOL     OW 3274   2.806   0.795   0.541
  792SOL    HW1 3275   2.849   0.751   0.620
  792SOL    HW2 3276   2.874   0.810   0.469
  793SOL     OW 3277   2.017   5.788   4.436
  793SOL    HW1 3278   2.020   5.885   4.411
  793SOL    HW2 3279   1.947   5.742   4.383
  794SOL     OW 3280   3.375   3.377   2.136
  794SOL    HW1 3281   3.386   3.306   2.206
  794SOL    HW2 3282   3.339   3.460   2.178
  795SOL     OW 3283   4.300   6.511   5.777
  795SOL    HW1 3284   4.325   6.600   5.739
  795SOL    HW2 3285   4.254   6.456   5.707
  796SOL     OW 3286   0.923   2.471   6.579
  796SOL    HW1 3287   0.952   2.379   6.603
  796SOL    HW2 3288   0.827   2.484   6.603
  797SOL     OW 3289   3.200   6.707   0.990
  797SOL    HW1 3290   3.119   6.746   1.034
  797SOL    HW2 3291   3.251   6.780   0.944
  798SOL     OW 3292   5.113   4.195   1.782
  798SOL    HW1 3293   5.131   4.122   1.848
  798SOL    HW2 3294   5.084   4.278   1.830
  799SOL     OW 3295   3.667   3.389   4.988
  799SOL    HW1 3296   3.570   3.406   5.004
  799SOL    HW2 3297   3.717   3.476   4.993
  800SOL     OW 3298   5.694   2.986   3.059
  800SOL    HW1 3299   5.708   3.001   2.961
  800SOL    HW2 3300   5.707   2.889   3.080
  801SOL     OW 3301   1.915   5.429   6.776
  801SOL    HW1 3302   2.014   5.433   6.766
  801SOL    HW2 3303   1.883   5.336   6.759
  802SOL     OW 3304   4.026   2.411   5.973
  802SOL    HW1 3305   4.112   2.435   6.019
  802SOL    HW2 3306   3.950   2.455   6.020
  803SOL     OW 3307   3.006   2.220   3.029
  803SOL    HW1 3308   3.031   2.242   2.935
  803SOL    HW2 3309   2.956   2.297   3.069
  804SOL     OW 3310   4.697   6.914   2.913
  804SOL    HW1 3311   4.666   7.001   2.952
  804SOL    HW2 3312   4.788   6.925   2.873
  805SOL     OW 3313   3.507   1.740   3.825
  805SOL    HW1 3314   3.430   1.682   3.801
  805SOL    HW2 3315   3.476   1.835   3.834
  806SOL     OW 3316   4.310   5.982   6.050
  806SOL    HW1 3317   4.225   5.965   6.098
  806SOL    HW2 3318   4.380   6.012   6.115
  807SOL     OW 3319   1.072   6.566   6.321
  807SOL    HW1 3320   1.167   6.542   6.338
  807SOL    HW2 3321   1.067   6.635   6.249
  808SOL     OW 3322   5.102   1.847   5.943
  808SOL    HW1 3323   5.029   1.781   5.962
  808SOL    HW2 3324   5.116   1.855   5.844
  809SOL     OW 3325   2.928   6.533   5.760
  809SOL    HW1 3326   2.913   6.630   5.779
  809SOL    HW2 3327   2.841   6.485   5.762
  810SOL     OW 3328   4.003   4.073   6.460
  810SOL    HW1 3329   3.906   4.097   6.465
  810SOL    HW2 3330   4.028   4.017   6.539
  811SOL     OW 3331   5.575   5.284   5.405
  811SOL    HW1 3332   5.597   5.342   5.327
  811SOL    HW2 3333   5.505   5.329   5.461
  812SOL     OW 3334   1.536   2.569   1.023
  812SOL    HW1 3335   1.612   2.514   1.059
  812SOL    HW2 3336   1.450   2.522   1.042
  813SOL     OW 3337   3.040   2.021   5.013
  813SOL    HW1 3338   2.974   2.092   5.036
  813SOL    HW2 3339   3.132   2.053   5.036
  814SOL     OW 3340   0.588   4.486   1.286
  814SOL    HW1 3341   0.635   4.575   1.279
  814SOL    HW2 3342   0.494   4.501   1.317
  815SOL     OW 3343   4.741   0.984   3.994
  815SOL    HW1 3344   4.809   0.913   3.977
  815SOL    HW2 3345   4.702   0.972   4.085
  816SOL     OW 3346   5.139   3.588   6.500
  816SOL    HW1 3347   5.085   3.570   6.582
  816SOL    HW2 3348   5.193   3.507   6.477
  817SOL     OW 3349   6.802   5.652   6.948
  817SOL    HW1 3350   6.879   5.589   6.960
  817SOL    HW2 3351   6.793   5.676   6.852
  818SOL     OW 3352   6.463   1.057   5.520
  818SOL    HW1 3353   6.469   1.011   5.609
  818SOL    HW2 3354   6.490   0.992   5.448
  819SOL     OW 3355   5.539   3.697   2.206
  819SOL    HW1 3356   5.473   3.765   2.174
  819SOL    HW2 3357   5.571   3.641   2.130
  820SOL     OW 3358   2.143   2.241   5.458
  820SOL    HW1 3359   2.221   2.299   5.480
  820SOL    HW2 3360   2.157   2.149   5.495
  821SOL     OW 3361   4.951   3.175   6.057
  821SOL    HW1 3362   5.019   3.103   6.069
  821SOL    HW2 3363   4.984   3.241   5.989
  822SOL     OW 3364   6.569   4.310   3.205
  822SOL    HW1 3365   6.551   4.212   3.215
  822SOL    HW2 3366   6.537   4.359   3.286
  823SOL     OW 3367   1.855   2.863   4.201
  823SOL    HW1 3368   1.772   2.885   4.150
  823SOL    HW2 3369   1.837   2.787   4.263
  824SOL     OW 3370   5.304   0.349   6.551
  824SOL    HW1 3371   5.339   0.441   6.567
  824SOL    HW2 3372   5.212   0.354   6.512
  825SOL     OW 3373   6.094   5.748   1.106
  825SOL    HW1 3374   6.005   5.709   1.132
  825SOL    HW2 3375   6.167   5.688   1.137
  826SOL     OW 3376   3.674   1.860   0.368
  826SOL    HW1 3377   3.750   1.854   0.433
  826SOL    HW2 3378   3.699   1.815   0.283
  827SOL     OW 3379   3.449   3.134   4.905
  827SOL    HW1 3380   3.425   3.212   4.962
  827SOL    HW2 3381   3.469   3.055   4.963
  828SOL     OW 3382   0.389   6.428   6.051
  828SOL    HW1 3383   0.324   6.388   5.985
  828SOL    HW2 3384   0.464   6.471   6.002
  829SOL     OW 3385   3.989   3.279   1.656
  829SOL    HW1 3386   3.944   3.357   1.614
  829SOL    HW2 3387   4.064   3.311   1.714
  830SOL     OW 3388   0.296   3.477   6.141
  830SOL    HW1 3389   0.267   3.504   6.233
  830SOL    HW2 3390   0.271   3.381   6.126
  831SOL     OW 3391   6.061   1.507   3.238
  831SOL    HW1 3392   6.096   1.504   3.331
  831SOL    HW2 3393   5.977   1.453   3.232
  832SOL     OW 3394   3.389   2.129   4.846
  832SOL    HW1 3395   3.334   2.192   4.901
  832SOL    HW2 3396   3.362   2.035   4.866
  833SOL     OW 3397   3.539   3.188   6.385
  833SOL    HW1 3398   3.636   3.189   6.357
  833SOL    HW2 3399   3.505   3.094   6.382
  834SOL     OW 3400   6.013   3.625   1.261
  834SOL    HW1 3401   5.942   3.632   1.331
  834SOL    HW2 3402   6.064   3.540   1.272
  835SOL     OW 3403   6.442   6.651   5.352
  835SOL    HW1 3404   6.392   6.736   5.332
  835SOL    HW2 3405   6.541   6.669   5.349
  836SOL     OW 3406   5.776   6.721   4.122
  836SOL    HW1 3407   5.812   6.695   4.033
  836SOL    HW2 3408   5.698   6.663   4.146
  837SOL     OW 3409   0.752   0.513   6.497
  837SOL    HW1 3410   0.767   0.611   6.485
  837SOL    HW2 3411   0.696   0.497   6.577
  838SOL     OW 3412   0.809   5.985   3.421
  838SOL    HW1 3413   0.797   5.887   3.436
  838SOL    HW2 3414   0.823   6.003   3.323
  839SOL     OW 3415   1.359   2.280   0.280
  839SOL    HW1 3416   1.431   2.242   0.222
  839SOL    HW2 3417   1.346   2.222   0.360
  840SOL     OW 3418   4.590   5.512   0.497
  840SOL    HW1 3419   4.619   5.417   0.507
  840SOL    HW2 3420   4.623   5.566   0.575
  841SOL     OW 3421   2.770   4.972   6.681
  841SOL    HW1 3422   2.725   4.892   6.719
  841SOL    HW2 3423   2.865   4.975   6.712
  842SOL     OW 3424   4.401   6.898   1.218
  842SOL    HW1 3425   4.324   6.865   1.164
  842SOL    HW2 3426   4.385   6.993   1.245
  843SOL     OW 3427   1.857   7.010   2.461
  843SOL    HW1 3428   1.799   6.991   2.540
  843SOL    HW2 3429   1.848   6.936   2.394
  844SOL     OW 3430   6.936   6.956   1.583
  844SOL    HW1 3431   6.874   6.932   1.658
  844SOL    HW2 3432   6.950   6.876   1.525
  845SOL     OW 3433   4.003   1.302   1.745
  845SOL    HW1 3434   3.995   1.361   1.665
  845SOL    HW2 3435   3.922   1.243   1.750
  846SOL     OW 3436   1.433   1.007   1.037
  846SOL    HW1 3437   1.416   0.918   1.081
  846SOL    HW2 3438   1.526   1.010   1.002
  847SOL     OW 3439   2.523   3.290   1.309
  847SOL    HW1 3440   2.540   3.388   1.301
  847SOL    HW2 3441   2.428   3.275   1.338
  848SOL     OW 3442   6.448   5.995   0.965
  848SOL    HW1 3443   6.382   6.013   0.892
  848SOL    HW2 3444   6.538   5.979   0.925
  849SOL     OW 3445   5.177   3.446   6.161
  849SOL    HW1 3446   5.192   3.436   6.260
  849SOL    HW2 3447   5.239   3.385   6.112
  850SOL     OW 3448   2.141   1.428   5.056
  850SOL    HW1 3449   2.240   1.418   5.055
  850SOL    HW2 3450   2.102   1.385   4.974
  851SOL     OW 3451   4.591   2.389   6.520
  851SOL    HW1 3452   4.551   2.367   6.431
  851SOL    HW2 3453   4.576   2.312   6.582
  852SOL     OW 3454   6.936   5.015   1.407
  852SOL    HW1 3455   6.873   5.017   1.329
  852SOL    HW2 3456   6.964   5.109   1.429
  853SOL     OW 3457   3.514   2.548   0.880
  853SOL    HW1 3458   3.572   2.591   0.949
  853SOL    HW2 3459   3.551   2.458   0.857
  854SOL     OW 3460   6.840   0.216   6.164
  854SOL    HW1 3461   6.897   0.297   6.180
  854SOL    HW2 3462   6.888   0.135   6.199
  855SOL     OW 3463   4.463   2.087   0.046
  855SOL    HW1 3464   4.527   2.020   0.009
  855SOL    HW2 3465   4.414   2.132   6.990
  856SOL     OW 3466   1.981   5.703   1.630
  856SOL    HW1 3467   1.938   5.614   1.639
  856SOL    HW2 3468   2.040   5.720   1.708
  857SOL     OW 3469   0.381   6.823   4.980
  857SOL    HW1 3470   0.396   6.767   4.899
  857SOL    HW2 3471   0.368   6.764   5.060
  858SOL     OW 3472   3.348   4.242   0.117
  858SOL    HW1 3473   3.279   4.172   0.102
  858SOL    HW2 3474   3.318   4.328   0.076
  859SOL     OW 3475   4.986   5.935   5.751
  859SOL    HW1 3476   4.918   5.909   5.682
  859SOL    HW2 3477   4.947   6.005   5.811
  860SOL     OW 3478   4.693   3.132   6.823
  860SOL    HW1 3479   4.642   3.211   6.856
  860SOL    HW2 3480   4.719   3.074   6.900
  861SOL     OW 3481   0.743   6.093   2.692
  861SOL    HW1 3482   0.702   6.109   2.781
  861SOL    HW2 3483   0.685   6.032   2.638
  862SOL     OW 3484   0.776   4.722   4.145
  862SOL    HW1 3485   0.722   4.757   4.222
  862SOL    HW2 3486   0.717   4.712   4.065
  863SOL     OW 3487   5.516   0.307   1.428
  863SOL    HW1 3488   5.443   0.361   1.470
  863SOL    HW2 3489   5.599   0.363   1.421
  864SOL     OW 3490   6.179   4.578   3.468
  864SOL    HW1 3491   6.216   4.540   3.383
  864SOL    HW2 3492   6.096   4.629   3.449
  865SOL     OW 3493   1.544   5.021   4.936
  865SOL    HW1 3494   1.639   5.051   4.945
  865SOL    HW2 3495   1.488   5.065   5.006
  866SOL     OW 3496   3.775   6.754   1.231
  866SOL    HW1 3497   3.787   6.819   1.306
  866SOL    HW2 3498   3.721   6.676   1.263
  867SOL     OW 3499   5.807   3.812   5.096
  867SOL    HW1 3500   5.835   3.903   5.128
  867SOL    HW2 3501   5.812   3.748   5.172
  868SOL     OW 3502   0.446   1.486   1.983
  868SOL    HW1 3503   0.545   1.498   1.993
  868SOL    HW2 3504   0.425   1.471   1.886
  869SOL     OW 3505   0.928   3.287   1.726
  869SOL    HW1 3506   0.976   3.201   1.734
  869SOL    HW2 3507   0.894   3.316   1.815
  870SOL     OW 3508   3.660   4.447   1.662
  870SOL    HW1 3509   3.634   4.519   1.726
  870SOL    HW2 3510   3.760   4.449   1.650
  871SOL     OW 3511   4.578   1.731   3.882
  871SOL    HW1 3512   4.587   1.724   3.981
  871SOL    HW2 3513   4.508   1.799   3.860
  872SOL     OW 3514   1.781   2.920   5.448
  872SOL    HW1 3515   1.707   2.852   5.456
  872SOL    HW2 3516   1.848   2.888   5.381
  873SOL     OW 3517   3.808   0.270   6.776
  873SOL    HW1 3518   3.802   0.303   6.870
  873SOL    HW2 3519   3.900   0.286   6.741
  874SOL     OW 3520   6.021   4.004   2.540
  874SOL    HW1 3521   6.062   3.915   2.519
  874SOL    HW2 3522   6.092   4.074   2.538
  875SOL     OW 3523   5.413   5.279   2.310
  875SOL    HW1 3524   5.386   5.372   2.283
  875SOL    HW2 3525   5.480   5.244   2.244
  876SOL     OW 3526   6.114   1.081   6.188
  876SOL    HW1 3527   6.180   1.155   6.200
  876SOL    HW2 3528   6.022   1.114   6.210
  877SOL     OW 3529   1.313   3.309   6.630
  877SOL    HW1 3530   1.251   3.296   6.707
  877SOL    HW2 3531   1.336   3.220   6.590
  878SOL     OW 3532   4.232   6.259   4.543
  878SOL    HW1 3533   4.209   6.164   4.524
  878SOL    HW2 3534   4.220   6.277   4.641
  879SOL     OW 3535   5.844   6.970   6.237
  879SOL    HW1 3536   5.800   6.897   6.290
  879SOL    HW2 3537   5.788   0.034   6.242
  880SOL     OW 3538   3.344   2.999   3.066
  880SOL    HW1 3539   3.284   3.066   3.108
  880SOL    HW2 3540   3.424   3.045   3.027
  881SOL     OW 3541   4.710   2.236   0.753
  881SOL    HW1 3542   4.660   2.176   0.816
  881SOL    HW2 3543   4.674   2.224   0.661
  882SOL     OW 3544   1.866   3.050   3.486
  882SOL    HW1 3545   1.874   3.133   3.431
  882SOL    HW2 3546   1.883   3.071   3.582
  883SOL     OW 3547   2.419   6.610   2.702
  883SOL    HW1 3548   2.406   6.623   2.800
  883SOL    HW2 3549   2.379   6.687   2.652
  884SOL     OW 3550   2.473   3.471   5.969
  884SOL    HW1 3551   2.559   3.423   5.954
  884SOL    HW2 3552   2.459   3.537   5.896
  885SOL     OW 3553   4.290   3.316   6.540
  885SOL    HW1 3554   4.387   3.303   6.518
  885SOL    HW2 3555   4.277   3.315   6.639
  886SOL     OW 3556   3.556   1.863   6.455
  886SOL    HW1 3557   3.534   1.948   6.407
  886SOL    HW2 3558   3.506   1.860   6.542
  887SOL     OW 3559   3.782   0.794   5.206
  887SOL    HW1 3560   3.742   0.872   5.255
  887SOL    HW2 3561   3.863   0.825   5.156
  888SOL     OW 3562   0.683   0.037   2.175
  888SOL    HW1 3563   0.769   0.062   2.220
  888SOL    HW2 3564   0.664   6.960   2.190
  889SOL     OW 3565   0.413   3.747   0.696
  889SOL    HW1 3566   0.402   3.707   0.605
  889SOL    HW2 3567   0.448   3.841   0.688
  890SOL     OW 3568   2.419   5.849   4.687
  890SOL    HW1 3569   2.476   5.930   4.696
  890SOL    HW2 3570   2.323   5.876   4.681
  891SOL     OW 3571   4.919   4.626   2.469
  891SOL    HW1 3572   5.014   4.598   2.481
  891SOL    HW2 3573   4.894   4.618   2.372
  892SOL     OW 3574   2.103   4.420   1.334
  892SOL    HW1 3575   2.087   4.336   1.385
  892SOL    HW2 3576   2.031   4.432   1.265
  893SOL     OW 3577   1.681   5.105   2.747
  893SOL    HW1 3578   1.742   5.113   2.668
  893SOL    HW2 3579   1.631   5.190   2.760
  894SOL     OW 3580   0.915   4.678   1.129
  894SOL    HW1 3581   0.975   4.740   1.079
  894SOL    HW2 3582   0.970   4.612   1.181
  895SOL     OW 3583   0.130   5.326   4.463
  895SOL    HW1 3584   0.098   5.265   4.390
  895SOL    HW2 3585   0.112   5.421   4.438
  896SOL     OW 3586   6.972   0.826   6.275
  896SOL    HW1 3587   0.024   0.863   6.216
  896SOL    HW2 3588   6.930   0.900   6.328
  897SOL     OW 3589   5.660   1.056   0.609
  897SOL    HW1 3590   5.689   1.145   0.575
  897SOL    HW2 3591   5.738   0.994   0.611
  898SOL     OW 3592   4.100   1.745   3.437
  898SOL    HW1 3593   4.143   1.710   3.354
  898SOL    HW2 3594   4.063   1.668   3.489
  899SOL     OW 3595   6.411   6.569   0.186
  899SOL    HW1 3596   6.403   6.493   0.251
  899SOL    HW2 3597   6.355   6.646   0.218
  900SOL     OW 3598   5.366   5.362   6.332
  900SOL    HW1 3599   5.465   5.376   6.339
  900SOL    HW2 3600   5.320   5.450   6.326
  901SOL     OW 3601   1.422   0.929   3.042
  901SOL    HW1 3602   1.493   0.867   3.009
  901SOL    HW2 3603   1.361   0.953   2.966
  902SOL     OW 3604   6.991   3.270   2.154
  902SOL    HW1 3605   6.901   3.251   2.195
  902SOL    HW2 3606   0.009   3.185   2.116
  903SOL     OW 3607   6.689   0.882   0.377
  903SOL    HW1 3608   6.709   0.817   0.304
  903SOL    HW2 3609   6.735   0.853   0.461
  904SOL     OW 3610   2.744   1.060   3.407
  904SOL    HW1 3611   2.688   0.979   3.426
  904SOL    HW2 3612   2.835   1.031   3.377
  905SOL     OW 3613   5.846   2.150   6.096
  905SOL    HW1 3614   5.762   2.134   6.147
  905SOL    HW2 3615   5.910   2.201   6.153
  906SOL     OW 3616   6.003   3.472   0.959
  906SOL    HW1 3617   5.922   3.514   0.999
  906SOL    HW2 3618   5.976   3.390   0.909
  907SOL     OW 3619   5.883   4.346   0.026
  907SOL    HW1 3620   5.821   4.340   6.967
  907SOL    HW2 3621   5.871   4.265   0.084
  908SOL     OW 3622   0.436   3.735   3.114
  908SOL    HW1 3623   0.341   3.738   3.147
  908SOL    HW2 3624   0.446   3.660   3.050
  909SOL     OW 3625   5.247   4.775   6.191
  909SOL    HW1 3626   5.240   4.774   6.091
  909SOL    HW2 3627   5.278   4.685   6.223
  910SOL     OW 3628   3.341   4.769   0.183
  910SOL    HW1 3629   3.415   4.711   0.218
  910SOL    HW2 3630   3.322   4.745   0.088
  911SOL     OW 3631   1.335   4.594   6.190
  911SOL    HW1 3632   1.393   4.560   6.116
  911SOL    HW2 3633   1.342   4.532   6.268
  912SOL     OW 3634   4.942   1.436   5.281
  912SOL    HW1 3635   4.939   1.497   5.360
  912SOL    HW2 3636   5.035   1.433   5.245
  913SOL     OW 3637   4.822   5.860   3.114
  913SOL    HW1 3638   4.879   5.933   3.151
  913SOL    HW2 3639   4.755   5.832   3.183
  914SOL     OW 3640   2.704   6.558   5.371
  914SOL    HW1 3641   2.695   6.574   5.272
  914SOL    HW2 3642   2.801   6.552   5.395
  915SOL     OW 3643   5.539   5.301   1.714
  915SOL    HW1 3644   5.577   5.295   1.622
  915SOL    HW2 3645   5.565   5.219   1.765
  916SOL     OW 3646   1.033   3.886   3.273
  916SOL    HW1 3647   0.935   3.909   3.274
  916SOL    HW2 3648   1.086   3.969   3.284
  917SOL     OW 3649   0.426   6.925   6.523
  917SOL    HW1 3650   0.380   6.848   6.480
  917SOL    HW2 3651   0.498   6.960   6.463
  918SOL     OW 3652   3.519   6.173   6.631
  918SOL    HW1 3653   3.439   6.166   6.571
  918SOL    HW2 3654   3.498   6.131   6.719
  919SOL     OW 3655   4.545   0.643   6.361
  919SOL    HW1 3656   4.455   0.632   6.402
  919SOL    HW2 3657   4.537   0.640   6.261
  920SOL     OW 3658   3.123   4.755   1.936
  920SOL    HW1 3659   3.042   4.790   1.888
  920SOL    HW2 3660   3.179   4.703   1.872
  921SOL     OW 3661   4.899   5.638   5.297
  921SOL    HW1 3662   4.829   5.638   5.225
  921SOL    HW2 3663   4.862   5.594   5.379
  922SOL     OW 3664   3.458   3.934   3.175
  922SOL    HW1 3665   3.510   4.007   3.219
  922SOL    HW2 3666   3.409   3.882   3.245
  923SOL     OW 3667   2.517   4.070   5.583
  923SOL    HW1 3668   2.472   4.001   5.526
  923SOL    HW2 3669   2.559   4.025   5.662
  924SOL     OW 3670   0.977   3.207   1.253
  924SOL    HW1 3671   1.070   3.227   1.221
  924SOL    HW2 3672   0.943   3.283   1.307
  925SOL     OW 3673   0.752   1.497   6.810
  925SOL    HW1 3674   0.793   1.440   6.882
  925SOL    HW2 3675   0.804   1.582   6.802
  926SOL     OW 3676   2.080   1.955   1.366
  926SOL    HW1 3677   2.055   1.896   1.443
  926SOL    HW2 3678   2.055   1.911   1.280
  927SOL     OW 3679   6.587   3.258   5.022
  927SOL    HW1 3680   6.624   3.167   5.003
  927SOL    HW2 3681   6.633   3.296   5.102
  928SOL     OW 3682   2.769   4.884   5.890
  928SOL    HW1 3683   2.781   4.913   5.985
  928SOL    HW2 3684   2.747   4.963   5.833
  929SOL     OW 3685   0.850   2.093   4.744
  929SOL    HW1 3686   0.930   2.133   4.789
  929SOL    HW2 3687   0.780   2.073   4.813
  930SOL     OW 3688   5.785   5.163   5.058
  930SOL    HW1 3689   5.786   5.063   5.049
  930SOL    HW2 3690   5.867   5.202   5.015
  931SOL     OW 3691   6.307   0.742   3.645
  931SOL    HW1 3692   6.212   0.726   3.669
  931SOL    HW2 3693   6.354   0.785   3.722
  932SOL     OW 3694   4.053   6.913   3.771
  932SOL    HW1 3695   4.121   6.982   3.796
  932SOL    HW2 3696   4.098   6.826   3.752
  933SOL     OW 3697   1.236   5.905   2.089
  933SOL    HW1 3698   1.212   5.822   2.038
  933SOL    HW2 3699   1.238   5.982   2.026
  934SOL     OW 3700   2.049   3.125   0.893
  934SOL    HW1 3701   1.971   3.146   0.834
  934SOL    HW2 3702   2.029   3.155   0.986
  935SOL     OW 3703   5.511   2.653   5.259
  935SOL    HW1 3704   5.443   2.670   5.330
  935SOL    HW2 3705   5.597   2.699   5.283
  936SOL     OW 3706   1.978   0.889   6.361
  936SOL    HW1 3707   1.961   0.985   6.338
  936SOL    HW2 3708   2.073   0.866   6.341
  937SOL     OW 3709   3.069   2.466   6.328
  937SOL    HW1 3710   3.019   2.418   6.400
  937SOL    HW2 3711   3.041   2.431   6.238
  938SOL     OW 3712   5.033   6.085   5.076
  938SOL    HW1 3713   5.097   6.158   5.099
  938SOL    HW2 3714   5.043   6.062   4.979
  939SOL     OW 3715   1.674   0.321   4.694
  939SOL    HW1 3716   1.640   0.313   4.601
  939SOL    HW2 3717   1.747   0.389   4.698
  940SOL     OW 3718   1.883   5.360   0.578
  940SOL    HW1 3719   1.977   5.328   0.582
  940SOL    HW2 3720   1.821   5.283   0.591
  941SOL     OW 3721   3.797   6.673   0.956
  941SOL    HW1 3722   3.798   6.679   1.056
  941SOL    HW2 3723   3.855   6.745   0.918
  942SOL     OW 3724   6.543   5.180   0.085
  942SOL    HW1 3725   6.498   5.138   0.164
  942SOL    HW2 3726   6.542   5.116   0.008
  943SOL     OW 3727   3.490   6.146   1.101
  943SOL    HW1 3728   3.521   6.237   1.127
  943SOL    HW2 3729   3.516   6.080   1.171
  944SOL     OW 3730   6.230   6.329   3.164
  944SOL    HW1 3731   6.148   6.316   3.107
  944SOL    HW2 3732   6.251   6.243   3.211
  945SOL     OW 3733   0.430   5.361   6.797
  945SOL    HW1 3734   0.392   5.439   6.748
  945SOL    HW2 3735   0.441   5.284   6.734
  946SOL     OW 3736   5.605   1.769   3.956
  946SOL    HW1 3737   5.664   1.850   3.951
  946SOL    HW2 3738   5.522   1.792   4.007
  947SOL     OW 3739   3.942   3.971   3.034
  947SOL    HW1 3740   3.965   3.934   2.944
  947SOL    HW2 3741   3.976   3.910   3.105
  948SOL     OW 3742   3.374   1.448   3.706
  948SOL    HW1 3743   3.425   1.496   3.635
  948SOL    HW2 3744   3.384   1.349   3.692
  949SOL     OW 3745   2.652   6.929   5.342
  949SOL    HW1 3746   2.697   6.871   5.274
  949SOL    HW2 3747   2.562   6.955   5.309
  950SOL     OW 3748   0.150   6.906   1.844
  950SOL    HW1 3749   0.165   6.909   1.745
  950SOL    HW2 3750   0.062   6.947   1.865
  951SOL     OW 3751   1.234   0.334   3.123
  951SOL    HW1 3752   1.283   0.392   3.058
  951SOL    HW2 3753   1.253   0.238   3.103
  952SOL     OW 3754   3.676   1.692   2.632
  952SOL    HW1 3755   3.757   1.691   2.691
  952SOL    HW2 3756   3.603   1.741   2.678
  953SOL     OW 3757   1.108   6.201   5.798
  953SOL    HW1 3758   1.026   6.238   5.755
  953SOL    HW2 3759   1.109   6.225   5.895
  954SOL     OW 3760   4.495   7.000   2.564
  954SOL    HW1 3761   4.445   7.005   2.650
  954SOL    HW2 3762   4.479   6.911   2.521
  955SOL     OW 3763   3.273   4.608   1.751
  955SOL    HW1 3764   3.366   4.631   1.778
  955SOL    HW2 3765   3.275   4.529   1.689
  956SOL     OW 3766   3.357   0.236   1.003
  956SOL    HW1 3767   3.356   0.260   1.101
  956SOL    HW2 3768   3.404   0.309   0.952
  957SOL     OW 3769   6.013   6.852   3.151
  957SOL    HW1 3770   5.971   6.888   3.234
  957SOL    HW2 3771   6.085   6.915   3.120
  958SOL     OW 3772   5.749   5.813   1.601
  958SOL    HW1 3773   5.767   5.911   1.607
  958SOL    HW2 3774   5.676   5.788   1.663
  959SOL     OW 3775   4.593   0.048   2.271
  959SOL    HW1 3776   4.632   0.131   2.230
  959SOL    HW2 3777   4.593   0.057   2.370
  960SOL     OW 3778   1.241   6.518   5.487
  960SOL    HW1 3779   1.142   6.534   5.487
  960SOL    HW2 3780   1.272   6.501   5.393
  961SOL     OW 3781   3.859   1.077   3.850
  961SOL    HW1 3782   3.876   1.094   3.753
  961SOL    HW2 3783   3.836   1.162   3.896
  962SOL     OW 3784   6.928   0.256   4.980
  962SOL    HW1 3785   6.999   0.301   4.926
  962SOL    HW2 3786   6.879   0.190   4.922
  963SOL     OW 3787   5.859   2.304   1.060
  963SOL    HW1 3788   5.764   2.334   1.073
  963SOL    HW2 3789   5.870   2.269   0.967
  964SOL     OW 3790   3.726   6.496   5.091
  964SOL    HW1 3791   3.662   6.425   5.063
  964SOL    HW2 3792   3.677   6.567   5.141
  965SOL     OW 3793   4.786   1.731   4.156
  965SOL    HW1 3794   4.820   1.752   4.248
  965SOL    HW2 3795   4.762   1.634   4.151
  966SOL     OW 3796   5.044   0.872   3.156
  966SOL    HW1 3797   5.107   0.946   3.133
  966SOL    HW2 3798   4.957   0.909   3.187
  967SOL     OW 3799   3.537   5.302   5.880
  967SOL    HW1 3800   3.595   5.256   5.947
  967SOL    HW2 3801   3.570   5.395   5.866
  968SOL     OW 3802   4.113   0.461   1.599
  968SOL    HW1 3803   4.020   0.492   1.622
  968SOL    HW2 3804   4.122   0.455   1.500
  969SOL     OW 3805   2.806   3.690   6.872
  969SOL    HW1 3806   2.817   3.725   6.965
  969SOL    HW2 3807   2.785   3.592   6.876
  970SOL     OW 3808   4.431   6.017   5.337
  970SOL    HW1 3809   4.507   5.959   5.367
  970SOL    HW2 3810   4.453   6.113   5.353
  971SOL     OW 3811   5.198   3.341   3.402
  971SOL    HW1 3812   5.128   3.400   3.362
  971SOL    HW2 3813   5.215   3.264   3.341
  972SOL     OW 3814   0.495   1.686   0.802
  972SOL    HW1 3815   0.517   1.780   0.776
  972SOL    HW2 3816   0.537   1.665   0.890
  973SOL     OW 3817   6.443   2.673   5.019
  973SOL    HW1 3818   6.514   2.736   5.052
  973SOL    HW2 3819   6.354   2.700   5.057
  974SOL     OW 3820   1.221   3.213   1.945
  974SOL    HW1 3821   1.321   3.214   1.943
  974SOL    HW2 3822   1.187   3.149   1.876
  975SOL     OW 3823   3.129   0.530   1.764
  975SOL    HW1 3824   3.201   0.599   1.778
  975SOL    HW2 3825   3.171   0.440   1.754
  976SOL     OW 3826   0.133   2.888   3.862
  976SOL    HW1 3827   0.042   2.853   3.883
  976SOL    HW2 3828   0.182   2.821   3.806
  977SOL     OW 3829   6.508   1.476   1.980
  977SOL    HW1 3830   6.510   1.518   1.890
  977SOL    HW2 3831   6.599   1.439   2.002
  978SOL     OW 3832   5.506   1.924   0.623
  978SOL    HW1 3833   5.573   1.907   0.550
  978SOL    HW2 3834   5.481   2.020   0.624
  979SOL     OW 3835   0.241   5.071   6.307
  979SOL    HW1 3836   0.248   5.161   6.349
  979SOL    HW2 3837   0.333   5.031   6.297
  980SOL     OW 3838   4.857   1.730   3.777
  980SOL    HW1 3839   4.760   1.723   3.799
  980SOL    HW2 3840   4.873   1.696   3.684
  981SOL     OW 3841   0.549   5.968   5.774
  981SOL    HW1 3842   0.472   5.931   5.721
  981SOL    HW2 3843   0.588   5.895   5.830
  982SOL     OW 3844   0.345   1.008   6.538
  982SOL    HW1 3845   0.317   1.069   6.464
  982SOL    HW2 3846   0.276   0.937   6.551
  983SOL     OW 3847   6.896   3.819   2.197
  983SOL    HW1 3848   6.866   3.897   2.252
  983SOL    HW2 3849   6.909   3.848   2.102
  984SOL     OW 3850   0.235   3.765   3.690
  984SOL    HW1 3851   0.179   3.732   3.766
  984SOL    HW2 3852   0.274   3.855   3.713
  985SOL     OW 3853   5.507   4.982   5.653
  985SOL    HW1 3854   5.577   5.015   5.717
  985SOL    HW2 3855   5.423   5.033   5.666
  986SOL     OW 3856   4.002   5.518   1.721
  986SOL    HW1 3857   4.049   5.460   1.787
  986SOL    HW2 3858   4.068   5.553   1.654
  987SOL     OW 3859   4.521   4.473   4.496
  987SOL    HW1 3860   4.536   4.384   4.537
  987SOL    HW2 3861   4.458   4.526   4.553
  988SOL     OW 3862   3.108   4.871   2.331
  988SOL    HW1 3863   3.034   4.806   2.313
  988SOL    HW2 3864   3.174   4.869   2.256
  989SOL     OW 3865   0.510   2.693   1.328
  989SOL    HW1 3866   0.436   2.723   1.268
  989SOL    HW2 3867   0.567   2.627   1.279
  990SOL     OW 3868   3.837   0.105   5.145
  990SOL    HW1 3869   3.780   0.128   5.225
  990SOL    HW2 3870   3.788   0.129   5.062
  991SOL     OW 3871   1.705   6.337   3.814
  991SOL    HW1 3872   1.655   6.415   3.777
  991SOL    HW2 3873   1.643   6.279   3.866
  992SOL     OW 3874   6.530   3.451   0.719
  992SOL    HW1 3875   6.523   3.448   0.619
  992SOL    HW2 3876   6.459   3.394   0.759
  993SOL     OW 3877   2.077   5.451   6.452
  993SOL    HW1 3878   2.079   5.352   6.440
  993SOL    HW2 3879   2.145   5.478   6.521
  994SOL     OW 3880   3.187   7.009   1.368
  994SOL    HW1 3881   3.189   0.016   1.465
  994SOL    HW2 3882   3.098   0.012   1.329
  995SOL     OW 3883   5.268   4.323   5.396
  995SOL    HW1 3884   5.341   4.329   5.328
  995SOL    HW2 3885   5.292   4.252   5.463
  996SOL     OW 3886   4.055   6.729   5.311
  996SOL    HW1 3887   4.061   6.808   5.372
  996SOL    HW2 3888   4.011   6.756   5.225
  997SOL     OW 3889   1.423   6.189   3.304
  997SOL    HW1 3890   1.424   6.184   3.204
  997SOL    HW2 3891   1.369   6.112   3.340
  998SOL     OW 3892   4.604   0.211   0.382
  998SOL    HW1 3893   4.558   0.178   0.299
  998SOL    HW2 3894   4.703   0.211   0.367
  999SOL     OW 3895   6.092   3.450   2.493
  999SOL    HW1 3896   5.993   3.452   2.509
  999SOL    HW2 3897   6.132   3.372   2.542
 1000SOL     OW 3898   5.926   1.933   2.075
 1000SOL    HW1 3899   6.003   1.899   2.130
 1000SOL    HW2 3900   5.854   1.864   2.075
 1001SOL     OW 3901   2.287   6.578   3.348
 1001SOL    HW1 3902   2.287   6.512   3.423
 1001SOL    HW2 3903   2.208   6.561   3.289
 1002SOL     OW 3904   4.013   2.571   0.404
 1002SOL    HW1 3905   4.070   2.641   0.445
 1002SOL    HW2 3906   4.046   2.480   0.432
 1003SOL     OW 3907   0.794   1.446   3.893
 1003SOL    HW1 3908   0.781   1.359   3.846
 1003SOL    HW2 3909   0.736   1.516   3.851
 1004SOL     OW 3910   4.473   1.240   4.708
 1004SOL    HW1 3911   4.416   1.315   4.740
 1004SOL    HW2 3912   4.415   1.165   4.676
 1005SOL     OW 3913   0.672   5.864   2.053
 1005SOL    HW1 3914   0.749   5.842   1.993
 1005SOL    HW2 3915   0.704   5.864   2.148
 1006SOL     OW 3916   1.726   4.648   1.067
 1006SOL    HW1 3917   1.666   4.589   1.013
 1006SOL    HW2 3918   1.790   4.591   1.119
 1007SOL     OW 3919   4.643   1.129   6.259
 1007SOL    HW1 3920   4.571   1.066   6.288
 1007SOL    HW2 3921   4.710   1.079   6.203
 1008SOL     OW 3922   0.191   4.418   4.707
 1008SOL    HW1 3923   0.176   4.373   4.795
 1008SOL    HW2 3924   0.247   4.359   4.649
 1009SOL     OW 3925   6.378   6.170   6.436
 1009SOL    HW1 3926   6.376   6.186   6.535
 1009SOL    HW2 3927   6.464   6.204   6.399
 1010SOL     OW 3928   3.262   3.926   0.478
 1010SOL    HW1 3929   3.194   3.934   0.550
 1010SOL    HW2 3930   3.342   3.878   0.512
 1011SOL     OW 3931   6.982   5.381   2.158
 1011SOL    HW1 3932   6.974   5.366   2.257
 1011SOL    HW2 3933   0.030   5.453   2.140
 1012SOL     OW 3934   5.378   6.198   3.328
 1012SOL    HW1 3935   5.289   6.227   3.294
 1012SOL    HW2 3936   5.393   6.234   3.420
 1013SOL     OW 3937   0.581   1.127   6.680
 1013SOL    HW1 3938   0.601   1.188   6.604
 1013SOL    HW2 3939   0.509   1.062   6.654
 1014SOL     OW 3940   0.644   4.538   4.615
 1014SOL    HW1 3941   0.610   4.614   4.671
 1014SOL    HW2 3942   0.697   4.574   4.538
 1015SOL     OW 3943   3.422   6.318   7.006
 1015SOL    HW1 3944   3.425   6.318   0.087
 1015SOL    HW2 3945   3.340   6.269   6.976
 1016SOL     OW 3946   6.918   4.991   0.268
 1016SOL    HW1 3947   6.946   4.903   0.307
 1016SOL    HW2 3948   6.877   4.975   0.178
 1017SOL     OW 3949   1.778   0.868   2.386
 1017SOL    HW1 3950   1.789   0.844   2.482
 1017SOL    HW2 3951   1.827   0.954   2.368
 1018SOL     OW 3952   5.617   6.340   5.543
 1018SOL    HW1 3953   5.590   6.363   5.636
 1018SOL    HW2 3954   5.565   6.261   5.511
 1019SOL     OW 3955   6.379   3.307   1.567
 1019SOL    HW1 3956   6.373   3.308   1.667
 1019SOL    HW2 3957   6.461   3.355   1.537
 1020SOL     OW 3958   5.326   0.978   1.045
 1020SOL    HW1 3959   5.272   1.042   0.991
 1020SOL    HW2 3960   5.266   0.908   1.083
 1021SOL     OW 3961   1.629   6.691   0.690
 1021SOL    HW1 3962   1.544   6.736   0.663
 1021SOL    HW2 3963   1.636   6.604   0.642
 1022SOL     OW 3964   1.684   5.169   6.081
 1022SOL    HW1 3965   1.612   5.103   6.058
 1022SOL    HW2 3966   1.642   5.254   6.113
 1023SOL     OW 3967   1.046   1.319   2.151
 1023SOL    HW1 3968   0.956   1.349   2.181
 1023SOL    HW2 3969   1.108   1.398   2.148
 1024SOL     OW 3970   1.985   2.626   4.247
 1024SOL    HW1 3971   2.066   2.594   4.296
 1024SOL    HW2 3972   2.012   2.700   4.184
 1025SOL     OW 3973   4.648   4.369   0.962
 1025SOL    HW1 3974   4.714   4.425   1.013
 1025SOL    HW2 3975   4.579   4.333   1.025
 1026SOL     OW 3976   3.362   2.790   1.744
 1026SOL    HW1 3977   3.348   2.692   1.735
 1026SOL    HW2 3978   3.289   2.829   1.801
 1027SOL     OW 3979   6.484   0.057   0.193
 1027SOL    HW1 3980   6.471   0.094   0.101
 1027SOL    HW2 3981   6.523   6.984   0.186
 1028SOL     OW 3982   0.967   5.151   3.310
 1028SOL    HW1 3983   0.931   5.237   3.347
 1028SOL    HW2 3984   1.067   5.157   3.306
 1029SOL     OW 3985   0.535   1.053   5.029
 1029SOL    HW1 3986   0.618   1.028   4.978
 1029SOL    HW2 3987   0.517   1.151   5.015
 1030SOL     OW 3988   4.178   3.895   0.758
 1030SOL    HW1 3989   4.221   3.866   0.673
 1030SOL    HW2 3990   4.207   3.835   0.832
 1031SOL     OW 3991   4.129   2.783   0.532
 1031SOL    HW1 3992   4.068   2.826   0.599
 1031SOL    HW2 3993   4.206   2.844   0.514
 1032SOL     OW 3994   0.950   0.925   1.510
 1032SOL    HW1 3995   0.950   0.995   1.581
 1032SOL    HW2 3996   0.986   0.839   1.548
 1033SOL     OW 3997   6.277   6.976   2.186
 1033SOL    HW1 3998   6.235   6.898   2.138
 1033SOL    HW2 3999   6.335   0.007   2.123
 1034SOL     OW 4000   1.995   0.847   5.305
 1034SOL    HW1 4001   2.076   0.903   5.323
 1034SOL    HW2 4002   1.993   0.770   5.369
 1035SOL     OW 4003   1.631   0.498   0.275
 1035SOL    HW1 4004   1.548   0.545   0.302
 1035SOL    HW2 4005   1.710   0.559   0.285
 1036SOL     OW 4006   5.312   1.311   2.379
 1036SOL    HW1 4007   5.253   1.242   2.421
 1036SOL    HW2 4008   5.378   1.266   2.319
 1037SOL     OW 4009   1.067   3.919   2.878
 1037SOL    HW1 4010   1.033   3.881   2.964
 1037SOL    HW2 4011   1.057   4.018   2.879
 1038SOL     OW 4012   1.678   6.389   6.707
 1038SOL    HW1 4013   1.750   6.337   6.661
 1038SOL    HW2 4014   1.706   6.484   6.716
 1039SOL     OW 4015   3.212   3.726   2.899
 1039SOL    HW1 4016   3.296   3.779   2.896
 1039SOL    HW2 4017   3.177   3.724   2.993
 1040SOL     OW 4018   3.679   1.384   2.826
 1040SOL    HW1 4019   3.584   1.409   2.808
 1040SOL    HW2 4020   3.702   1.301   2.774
 1041SOL     OW 4021   6.840   6.754   6.910
 1041SOL    HW1 4022   6.754   6.706   6.925
 1041SOL    HW2 4023   6.841   6.840   6.961
 1042SOL     OW 4024   5.530   3.536   3.913
 1042SOL    HW1 4025   5.514   3.444   3.878
 1042SOL    HW2 4026   5.600   3.581   3.858
 1043SOL     OW 4027   2.709   1.972   3.318
 1043SOL    HW1 4028   2.664   1.997   3.404
 1043SOL    HW2 4029   2.681   2.035   3.246
 1044SOL     OW 4030   5.624   4.477   2.399
 1044SOL    HW1 4031   5.688   4.530   2.343
 1044SOL    HW2 4032   5.588   4.535   2.472
 1045SOL     OW 4033   2.399   0.464   2.517
 1045SOL    HW1 4034   2.346   0.385   2.485
 1045SOL    HW2 4035   2.458   0.436   2.593
 1046SOL     OW 4036   3.126   2.613   0.796
 1046SOL    HW1 4037   3.167   2.641   0.882
 1046SOL    HW2 4038   3.113   2.693   0.737
 1047SOL     OW 4039   3.724   0.743   3.479
 1047SOL    HW1 4040   3.650   0.803   3.511
 1047SOL    HW2 4041   3.728   0.746   3.379
 1048SOL     OW 4042   0.171   6.917   2.510
 1048SOL    HW1 4043   0.210   6.825   2.512
 1048SOL    HW2 4044   0.077   6.912   2.474
 1049SOL     OW 4045   3.349   6.854   0.739
 1049SOL    HW1 4046   3.413   6.879   0.812
 1049SOL    HW2 4047   3.386   6.778   0.686
 1050SOL     OW 4048   2.343   1.947   4.486
 1050SOL    HW1 4049   2.408   1.909   4.552
 1050SOL    HW2 4050   2.300   1.873   4.435
 1051SOL     OW 4051   1.497   2.353   5.312
 1051SOL    HW1 4052   1.538   2.270   5.274
 1051SOL    HW2 4053   1.419   2.329   5.370
 1052SOL     OW 4054   4.490   2.343   6.267
 1052SOL    HW1 4055   4.438   2.428   6.255
 1052SOL    HW2 4056   4.437   2.279   6.322
 1053SOL     OW 4057   4.669   2.693   4.170
 1053SOL    HW1 4058   4.727   2.613   4.152
 1053SOL    HW2 4059   4.599   2.668   4.237
 1054SOL     OW 4060   4.909   5.287   6.816
 1054SOL    HW1 4061   4.944   5.287   6.723
 1054SOL    HW2 4062   4.836   5.355   6.824
 1055SOL     OW 4063   5.491   5.636   6.175
 1055SOL    HW1 4064   5.485   5.708   6.105
 1055SOL    HW2 4065   5.519   5.550   6.133
 1056SOL     OW 4066   3.892   3.643   0.229
 1056SOL    HW1 4067   3.862   3.585   0.153
 1056SOL    HW2 4068   3.823   3.712   0.247
 1057SOL     OW 4069   2.799   3.379   6.331
 1057SOL    HW1 4070   2.728   3.330   6.281
 1057SOL    HW2 4071   2.832   3.322   6.406
 1058SOL     OW 4072   3.106   2.190   1.831
 1058SOL    HW1 4073   3.036   2.260   1.845
 1058SOL    HW2 4074   3.196   2.232   1.827
 1059SOL     OW 4075   2.368   5.660   2.517
 1059SOL    HW1 4076   2.292   5.715   2.483
 1059SOL    HW2 4077   2.384   5.681   2.613
 1060SOL     OW 4078   6.596   0.187   5.432
 1060SOL    HW1 4079   6.666   0.256   5.449
 1060SOL    HW2 4080   6.508   0.219   5.468
 1061SOL     OW 4081   0.097   3.657   6.648
 1061SOL    HW1 4082   0.150   3.689   6.727
 1061SOL    HW2 4083   0.060   3.735   6.599
 1062SOL     OW 4084   3.760   4.786   5.478
 1062SOL    HW1 4085   3.823   4.805   5.554
 1062SOL    HW2 4086   3.666   4.799   5.508
 1063SOL     OW 4087   2.935   6.513   4.230
 1063SOL    HW1 4088   2.989   6.440   4.187
 1063SOL    HW2 4089   2.846   6.477   4.258
 1064SOL     OW 4090   0.976   4.467   0.810
 1064SOL    HW1 4091   0.894   4.526   0.810
 1064SOL    HW2 4092   0.953   4.379   0.770
 1065SOL     OW 4093   5.564   0.780   5.139
 1065SOL    HW1 4094   5.610   0.752   5.223
 1065SOL    HW2 4095   5.630   0.781   5.064
 1066SOL     OW 4096   4.552   6.214   0.905
 1066SOL    HW1 4097   4.561   6.198   0.806
 1066SOL    HW2 4098   4.623   6.277   0.935
 1067SOL     OW 4099   3.550   0.973   0.375
 1067SOL    HW1 4100   3.455   0.966   0.406
 1067SOL    HW2 4101   3.609   0.916   0.432
 1068SOL     OW 4102   5.926   3.027   2.153
 1068SOL    HW1 4103   5.877   3.079   2.224
 1068SOL    HW2 4104   6.014   3.071   2.135
 1069SOL     OW 4105   6.843   2.268   2.471
 1069SOL    HW1 4106   6.920   2.262   2.407
 1069SOL    HW2 4107   6.761   2.297   2.421
 1070SOL     OW 4108   0.940   0.838   2.294
 1070SOL    HW1 4109   0.978   0.787   2.372
 1070SOL    HW2 4110   0.845   0.810   2.280
 1071SOL     OW 4111   0.579   2.756   5.670
 1071SOL    HW1 4112   0.596   2.694   5.593
 1071SOL    HW2 4113   0.643   2.832   5.666
 1072SOL     OW 4114   2.534   1.290   1.934
 1072SOL    HW1 4115   2.456   1.334   1.980
 1072SOL    HW2 4116   2.545   1.328   1.842
 1073SOL     OW 4117   5.136   1.997   2.829
 1073SOL    HW1 4118   5.063   1.951   2.779
 1073SOL    HW2 4119   5.212   2.015   2.767
 1074SOL     OW 4120   3.455   5.564   1.823
 1074SOL    HW1 4121   3.359   5.562   1.797
 1074SOL    HW2 4122   3.486   5.658   1.831
 1075SOL     OW 4123   0.062   3.426   4.665
 1075SOL    HW1 4124   6.991   3.412   4.705
 1075SOL    HW2 4125   0.133   3.398   4.730
 1076SOL     OW 4126   2.463   4.258   5.287
 1076SOL    HW1 4127   2.469   4.165   5.252
 1076SOL    HW2 4128   2.414   4.316   5.222
 1077SOL     OW 4129   6.915   6.367   0.703
 1077SOL    HW1 4130   6.898   6.345   0.606
 1077SOL    HW2 4131   6.916   6.466   0.715
 1078SOL     OW 4132   5.577   6.557   4.204
 1078SOL    HW1 4133   5.588   6.479   4.264
 1078SOL    HW2 4134   5.506   6.618   4.241
 1079SOL     OW 4135   1.200   5.936   1.613
 1079SOL    HW1 4136   1.138   5.857   1.610
 1079SOL    HW2 4137   1.157   6.013   1.567
 1080SOL     OW 4138   4.985   6.006   0.174
 1080SOL    HW1 4139   4.941   5.967   0.254
 1080SOL    HW2 4140   5.047   5.939   0.133
 1081SOL     OW 4141   6.777   6.555   3.228
 1081SOL    HW1 4142   6.697   6.609   3.203
 1081SOL    HW2 4143   6.848   6.615   3.263
 1082SOL     OW 4144   4.453   6.903   0.106
 1082SOL    HW1 4145   4.385   6.830   0.109
 1082SOL    HW2 4146   4.483   6.918   0.012
 1083SOL     OW 4147   6.351   4.243   2.272
 1083SOL    HW1 4148   6.283   4.308   2.238
 1083SOL    HW2 4149   6.436   4.253   2.220
 1084SOL     OW 4150   4.064   0.755   5.470
 1084SOL    HW1 4151   4.014   0.797   5.545
 1084SOL    HW2 4152   4.006   0.753   5.388
 1085SOL     OW 4153   1.624   3.356   4.750
 1085SOL    HW1 4154   1.548   3.314   4.699
 1085SOL    HW2 4155   1.587   3.408   4.827
 1086SOL     OW 4156   5.806   4.604   2.078
 1086SOL    HW1 4157   5.886   4.544   2.068
 1086SOL    HW2 4158   5.813   4.679   2.013
 1087SOL     OW 4159   3.802   0.195   5.954
 1087SOL    HW1 4160   3.824   0.183   6.051
 1087SOL    HW2 4161   3.835   0.116   5.902
 1088SOL     OW 4162   6.473   5.080   4.367
 1088SOL    HW1 4163   6.551   5.141   4.372
 1088SOL    HW2 4164   6.419   5.101   4.286
 1089SOL     OW 4165   5.858   5.086   4.466
 1089SOL    HW1 4166   5.783   5.113   4.526
 1089SOL    HW2 4167   5.913   5.015   4.511
 1090SOL     OW 4168   6.049   2.629   4.886
 1090SOL    HW1 4169   6.096   2.551   4.928
 1090SOL    HW2 4170   5.964   2.647   4.935
 1091SOL     OW 4171   2.151   3.687   3.180
 1091SOL    HW1 4172   2.135   3.643   3.092
 1091SOL    HW2 4173   2.066   3.687   3.232
 1092SOL     OW 4174   1.051   6.509   0.261
 1092SOL    HW1 4175   1.086   6.435   0.203
 1092SOL    HW2 4176   1.075   6.597   0.220
 1093SOL     OW 4177   1.670   0.434   2.857
 1093SOL    HW1 4178   1.612   0.353   2.871
 1093SOL    HW2 4179   1.766   0.408   2.867
 1094SOL     OW 4180   0.118   6.925   3.049
 1094SOL    HW1 4181   0.048   6.993   3.071
 1094SOL    HW2 4182   0.188   6.967   2.993
 1095SOL     OW 4183   6.167   3.834   1.162
 1095SOL    HW1 4184   6.103   3.906   1.189
 1095SOL    HW2 4185   6.126   3.744   1.178
 1096SOL     OW 4186   1.925   6.094   2.204
 1096SOL    HW1 4187   1.948   6.187   2.178
 1096SOL    HW2 4188   1.994   6.060   2.269
 1097SOL     OW 4189   3.116   6.326   4.904
 1097SOL    HW1 4190   3.171   6.333   4.987
 1097SOL    HW2 4191   3.177   6.316   4.825
 1098SOL     OW 4192   6.685   4.368   0.059
 1098SOL    HW1 4193   6.664   4.272   0.078
 1098SOL    HW2 4194   6.742   4.405   0.132
 1099SOL     OW 4195   5.432   0.151   6.934
 1099SOL    HW1 4196   5.464   0.246   6.940
 1099SOL    HW2 4197   5.344   0.149   6.888
 1100SOL     OW 4198   4.833   1.361   3.941
 1100SOL    HW1 4199   4.890   1.290   3.981
 1100SOL    HW2 4200   4.806   1.427   4.011
 1101SOL     OW 4201   4.971   3.177   6.812
 1101SOL    HW1 4202   4.873   3.156   6.810
 1101SOL    HW2 4203   5.015   3.125   6.885
 1102SOL     OW 4204   3.469   0.968   4.423
 1102SOL    HW1 4205   3.389   0.938   4.474
 1102SOL    HW2 4206   3.520   0.888   4.391
 1103SOL     OW 4207   3.367   6.549   0.812
 1103SOL    HW1 4208   3.450   6.603   0.822
 1103SOL    HW2 4209   3.291   6.595   0.860
 1104SOL     OW 4210   6.318   1.295   3.429
 1104SOL    HW1 4211   6.299   1.231   3.354
 1104SOL    HW2 4212   6.417   1.310   3.436
 1105SOL     OW 4213   4.861   0.900   6.132
 1105SOL    HW1 4214   4.916   0.965   6.079
 1105SOL    HW2 4215   4.895   0.807   6.116
 1106SOL     OW 4216   5.991   1.493   1.910
 1106SOL    HW1 4217   6.079   1.448   1.930
 1106SOL    HW2 4218   6.008   1.584   1.873
 1107SOL     OW 4219   1.580   2.168   6.754
 1107SOL    HW1 4220   1.647   2.237   6.729
 1107SOL    HW2 4221   1.585   2.150   6.852
 1108SOL     OW 4222   2.370   1.638   3.096
 1108SOL    HW1 4223   2.343   1.703   3.167
 1108SOL    HW2 4224   2.470   1.630   3.095
 1109SOL     OW 4225   4.714   1.630   5.156
 1109SOL    HW1 4226   4.642   1.564   5.179
 1109SOL    HW2 4227   4.788   1.623   5.223
 1110SOL     OW 4228   1.260   0.758   2.674
 1110SOL    HW1 4229   1.227   0.684   2.616
 1110SOL    HW2 4230   1.201   0.768   2.753
 1111SOL     OW 4231   5.653   2.893   6.045
 1111SOL    HW1 4232   5.752   2.898   6.054
 1111SOL    HW2 4233   5.614   2.984   6.062
 1112SOL     OW 4234   5.753   0.522   2.457
 1112SOL    HW1 4235   5.786   0.443   2.507
 1112SOL    HW2 4236   5.655   0.532   2.472
 1113SOL     OW 4237   0.133   1.783   2.765
 1113SOL    HW1 4238   0.167   1.860   2.711
 1113SOL    HW2 4239   0.103   1.816   2.855
 1114SOL     OW 4240   3.408   3.475   4.979
 1114SOL    HW1 4241   3.321   3.425   4.984
 1114SOL    HW2 4242   3.394   3.561   4.930
 1115SOL     OW 4243   2.426   5.077   5.905
 1115SOL    HW1 4244   2.423   4.986   5.864
 1115SOL    HW2 4245   2.408   5.070   6.003
 1116SOL     OW 4246   4.464   6.996   0.499
 1116SOL    HW1 4247   4.372   0.017   0.502
 1116SOL    HW2 4248   4.531   0.048   0.481
 1117SOL     OW 4249   2.166   2.445   1.644
 1117SOL    HW1 4250   2.176   2.476   1.738
 1117SOL    HW2 4251   2.256   2.434   1.602
 1118SOL     OW 4252   4.427   6.581   6.785
 1118SOL    HW1 4253   4.458   6.496   6.743
 1118SOL    HW2 4254   4.487   6.656   6.758
 1119SOL     OW 4255   2.477   5.642   3.982
 1119SOL    HW1 4256   2.451   5.552   3.946
 1119SOL    HW2 4257   2.470   5.642   4.081
 1120SOL     OW 4258   0.349   3.309   1.699
 1120SOL    HW1 4259   0.329   3.390   1.754
 1120SOL    HW2 4260   0.447   3.300   1.687
 1121SOL     OW 4261   5.435   4.381   5.699
 1121SOL    HW1 4262   5.455   4.324   5.779
 1121SOL    HW2 4263   5.518   4.389   5.643
 1122SOL     OW 4264   5.958   0.674   2.032
 1122SOL    HW1 4265   6.000   0.650   2.120
 1122SOL    HW2 4266   5.903   0.598   1.999
 1123SOL     OW 4267   3.598   1.645   4.829
 1123SOL    HW1 4268   3.631   1.720   4.772
 1123SOL    HW2 4269   3.589   1.677   4.923
 1124SOL     OW 4270   2.288   2.819   3.340
 1124SOL    HW1 4271   2.332   2.899   3.300
 1124SOL    HW2 4272   2.212   2.848   3.398
 1125SOL     OW 4273   1.318   3.474   4.250
 1125SOL    HW1 4274   1.399   3.467   4.309
 1125SOL    HW2 4275   1.318   3.398   4.184
 1126SOL     OW 4276   4.491   4.496   3.807
 1126SOL    HW1 4277   4.426   4.553   3.858
 1126SOL    HW2 4278   4.584   4.516   3.839
 1127SOL     OW 4279   5.958   6.684   0.924
 1127SOL    HW1 4280   5.973   6.601   0.870
 1127SOL    HW2 4281   5.998   6.762   0.875
 1128SOL     OW 4282   3.839   1.920   4.957
 1128SOL    HW1 4283   3.874   2.014   4.959
 1128SOL    HW2 4284   3.793   1.903   4.870
 1129SOL     OW 4285   1.199   1.007   0.284
 1129SOL    HW1 4286   1.237   0.915   0.299
 1129SOL    HW2 4287   1.273   1.070   0.261
 1130SOL     OW 4288   2.131   5.127   1.311
 1130SOL    HW1 4289   2.160   5.117   1.216
 1130SOL    HW2 4290   2.110   5.223   1.329
 1131SOL     OW 4291   1.332   5.433   3.950
 1131SOL    HW1 4292   1.348   5.531   3.947
 1131SOL    HW2 4293   1.235   5.414   3.930
 1132SOL     OW 4294   1.406   2.250   3.510
 1132SOL    HW1 4295   1.322   2.265   3.561
 1132SOL    HW2 4296   1.401   2.297   3.422
 1133SOL     OW 4297   1.402   6.428   6.613
 1133SOL    HW1 4298   1.493   6.416   6.652
 1133SOL    HW2 4299   1.391   6.522   6.580
 1134SOL     OW 4300   4.383   5.746   0.956
 1134SOL    HW1 4301   4.457   5.752   1.023
 1134SOL    HW2 4302   4.398   5.667   0.897
 1135SOL     OW 4303   2.103   0.309   2.931
 1135SOL    HW1 4304   2.112   0.256   3.016
 1135SOL    HW2 4305   2.194   0.323   2.891
 1136SOL     OW 4306   1.641   4.336   2.812
 1136SOL    HW1 4307   1.737   4.331   2.784
 1136SOL    HW2 4308   1.585   4.369   2.736
 1137SOL     OW 4309   1.141   5.550   4.610
 1137SOL    HW1 4310   1.068   5.484   4.627
 1137SOL    HW2 4311   1.207   5.546   4.685
 1138SOL     OW 4312   2.268   4.073   4.476
 1138SOL    HW1 4313   2.264   4.151   4.414
 1138SOL    HW2 4314   2.308   4.101   4.563
 1139SOL     OW 4315   3.531   5.708   5.288
 1139SOL    HW1 4316   3.461   5.708   5.358
 1139SOL    HW2 4317   3.490   5.724   5.198
 1140SOL     OW 4318   2.014   2.421   1.294
 1140SOL    HW1 4319   1.975   2.430   1.202
 1140SOL    HW2 4320   2.009   2.510   1.340
 1141SOL     OW 4321   6.397   4.935   5.510
 1141SOL    HW1 4322   6.320   4.957   5.450
 1141SOL    HW2 4323   6.362   4.912   5.601
 1142SOL     OW 4324   0.829   5.540   2.836
 1142SOL    HW1 4325   0.839   5.580   2.745
 1142SOL    HW2 4326   0.752   5.476   2.836
 1143SOL     OW 4327   6.666   4.405   1.594
 1143SOL    HW1 4328   6.766   4.408   1.583
 1143SOL    HW2 4329   6.623   4.439   1.510
 1144SOL     OW 4330   5.194   4.661   0.272
 1144SOL    HW1 4331   5.202   4.561   0.274
 1144SOL    HW2 4332   5.251   4.698   0.199
 1145SOL     OW 4333   6.233   6.632   0.547
 1145SOL    HW1 4334   6.144   6.665   0.580
 1145SOL    HW2 4335   6.283   6.591   0.623
 1146SOL     OW 4336   1.796   0.729   1.495
 1146SOL    HW1 4337   1.856   0.808   1.482
 1146SOL    HW2 4338   1.851   0.647   1.512
 1147SOL     OW 4339   1.660   6.335   0.946
 1147SOL    HW1 4340   1.596   6.275   0.898
 1147SOL    HW2 4341   1.608   6.402   0.999
 1148SOL     OW 4342   3.564   6.066   2.089
 1148SOL    HW1 4343   3.597   5.975   2.113
 1148SOL    HW2 4344   3.642   6.125   2.066
 1149SOL     OW 4345   5.568   1.962   1.179
 1149SOL    HW1 4346   5.629   2.025   1.228
 1149SOL    HW2 4347   5.577   1.978   1.080
 1150SOL     OW 4348   1.419   2.254   1.026
 1150SOL    HW1 4349   1.413   2.296   0.935
 1150SOL    HW2 4350   1.397   2.156   1.018
 1151SOL     OW 4351   5.579   5.207   4.129
 1151SOL    HW1 4352   5.614   5.119   4.162
 1151SOL    HW2 4353   5.646   5.279   4.147
 1152SOL     OW 4354   3.151   6.458   5.906
 1152SOL    HW1 4355   3.142   6.359   5.921
 1152SOL    HW2 4356   3.088   6.487   5.834
 1153SOL     OW 4357   5.438   6.690   1.250
 1153SOL    HW1 4358   5.392   6.732   1.172
 1153SOL    HW2 4359   5.510   6.751   1.282
 1154SOL     OW 4360   1.855   3.165   0.737
 1154SOL    HW1 4361   1.783   3.206   0.681
 1154SOL    HW2 4362   1.856   3.066   0.721
 1155SOL     OW 4363   3.653   5.946   3.996
 1155SOL    HW1 4364   3.720   5.898   4.054
 1155SOL    HW2 4365   3.590   5.879   3.957
 1156SOL     OW 4366   2.729   1.175   1.642
 1156SOL    HW1 4367   2.749   1.086   1.682
 1156SOL    HW2 4368   2.652   1.166   1.579
 1157SOL     OW 4369   2.447   1.913   0.524
 1157SOL    HW1 4370   2.513   1.974   0.568
 1157SOL    HW2 4371   2.355   1.934   0.557
 1158SOL     OW 4372   5.636   4.483   4.135
 1158SOL    HW1 4373   5.599   4.511   4.047
 1158SOL    HW2 4374   5.639   4.383   4.139
 1159SOL     OW 4375   5.220   4.831   0.723
 1159SOL    HW1 4376   5.264   4.859   0.638
 1159SOL    HW2 4377   5.123   4.815   0.706
 1160SOL     OW 4378   4.362   1.995   0.775
 1160SOL    HW1 4379   4.408   2.075   0.815
 1160SOL    HW2 4380   4.299   1.957   0.842
 1161SOL     OW 4381   0.151   5.156   0.869
 1161SOL    HW1 4382   0.233   5.100   0.856
 1161SOL    HW2 4383   0.166   5.219   0.946
 1162SOL     OW 4384   2.030   2.415   4.833
 1162SOL    HW1 4385   2.017   2.345   4.763
 1162SOL    HW2 4386   2.088   2.488   4.797
 1163SOL     OW 4387   4.990   2.000   1.767
 1163SOL    HW1 4388   5.002   1.950   1.853
 1163SOL    HW2 4389   5.036   1.951   1.693
 1164SOL     OW 4390   4.237   2.051   5.499
 1164SOL    HW1 4391   4.145   2.086   5.513
 1164SOL    HW2 4392   4.303   2.125   5.506
 1165SOL     OW 4393   4.256   0.183   3.135
 1165SOL    HW1 4394   4.251   0.087   3.164
 1165SOL    HW2 4395   4.196   0.238   3.194
 1166SOL     OW 4396   3.719   4.158   6.550
 1166SOL    HW1 4397   3.667   4.119   6.474
 1166SOL    HW2 4398   3.715   4.258   6.545
 1167SOL     OW 4399   5.592   4.072   3.415
 1167SOL    HW1 4400   5.661   4.005   3.386
 1167SOL    HW2 4401   5.557   4.121   3.336
 1168SOL     OW 4402   0.853   6.514   1.074
 1168SOL    HW1 4403   0.875   6.426   1.032
 1168SOL    HW2 4404   0.768   6.549   1.036
 1169SOL     OW 4405   5.103   2.344   5.332
 1169SOL    HW1 4406   5.189   2.299   5.356
 1169SOL    HW2 4407   5.027   2.288   5.364
 1170SOL     OW 4408   4.943   4.634   2.739
 1170SOL    HW1 4409   4.902   4.550   2.776
 1170SOL    HW2 4410   4.919   4.643   2.642
 1171SOL     OW 4411   0.442   6.312   0.759
 1171SOL    HW1 4412   0.534   6.274   0.759
 1171SOL    HW2 4413   0.412   6.329   0.665
 1172SOL     OW 4414   5.849   3.152   6.985
 1172SOL    HW1 4415   5.923   3.218   6.975
 1172SOL    HW2 4416   5.848   3.117   0.060
 1173SOL     OW 4417   4.513   2.850   1.218
 1173SOL    HW1 4418   4.508   2.950   1.223
 1173SOL    HW2 4419   4.446   2.810   1.281
 1174SOL     OW 4420   2.914   5.075   0.386
 1174SOL    HW1 4421   2.965   5.051   0.303
 1174SOL    HW2 4422   2.954   5.025   0.464
 1175SOL     OW 4423   3.437   4.152   3.898
 1175SOL    HW1 4424   3.346   4.127   3.863
 1175SOL    HW2 4425   3.427   4.222   3.968
 1176SOL     OW 4426   5.672   3.310   0.401
 1176SOL    HW1 4427   5.665   3.267   0.311
 1176SOL    HW2 4428   5.581   3.315   0.443
 1177SOL     OW 4429   0.879   1.800   4.948
 1177SOL    HW1 4430   0.922   1.781   5.037
 1177SOL    HW2 4431   0.784   1.770   4.950
 1178SOL     OW 4432   4.174   6.549   6.993
 1178SOL    HW1 4433   4.135   6.508   0.056
 1178SOL    HW2 4434   4.256   6.498   6.966
 1179SOL     OW 4435   0.121   5.803   0.397
 1179SOL    HW1 4436   0.069   5.720   0.374
 1179SOL    HW2 4437   0.203   5.778   0.448
 1180SOL     OW 4438   3.714   6.467   0.587
 1180SOL    HW1 4439   3.720   6.371   0.559
 1180SOL    HW2 4440   3.806   6.507   0.587
 1181SOL     OW 4441   6.173   5.985   6.359
 1181SOL    HW1 4442   6.210   5.918   6.294
 1181SOL    HW2 4443   6.244   6.049   6.386
 1182SOL     OW 4444   4.926   3.653   4.249
 1182SOL    HW1 4445   4.918   3.554   4.233
 1182SOL    HW2 4446   4.843   3.686   4.294
 1183SOL     OW 4447   1.937   4.666   6.932
 1183SOL    HW1 4448   1.871   4.593   6.911
 1183SOL    HW2 4449   2.030   4.632   6.918
 1184SOL     OW 4450   6.921   1.465   5.351
 1184SOL    HW1 4451   6.978   1.411   5.289
 1184SOL    HW2 4452   6.835   1.417   5.368
 1185SOL     OW 4453   6.724   1.582   6.377
 1185SOL    HW1 4454   6.715   1.537   6.289
 1185SOL    HW2 4455   6.648   1.646   6.390
 1186SOL     OW 4456   5.486   6.600   4.544
 1186SOL    HW1 4457   5.455   6.665   4.474
 1186SOL    HW2 4458   5.586   6.604   4.551
 1187SOL     OW 4459   6.461   2.203   6.274
 1187SOL    HW1 4460   6.559   2.218   6.263
 1187SOL    HW2 4461   6.415   2.219   6.186
 1188SOL     OW 4462   4.061   1.775   6.627
 1188SOL    HW1 4463   4.159   1.774   6.611
 1188SOL    HW2 4464   4.019   1.849   6.575
 1189SOL     OW 4465   5.917   3.462   3.653
 1189SOL    HW1 4466   5.951   3.527   3.585
 1189SOL    HW2 4467   5.893   3.376   3.608
 1190SOL     OW 4468   2.996   0.302   3.968
 1190SOL    HW1 4469   2.978   0.392   3.928
 1190SOL    HW2 4470   2.937   0.288   4.047
 1191SOL     OW 4471   3.317   6.804   3.112
 1191SOL    HW1 4472   3.394   6.851   3.155
 1191SOL    HW2 4473   3.349   6.756   3.030
 1192SOL     OW 4474   6.229   5.587   3.916
 1192SOL    HW1 4475   6.269   5.541   3.837
 1192SOL    HW2 4476   6.265   5.546   4.000
 1193SOL     OW 4477   6.475   6.353   4.395
 1193SOL    HW1 4478   6.537   6.410   4.339
 1193SOL    HW2 4479   6.473   6.388   4.488
 1194SOL     OW 4480   3.728   0.542   0.820
 1194SOL    HW1 4481   3.740   0.620   0.881
 1194SOL    HW2 4482   3.693   0.464   0.872
 1195SOL     OW 4483   4.950   2.819   2.696
 1195SOL    HW1 4484   4.868   2.837   2.641
 1195SOL    HW2 4485   5.029   2.808   2.635
 1196SOL     OW 4486   0.368   6.696   4.729
 1196SOL    HW1 4487   0.457   6.659   4.705
 1196SOL    HW2 4488   0.302   6.673   4.657
 1197SOL     OW 4489   2.183   6.564   0.033
 1197SOL    HW1 4490   2.209   6.548   6.957
 1197SOL    HW2 4491   2.089   6.598   0.037
 1198SOL     OW 4492   1.658   2.696   0.217
 1198SOL    HW1 4493   1.586   2.676   0.284
 1198SOL    HW2 4494   1.689   2.611   0.175
 1199SOL     OW 4495   5.801   4.040   2.689
 1199SOL    HW1 4496   5.877   4.027   2.626
 1199SOL    HW2 4497   5.732   3.969   2.674
 1200SOL     OW 4498   3.133   3.867   2.385
 1200SOL    HW1 4499   3.088   3.823   2.463
 1200SOL    HW2 4500   3.182   3.948   2.417
 1201SOL     OW 4501   1.450   2.255   4.982
 1201SOL    HW1 4502   1.397   2.283   4.902
 1201SOL    HW2 4503   1.467   2.336   5.040
 1202SOL     OW 4504   1.393   6.231   5.116
 1202SOL    HW1 4505   1.423   6.152   5.170
 1202SOL    HW2 4506   1.334   6.200   5.041
 1203SOL     OW 4507   4.077   5.910   5.193
 1203SOL    HW1 4508   4.036   6.000   5.205
 1203SOL    HW2 4509   4.068   5.857   5.278
 1204SOL     OW 4510   2.280   6.816   2.610
 1204SOL    HW1 4511   2.319   6.904   2.585
 1204SOL    HW2 4512   2.185   6.828   2.639
 1205SOL     OW 4513   5.810   3.458   2.457
 1205SOL    HW1 4514   5.769   3.548   2.446
 1205SOL    HW2 4515   5.749   3.400   2.512
 1206SOL     OW 4516   3.094   3.932   4.160
 1206SOL    HW1 4517   3.155   3.856   4.184
 1206SOL    HW2 4518   3.086   3.994   4.238
 1207SOL     OW 4519   0.970   5.652   3.183
 1207SOL    HW1 4520   0.910   5.665   3.262
 1207SOL    HW2 4521   0.960   5.558   3.148
 1208SOL     OW 4522   3.473   2.919   6.392
 1208SOL    HW1 4523   3.412   2.942   6.469
 1208SOL    HW2 4524   3.426   2.857   6.330
 1209SOL     OW 4525   3.982   6.466   5.196
 1209SOL    HW1 4526   4.012   6.523   5.273
 1209SOL    HW2 4527   3.882   6.459   5.197
 1210SOL     OW 4528   3.152   1.042   2.692
 1210SOL    HW1 4529   3.181   1.034   2.787
 1210SOL    HW2 4530   3.233   1.048   2.633
 1211SOL     OW 4531   0.844   2.739   0.630
 1211SOL    HW1 4532   0.786   2.686   0.692
 1211SOL    HW2 4533   0.795   2.755   0.544
 1212SOL     OW 4534   0.723   6.690   0.506
 1212SOL    HW1 4535   0.726   6.633   0.424
 1212SOL    HW2 4536   0.657   6.653   0.571
 1213SOL     OW 4537   5.618   2.778   1.478
 1213SOL    HW1 4538   5.694   2.818   1.529
 1213SOL    HW2 4539   5.535   2.782   1.534
 1214SOL     OW 4540   6.959   2.627   2.289
 1214SOL    HW1 4541   6.936   2.611   2.385
 1214SOL    HW2 4542   6.883   2.596   2.231
 1215SOL     OW 4543   2.045   5.816   2.831
 1215SOL    HW1 4544   2.004   5.907   2.839
 1215SOL    HW2 4545   2.144   5.823   2.839
 1216SOL     OW 4546   4.228   0.058   1.428
 1216SOL    HW1 4547   4.194   0.074   1.520
 1216SOL    HW2 4548   4.156   0.017   1.372
 1217SOL     OW 4549   2.770   4.254   6.930
 1217SOL    HW1 4550   2.803   4.268   0.004
 1217SOL    HW2 4551   2.694   4.188   6.931
 1218SOL     OW 4552   2.032   4.908   4.055
 1218SOL    HW1 4553   1.969   4.840   4.018
 1218SOL    HW2 4554   2.111   4.862   4.096
 1219SOL     OW 4555   3.753   5.286   2.140
 1219SOL    HW1 4556   3.808   5.256   2.062
 1219SOL    HW2 4557   3.694   5.212   2.170
 1220SOL     OW 4558   0.316   4.836   2.246
 1220SOL    HW1 4559   0.222   4.809   2.227
 1220SOL    HW2 4560   0.346   4.901   2.177
 1221SOL     OW 4561   4.683   4.350   6.784
 1221SOL    HW1 4562   4.773   4.318   6.814
 1221SOL    HW2 4563   4.683   4.449   6.781
 1222SOL     OW 4564   0.033   0.860   6.726
 1222SOL    HW1 4565   6.977   0.836   6.787
 1222SOL    HW2 4566   0.029   0.957   6.704
 1223SOL     OW 4567   4.000   6.282   1.239
 1223SOL    HW1 4568   3.959   6.279   1.148
 1223SOL    HW2 4569   4.054   6.199   1.254
 1224SOL     OW 4570   3.059   1.050   1.542
 1224SOL    HW1 4571   3.033   1.134   1.494
 1224SOL    HW2 4572   3.122   1.071   1.617
 1225SOL     OW 4573   3.403   4.072   6.158
 1225SOL    HW1 4574   3.454   4.027   6.086
 1225SOL    HW2 4575   3.316   4.107   6.121
 1226SOL     OW 4576   2.318   4.910   0.343
 1226SOL    HW1 4577   2.244   4.955   0.294
 1226SOL    HW2 4578   2.354   4.973   0.413
 1227SOL     OW 4579   1.571   4.329   5.666
 1227SOL    HW1 4580   1.642   4.317   5.735
 1227SOL    HW2 4581   1.605   4.295   5.578
 1228SOL     OW 4582   3.808   2.404   0.089
 1228SOL    HW1 4583   3.795   2.415   7.010
 1228SOL    HW2 4584   3.731   2.445   0.138
 1229SOL     OW 4585   3.323   3.900   6.671
 1229SOL    HW1 4586   3.244   3.898   6.609
 1229SOL    HW2 4587   3.291   3.913   6.765
 1230SOL     OW 4588   4.311   0.387   3.909
 1230SOL    HW1 4589   4.352   0.411   3.821
 1230SOL    HW2 4590   4.212   0.402   3.905
 1231SOL     OW 4591   0.724   3.458   3.628
 1231SOL    HW1 4592   0.739   3.435   3.531
 1231SOL    HW2 4593   0.812   3.467   3.674
 1232SOL     OW 4594   1.942   2.845   2.435
 1232SOL    HW1 4595   1.929   2.746   2.423
 1232SOL    HW2 4596   2.039   2.864   2.451
 1233SOL     OW 4597   0.772   2.112   4.310
 1233SOL    HW1 4598   0.698   2.179   4.312
 1233SOL    HW2 4599   0.769   2.056   4.394
 1234SOL     OW 4600   6.645   4.405   4.393
 1234SOL    HW1 4601   6.714   4.359   4.449
 1234SOL    HW2 4602   6.661   4.385   4.296
 1235SOL     OW 4603   6.433   5.097   3.561
 1235SOL    HW1 4604   6.522   5.069   3.526
 1235SOL    HW2 4605   6.439   5.189   3.600
 1236SOL     OW 4606   5.608   0.784   6.624
 1236SOL    HW1 4607   5.520   0.830   6.610
 1236SOL    HW2 4608   5.677   0.824   6.563
 1237SOL     OW 4609   2.218   4.665   6.335
 1237SOL    HW1 4610   2.131   4.659   6.285
 1237SOL    HW2 4611   2.213   4.610   6.418
 1238SOL     OW 4612   1.861   1.375   1.403
 1238SOL    HW1 4613   1.806   1.300   1.441
 1238SOL    HW2 4614   1.819   1.408   1.318
 1239SOL     OW 4615   0.905   6.957   5.961
 1239SOL    HW1 4616   0.978   7.005   5.911
 1239SOL    HW2 4617   0.877   7.013   6.039
 1240SOL     OW 4618   5.714   5.382   0.911
 1240SOL    HW1 4619   5.628   5.343   0.943
 1240SOL    HW2 4620   5.697   5.466   0.860
 1241SOL     OW 4621   0.161   2.085   4.265
 1241SOL    HW1 4622   0.202   2.004   4.224
 1241SOL    HW2 4623   0.063   2.071   4.274
 1242SOL     OW 4624   2.062   2.354   6.700
 1242SOL    HW1 4625   2.073   2.383   6.795
 1242SOL    HW2 4626   2.086   2.257   6.692
 1243SOL     OW 4627   2.932   5.098   5.136
 1243SOL    HW1 4628   2.985   5.013   5.145
 1243SOL    HW2 4629   2.914   5.115   5.039
 1244SOL     OW 4630   0.846   1.849   2.903
 1244SOL    HW1 4631   0.893   1.773   2.857
 1244SOL    HW2 4632   0.872   1.935   2.859
 1245SOL     OW 4633   3.100   2.838   5.239
 1245SOL    HW1 4634   3.006   2.812   5.257
 1245SOL    HW2 4635   3.102   2.917   5.177
 1246SOL     OW 4636   1.157   6.490   1.945
 1246SOL    HW1 4637   1.148   6.424   1.870
 1246SOL    HW2 4638   1.195   6.575   1.909
 1247SOL     OW 4639   0.940   6.098   6.649
 1247SOL    HW1 4640   1.015   6.160   6.672
 1247SOL    HW2 4641   0.853   6.136   6.679
 1248SOL     OW 4642   2.309   6.958   4.052
 1248SOL    HW1 4643   2.343   0.021   4.095
 1248SOL    HW2 4644   2.295   6.887   4.121
 1249SOL     OW 4645   5.931   3.105   3.218
 1249SOL    HW1 4646   5.845   3.055   3.227
 1249SOL    HW2 4647   5.995   3.050   3.163
 1250SOL     OW 4648   0.138   3.006   4.614
 1250SOL    HW1 4649   0.147   3.032   4.518
 1250SOL    HW2 4650   0.222   2.963   4.646
 1251SOL     OW 4651   3.449   0.615   6.140
 1251SOL    HW1 4652   3.391   0.550   6.190
 1251SOL    HW2 4653   3.534   0.629   6.190
 1252SOL     OW 4654   3.637   3.729   0.360
 1252SOL    HW1 4655   3.657   3.825   0.337
 1252SOL    HW2 4656   3.580   3.726   0.441
 1253SOL     OW 4657   4.912   1.149   2.865
 1253SOL    HW1 4658   4.859   1.145   2.950
 1253SOL    HW2 4659   4.865   1.208   2.799
 1254SOL     OW 4660   5.738   1.005   3.684
 1254SOL    HW1 4661   5.758   1.051   3.771
 1254SOL    HW2 4662   5.665   1.055   3.637
 1255SOL     OW 4663   5.884   0.405   1.939
 1255SOL    HW1 4664   5.914   0.433   1.847
 1255SOL    HW2 4665   5.819   0.330   1.931
 1256SOL     OW 4666   5.029   2.687   3.415
 1256SOL    HW1 4667   4.961   2.620   3.385
 1256SOL    HW2 4668   4.992   2.743   3.489
 1257SOL     OW 4669   5.592   1.079   4.203
 1257SOL    HW1 4670   5.600   0.994   4.151
 1257SOL    HW2 4671   5.565   1.058   4.297
 1258SOL     OW 4672   0.056   5.236   3.772
 1258SOL    HW1 4673   6.992   5.250   3.718
 1258SOL    HW2 4674   0.136   5.267   3.720
 1259SOL     OW 4675   5.306   2.171   4.564
 1259SOL    HW1 4676   5.399   2.167   4.601
 1259SOL    HW2 4677   5.276   2.266   4.560
 1260SOL     OW 4678   0.644   1.663   4.973
 1260SOL    HW1 4679   0.639   1.666   5.073
 1260SOL    HW2 4680   0.557   1.694   4.934
 1261SOL     OW 4681   6.821   3.702   1.138
 1261SOL    HW1 4682   6.761   3.628   1.168
 1261SOL    HW2 4683   6.786   3.739   1.051
 1262SOL     OW 4684   4.695   6.334   2.215
 1262SOL    HW1 4685   4.784   6.293   2.194
 1262SOL    HW2 4686   4.709   6.421   2.261
 1263SOL     OW 4687   1.107   2.223   3.249
 1263SOL    HW1 4688   1.072   2.168   3.325
 1263SOL    HW2 4689   1.196   2.261   3.274
 1264SOL     OW 4690   1.261   2.850   5.002
 1264SOL    HW1 4691   1.318   2.932   4.994
 1264SOL    HW2 4692   1.319   2.771   5.018
 1265SOL     OW 4693   6.185   0.352   5.836
 1265SOL    HW1 4694   6.219   0.429   5.890
 1265SOL    HW2 4695   6.240   0.271   5.856
 1266SOL     OW 4696   3.205   1.528   5.663
 1266SOL    HW1 4697   3.294   1.557   5.700
 1266SOL    HW2 4698   3.173   1.447   5.711
 1267SOL     OW 4699   3.147   0.964   2.255
 1267SOL    HW1 4700   3.199   0.882   2.231
 1267SOL    HW2 4701   3.201   1.046   2.234
 1268SOL     OW 4702   4.212   2.204   5.186
 1268SOL    HW1 4703   4.173   2.199   5.278
 1268SOL    HW2 4704   4.165   2.274   5.133
 1269SOL     OW 4705   5.843   2.107   3.503
 1269SOL    HW1 4706   5.757   2.152   3.528
 1269SOL    HW2 4707   5.870   2.045   3.576
 1270SOL     OW 4708   5.971   5.284   3.345
 1270SOL    HW1 4709   6.006   5.208   3.400
 1270SOL    HW2 4710   5.876   5.265   3.318
 1271SOL     OW 4711   1.557   0.472   2.167
 1271SOL    HW1 4712   1.514   0.562   2.163
 1271SOL    HW2 4713   1.654   0.483   2.190
 1272SOL     OW 4714   6.361   2.021   0.327
 1272SOL    HW1 4715   6.268   2.001   0.296
 1272SOL    HW2 4716   6.398   1.942   0.374
 1273SOL     OW 4717   1.861   4.303   5.521
 1273SOL    HW1 4718   1.855   4.209   5.554
 1273SOL    HW2 4719   1.931   4.352   5.573
 1274SOL     OW 4720   0.068   4.642   4.308
 1274SOL    HW1 4721   7.016   4.677   4.247
 1274SOL    HW2 4722   0.025   4.585   4.379
 1275SOL     OW 4723   1.633   1.496   3.028
 1275SOL    HW1 4724   1.712   1.456   2.982
 1275SOL    HW2 4725   1.645   1.595   3.036
 1276SOL     OW 4726   5.937   4.258   3.905
 1276SOL    HW1 4727   5.921   4.188   3.835
 1276SOL    HW2 4728   5.892   4.231   3.990
 1277SOL     OW 4729   1.454   6.311   6.380
 1277SOL    HW1 4730   1.429   6.357   6.465
 1277SOL    HW2 4731   1.435   6.214   6.387
 1278SOL     OW 4732   0.068   6.192   2.848
 1278SOL    HW1 4733   0.029   6.247   2.773
 1278SOL    HW2 4734   0.010   6.112   2.864
 1279SOL     OW 4735   2.880   3.238   0.509
 1279SOL    HW1 4736   2.918   3.326   0.483
 1279SOL    HW2 4737   2.871   3.233   0.608
 1280SOL     OW 4738   2.823   2.187   3.920
 1280SOL    HW1 4739   2.770   2.168   3.837
 1280SOL    HW2 4740   2.919   2.202   3.896
 1281SOL     OW 4741   5.396   6.128   5.468
 1281SOL    HW1 4742   5.320   6.070   5.497
 1281SOL    HW2 4743   5.466   6.072   5.424
 1282SOL     OW 4744   1.157   2.670   1.242
 1282SOL    HW1 4745   1.115   2.592   1.288
 1282SOL    HW2 4746   1.249   2.685   1.278
 1283SOL     OW 4747   1.070   0.878   4.145
 1283SOL    HW1 4748   1.032   0.928   4.222
 1283SOL    HW2 4749   1.036   0.784   4.146
 1284SOL     OW 4750   3.875   2.369   1.719
 1284SOL    HW1 4751   3.786   2.361   1.763
 1284SOL    HW2 4752   3.916   2.457   1.743
 1285SOL     OW 4753   3.929   1.067   4.590
 1285SOL    HW1 4754   3.838   1.072   4.632
 1285SOL    HW2 4755   3.977   1.153   4.603
 1286SOL     OW 4756   4.870   1.240   2.084
 1286SOL    HW1 4757   4.871   1.280   1.993
 1286SOL    HW2 4758   4.797   1.172   2.090
 1287SOL     OW 4759   5.333   4.925   6.465
 1287SOL    HW1 4760   5.425   4.954   6.491
 1287SOL    HW2 4761   5.308   4.967   6.378
 1288SOL     OW 4762   4.625   4.557   6.094
 1288SOL    HW1 4763   4.658   4.625   6.160
 1288SOL    HW2 4764   4.674   4.471   6.108
 1289SOL     OW 4765   1.320   6.984   0.251
 1289SOL    HW1 4766   1.406   7.013   0.208
 1289SOL    HW2 4767   1.332   6.982   0.351
 1290SOL     OW 4768   1.207   6.716   4.399
 1290SOL    HW1 4769   1.282   6.779   4.385
 1290SOL    HW2 4770   1.233   6.647   4.467
 1291SOL     OW 4771   5.557   5.503   3.203
 1291SOL    HW1 4772   5.484   5.497   3.271
 1291SOL    HW2 4773   5.548   5.589   3.152
 1292SOL     OW 4774   0.171   6.702   3.192
 1292SOL    HW1 4775   0.111   6.632   3.154
 1292SOL    HW2 4776   0.143   6.792   3.157
 1293SOL     OW 4777   5.084   0.362   0.925
 1293SOL    HW1 4778   5.074   0.269   0.890
 1293SOL    HW2 4779   4.997   0.411   0.916
 1294SOL     OW 4780   2.182   4.435   5.624
 1294SOL    HW1 4781   2.140   4.451   5.714
 1294SOL    HW2 4782   2.278   4.460   5.627
 1295SOL     OW 4783   0.173   4.724   0.177
 1295SOL    HW1 4784   0.096   4.662   0.193
 1295SOL    HW2 4785   0.248   4.674   0.134
 1296SOL     OW 4786   4.052   0.689   5.866
 1296SOL    HW1 4787   3.966   0.646   5.893
 1296SOL    HW2 4788   4.123   0.664   5.932
 1297SOL     OW 4789   6.066   6.725   6.946
 1297SOL    HW1 4790   6.035   6.735   0.022
 1297SOL    HW2 4791   6.037   6.636   6.911
 1298SOL     OW 4792   5.087   0.421   3.263
 1298SOL    HW1 4793   5.149   0.416   3.341
 1298SOL    HW2 4794   5.105   0.504   3.211
 1299SOL     OW 4795   0.921   4.778   4.755
 1299SOL    HW1 4796   1.007   4.810   4.795
 1299SOL    HW2 4797   0.933   4.764   4.656
 1300SOL     OW 4798   1.602   5.504   6.898
 1300SOL    HW1 4799   1.631   5.513   6.802
 1300SOL    HW2 4800   1.563   5.590   6.930
 1301SOL     OW 4801   6.303   1.256   6.798
 1301SOL    HW1 4802   6.225   1.287   6.853
 1301SOL    HW2 4803   6.325   1.325   6.729
 1302SOL     OW 4804   6.580   6.748   5.018
 1302SOL    HW1 4805   6.633   6.814   4.965
 1302SOL    HW2 4806   6.622   6.658   5.012
 1303SOL     OW 4807   3.099   6.565   1.416
 1303SOL    HW1 4808   3.057   6.654   1.396
 1303SOL    HW2 4809   3.139   6.567   1.508
 1304SOL     OW 4810   6.847   0.190   0.231
 1304SOL    HW1 4811   6.912   0.216   0.303
 1304SOL    HW2 4812   6.757   0.174   0.271
 1305SOL     OW 4813   4.226   4.005   5.872
 1305SOL    HW1 4814   4.204   4.100   5.849
 1305SOL    HW2 4815   4.163   3.944   5.825
 1306SOL     OW 4816   2.893   6.402   4.516
 1306SOL    HW1 4817   2.969   6.465   4.536
 1306SOL    HW2 4818   2.930   6.317   4.479
 1307SOL     OW 4819   2.118   3.426   4.013
 1307SOL    HW1 4820   2.168   3.494   4.067
 1307SOL    HW2 4821   2.065   3.367   4.074
 1308SOL     OW 4822   0.815   3.839   6.454
 1308SOL    HW1 4823   0.729   3.796   6.482
 1308SOL    HW2 4824   0.887   3.817   6.519
 1309SOL     OW 4825   6.195   3.996   6.799
 1309SOL    HW1 4826   6.178   3.995   6.898
 1309SOL    HW2 4827   6.109   4.012   6.750
 1310SOL     OW 4828   2.159   3.143   3.283
 1310SOL    HW1 4829   2.174   3.240   3.263
 1310SOL    HW2 4830   2.160   3.129   3.382
 1311SOL     OW 4831   6.374   5.124   0.309
 1311SOL    HW1 4832   6.276   5.124   0.329
 1311SOL    HW2 4833   6.416   5.206   0.346
 1312SOL     OW 4834   2.281   1.458   6.494
 1312SOL    HW1 4835   2.376   1.471   6.467
 1312SOL    HW2 4836   2.224   1.526   6.447
 1313SOL     OW 4837   5.525   5.091   2.492
 1313SOL    HW1 4838   5.485   5.174   2.454
 1313SOL    HW2 4839   5.485   5.011   2.446
 1314SOL     OW 4840   2.524   1.560   3.994
 1314SOL    HW1 4841   2.444   1.599   4.040
 1314SOL    HW2 4842   2.606   1.610   4.023
 1315SOL     OW 4843   5.969   1.149   3.246
 1315SOL    HW1 4844   6.006   1.098   3.168
 1315SOL    HW2 4845   5.913   1.225   3.213
 1316SOL     OW 4846   5.394   0.154   6.376
 1316SOL    HW1 4847   5.456   0.086   6.414
 1316SOL    HW2 4848   5.344   0.199   6.450
 1317SOL     OW 4849   4.114   3.197   4.227
 1317SOL    HW1 4850   4.199   3.157   4.258
 1317SOL    HW2 4851   4.083   3.266   4.292
 1318SOL     OW 4852   1.998   1.201   6.532
 1318SOL    HW1 4853   2.034   1.274   6.590
 1318SOL    HW2 4854   1.986   1.118   6.586
 1319SOL     OW 4855   6.685   1.714   0.417
 1319SOL    HW1 4856   6.745   1.734   0.494
 1319SOL    HW2 4857   6.602   1.769   0.425
 1320SOL     OW 4858   2.684   2.837   6.071
 1320SOL    HW1 4859   2.605   2.814   6.128
 1320SOL    HW2 4860   2.655   2.845   5.976
 1321SOL     OW 4861   0.124   3.065   1.397
 1321SOL    HW1 4862   0.201   3.064   1.334
 1321SOL    HW2 4863   0.149   3.116   1.480
 1322SOL     OW 4864   2.260   2.615   0.103
 1322SOL    HW1 4865   2.246   2.598   0.006
 1322SOL    HW2 4866   2.321   2.693   0.115
 1323SOL     OW 4867   4.136   0.395   1.331
 1323SOL    HW1 4868   4.061   0.439   1.280
 1323SOL    HW2 4869   4.223   0.419   1.290
 1324SOL     OW 4870   2.333   3.916   5.856
 1324SOL    HW1 4871   2.271   3.877   5.788
 1324SOL    HW2 4872   2.426   3.919   5.819
 1325SOL     OW 4873   4.106   5.789   4.526
 1325SOL    HW1 4874   4.023   5.738   4.503
 1325SOL    HW2 4875   4.109   5.804   4.625
 1326SOL     OW 4876   4.209   1.191   4.905
 1326SOL    HW1 4877   4.203   1.147   4.815
 1326SOL    HW2 4878   4.140   1.263   4.911
 1327SOL     OW 4879   4.967   5.700   2.068
 1327SOL    HW1 4880   4.987   5.603   2.083
 1327SOL    HW2 4881   4.870   5.717   2.086
 1328SOL     OW 4882   1.577   2.113   5.640
 1328SOL    HW1 4883   1.512   2.159   5.579
 1328SOL    HW2 4884   1.528   2.046   5.695
 1329SOL     OW 4885   1.050   3.131   3.900
 1329SOL    HW1 4886   0.958   3.104   3.927
 1329SOL    HW2 4887   1.047   3.174   3.809
 1330SOL     OW 4888   6.525   3.218   2.938
 1330SOL    HW1 4889   6.433   3.232   2.974
 1330SOL    HW2 4890   6.592   3.262   2.998
 1331SOL     OW 4891   3.889   1.623   2.794
 1331SOL    HW1 4892   3.829   1.549   2.825
 1331SOL    HW2 4893   3.949   1.651   2.868
 1332SOL     OW 4894   2.464   6.270   6.797
 1332SOL    HW1 4895   2.421   6.195   6.847
 1332SOL    HW2 4896   2.456   6.253   6.699
 1333SOL     OW 4897   3.935   3.610   2.633
 1333SOL    HW1 4898   4.008   3.551   2.670
 1333SOL    HW2 4899   3.849   3.559   2.631
 1334SOL     OW 4900   6.627   4.052   1.156
 1334SOL    HW1 4901   6.682   4.091   1.230
 1334SOL    HW2 4902   6.577   3.972   1.189
 1335SOL     OW 4903   0.156   3.445   2.873
 1335SOL    HW1 4904   0.109   3.529   2.898
 1335SOL    HW2 4905   0.170   3.389   2.956
 1336SOL     OW 4906   2.316   6.556   6.064
 1336SOL    HW1 4907   2.310   6.597   6.155
 1336SOL    HW2 4908   2.237   6.582   6.010
 1337SOL     OW 4909   0.611   6.757   2.198
 1337SOL    HW1 4910   0.513   6.744   2.183
 1337SOL    HW2 4911   0.640   6.704   2.277
 1338SOL     OW 4912   0.187   3.651   5.189
 1338SOL    HW1 4913   0.238   3.584   5.136
 1338SOL    HW2 4914   0.089   3.641   5.170
 1339SOL     OW 4915   5.696   1.031   0.053
 1339SOL    HW1 4916   5.668   0.939   0.079
 1339SOL    HW2 4917   5.761   1.026   6.996
 1340SOL     OW 4918   2.672   2.753   0.946
 1340SOL    HW1 4919   2.708   2.685   1.009
 1340SOL    HW2 4920   2.582   2.784   0.978
 1341SOL     OW 4921   5.659   5.887   6.597
 1341SOL    HW1 4922   5.715   5.804   6.600
 1341SOL    HW2 4923   5.619   5.898   6.506
 1342SOL     OW 4924   1.730   5.823   1.644
 1342SOL    HW1 4925   1.725   5.813   1.744
 1342SOL    HW2 4926   1.823   5.805   1.613
 1343SOL     OW 4927   4.947   5.710   2.918
 1343SOL    HW1 4928   4.950   5.779   2.845
 1343SOL    HW2 4929   4.886   5.742   2.991
 1344SOL     OW 4930   1.210   0.571   3.605
 1344SOL    HW1 4931   1.231   0.491   3.662
 1344SOL    HW2 4932   1.111   0.577   3.591
 1345SOL     OW 4933   1.485   6.665   5.418
 1345SOL    HW1 4934   1.399   6.620   5.443
 1345SOL    HW2 4935   1.473   6.764   5.421
 1346SOL     OW 4936   3.046   5.691   3.792
 1346SOL    HW1 4937   3.092   5.610   3.757
 1346SOL    HW2 4938   3.084   5.716   3.881
 1347SOL     OW 4939   1.424   0.552   6.302
 1347SOL    HW1 4940   1.328   0.576   6.315
 1347SOL    HW2 4941   1.432   0.453   6.287
 1348SOL     OW 4942   1.593   6.934   4.923
 1348SOL    HW1 4943   1.588   6.868   4.848
 1348SOL    HW2 4944   1.648   6.897   4.997
 1349SOL     OW 4945   5.837   3.860   4.111
 1349SOL    HW1 4946   5.746   3.819   4.120
 1349SOL    HW2 4947   5.883   3.821   4.030
 1350SOL     OW 4948   5.388   4.662   6.558
 1350SOL    HW1 4949   5.366   4.597   6.485
 1350SOL    HW2 4950   5.366   4.755   6.528
 1351SOL     OW 4951   6.867   2.731   6.622
 1351SOL    HW1 4952   6.827   2.810   6.669
 1351SOL    HW2 4953   6.868   2.652   6.684
 1352SOL     OW 4954   6.871   1.068   3.101
 1352SOL    HW1 4955   6.850   0.977   3.137
 1352SOL    HW2 4956   6.786   1.115   3.078
 1353SOL     OW 4957   6.456   2.544   6.032
 1353SOL    HW1 4958   6.554   2.531   6.017
 1353SOL    HW2 4959   6.406   2.467   5.991
 1354SOL     OW 4960   5.100   4.821   2.881
 1354SOL    HW1 4961   5.049   4.754   2.828
 1354SOL    HW2 4962   5.072   4.913   2.855
 1355SOL     OW 4963   4.085   3.563   5.071
 1355SOL    HW1 4964   4.130   3.573   4.982
 1355SOL    HW2 4965   4.129   3.623   5.138
 1356SOL     OW 4966   2.958   3.231   6.743
 1356SOL    HW1 4967   2.902   3.241   6.661
 1356SOL    HW2 4968   3.044   3.280   6.731
 1357SOL     OW 4969   0.734   2.978   5.668
 1357SOL    HW1 4970   0.654   3.035   5.653
 1357SOL    HW2 4971   0.805   3.002   5.602
 1358SOL     OW 4972   2.346   0.052   6.659
 1358SOL    HW1 4973   2.273   0.107   6.618
 1358SOL    HW2 4974   2.434   0.095   6.641
 1359SOL     OW 4975   6.370   4.915   0.136
 1359SOL    HW1 4976   6.282   4.871   0.117
 1359SOL    HW2 4977   6.355   4.998   0.190
 1360SOL     OW 4978   2.560   1.323   5.557
 1360SOL    HW1 4979   2.495   1.280   5.620
 1360SOL    HW2 4980   2.511   1.390   5.500
 1361SOL     OW 4981   6.049   5.206   4.981
 1361SOL    HW1 4982   6.066   5.193   4.884
 1361SOL    HW2 4983   6.127   5.174   5.034
 1362SOL     OW 4984   3.443   3.817   4.045
 1362SOL    HW1 4985   3.376   3.836   3.972
 1362SOL    HW2 4986   3.525   3.776   4.005
 1363SOL     OW 4987   0.273   6.666   3.719
 1363SOL    HW1 4988   0.206   6.740   3.713
 1363SOL    HW2 4989   0.263   6.607   3.639
 1364SOL     OW 4990   3.867   4.003   6.869
 1364SOL    HW1 4991   3.792   4.044   6.817
 1364SOL    HW2 4992   3.949   3.997   6.812
 1365SOL     OW 4993   5.450   2.210   5.960
 1365SOL    HW1 4994   5.354   2.215   5.933
 1365SOL    HW2 4995   5.507   2.208   5.878
 1366SOL     OW 4996   1.892   0.827   5.050
 1366SOL    HW1 4997   1.899   0.838   5.149
 1366SOL    HW2 4998   1.831   0.896   5.012
 1367SOL     OW 4999   2.450   1.607   2.413
 1367SOL    HW1 5000   2.517   1.680   2.421
 1367SOL    HW2 5001   2.382   1.616   2.486
 1368SOL     OW 5002   6.702   0.386   3.457
 1368SOL    HW1 5003   6.689   0.467   3.514
 1368SOL    HW2 5004   6.655   0.308   3.499
 1369SOL     OW 5005   6.962   0.658   2.585
 1369SOL    HW1 5006   6.914   0.576   2.554
 1369SOL    HW2 5007   0.040   0.649   2.568
 1370SOL     OW 5008   1.694   1.157   2.685
 1370SOL    HW1 5009   1.744   1.173   2.770
 1370SOL    HW2 5010   1.759   1.138   2.611
 1371SOL     OW 5011   3.152   0.298   5.865
 1371SOL    HW1 5012   3.097   0.217   5.842
 1371SOL    HW2 5013   3.103   0.380   5.836
 1372SOL     OW 5014   3.009   1.804   1.401
 1372SOL    HW1 5015   3.060   1.879   1.444
 1372SOL    HW2 5016   2.931   1.779   1.459
 1373SOL     OW 5017   1.553   5.419   6.152
 1373SOL    HW1 5018   1.641   5.416   6.199
 1373SOL    HW2 5019   1.547   5.504   6.099
 1374SOL     OW 5020   5.375   3.713   5.110
 1374SOL    HW1 5021   5.404   3.808   5.101
 1374SOL    HW2 5022   5.296   3.697   5.051
 1375SOL     OW 5023   1.503   4.210   4.244
 1375SOL    HW1 5024   1.531   4.163   4.328
 1375SOL    HW2 5025   1.453   4.293   4.267
 1376SOL     OW 5026   4.862   0.363   1.748
 1376SOL    HW1 5027   4.944   0.413   1.774
 1376SOL    HW2 5028   4.813   0.335   1.830
 1377SOL     OW 5029   0.001   4.162   5.093
 1377SOL    HW1 5030   0.056   4.134   5.172
 1377SOL    HW2 5031   6.930   4.192   5.125
 1378SOL     OW 5032   1.979   1.810   0.574
 1378SOL    HW1 5033   1.930   1.857   0.501
 1378SOL    HW2 5034   2.046   1.747   0.534
 1379SOL     OW 5035   4.351   5.385   2.016
 1379SOL    HW1 5036   4.333   5.393   2.114
 1379SOL    HW2 5037   4.380   5.474   1.981
 1380SOL     OW 5038   6.038   5.170   2.938
 1380SOL    HW1 5039   5.978   5.111   2.992
 1380SOL    HW2 5040   6.114   5.117   2.902
 1381SOL     OW 5041   4.341   6.782   2.803
 1381SOL    HW1 5042   4.246   6.757   2.787
 1381SOL    HW2 5043   4.349   6.882   2.811
 1382SOL     OW 5044   0.247   4.289   0.659
 1382SOL    HW1 5045   0.241   4.270   0.757
 1382SOL    HW2 5046   0.193   4.221   0.609
 1383SOL     OW 5047   2.861   0.037   0.660
 1383SOL    HW1 5048   2.946   7.004   0.649
 1383SOL    HW2 5049   2.883   0.130   0.688
 1384SOL     OW 5050   1.295   1.143   2.186
 1384SOL    HW1 5051   1.240   1.206   2.132
 1384SOL    HW2 5052   1.260   1.050   2.173
 1385SOL     OW 5053   4.871   3.319   3.793
 1385SOL    HW1 5054   4.778   3.284   3.781
 1385SOL    HW2 5055   4.866   3.414   3.825
 1386SOL     OW 5056   2.853   2.297   3.516
 1386SOL    HW1 5057   2.951   2.312   3.532
 1386SOL    HW2 5058   2.808   2.385   3.502
 1387SOL     OW 5059   3.283   0.562   3.954
 1387SOL    HW1 5060   3.357   0.628   3.970
 1387SOL    HW2 5061   3.198   0.611   3.937
 1388SOL     OW 5062   4.860   2.142   3.652
 1388SOL    HW1 5063   4.925   2.079   3.693
 1388SOL    HW2 5064   4.767   2.107   3.666
 1389SOL     OW 5065   6.223   0.539   4.150
 1389SOL    HW1 5066   6.204   0.497   4.238
 1389SOL    HW2 5067   6.137   0.562   4.105
 1390SOL     OW 5068   5.413   1.995   2.328
 1390SOL    HW1 5069   5.422   2.046   2.243
 1390SOL    HW2 5070   5.461   1.907   2.320
 1391SOL     OW 5071   5.736   0.711   5.349
 1391SOL    HW1 5072   5.803   0.643   5.378
 1391SOL    HW2 5073   5.667   0.724   5.421
 1392SOL     OW 5074   3.505   0.360   5.278
 1392SOL    HW1 5075   3.571   0.431   5.255
 1392SOL    HW2 5076   3.551   0.271   5.282
 1393SOL     OW 5077   5.155   6.787   6.883
 1393SOL    HW1 5078   5.105   6.873   6.879
 1393SOL    HW2 5079   5.216   6.779   6.805
 1394SOL     OW 5080   4.126   0.917   4.441
 1394SOL    HW1 5081   4.104   0.819   4.441
 1394SOL    HW2 5082   4.052   0.967   4.485
 1395SOL     OW 5083   0.992   5.023   2.317
 1395SOL    HW1 5084   0.930   5.046   2.242
 1395SOL    HW2 5085   0.978   4.927   2.343
 1396SOL     OW 5086   1.285   1.539   3.321
 1396SOL    HW1 5087   1.220   1.555   3.247
 1396SOL    HW2 5088   1.237   1.503   3.400
 1397SOL     OW 5089   2.451   4.323   5.781
 1397SOL    HW1 5090   2.517   4.397   5.798
 1397SOL    HW2 5091   2.439   4.311   5.683
 1398SOL     OW 5092   3.272   6.821   6.175
 1398SOL    HW1 5093   3.282   6.914   6.211
 1398SOL    HW2 5094   3.289   6.822   6.076
 1399SOL     OW 5095   3.517   6.997   6.958
 1399SOL    HW1 5096   3.564   6.918   6.920
 1399SOL    HW2 5097   3.452   0.014   6.891
 1400SOL     OW 5098   0.540   1.662   5.595
 1400SOL    HW1 5099   0.597   1.590   5.636
 1400SOL    HW2 5100   0.447   1.628   5.583
 1401SOL     OW 5101   4.426   6.992   2.063
 1401SOL    HW1 5102   4.367   0.048   2.037
 1401SOL    HW2 5103   4.468   7.010   2.152
 1402SOL     OW 5104   4.934   3.874   2.113
 1402SOL    HW1 5105   4.883   3.895   2.030
 1402SOL    HW2 5106   4.888   3.914   2.192
 1403SOL     OW 5107   3.297   3.058   6.856
 1403SOL    HW1 5108   3.258   3.104   6.935
 1403SOL    HW2 5109   3.314   2.961   6.878
 1404SOL     OW 5110   3.649   6.463   6.885
 1404SOL    HW1 5111   3.598   6.392   6.935
 1404SOL    HW2 5112   3.655   6.437   6.789
 1405SOL     OW 5113   1.134   4.377   6.519
 1405SOL    HW1 5114   1.086   4.293   6.543
 1405SOL    HW2 5115   1.186   4.364   6.435
 1406SOL     OW 5116   2.040   2.416   0.065
 1406SOL    HW1 5117   2.107   2.485   0.093
 1406SOL    HW2 5118   1.990   2.383   0.145
 1407SOL     OW 5119   6.632   2.923   1.318
 1407SOL    HW1 5120   6.612   2.849   1.383
 1407SOL    HW2 5121   6.728   2.949   1.325
 1408SOL     OW 5122   5.465   6.166   1.244
 1408SOL    HW1 5123   5.468   6.259   1.281
 1408SOL    HW2 5124   5.527   6.159   1.166
 1409SOL     OW 5125   5.914   2.024   5.870
 1409SOL    HW1 5126   5.888   1.930   5.893
 1409SOL    HW2 5127   5.897   2.083   5.949
 1410SOL     OW 5128   3.221   0.624   0.766
 1410SOL    HW1 5129   3.235   0.601   0.862
 1410SOL    HW2 5130   3.275   0.705   0.742
 1411SOL     OW 5131   2.998   6.929   0.278
 1411SOL    HW1 5132   3.062   7.002   0.299
 1411SOL    HW2 5133   2.919   6.935   0.338
 1412SOL     OW 5134   2.080   1.621   6.393
 1412SOL    HW1 5135   2.027   1.573   6.324
 1412SOL    HW2 5136   2.018   1.676   6.450
 1413SOL     OW 5137   2.599   1.664   5.056
 1413SOL    HW1 5138   2.609   1.572   5.094
 1413SOL    HW2 5139   2.504   1.676   5.025
 1414SOL     OW 5140   0.370   5.233   2.189
 1414SOL    HW1 5141   0.323   5.242   2.276
 1414SOL    HW2 5142   0.366   5.320   2.140
 1415SOL     OW 5143   3.574   2.078   5.376
 1415SOL    HW1 5144   3.488   2.128   5.377
 1415SOL    HW2 5145   3.562   1.987   5.416
 1416SOL     OW 5146   4.681   0.599   5.494
 1416SOL    HW1 5147   4.688   0.610   5.394
 1416SOL    HW2 5148   4.607   0.656   5.528
 1417SOL     OW 5149   3.723   3.826   4.303
 1417SOL    HW1 5150   3.796   3.894   4.314
 1417SOL    HW2 5151   3.736   3.777   4.217
 1418SOL     OW 5152   3.106   3.699   5.062
 1418SOL    HW1 5153   3.041   3.711   4.987
 1418SOL    HW2 5154   3.199   3.702   5.026
 1419SOL     OW 5155   0.601   5.415   1.898
 1419SOL    HW1 5156   0.600   5.379   1.805
 1419SOL    HW2 5157   0.692   5.452   1.917
 1420SOL     OW 5158   2.731   6.724   3.431
 1420SOL    HW1 5159   2.760   6.804   3.483
 1420SOL    HW2 5160   2.662   6.674   3.484
 1421SOL     OW 5161   1.832   5.378   0.307
 1421SOL    HW1 5162   1.920   5.415   0.277
 1421SOL    HW2 5163   1.832   5.370   0.407
 1422SOL     OW 5164   1.593   4.097   6.891
 1422SOL    HW1 5165   1.648   4.111   6.973
 1422SOL    HW2 5166   1.639   4.138   6.812
 1423SOL     OW 5167   4.829   1.182   4.577
 1423SOL    HW1 5168   4.786   1.207   4.663
 1423SOL    HW2 5169   4.760   1.143   4.516
 1424SOL     OW 5170   6.531   3.657   1.438
 1424SOL    HW1 5171   6.597   3.583   1.428
 1424SOL    HW2 5172   6.506   3.667   1.534
 1425SOL     OW 5173   6.003   6.257   3.425
 1425SOL    HW1 5174   5.976   6.333   3.365
 1425SOL    HW2 5175   5.922   6.222   3.472
 1426SOL     OW 5176   4.019   1.220   1.235
 1426SOL    HW1 5177   3.999   1.242   1.140
 1426SOL    HW2 5178   3.939   1.178   1.277
 1427SOL     OW 5179   1.279   1.205   4.084
 1427SOL    HW1 5180   1.266   1.288   4.030
 1427SOL    HW2 5181   1.247   1.125   4.033
 1428SOL     OW 5182   2.119   3.893   3.974
 1428SOL    HW1 5183   2.141   3.902   3.877
 1428SOL    HW2 5184   2.146   3.977   4.022
 1429SOL     OW 5185   6.056   0.527   1.470
 1429SOL    HW1 5186   5.996   0.482   1.404
 1429SOL    HW2 5187   6.151   0.503   1.451
 1430SOL     OW 5188   2.109   3.848   4.462
 1430SOL    HW1 5189   2.158   3.935   4.460
 1430SOL    HW2 5190   2.051   3.840   4.380
 1431SOL     OW 5191   3.494   1.995   0.669
 1431SOL    HW1 5192   3.582   2.021   0.708
 1431SOL    HW2 5193   3.423   2.004   0.739
 1432SOL     OW 5194   3.059   0.327   2.631
 1432SOL    HW1 5195   3.050   0.423   2.656
 1432SOL    HW2 5196   3.154   0.307   2.609
 1433SOL     OW 5197   3.561   1.518   4.035
 1433SOL    HW1 5198   3.466   1.538   4.011
 1433SOL    HW2 5199   3.621   1.589   3.997
 1434SOL     OW 5200   5.798   3.637   1.054
 1434SOL    HW1 5201   5.861   3.671   1.122
 1434SOL    HW2 5202   5.718   3.697   1.048
 1435SOL     OW 5203   6.933   6.407   4.443
 1435SOL    HW1 5204   6.901   6.461   4.521
 1435SOL    HW2 5205   6.874   6.326   4.432
 1436SOL     OW 5206   5.818   0.691   6.963
 1436SOL    HW1 5207   5.909   0.705   7.001
 1436SOL    HW2 5208   5.752   0.679   0.018
 1437SOL     OW 5209   4.223   0.864   0.365
 1437SOL    HW1 5210   4.180   0.812   0.439
 1437SOL    HW2 5211   4.156   0.928   0.326
 1438SOL     OW 5212   2.874   6.979   3.319
 1438SOL    HW1 5213   2.906   0.048   3.285
 1438SOL    HW2 5214   2.939   6.908   3.294
 1439SOL     OW 5215   6.821   5.218   5.045
 1439SOL    HW1 5216   6.731   5.235   5.006
 1439SOL    HW2 5217   6.813   5.205   5.144
 1440SOL     OW 5218   3.474   3.233   2.698
 1440SOL    HW1 5219   3.390   3.283   2.721
 1440SOL    HW2 5220   3.452   3.156   2.639
 1441SOL     OW 5221   0.655   2.401   6.415
 1441SOL    HW1 5222   0.648   2.417   6.513
 1441SOL    HW2 5223   0.579   2.344   6.385
 1442SOL     OW 5224   5.536   6.095   0.054
 1442SOL    HW1 5225   5.536   6.149   6.989
 1442SOL    HW2 5226   5.449   6.046   0.063
 1443SOL     OW 5227   1.678   3.215   4.109
 1443SOL    HW1 5228   1.624   3.282   4.058
 1443SOL    HW2 5229   1.632   3.126   4.106
 1444SOL     OW 5230   4.790   6.639   4.756
 1444SOL    HW1 5231   4.776   6.732   4.789
 1444SOL    HW2 5232   4.888   6.618   4.756
 1445SOL     OW 5233   6.753   2.300   0.200
 1445SOL    HW1 5234   6.669   2.353   0.187
 1445SOL    HW2 5235   6.779   2.257   0.114
 1446SOL     OW 5236   2.947   5.890   2.331
 1446SOL    HW1 5237   3.012   5.937   2.391
 1446SOL    HW2 5238   2.857   5.932   2.339
 1447SOL     OW 5239   6.523   1.069   4.826
 1447SOL    HW1 5240   6.473   1.079   4.740
 1447SOL    HW2 5241   6.579   0.986   4.822
 1448SOL     OW 5242   5.514   1.232   0.398
 1448SOL    HW1 5243   5.601   1.279   0.408
 1448SOL    HW2 5244   5.445   1.278   0.455
 1449SOL     OW 5245   4.755   5.628   0.307
 1449SOL    HW1 5246   4.705   5.585   0.382
 1449SOL    HW2 5247   4.757   5.566   0.228
 1450SOL     OW 5248   5.427   1.308   3.687
 1450SOL    HW1 5249   5.330   1.291   3.705
 1450SOL    HW2 5250   5.482   1.244   3.740
 1451SOL     OW 5251   0.218   6.642   2.444
 1451SOL    HW1 5252   0.313   6.666   2.464
 1451SOL    HW2 5253   0.200   6.549   2.475
 1452SOL     OW 5254   1.860   0.179   6.284
 1452SOL    HW1 5255   1.886   0.101   6.342
 1452SOL    HW2 5256   1.821   0.251   6.340
 1453SOL     OW 5257   6.075   4.259   4.257
 1453SOL    HW1 5258   6.111   4.167   4.240
 1453SOL    HW2 5259   6.150   4.322   4.276
 1454SOL     OW 5260   5.828   4.132   1.448
 1454SOL    HW1 5261   5.868   4.169   1.364
 1454SOL    HW2 5262   5.745   4.183   1.470
 1455SOL     OW 5263   1.956   1.681   1.859
 1455SOL    HW1 5264   1.892   1.690   1.782
 1455SOL    HW2 5265   1.943   1.757   1.922
 1456SOL     OW 5266   5.382   5.222   5.127
 1456SOL    HW1 5267   5.365   5.320   5.133
 1456SOL    HW2 5268   5.359   5.179   5.214
 1457SOL     OW 5269   1.999   1.439   4.634
 1457SOL    HW1 5270   2.011   1.429   4.535
 1457SOL    HW2 5271   1.902   1.447   4.655
 1458SOL     OW 5272   6.587   5.594   0.320
 1458SOL    HW1 5273   6.569   5.600   0.418
 1458SOL    HW2 5274   6.636   5.510   0.300
 1459SOL     OW 5275   2.902   6.893   1.759
 1459SOL    HW1 5276   2.870   6.819   1.818
 1459SOL    HW2 5277   2.873   6.981   1.796
 1460SOL     OW 5278   0.714   1.707   6.458
 1460SOL    HW1 5279   0.666   1.655   6.387
 1460SOL    HW2 5280   0.806   1.670   6.469
 1461SOL     OW 5281   4.797   4.249   2.503
 1461SOL    HW1 5282   4.789   4.208   2.594
 1461SOL    HW2 5283   4.724   4.315   2.490
 1462SOL     OW 5284   5.718   0.296   5.457
 1462SOL    HW1 5285   5.709   0.205   5.417
 1462SOL    HW2 5286   5.774   0.353   5.397
 1463SOL     OW 5287   0.962   2.407   5.824
 1463SOL    HW1 5288   1.026   2.460   5.879
 1463SOL    HW2 5289   0.924   2.333   5.879
 1464SOL     OW 5290   0.523   0.796   1.071
 1464SOL    HW1 5291   0.586   0.755   1.137
 1464SOL    HW2 5292   0.502   0.729   1.000
 1465SOL     OW 5293   2.124   1.213   3.892
 1465SOL    HW1 5294   2.077   1.125   3.897
 1465SOL    HW2 5295   2.153   1.230   3.798
 1466SOL     OW 5296   5.918   6.080   4.138
 1466SOL    HW1 5297   5.865   5.997   4.119
 1466SOL    HW2 5298   5.916   6.099   4.236
 1467SOL     OW 5299   0.163   4.225   4.888
 1467SOL    HW1 5300   0.256   4.197   4.912
 1467SOL    HW2 5301   0.103   4.213   4.966
 1468SOL     OW 5302   4.465   0.235   2.525
 1468SOL    HW1 5303   4.463   0.136   2.537
 1468SOL    HW2 5304   4.429   0.280   2.607
 1469SOL     OW 5305   6.845   0.409   2.454
 1469SOL    HW1 5306   6.798   0.322   2.445
 1469SOL    HW2 5307   6.786   0.474   2.502
 1470SOL     OW 5308   0.133   0.435   2.594
 1470SOL    HW1 5309   0.128   0.336   2.609
 1470SOL    HW2 5310   0.176   0.454   2.506
 1471SOL     OW 5311   6.082   1.292   1.325
 1471SOL    HW1 5312   6.031   1.320   1.406
 1471SOL    HW2 5313   6.021   1.246   1.261
 1472SOL     OW 5314   4.325   5.345   4.976
 1472SOL    HW1 5315   4.380   5.422   5.006
 1472SOL    HW2 5316   4.383   5.264   4.966
 1473SOL     OW 5317   0.183   3.071   4.067
 1473SOL    HW1 5318   0.262   3.097   4.013
 1473SOL    HW2 5319   0.124   3.011   4.013
 1474SOL     OW 5320   4.731   6.254   2.518
 1474SOL    HW1 5321   4.654   6.209   2.473
 1474SOL    HW2 5322   4.753   6.205   2.603
 1475SOL     OW 5323   6.176   6.410   2.864
 1475SOL    HW1 5324   6.153   6.399   2.768
 1475SOL    HW2 5325   6.250   6.348   2.888
 1476SOL     OW 5326   1.065   2.155   0.921
 1476SOL    HW1 5327   1.045   2.120   1.012
 1476SOL    HW2 5328   1.099   2.081   0.864
 1477SOL     OW 5329   2.376   6.449   4.625
 1477SOL    HW1 5330   2.305   6.395   4.579
 1477SOL    HW2 5331   2.333   6.511   4.692
 1478SOL     OW 5332   0.464   4.128   1.057
 1478SOL    HW1 5333   0.478   4.093   1.150
 1478SOL    HW2 5334   0.372   4.104   1.025
 1479SOL     OW 5335   1.565   5.048   6.864
 1479SOL    HW1 5336   1.648   4.993   6.864
 1479SOL    HW2 5337   1.486   4.991   6.844
 1480SOL     OW 5338   3.183   0.403   0.064
 1480SOL    HW1 5339   3.137   0.492   0.066
 1480SOL    HW2 5340   3.276   0.414   0.029
 1481SOL     OW 5341   0.209   3.231   0.947
 1481SOL    HW1 5342   0.248   3.208   0.858
 1481SOL    HW2 5343   0.274   3.284   1.000
 1482SOL     OW 5344   5.612   0.705   5.971
 1482SOL    HW1 5345   5.669   0.722   5.891
 1482SOL    HW2 5346   5.532   0.652   5.945
 1483SOL     OW 5347   0.186   2.825   0.999
 1483SOL    HW1 5348   0.125   2.904   1.008
 1483SOL    HW2 5349   0.273   2.855   0.959
 1484SOL     OW 5350   6.273   0.010   3.176
 1484SOL    HW1 5351   6.332   6.970   3.231
 1484SOL    HW2 5352   6.195   0.039   3.232
 1485SOL     OW 5353   5.670   3.506   4.288
 1485SOL    HW1 5354   5.706   3.413   4.279
 1485SOL    HW2 5355   5.581   3.504   4.333
 1486SOL     OW 5356   5.010   2.906   1.577
 1486SOL    HW1 5357   5.013   2.814   1.615
 1486SOL    HW2 5358   5.035   2.904   1.480
 1487SOL     OW 5359   0.685   6.755   5.529
 1487SOL    HW1 5360   0.658   6.661   5.552
 1487SOL    HW2 5361   0.648   6.818   5.599
 1488SOL     OW 5362   4.755   2.011   3.967
 1488SOL    HW1 5363   4.715   2.080   3.906
 1488SOL    HW2 5364   4.711   1.923   3.952
 1489SOL     OW 5365   3.298   4.972   4.839
 1489SOL    HW1 5366   3.236   5.043   4.807
 1489SOL    HW2 5367   3.385   5.014   4.867
 1490SOL     OW 5368   2.705   3.069   0.414
 1490SOL    HW1 5369   2.772   3.130   0.454
 1490SOL    HW2 5370   2.643   3.035   0.485
 1491SOL     OW 5371   1.184   2.139   3.955
 1491SOL    HW1 5372   1.138   2.075   4.017
 1491SOL    HW2 5373   1.283   2.127   3.963
 1492SOL     OW 5374   0.242   2.097   1.394
 1492SOL    HW1 5375   0.302   2.177   1.396
 1492SOL    HW2 5376   0.200   2.085   1.484
 1493SOL     OW 5377   6.308   2.974   5.201
 1493SOL    HW1 5378   6.259   2.918   5.134
 1493SOL    HW2 5379   6.346   2.915   5.272
 1494SOL     OW 5380   5.269   1.852   3.805
 1494SOL    HW1 5381   5.300   1.833   3.898
 1494SOL    HW2 5382   5.263   1.766   3.754
 1495SOL     OW 5383   1.649   3.920   1.357
 1495SOL    HW1 5384   1.676   3.841   1.302
 1495SOL    HW2 5385   1.711   3.996   1.337
 1496SOL     OW 5386   0.417   0.456   2.437
 1496SOL    HW1 5387   0.388   0.373   2.485
 1496SOL    HW2 5388   0.508   0.443   2.400
 1497SOL     OW 5389   5.680   4.872   6.028
 1497SOL    HW1 5390   5.733   4.839   5.950
 1497SOL    HW2 5391   5.610   4.936   5.995
 1498SOL     OW 5392   3.181   5.495   6.975
 1498SOL    HW1 5393   3.120   5.575   6.973
 1498SOL    HW2 5394   3.129   5.413   6.951
 1499SOL     OW 5395   1.615   4.253   4.006
 1499SOL    HW1 5396   1.568   4.336   3.978
 1499SOL    HW2 5397   1.574   4.219   4.091
 1500SOL     OW 5398   4.163   6.064   5.828
 1500SOL    HW1 5399   4.214   6.036   5.746
 1500SOL    HW2 5400   4.225   6.064   5.907
 1501SOL     OW 5401   3.483   0.691   1.056
 1501SOL    HW1 5402   3.577   0.691   1.023
 1501SOL    HW2 5403   3.452   0.785   1.068
 1502SOL     OW 5404   0.278   0.952   6.876
 1502SOL    HW1 5405   0.282   1.044   6.836
 1502SOL    HW2 5406   0.188   0.912   6.859
 1503SOL     OW 5407   3.547   3.796   5.142
 1503SOL    HW1 5408   3.496   3.721   5.184
 1503SOL    HW2 5409   3.619   3.759   5.084
 1504SOL     OW 5410   2.925   6.961   3.631
 1504SOL    HW1 5411   2.931   6.965   3.531
 1504SOL    HW2 5412   2.892   0.030   3.665
 1505SOL     OW 5413   5.488   6.585   3.052
 1505SOL    HW1 5414   5.493   6.635   3.139
 1505SOL    HW2 5415   5.423   6.630   2.991
 1506SOL     OW 5416   0.073   6.432   4.035
 1506SOL    HW1 5417   0.005   6.396   3.971
 1506SOL    HW2 5418   0.059   6.391   4.125
 1507SOL     OW 5419   2.153   1.861   6.820
 1507SOL    HW1 5420   2.198   1.825   6.738
 1507SOL    HW2 5421   2.151   1.790   6.891
 1508SOL     OW 5422   4.463   6.585   0.900
 1508SOL    HW1 5423   4.382   6.541   0.861
 1508SOL    HW2 5424   4.490   6.536   0.983
 1509SOL     OW 5425   5.340   1.636   6.810
 1509SOL    HW1 5426   5.427   1.657   6.765
 1509SOL    HW2 5427   5.357   1.600   6.902
 1510SOL     OW 5428   6.408   1.782   1.972
 1510SOL    HW1 5429   6.410   1.839   2.053
 1510SOL    HW2 5430   6.362   1.696   1.992
 1511SOL     OW 5431   0.361   2.840   0.606
 1511SOL    HW1 5432   0.396   2.803   0.692
 1511SOL    HW2 5433   0.298   2.775   0.565
 1512SOL     OW 5434   0.010   0.774   2.826
 1512SOL    HW1 5435   7.017   0.706   2.899
 1512SOL    HW2 5436   6.992   0.738   2.741
 1513SOL     OW 5437   1.971   0.722   2.591
 1513SOL    HW1 5438   2.012   0.796   2.538
 1513SOL    HW2 5439   2.033   0.643   2.592
 1514SOL     OW 5440   4.670   0.067   5.788
 1514SOL    HW1 5441   4.766   0.065   5.758
 1514SOL    HW2 5442   4.666   0.098   5.883
 1515SOL     OW 5443   5.611   5.408   5.823
 1515SOL    HW1 5444   5.537   5.472   5.806
 1515SOL    HW2 5445   5.694   5.440   5.776
 1516SOL     OW 5446   6.017   1.583   2.176
 1516SOL    HW1 5447   6.033   1.531   2.092
 1516SOL    HW2 5448   6.104   1.598   2.223
 1517SOL     OW 5449   3.600   5.157   1.852
 1517SOL    HW1 5450   3.579   5.228   1.785
 1517SOL    HW2 5451   3.696   5.130   1.844
 1518SOL     OW 5452   1.099   5.099   1.075
 1518SOL    HW1 5453   1.119   5.010   1.034
 1518SOL    HW2 5454   1.138   5.103   1.167
 1519SOL     OW 5455   0.353   4.450   1.076
 1519SOL    HW1 5456   0.332   4.546   1.059
 1519SOL    HW2 5457   0.447   4.441   1.109
 1520SOL     OW 5458   1.539   4.245   3.129
 1520SOL    HW1 5459   1.559   4.150   3.150
 1520SOL    HW2 5460   1.581   4.271   3.042
 1521SOL     OW 5461   2.387   5.889   5.270
 1521SOL    HW1 5462   2.372   5.845   5.359
 1521SOL    HW2 5463   2.312   5.865   5.209
 1522SOL     OW 5464   1.609   2.550   5.689
 1522SOL    HW1 5465   1.570   2.531   5.779
 1522SOL    HW2 5466   1.554   2.618   5.641
 1523SOL     OW 5467   5.574   0.573   1.597
 1523SOL    HW1 5468   5.615   0.526   1.520
 1523SOL    HW2 5469   5.576   0.672   1.581
 1524SOL     OW 5470   0.829   1.711   0.984
 1524SOL    HW1 5471   0.796   1.704   1.079
 1524SOL    HW2 5472   0.817   1.623   0.939
 1525SOL     OW 5473   4.958   1.024   4.936
 1525SOL    HW1 5474   4.952   1.009   5.035
 1525SOL    HW2 5475   5.053   1.013   4.906
 1526SOL     OW 5476   5.461   3.058   0.236
 1526SOL    HW1 5477   5.449   3.084   0.331
 1526SOL    HW2 5478   5.522   2.979   0.229
 1527SOL     OW 5479   2.314   0.478   5.047
 1527SOL    HW1 5480   2.393   0.529   5.012
 1527SOL    HW2 5481   2.254   0.540   5.098
 1528SOL     OW 5482   5.197   6.297   3.850
 1528SOL    HW1 5483   5.291   6.322   3.873
 1528SOL    HW2 5484   5.175   6.208   3.890
 1529SOL     OW 5485   1.627   6.709   5.190
 1529SOL    HW1 5486   1.579   6.679   5.273
 1529SOL    HW2 5487   1.698   6.774   5.214
 1530SOL     OW 5488   3.261   6.511   1.668
 1530SOL    HW1 5489   3.342   6.555   1.629
 1530SOL    HW2 5490   3.278   6.413   1.676
 1531SOL     OW 5491   5.794   1.345   6.502
 1531SOL    HW1 5492   5.726   1.277   6.474
 1531SOL    HW2 5493   5.789   1.358   6.601
 1532SOL     OW 5494   3.030   1.097   5.282
 1532SOL    HW1 5495   3.081   1.086   5.367
 1532SOL    HW2 5496   3.093   1.109   5.206
 1533SOL     OW 5497   4.801   3.513   0.498
 1533SOL    HW1 5498   4.719   3.480   0.543
 1533SOL    HW2 5499   4.778   3.544   0.406
 1534SOL     OW 5500   0.325   0.064   0.425
 1534SOL    HW1 5501   0.379   0.057   0.341
 1534SOL    HW2 5502   0.240   0.013   0.413
 1535SOL     OW 5503   4.971   4.310   4.515
 1535SOL    HW1 5504   4.891   4.250   4.510
 1535SOL    HW2 5505   5.053   4.258   4.494
 1536SOL     OW 5506   2.905   6.249   3.026
 1536SOL    HW1 5507   2.870   6.156   3.035
 1536SOL    HW2 5508   2.987   6.260   3.080
 1537SOL     OW 5509   1.754   5.882   4.276
 1537SOL    HW1 5510   1.672   5.939   4.274
 1537SOL    HW2 5511   1.773   5.848   4.183
 1538SOL     OW 5512   3.286   6.046   0.082
 1538SOL    HW1 5513   3.248   6.044   0.175
 1538SOL    HW2 5514   3.229   6.104   0.024
 1539SOL     OW 5515   2.686   6.549   2.091
 1539SOL    HW1 5516   2.639   6.468   2.057
 1539SOL    HW2 5517   2.626   6.600   2.152
 1540SOL     OW 5518   6.048   0.308   5.579
 1540SOL    HW1 5519   6.036   0.209   5.588
 1540SOL    HW2 5520   6.093   0.344   5.661
 1541SOL     OW 5521   5.320   2.254   1.569
 1541SOL    HW1 5522   5.236   2.302   1.543
 1541SOL    HW2 5523   5.396   2.319   1.571
 1542SOL     OW 5524   6.965   5.247   1.632
 1542SOL    HW1 5525   6.872   5.280   1.621
 1542SOL    HW2 5526   0.010   5.323   1.622
 1543SOL     OW 5527   3.264   3.410   2.749
 1543SOL    HW1 5528   3.218   3.408   2.661
 1543SOL    HW2 5529   3.197   3.424   2.822
 1544SOL     OW 5530   3.609   3.260   1.542
 1544SOL    HW1 5531   3.511   3.268   1.561
 1544SOL    HW2 5532   3.646   3.349   1.517
 1545SOL     OW 5533   0.549   6.514   5.566
 1545SOL    HW1 5534   0.519   6.424   5.598
 1545SOL    HW2 5535   0.471   6.563   5.526
 1546SOL     OW 5536   0.515   6.684   0.682
 1546SOL    HW1 5537   0.480   6.624   0.610
 1546SOL    HW2 5538   0.456   6.765   0.690
 1547SOL     OW 5539   2.891   6.327   0.658
 1547SOL    HW1 5540   2.887   6.240   0.609
 1547SOL    HW2 5541   2.952   6.318   0.737
 1548SOL     OW 5542   6.382   4.049   3.305
 1548SOL    HW1 5543   6.362   4.056   3.207
 1548SOL    HW2 5544   6.296   4.053   3.356
 1549SOL     OW 5545   5.840   1.699   1.174
 1549SOL    HW1 5546   5.840   1.798   1.189
 1549SOL    HW2 5547   5.913   1.657   1.228
 1550SOL     OW 5548   2.366   4.935   2.330
 1550SOL    HW1 5549   2.394   4.991   2.252
 1550SOL    HW2 5550   2.407   4.971   2.414
 1551SOL     OW 5551   1.232   2.267   1.622
 1551SOL    HW1 5552   1.251   2.340   1.687
 1551SOL    HW2 5553   1.279   2.184   1.651
 1552SOL     OW 5554   1.645   6.221   2.393
 1552SOL    HW1 5555   1.738   6.187   2.406
 1552SOL    HW2 5556   1.644   6.289   2.320
 1553SOL     OW 5557   5.811   1.794   5.594
 1553SOL    HW1 5558   5.847   1.860   5.661
 1553SOL    HW2 5559   5.750   1.730   5.639
 1554SOL     OW 5560   2.790   3.316   0.138
 1554SOL    HW1 5561   2.824   3.252   0.068
 1554SOL    HW2 5562   2.733   3.266   0.203
 1555SOL     OW 5563   4.657   1.651   0.921
 1555SOL    HW1 5564   4.718   1.571   0.921
 1555SOL    HW2 5565   4.565   1.623   0.949
 1556SOL     OW 5566   2.926   2.434   0.993
 1556SOL    HW1 5567   2.961   2.526   0.974
 1556SOL    HW2 5568   3.000   2.376   1.025
 1557SOL     OW 5569   2.408   2.243   1.554
 1557SOL    HW1 5570   2.498   2.216   1.519
 1557SOL    HW2 5571   2.338   2.223   1.486
 1558SOL     OW 5572   4.858   2.628   0.035
 1558SOL    HW1 5573   4.886   2.705   6.997
 1558SOL    HW2 5574   4.758   2.622   0.036
 1559SOL     OW 5575   2.424   6.734   3.842
 1559SOL    HW1 5576   2.475   6.798   3.899
 1559SOL    HW2 5577   2.481   6.708   3.763
 1560SOL     OW 5578   4.685   3.154   1.434
 1560SOL    HW1 5579   4.609   3.140   1.371
 1560SOL    HW2 5580   4.692   3.076   1.495
 1561SOL     OW 5581   6.035   6.411   0.819
 1561SOL    HW1 5582   6.112   6.466   0.785
 1561SOL    HW2 5583   6.012   6.341   0.752
 1562SOL     OW 5584   2.734   0.091   2.707
 1562SOL    HW1 5585   2.656   0.047   2.751
 1562SOL    HW2 5586   2.795   0.128   2.777
 1563SOL     OW 5587   2.312   4.353   3.480
 1563SOL    HW1 5588   2.340   4.324   3.572
 1563SOL    HW2 5589   2.251   4.284   3.441
 1564SOL     OW 5590   1.979   1.995   3.298
 1564SOL    HW1 5591   2.064   1.955   3.333
 1564SOL    HW2 5592   2.000   2.077   3.245
 1565SOL     OW 5593   5.317   1.688   5.449
 1565SOL    HW1 5594   5.400   1.744   5.455
 1565SOL    HW2 5595   5.342   1.591   5.451
 1566SOL     OW 5596   0.988   3.515   3.776
 1566SOL    HW1 5597   1.026   3.510   3.684
 1566SOL    HW2 5598   1.014   3.603   3.818
 1567SOL     OW 5599   5.290   0.725   4.795
 1567SOL    HW1 5600   5.319   0.820   4.809
 1567SOL    HW2 5601   5.367   0.673   4.758
 1568SOL     OW 5602   1.971   4.624   0.669
 1568SOL    HW1 5603   1.943   4.672   0.753
 1568SOL    HW2 5604   2.057   4.664   0.636
 1569SOL     OW 5605   2.134   1.085   2.187
 1569SOL    HW1 5606   2.108   1.182   2.197
 1569SOL    HW2 5607   2.232   1.079   2.171
 1570SOL     OW 5608   2.924   5.828   6.380
 1570SOL    HW1 5609   2.843   5.822   6.321
 1570SOL    HW2 5610   2.975   5.743   6.375
 1571SOL     OW 5611   0.865   1.221   4.761
 1571SOL    HW1 5612   0.867   1.237   4.662
 1571SOL    HW2 5613   0.938   1.274   4.804
 1572SOL     OW 5614   1.951   5.820   3.335
 1572SOL    HW1 5615   1.947   5.818   3.435
 1572SOL    HW2 5616   1.860   5.842   3.298
 1573SOL     OW 5617   5.431   5.755   0.427
 1573SOL    HW1 5618   5.345   5.789   0.466
 1573SOL    HW2 5619   5.500   5.827   0.432
 1574SOL     OW 5620   0.419   2.916   3.211
 1574SOL    HW1 5621   0.410   2.817   3.205
 1574SOL    HW2 5622   0.411   2.945   3.307
 1575SOL     OW 5623   6.829   2.205   6.967
 1575SOL    HW1 5624   6.808   2.109   6.984
 1575SOL    HW2 5625   6.803   2.229   6.873
 1576SOL     OW 5626   1.058   6.473   2.748
 1576SOL    HW1 5627   1.137   6.437   2.698
 1576SOL    HW2 5628   0.974   6.444   2.702
 1577SOL     OW 5629   4.456   5.835   3.576
 1577SOL    HW1 5630   4.488   5.782   3.654
 1577SOL    HW2 5631   4.405   5.915   3.608
 1578SOL     OW 5632   5.403   1.985   1.633
 1578SOL    HW1 5633   5.378   1.920   1.561
 1578SOL    HW2 5634   5.377   2.078   1.605
 1579SOL     OW 5635   1.570   3.705   2.315
 1579SOL    HW1 5636   1.594   3.690   2.219
 1579SOL    HW2 5637   1.491   3.649   2.339
 1580SOL     OW 5638   3.199   3.505   3.908
 1580SOL    HW1 5639   3.289   3.462   3.900
 1580SOL    HW2 5640   3.170   3.538   3.818
 1581SOL     OW 5641   5.211   4.013   5.381
 1581SOL    HW1 5642   5.216   3.923   5.424
 1581SOL    HW2 5643   5.282   4.021   5.311
 1582SOL     OW 5644   3.896   5.845   3.680
 1582SOL    HW1 5645   3.931   5.870   3.771
 1582SOL    HW2 5646   3.929   5.910   3.612
 1583SOL     OW 5647   0.524   5.664   4.762
 1583SOL    HW1 5648   0.599   5.675   4.828
 1583SOL    HW2 5649   0.509   5.567   4.744
 1584SOL     OW 5650   0.321   4.501   0.171
 1584SOL    HW1 5651   0.245   4.436   0.158
 1584SOL    HW2 5652   0.342   4.508   0.268
 1585SOL     OW 5653   4.449   6.383   4.105
 1585SOL    HW1 5654   4.483   6.418   4.018
 1585SOL    HW2 5655   4.352   6.404   4.115
 1586SOL     OW 5656   2.764   6.132   3.894
 1586SOL    HW1 5657   2.673   6.100   3.870
 1586SOL    HW2 5658   2.792   6.090   3.980
 1587SOL     OW 5659   4.277   0.119   6.935
 1587SOL    HW1 5660   4.312   0.028   6.959
 1587SOL    HW2 5661   4.179   0.123   6.954
 1588SOL     OW 5662   6.307   1.765   3.982
 1588SOL    HW1 5663   6.218   1.737   4.017
 1588SOL    HW2 5664   6.329   1.712   3.900
 1589SOL     OW 5665   6.941   1.347   4.042
 1589SOL    HW1 5666   0.007   1.398   4.029
 1589SOL    HW2 5667   6.890   1.385   4.119
 1590SOL     OW 5668   5.921   0.519   3.532
 1590SOL    HW1 5669   5.858   0.541   3.457
 1590SOL    HW2 5670   5.950   0.603   3.577
 1591SOL     OW 5671   0.197   5.618   0.716
 1591SOL    HW1 5672   0.112   5.586   0.675
 1591SOL    HW2 5673   0.262   5.542   0.723
 1592SOL     OW 5674   6.756   4.572   4.780
 1592SOL    HW1 5675   6.767   4.606   4.687
 1592SOL    HW2 5676   6.669   4.524   4.788
 1593SOL     OW 5677   3.895   5.496   1.435
 1593SOL    HW1 5678   3.928   5.524   1.525
 1593SOL    HW2 5679   3.868   5.400   1.437
 1594SOL     OW 5680   5.463   0.818   2.497
 1594SOL    HW1 5681   5.505   0.848   2.582
 1594SOL    HW2 5682   5.509   0.861   2.419
 1595SOL     OW 5683   6.801   3.870   0.249
 1595SOL    HW1 5684   6.770   3.824   0.332
 1595SOL    HW2 5685   6.810   3.803   0.175
 1596SOL     OW 5686   5.120   4.341   4.149
 1596SOL    HW1 5687   5.063   4.424   4.145
 1596SOL    HW2 5688   5.076   4.268   4.097
 1597SOL     OW 5689   4.064   6.662   1.224
 1597SOL    HW1 5690   3.968   6.689   1.230
 1597SOL    HW2 5691   4.078   6.604   1.143
 1598SOL     OW 5692   0.577   5.790   5.961
 1598SOL    HW1 5693   0.558   5.829   6.051
 1598SOL    HW2 5694   0.497   5.740   5.929
 1599SOL     OW 5695   5.263   5.158   4.229
 1599SOL    HW1 5696   5.291   5.143   4.135
 1599SOL    HW2 5697   5.236   5.254   4.241
 1600SOL     OW 5698   5.256   1.160   1.289
 1600SOL    HW1 5699   5.324   1.163   1.216
 1600SOL    HW2 5700   5.165   1.151   1.249
 1601SOL     OW 5701   5.931   0.592   4.969
 1601SOL    HW1 5702   5.917   0.589   5.068
 1601SOL    HW2 5703   5.945   0.499   4.935
 1602SOL     OW 5704   3.636   5.701   3.365
 1602SOL    HW1 5705   3.662   5.798   3.367
 1602SOL    HW2 5706   3.698   5.651   3.305
 1603SOL     OW 5707   3.262   5.669   1.545
 1603SOL    HW1 5708   3.242   5.615   1.627
 1603SOL    HW2 5709   3.202   5.640   1.471
 1604SOL     OW 5710   4.362   5.576   1.567
 1604SOL    HW1 5711   4.313   5.623   1.640
 1604SOL    HW2 5712   4.382   5.641   1.493
 1605SOL     OW 5713   4.478   4.988   0.372
 1605SOL    HW1 5714   4.393   5.040   0.358
 1605SOL    HW2 5715   4.511   5.003   0.465
 1606SOL     OW 5716   4.610   5.739   4.761
 1606SOL    HW1 5717   4.566   5.650   4.749
 1606SOL    HW2 5718   4.544   5.811   4.740
 1607SOL     OW 5719   4.709   4.344   4.120
 1607SOL    HW1 5720   4.713   4.295   4.208
 1607SOL    HW2 5721   4.741   4.283   4.047
 1608SOL     OW 5722   6.754   3.594   2.590
 1608SOL    HW1 5723   6.753   3.562   2.685
 1608SOL    HW2 5724   6.691   3.671   2.580
 1609SOL     OW 5725   1.467   0.059   0.724
 1609SOL    HW1 5726   1.380   0.057   0.773
 1609SOL    HW2 5727   1.542   0.077   0.788
 1610SOL     OW 5728   5.807   5.545   1.200
 1610SOL    HW1 5729   5.736   5.615   1.189
 1610SOL    HW2 5730   5.811   5.489   1.118
 1611SOL     OW 5731   6.997   4.567   6.879
 1611SOL    HW1 5732   0.074   4.542   6.883
 1611SOL    HW2 5733   6.943   4.500   6.930
 1612SOL     OW 5734   5.329   1.008   1.958
 1612SOL    HW1 5735   5.414   0.969   1.992
 1612SOL    HW2 5736   5.286   1.062   2.030
 1613SOL     OW 5737   0.564   6.176   2.883
 1613SOL    HW1 5738   0.592   6.229   2.964
 1613SOL    HW2 5739   0.473   6.137   2.899
 1614SOL     OW 5740   5.719   1.109   5.866
 1614SOL    HW1 5741   5.628   1.134   5.833
 1614SOL    HW2 5742   5.719   1.108   5.966
 1615SOL     OW 5743   6.493   3.410   5.993
 1615SOL    HW1 5744   6.544   3.483   6.039
 1615SOL    HW2 5745   6.406   3.445   5.959
 1616SOL     OW 5746   1.144   1.442   3.552
 1616SOL    HW1 5747   1.050   1.474   3.556
 1616SOL    HW2 5748   1.153   1.358   3.605
 1617SOL     OW 5749   0.097   6.026   4.385
 1617SOL    HW1 5750   0.076   5.982   4.472
 1617SOL    HW2 5751   0.151   5.964   4.328
 1618SOL     OW 5752   2.825   5.439   3.057
 1618SOL    HW1 5753   2.871   5.509   3.002
 1618SOL    HW2 5754   2.821   5.469   3.153
 1619SOL     OW 5755   0.846   3.568   5.900
 1619SOL    HW1 5756   0.835   3.580   5.999
 1619SOL    HW2 5757   0.940   3.587   5.874
 1620SOL     OW 5758   2.237   0.274   4.883
 1620SOL    HW1 5759   2.190   0.323   4.809
 1620SOL    HW2 5760   2.285   0.339   4.941
 1621SOL     OW 5761   5.668   4.671   0.957
 1621SOL    HW1 5762   5.676   4.768   0.979
 1621SOL    HW2 5763   5.757   4.636   0.926
 1622SOL     OW 5764   6.474   2.834   3.269
 1622SOL    HW1 5765   6.529   2.877   3.198
 1622SOL    HW2 5766   6.435   2.749   3.234
 1623SOL     OW 5767   0.616   2.039   4.019
 1623SOL    HW1 5768   0.674   2.087   3.953
 1623SOL    HW2 5769   0.662   1.956   4.049
 1624SOL     OW 5770   4.398   2.970   0.559
 1624SOL    HW1 5771   4.367   3.002   0.649
 1624SOL    HW2 5772   4.454   2.888   0.570
 1625SOL     OW 5773   0.878   6.219   0.291
 1625SOL    HW1 5774   0.974   6.231   0.319
 1625SOL    HW2 5775   0.864   6.261   0.202
 1626SOL     OW 5776   2.852   1.620   2.183
 1626SOL    HW1 5777   2.911   1.683   2.234
 1626SOL    HW2 5778   2.850   1.531   2.228
 1627SOL     OW 5779   4.543   1.373   6.139
 1627SOL    HW1 5780   4.568   1.380   6.043
 1627SOL    HW2 5781   4.593   1.297   6.181
 1628SOL     OW 5782   5.621   5.722   1.290
 1628SOL    HW1 5783   5.604   5.657   1.364
 1628SOL    HW2 5784   5.612   5.815   1.324
 1629SOL     OW 5785   1.546   6.486   3.024
 1629SOL    HW1 5786   1.506   6.526   3.107
 1629SOL    HW2 5787   1.480   6.493   2.949
 1630SOL     OW 5788   0.461   4.996   6.103
 1630SOL    HW1 5789   0.377   5.014   6.052
 1630SOL    HW2 5790   0.539   4.994   6.040
 1631SOL     OW 5791   5.255   4.435   0.082
 1631SOL    HW1 5792   5.170   4.469   0.041
 1631SOL    HW2 5793   5.326   4.506   0.075
 1632SOL     OW 5794   6.031   5.935   2.501
 1632SOL    HW1 5795   5.954   5.881   2.538
 1632SOL    HW2 5796   6.080   5.880   2.434
 1633SOL     OW 5797   0.151   3.712   4.772
 1633SOL    HW1 5798   0.110   3.800   4.796
 1633SOL    HW2 5799   0.100   3.672   4.695
 1634SOL     OW 5800   1.260   3.877   6.212
 1634SOL    HW1 5801   1.162   3.895   6.217
 1634SOL    HW2 5802   1.282   3.798   6.269
 1635SOL     OW 5803   2.698   1.224   4.580
 1635SOL    HW1 5804   2.714   1.321   4.596
 1635SOL    HW2 5805   2.760   1.192   4.508
 1636SOL     OW 5806   0.082   6.249   1.691
 1636SOL    HW1 5807   0.016   6.323   1.703
 1636SOL    HW2 5808   0.056   6.170   1.747
 1637SOL     OW 5809   0.957   1.104   1.727
 1637SOL    HW1 5810   0.873   1.143   1.765
 1637SOL    HW2 5811   1.037   1.145   1.771
 1638SOL     OW 5812   5.382   2.060   3.678
 1638SOL    HW1 5813   5.297   2.112   3.671
 1638SOL    HW2 5814   5.361   1.968   3.712
 1639SOL     OW 5815   5.358   2.268   1.294
 1639SOL    HW1 5816   5.276   2.319   1.270
 1639SOL    HW2 5817   5.333   2.187   1.348
 1640SOL     OW 5818   6.670   1.215   6.507
 1640SOL    HW1 5819   6.670   1.315   6.507
 1640SOL    HW2 5820   6.627   1.181   6.423
 1641SOL     OW 5821   5.545   1.761   2.290
 1641SOL    HW1 5822   5.636   1.745   2.251
 1641SOL    HW2 5823   5.520   1.685   2.348
 1642SOL     OW 5824   6.909   3.047   6.333
 1642SOL    HW1 5825   6.865   3.034   6.422
 1642SOL    HW2 5826   6.986   2.984   6.324
 1643SOL     OW 5827   2.388   5.505   4.497
 1643SOL    HW1 5828   2.332   5.556   4.432
 1643SOL    HW2 5829   2.479   5.547   4.502
 1644SOL     OW 5830   5.701   1.721   0.932
 1644SOL    HW1 5831   5.741   1.691   1.018
 1644SOL    HW2 5832   5.767   1.774   0.880
 1645SOL     OW 5833   2.446   1.076   3.949
 1645SOL    HW1 5834   2.462   1.015   4.027
 1645SOL    HW2 5835   2.382   1.148   3.975
 1646SOL     OW 5836   6.924   5.795   1.911
 1646SOL    HW1 5837   6.897   5.770   2.004
 1646SOL    HW2 5838   6.994   5.731   1.879
 1647SOL     OW 5839   6.511   3.604   5.187
 1647SOL    HW1 5840   6.465   3.669   5.247
 1647SOL    HW2 5841   6.443   3.547   5.140
 1648SOL     OW 5842   5.536   5.981   2.352
 1648SOL    HW1 5843   5.620   5.931   2.333
 1648SOL    HW2 5844   5.495   5.946   2.437
 1649SOL     OW 5845   3.939   0.761   3.009
 1649SOL    HW1 5846   3.965   0.857   3.012
 1649SOL    HW2 5847   3.866   0.744   3.075
 1650SOL     OW 5848   2.651   2.298   4.950
 1650SOL    HW1 5849   2.714   2.256   4.885
 1650SOL    HW2 5850   2.557   2.279   4.923
 1651SOL     OW 5851   1.765   2.158   4.153
 1651SOL    HW1 5852   1.765   2.059   4.135
 1651SOL    HW2 5853   1.731   2.174   4.246
 1652SOL     OW 5854   0.056   4.144   1.441
 1652SOL    HW1 5855   0.053   4.206   1.362
 1652SOL    HW2 5856   0.151   4.130   1.469
 1653SOL     OW 5857   6.287   4.131   2.011
 1653SOL    HW1 5858   6.202   4.086   2.037
 1653SOL    HW2 5859   6.342   4.148   2.093
 1654SOL     OW 5860   6.943   3.451   1.717
 1654SOL    HW1 5861   6.965   3.356   1.738
 1654SOL    HW2 5862   6.925   3.460   1.619
 1655SOL     OW 5863   0.128   0.381   5.832
 1655SOL    HW1 5864   0.087   0.294   5.857
 1655SOL    HW2 5865   0.224   0.367   5.808
 1656SOL     OW 5866   1.919   4.045   3.056
 1656SOL    HW1 5867   1.834   4.003   3.026
 1656SOL    HW2 5868   1.993   4.019   2.993
 1657SOL     OW 5869   0.575   1.543   6.292
 1657SOL    HW1 5870   0.538   1.454   6.263
 1657SOL    HW2 5871   0.535   1.615   6.236
 1658SOL     OW 5872   4.992   0.297   5.512
 1658SOL    HW1 5873   4.988   0.381   5.457
 1658SOL    HW2 5874   4.903   0.279   5.553
 1659SOL     OW 5875   2.879   0.659   6.498
 1659SOL    HW1 5876   2.967   0.616   6.481
 1659SOL    HW2 5877   2.882   0.754   6.464
 1660SOL     OW 5878   2.954   1.333   1.783
 1660SOL    HW1 5879   2.879   1.281   1.741
 1660SOL    HW2 5880   2.959   1.311   1.881
 1661SOL     OW 5881   4.740   5.040   3.484
 1661SOL    HW1 5882   4.695   5.096   3.414
 1661SOL    HW2 5883   4.747   4.946   3.452
 1662SOL     OW 5884   0.483   1.862   3.482
 1662SOL    HW1 5885   0.480   1.783   3.421
 1662SOL    HW2 5886   0.420   1.849   3.558
 1663SOL     OW 5887   5.991   3.992   0.899
 1663SOL    HW1 5888   6.028   4.047   0.824
 1663SOL    HW2 5889   6.049   3.911   0.912
 1664SOL     OW 5890   1.464   1.519   6.210
 1664SOL    HW1 5891   1.526   1.507   6.287
 1664SOL    HW2 5892   1.410   1.602   6.223
 1665SOL     OW 5893   1.595   3.919   0.214
 1665SOL    HW1 5894   1.692   3.931   0.193
 1665SOL    HW2 5895   1.566   3.991   0.276
 1666SOL     OW 5896   5.323   6.358   5.351
 1666SOL    HW1 5897   5.348   6.267   5.382
 1666SOL    HW2 5898   5.284   6.409   5.428
 1667SOL     OW 5899   6.581   4.827   1.139
 1667SOL    HW1 5900   6.602   4.797   1.232
 1667SOL    HW2 5901   6.604   4.924   1.130
 1668SOL     OW 5902   6.596   3.336   2.004
 1668SOL    HW1 5903   6.594   3.432   2.033
 1668SOL    HW2 5904   6.640   3.329   1.915
 1669SOL     OW 5905   6.115   2.779   5.411
 1669SOL    HW1 5906   6.119   2.841   5.332
 1669SOL    HW2 5907   6.208   2.749   5.434
 1670SOL     OW 5908   3.058   4.354   5.312
 1670SOL    HW1 5909   2.990   4.415   5.272
 1670SOL    HW2 5910   3.110   4.310   5.239
 1671SOL     OW 5911   5.925   2.368   0.638
 1671SOL    HW1 5912   5.910   2.385   0.540
 1671SOL    HW2 5913   5.898   2.448   0.690
 1672SOL     OW 5914   0.649   2.116   1.183
 1672SOL    HW1 5915   0.549   2.124   1.179
 1672SOL    HW2 5916   0.687   2.127   1.092
 1673SOL     OW 5917   0.855   0.763   6.332
 1673SOL    HW1 5918   0.774   0.785   6.386
 1673SOL    HW2 5919   0.838   0.785   6.236
 1674SOL     OW 5920   4.754   2.915   3.399
 1674SOL    HW1 5921   4.769   3.006   3.439
 1674SOL    HW2 5922   4.809   2.905   3.316
 1675SOL     OW 5923   5.314   0.898   1.667
 1675SOL    HW1 5924   5.240   0.831   1.662
 1675SOL    HW2 5925   5.344   0.909   1.762
 1676SOL     OW 5926   1.643   2.549   3.958
 1676SOL    HW1 5927   1.634   2.620   3.887
 1676SOL    HW2 5928   1.590   2.576   4.039
 1677SOL     OW 5929   3.110   3.902   1.709
 1677SOL    HW1 5930   3.011   3.895   1.707
 1677SOL    HW2 5931   3.142   3.891   1.803
 1678SOL     OW 5932   0.083   6.950   0.403
 1678SOL    HW1 5933   0.019   7.016   0.364
 1678SOL    HW2 5934   0.034   6.865   0.426
 1679SOL     OW 5935   6.053   1.963   0.245
 1679SOL    HW1 5936   5.982   1.916   0.191
 1679SOL    HW2 5937   6.041   2.062   0.236
 1680SOL     OW 5938   5.656   2.048   3.237
 1680SOL    HW1 5939   5.678   1.965   3.186
 1680SOL    HW2 5940   5.740   2.084   3.279
 1681SOL     OW 5941   4.084   6.226   3.716
 1681SOL    HW1 5942   4.163   6.288   3.719
 1681SOL    HW2 5943   4.032   6.234   3.801
 1682SOL     OW 5944   3.890   1.717   5.432
 1682SOL    HW1 5945   3.975   1.760   5.461
 1682SOL    HW2 5946   3.865   1.750   5.341
 1683SOL     OW 5947   0.683   3.814   3.277
 1683SOL    HW1 5948   0.651   3.883   3.342
 1683SOL    HW2 5949   0.605   3.769   3.234
 1684SOL     OW 5950   3.025   5.613   1.128
 1684SOL    HW1 5951   3.022   5.595   1.226
 1684SOL    HW2 5952   3.067   5.702   1.112
 1685SOL     OW 5953   0.256   2.037   5.620
 1685SOL    HW1 5954   0.219   2.118   5.573
 1685SOL    HW2 5955   0.209   1.955   5.586
 1686SOL     OW 5956   3.274   5.472   1.256
 1686SOL    HW1 5957   3.192   5.485   1.200
 1686SOL    HW2 5958   3.353   5.507   1.206
 1687SOL     OW 5959   4.591   4.233   0.221
 1687SOL    HW1 5960   4.504   4.255   0.266
 1687SOL    HW2 5961   4.656   4.307   0.237
 1688SOL     OW 5962   2.982   0.616   2.973
 1688SOL    HW1 5963   3.071   0.574   2.992
 1688SOL    HW2 5964   2.966   0.691   3.037
 1689SOL     OW 5965   4.422   0.777   1.746
 1689SOL    HW1 5966   4.439   0.697   1.688
 1689SOL    HW2 5967   4.345   0.758   1.808
 1690SOL     OW 5968   6.997   4.524   4.533
 1690SOL    HW1 5969   0.049   4.522   4.602
 1690SOL    HW2 5970   6.946   4.611   4.540
 1691SOL     OW 5971   4.348   2.827   5.293
 1691SOL    HW1 5972   4.361   2.777   5.379
 1691SOL    HW2 5973   4.423   2.804   5.231
 1692SOL     OW 5974   5.777   5.291   2.371
 1692SOL    HW1 5975   5.799   5.388   2.375
 1692SOL    HW2 5976   5.724   5.272   2.289
 1693SOL     OW 5977   5.753   0.219   5.732
 1693SOL    HW1 5978   5.703   0.224   5.646
 1693SOL    HW2 5979   5.807   0.302   5.745
 1694SOL     OW 5980   4.786   1.512   6.853
 1694SOL    HW1 5981   4.836   1.571   6.790
 1694SOL    HW2 5982   4.851   1.462   6.909
 1695SOL     OW 5983   4.687   0.219   5.315
 1695SOL    HW1 5984   4.700   0.251   5.409
 1695SOL    HW2 5985   4.590   0.227   5.290
 1696SOL     OW 5986   5.121   6.841   0.929
 1696SOL    HW1 5987   5.210   6.861   0.971
 1696SOL    HW2 5988   5.120   6.746   0.897
 1697SOL     OW 5989   4.083   3.696   1.905
 1697SOL    HW1 5990   4.091   3.728   1.999
 1697SOL    HW2 5991   3.988   3.709   1.874
 1698SOL     OW 5992   4.814   1.366   1.248
 1698SOL    HW1 5993   4.770   1.307   1.181
 1698SOL    HW2 5994   4.760   1.367   1.332
 1699SOL     OW 5995   1.648   0.464   0.982
 1699SOL    HW1 5996   1.650   0.555   0.941
 1699SOL    HW2 5997   1.697   0.466   1.069
 1700SOL     OW 5998   6.107   2.903   3.080
 1700SOL    HW1 5999   6.054   2.847   3.017
 1700SOL    HW2 6000   6.161   2.844   3.140
 1701SOL     OW 6001   1.126   5.394   5.170
 1701SOL    HW1 6002   1.151   5.441   5.085
 1701SOL    HW2 6003   1.077   5.456   5.230
 1702SOL     OW 6004   2.268   2.239   7.005
 1702SOL    HW1 6005   2.197   2.297   0.026
 1702SOL    HW2 6006   2.306   2.180   0.056
 1703SOL     OW 6007   1.498   1.950   1.614
 1703SOL    HW1 6008   1.446   1.870   1.641
 1703SOL    HW2 6009   1.578   1.922   1.561
 1704SOL     OW 6010   3.292   2.985   6.597
 1704SOL    HW1 6011   3.229   3.030   6.534
 1704SOL    HW2 6012   3.282   3.024   6.689
 1705SOL     OW 6013   5.587   3.053   1.123
 1705SOL    HW1 6014   5.675   3.006   1.116
 1705SOL    HW2 6015   5.562   3.090   1.033
 1706SOL     OW 6016   5.577   0.741   5.567
 1706SOL    HW1 6017   5.630   0.796   5.631
 1706SOL    HW2 6018   5.574   0.646   5.599
 1707SOL     OW 6019   3.233   1.438   2.264
 1707SOL    HW1 6020   3.288   1.496   2.323
 1707SOL    HW2 6021   3.247   1.464   2.169
 1708SOL     OW 6022   2.704   4.829   1.939
 1708SOL    HW1 6023   2.747   4.740   1.948
 1708SOL    HW2 6024   2.743   4.878   1.860
 1709SOL     OW 6025   5.829   4.829   1.910
 1709SOL    HW1 6026   5.923   4.849   1.882
 1709SOL    HW2 6027   5.798   4.900   1.973
 1710SOL     OW 6028   4.599   2.721   1.887
 1710SOL    HW1 6029   4.681   2.777   1.890
 1710SOL    HW2 6030   4.607   2.646   1.953
 1711SOL     OW 6031   4.354   5.365   0.041
 1711SOL    HW1 6032   4.429   5.394   7.001
 1711SOL    HW2 6033   4.339   5.267   0.032
 1712SOL     OW 6034   0.239   2.241   2.002
 1712SOL    HW1 6035   0.174   2.317   2.010
 1712SOL    HW2 6036   0.269   2.213   2.094
 1713SOL     OW 6037   2.936   1.400   2.316
 1713SOL    HW1 6038   3.028   1.401   2.276
 1713SOL    HW2 6039   2.937   1.451   2.403
 1714SOL     OW 6040   3.159   4.829   1.311
 1714SOL    HW1 6041   3.129   4.924   1.319
 1714SOL    HW2 6042   3.212   4.804   1.391
 1715SOL     OW 6043   1.408   6.214   0.582
 1715SOL    HW1 6044   1.462   6.234   0.501
 1715SOL    HW2 6045   1.360   6.127   0.570
 1716SOL     OW 6046   5.139   1.602   3.044
 1716SOL    HW1 6047   5.159   1.652   2.960
 1716SOL    HW2 6048   5.174   1.652   3.123
 1717SOL     OW 6049   3.548   6.551   3.981
 1717SOL    HW1 6050   3.554   6.648   3.959
 1717SOL    HW2 6051   3.585   6.535   4.072
 1718SOL     OW 6052   1.593   4.065   1.570
 1718SOL    HW1 6053   1.560   4.023   1.654
 1718SOL    HW2 6054   1.605   3.995   1.500
 1719SOL     OW 6055   1.607   4.738   3.921
 1719SOL    HW1 6056   1.653   4.827   3.927
 1719SOL    HW2 6057   1.534   4.733   3.989
 1720SOL     OW 6058   1.390   3.026   5.580
 1720SOL    HW1 6059   1.470   3.067   5.536
 1720SOL    HW2 6060   1.325   2.996   5.510
 1721SOL     OW 6061   2.294   2.399   0.317
 1721SOL    HW1 6062   2.313   2.438   0.226
 1721SOL    HW2 6063   2.320   2.465   0.387
 1722SOL     OW 6064   3.690   2.077   2.864
 1722SOL    HW1 6065   3.740   2.014   2.925
 1722SOL    HW2 6066   3.751   2.108   2.791
 1723SOL     OW 6067   6.591   5.039   1.550
 1723SOL    HW1 6068   6.671   5.098   1.559
 1723SOL    HW2 6069   6.509   5.091   1.572
 1724SOL     OW 6070   6.038   3.902   1.500
 1724SOL    HW1 6071   5.971   3.889   1.427
 1724SOL    HW2 6072   6.107   3.969   1.471
 1725SOL     OW 6073   1.509   6.504   4.689
 1725SOL    HW1 6074   1.520   6.524   4.786
 1725SOL    HW2 6075   1.578   6.439   4.660
 1726SOL     OW 6076   5.490   4.783   3.054
 1726SOL    HW1 6077   5.545   4.700   3.065
 1726SOL    HW2 6078   5.460   4.792   2.959
 1727SOL     OW 6079   2.908   3.553   3.699
 1727SOL    HW1 6080   2.870   3.630   3.751
 1727SOL    HW2 6081   2.891   3.468   3.748
 1728SOL     OW 6082   5.574   2.155   4.609
 1728SOL    HW1 6083   5.574   2.214   4.689
 1728SOL    HW2 6084   5.668   2.127   4.588
 1729SOL     OW 6085   1.373   3.846   3.376
 1729SOL    HW1 6086   1.365   3.771   3.309
 1729SOL    HW2 6087   1.302   3.836   3.446
 1730SOL     OW 6088   2.647   1.109   4.831
 1730SOL    HW1 6089   2.672   1.133   4.737
 1730SOL    HW2 6090   2.547   1.109   4.840
 1731SOL     OW 6091   6.048   4.388   3.683
 1731SOL    HW1 6092   6.027   4.485   3.669
 1731SOL    HW2 6093   6.028   4.363   3.778
 1732SOL     OW 6094   4.126   3.286   5.095
 1732SOL    HW1 6095   4.173   3.252   5.014
 1732SOL    HW2 6096   4.109   3.384   5.086
 1733SOL     OW 6097   1.337   1.785   0.144
 1733SOL    HW1 6098   1.433   1.801   0.163
 1733SOL    HW2 6099   1.328   1.710   0.077
 1734SOL     OW 6100   0.976   4.296   2.288
 1734SOL    HW1 6101   0.939   4.382   2.322
 1734SOL    HW2 6102   0.932   4.220   2.335
 1735SOL     OW 6103   3.290   5.336   6.147
 1735SOL    HW1 6104   3.240   5.414   6.110
 1735SOL    HW2 6105   3.366   5.313   6.086
 1736SOL     OW 6106   4.398   1.847   5.445
 1736SOL    HW1 6107   4.383   1.867   5.348
 1736SOL    HW2 6108   4.339   1.907   5.500
 1737SOL     OW 6109   2.443   0.689   6.917
 1737SOL    HW1 6110   2.377   0.756   6.883
 1737SOL    HW2 6111   2.532   0.706   6.874
 1738SOL     OW 6112   1.325   3.957   1.978
 1738SOL    HW1 6113   1.413   3.998   1.953
 1738SOL    HW2 6114   1.317   3.956   2.078
 1739SOL     OW 6115   4.514   5.441   2.286
 1739SOL    HW1 6116   4.598   5.398   2.255
 1739SOL    HW2 6117   4.498   5.525   2.236
 1740SOL     OW 6118   6.485   2.405   4.180
 1740SOL    HW1 6119   6.566   2.458   4.203
 1740SOL    HW2 6120   6.512   2.315   4.148
 1741SOL     OW 6121   1.344   2.861   4.169
 1741SOL    HW1 6122   1.316   2.768   4.194
 1741SOL    HW2 6123   1.314   2.925   4.240
 1742SOL     OW 6124   5.805   6.993   6.951
 1742SOL    HW1 6125   5.902   6.978   6.972
 1742SOL    HW2 6126   5.787   0.072   6.944
 1743SOL     OW 6127   0.891   1.996   1.713
 1743SOL    HW1 6128   0.877   1.977   1.616
 1743SOL    HW2 6129   0.837   2.076   1.739
 1744SOL     OW 6130   3.057   1.939   5.398
 1744SOL    HW1 6131   3.111   2.001   5.341
 1744SOL    HW2 6132   2.997   1.993   5.458
 1745SOL     OW 6133   6.375   6.581   0.996
 1745SOL    HW1 6134   6.302   6.633   1.040
 1745SOL    HW2 6135   6.463   6.626   1.013
 1746SOL     OW 6136   2.310   5.161   2.803
 1746SOL    HW1 6137   2.334   5.258   2.798
 1746SOL    HW2 6138   2.222   5.146   2.759
 1747SOL     OW 6139   2.798   6.669   1.857
 1747SOL    HW1 6140   2.897   6.655   1.854
 1747SOL    HW2 6141   2.757   6.604   1.921
 1748SOL     OW 6142   0.093   1.400   3.691
 1748SOL    HW1 6143   0.085   1.329   3.622
 1748SOL    HW2 6144   0.005   1.448   3.700
 1749SOL     OW 6145   6.474   5.651   2.405
 1749SOL    HW1 6146   6.467   5.732   2.346
 1749SOL    HW2 6147   6.470   5.569   2.348
 1750SOL     OW 6148   2.621   1.389   1.137
 1750SOL    HW1 6149   2.606   1.367   1.041
 1750SOL    HW2 6150   2.675   1.316   1.179
 1751SOL     OW 6151   6.521   4.427   4.795
 1751SOL    HW1 6152   6.469   4.353   4.836
 1751SOL    HW2 6153   6.484   4.448   4.704
 1752SOL     OW 6154   5.774   0.459   2.750
 1752SOL    HW1 6155   5.678   0.443   2.770
 1752SOL    HW2 6156   5.800   0.550   2.782
 1753SOL     OW 6157   6.690   1.538   1.016
 1753SOL    HW1 6158   6.611   1.597   1.004
 1753SOL    HW2 6159   6.673   1.449   0.972
 1754SOL     OW 6160   2.106   4.508   3.623
 1754SOL    HW1 6161   2.072   4.563   3.547
 1754SOL    HW2 6162   2.196   4.471   3.600
 1755SOL     OW 6163   6.047   6.765   5.403
 1755SOL    HW1 6164   5.958   6.763   5.357
 1755SOL    HW2 6165   6.034   6.798   5.497
 1756SOL     OW 6166   4.642   5.542   1.508
 1756SOL    HW1 6167   4.691   5.596   1.576
 1756SOL    HW2 6168   4.544   5.559   1.517
 1757SOL     OW 6169   2.840   5.096   4.864
 1757SOL    HW1 6170   2.764   5.033   4.847
 1757SOL    HW2 6171   2.924   5.056   4.828
 1758SOL     OW 6172   0.522   6.346   4.039
 1758SOL    HW1 6173   0.461   6.388   4.107
 1758SOL    HW2 6174   0.603   6.403   4.027
 1759SOL     OW 6175   1.975   5.176   6.180
 1759SOL    HW1 6176   1.978   5.251   6.115
 1759SOL    HW2 6177   1.889   5.126   6.169
 1760SOL     OW 6178   5.963   1.080   4.222
 1760SOL    HW1 6179   5.902   1.155   4.198
 1760SOL    HW2 6180   5.982   1.082   4.320
 1761SOL     OW 6181   5.330   2.159   3.950
 1761SOL    HW1 6182   5.369   2.244   3.984
 1761SOL    HW2 6183   5.375   2.134   3.864
 1762SOL     OW 6184   1.136   1.576   5.600
 1762SOL    HW1 6185   1.112   1.488   5.641
 1762SOL    HW2 6186   1.067   1.644   5.627
 1763SOL     OW 6187   1.601   5.146   4.165
 1763SOL    HW1 6188   1.524   5.168   4.106
 1763SOL    HW2 6189   1.665   5.087   4.117
 1764SOL     OW 6190   0.382   5.516   3.515
 1764SOL    HW1 6191   0.341   5.438   3.562
 1764SOL    HW2 6192   0.315   5.556   3.453
 1765SOL     OW 6193   5.331   3.823   2.091
 1765SOL    HW1 6194   5.269   3.892   2.054
 1765SOL    HW2 6195   5.282   3.766   2.157
 1766SOL     OW 6196   4.184   5.162   3.506
 1766SOL    HW1 6197   4.109   5.132   3.566
 1766SOL    HW2 6198   4.150   5.170   3.412
 1767SOL     OW 6199   1.776   4.274   1.495
 1767SOL    HW1 6200   1.718   4.202   1.535
 1767SOL    HW2 6201   1.840   4.307   1.565
 1768SOL     OW 6202   3.519   5.135   2.739
 1768SOL    HW1 6203   3.591   5.150   2.808
 1768SOL    HW2 6204   3.433   5.174   2.773
 1769SOL     OW 6205   5.384   0.032   0.728
 1769SOL    HW1 6206   5.399   0.021   0.826
 1769SOL    HW2 6207   5.394   6.963   0.683
 1770SOL     OW 6208   2.497   4.505   0.286
 1770SOL    HW1 6209   2.563   4.456   0.343
 1770SOL    HW2 6210   2.544   4.550   0.211
 1771SOL     OW 6211   1.255   3.205   6.174
 1771SOL    HW1 6212   1.283   3.110   6.186
 1771SOL    HW2 6213   1.322   3.254   6.118
 1772SOL     OW 6214   3.217   5.396   2.101
 1772SOL    HW1 6215   3.181   5.450   2.177
 1772SOL    HW2 6216   3.316   5.386   2.112
 1773SOL     OW 6217   2.066   6.303   4.788
 1773SOL    HW1 6218   1.994   6.238   4.765
 1773SOL    HW2 6219   2.099   6.347   4.705
 1774SOL     OW 6220   5.604   5.279   1.460
 1774SOL    HW1 6221   5.588   5.182   1.480
 1774SOL    HW2 6222   5.625   5.290   1.363
 1775SOL     OW 6223   1.905   6.872   1.182
 1775SOL    HW1 6224   1.820   6.924   1.194
 1775SOL    HW2 6225   1.976   6.910   1.241
 1776SOL     OW 6226   4.943   3.327   5.798
 1776SOL    HW1 6227   4.843   3.319   5.804
 1776SOL    HW2 6228   4.968   3.424   5.787
 1777SOL     OW 6229   4.804   5.014   6.730
 1777SOL    HW1 6230   4.870   5.016   6.655
 1777SOL    HW2 6231   4.848   5.045   6.814
 1778SOL     OW 6232   6.762   0.394   3.191
 1778SOL    HW1 6233   6.760   0.310   3.137
 1778SOL    HW2 6234   6.721   0.378   3.281
 1779SOL     OW 6235   6.644   0.068   4.756
 1779SOL    HW1 6236   6.594   0.145   4.795
 1779SOL    HW2 6237   6.584   0.017   4.695
 1780SOL     OW 6238   2.936   0.039   4.598
 1780SOL    HW1 6239   2.857   0.096   4.622
 1780SOL    HW2 6240   2.922   0.001   4.507
 1781SOL     OW 6241   4.665   1.045   5.734
 1781SOL    HW1 6242   4.732   1.118   5.748
 1781SOL    HW2 6243   4.580   1.068   5.780
 1782SOL     OW 6244   5.040   0.451   2.541
 1782SOL    HW1 6245   4.998   0.531   2.583
 1782SOL    HW2 6246   5.132   0.474   2.509
 1783SOL     OW 6247   1.970   3.246   0.040
 1783SOL    HW1 6248   1.912   3.312   0.089
 1783SOL    HW2 6249   1.928   3.156   0.045
 1784SOL     OW 6250   2.272   5.565   1.548
 1784SOL    HW1 6251   2.250   5.485   1.604
 1784SOL    HW2 6252   2.278   5.646   1.607
 1785SOL     OW 6253   2.185   5.167   4.715
 1785SOL    HW1 6254   2.173   5.090   4.777
 1785SOL    HW2 6255   2.101   5.221   4.713
 1786SOL     OW 6256   0.495   5.634   2.350
 1786SOL    HW1 6257   0.445   5.710   2.308
 1786SOL    HW2 6258   0.577   5.670   2.396
 1787SOL     OW 6259   2.535   2.341   6.320
 1787SOL    HW1 6260   2.565   2.404   6.248
 1787SOL    HW2 6261   2.436   2.328   6.314
 1788SOL     OW 6262   3.906   4.003   0.464
 1788SOL    HW1 6263   3.950   3.914   0.472
 1788SOL    HW2 6264   3.876   4.034   0.554
 1789SOL     OW 6265   5.933   2.735   2.939
 1789SOL    HW1 6266   5.973   2.647   2.912
 1789SOL    HW2 6267   5.868   2.720   3.014
 1790SOL     OW 6268   2.419   2.263   5.151
 1790SOL    HW1 6269   2.490   2.194   5.142
 1790SOL    HW2 6270   2.330   2.223   5.128
 1791SOL     OW 6271   6.114   0.644   3.082
 1791SOL    HW1 6272   6.160   0.658   3.170
 1791SOL    HW2 6273   6.173   0.591   3.021
 1792SOL     OW 6274   0.029   3.252   6.225
 1792SOL    HW1 6275   6.974   3.207   6.274
 1792SOL    HW2 6276   0.046   3.204   6.139
 1793SOL     OW 6277   0.361   1.722   4.976
 1793SOL    HW1 6278   0.316   1.652   5.032
 1793SOL    HW2 6279   0.345   1.812   5.017
 1794SOL     OW 6280   6.404   1.683   6.381
 1794SOL    HW1 6281   6.412   1.590   6.417
 1794SOL    HW2 6282   6.342   1.683   6.302
 1795SOL     OW 6283   5.749   4.371   1.090
 1795SOL    HW1 6284   5.771   4.457   1.045
 1795SOL    HW2 6285   5.808   4.358   1.169
 1796SOL     OW 6286   6.143   0.079   6.854
 1796SOL    HW1 6287   6.211   0.031   6.910
 1796SOL    HW2 6288   6.083   0.132   6.913
 1797SOL     OW 6289   3.049   6.178   5.922
 1797SOL    HW1 6290   3.026   6.184   6.020
 1797SOL    HW2 6291   3.020   6.089   5.887
 1798SOL     OW 6292   2.332   3.888   6.811
 1798SOL    HW1 6293   2.251   3.947   6.819
 1798SOL    HW2 6294   2.374   3.901   6.721
 1799SOL     OW 6295   3.644   1.740   1.489
 1799SOL    HW1 6296   3.560   1.686   1.485
 1799SOL    HW2 6297   3.717   1.686   1.532
 1800SOL     OW 6298   5.794   2.232   5.482
 1800SOL    HW1 6299   5.870   2.212   5.544
 1800SOL    HW2 6300   5.825   2.225   5.388
 1801SOL     OW 6301   0.676   2.020   2.044
 1801SOL    HW1 6302   0.762   1.970   2.044
 1801SOL    HW2 6303   0.617   1.985   2.117
 1802SOL     OW 6304   6.168   4.796   5.027
 1802SOL    HW1 6305   6.101   4.753   4.966
 1802SOL    HW2 6306   6.260   4.775   4.995
 1803SOL     OW 6307   6.495   0.061   3.913
 1803SOL    HW1 6308   6.531   0.039   3.823
 1803SOL    HW2 6309   6.397   0.082   3.906
 1804SOL     OW 6310   1.331   2.948   6.494
 1804SOL    HW1 6311   1.318   2.945   6.593
 1804SOL    HW2 6312   1.358   3.040   6.466
 1805SOL     OW 6313   6.534   5.009   5.887
 1805SOL    HW1 6314   6.442   5.048   5.886
 1805SOL    HW2 6315   6.530   4.916   5.924
 1806SOL     OW 6316   0.674   1.127   1.746
 1806SOL    HW1 6317   0.576   1.114   1.759
 1806SOL    HW2 6318   0.694   1.224   1.734
 1807SOL     OW 6319   6.090   2.366   2.371
 1807SOL    HW1 6320   6.149   2.440   2.339
 1807SOL    HW2 6321   6.055   2.389   2.463
 1808SOL     OW 6322   6.437   0.615   6.888
 1808SOL    HW1 6323   6.423   0.521   6.857
 1808SOL    HW2 6324   6.358   0.671   6.863
 1809SOL     OW 6325   4.276   0.414   4.717
 1809SOL    HW1 6326   4.200   0.364   4.676
 1809SOL    HW2 6327   4.305   0.368   4.801
 1810SOL     OW 6328   1.092   1.338   4.834
 1810SOL    HW1 6329   1.076   1.420   4.778
 1810SOL    HW2 6330   1.171   1.354   4.893
 1811SOL     OW 6331   3.567   5.348   1.681
 1811SOL    HW1 6332   3.603   5.355   1.588
 1811SOL    HW2 6333   3.562   5.440   1.721
 1812SOL     OW 6334   4.177   1.042   6.908
 1812SOL    HW1 6335   4.241   1.101   6.958
 1812SOL    HW2 6336   4.084   1.059   6.941
 1813SOL     OW 6337   6.046   3.457   1.841
 1813SOL    HW1 6338   5.982   3.490   1.911
 1813SOL    HW2 6339   6.061   3.528   1.773
 1814SOL     OW 6340   6.555   5.582   1.343
 1814SOL    HW1 6341   6.570   5.648   1.270
 1814SOL    HW2 6342   6.554   5.629   1.431
 1815SOL     OW 6343   6.347   5.159   1.561
 1815SOL    HW1 6344   6.311   5.238   1.510
 1815SOL    HW2 6345   6.288   5.079   1.544
 1816SOL     OW 6346   3.617   4.930   4.450
 1816SOL    HW1 6347   3.706   4.905   4.489
 1816SOL    HW2 6348   3.544   4.889   4.504
 1817SOL     OW 6349   6.242   2.817   3.938
 1817SOL    HW1 6350   6.338   2.837   3.919
 1817SOL    HW2 6351   6.196   2.901   3.966
 1818SOL     OW 6352   2.428   1.710   0.337
 1818SOL    HW1 6353   2.488   1.642   0.381
 1818SOL    HW2 6354   2.403   1.780   0.404
 1819SOL     OW 6355   1.068   3.178   0.839
 1819SOL    HW1 6356   1.166   3.197   0.837
 1819SOL    HW2 6357   1.018   3.257   0.805
 1820SOL     OW 6358   3.963   6.681   5.013
 1820SOL    HW1 6359   3.916   6.673   4.925
 1820SOL    HW2 6360   3.958   6.594   5.062
 1821SOL     OW 6361   3.769   1.314   2.373
 1821SOL    HW1 6362   3.823   1.380   2.319
 1821SOL    HW2 6363   3.772   1.225   2.328
 1822SOL     OW 6364   2.218   4.110   4.827
 1822SOL    HW1 6365   2.270   4.085   4.908
 1822SOL    HW2 6366   2.148   4.041   4.809
 1823SOL     OW 6367   4.574   6.869   4.208
 1823SOL    HW1 6368   4.519   6.786   4.223
 1823SOL    HW2 6369   4.643   6.876   4.280
 1824SOL     OW 6370   4.385   2.712   1.684
 1824SOL    HW1 6371   4.445   2.690   1.760
 1824SOL    HW2 6372   4.378   2.811   1.673
 1825SOL     OW 6373   1.407   3.740   0.095
 1825SOL    HW1 6374   1.317   3.744   0.138
 1825SOL    HW2 6375   1.466   3.809   0.135
 1826SOL     OW 6376   3.868   3.279   0.148
 1826SOL    HW1 6377   3.837   3.296   0.241
 1826SOL    HW2 6378   3.814   3.205   0.107
 1827SOL     OW 6379   5.232   4.580   0.838
 1827SOL    HW1 6380   5.222   4.667   0.788
 1827SOL    HW2 6381   5.329   4.556   0.841
 1828SOL     OW 6382   2.742   5.572   4.942
 1828SOL    HW1 6383   2.676   5.574   4.866
 1828SOL    HW2 6384   2.740   5.660   4.989
 1829SOL     OW 6385   1.663   6.319   2.709
 1829SOL    HW1 6386   1.694   6.368   2.790
 1829SOL    HW2 6387   1.742   6.287   2.656
 1830SOL     OW 6388   4.257   1.205   6.727
 1830SOL    HW1 6389   4.232   1.132   6.790
 1830SOL    HW2 6390   4.226   1.293   6.763
 1831SOL     OW 6391   3.776   4.456   6.720
 1831SOL    HW1 6392   3.697   4.418   6.768
 1831SOL    HW2 6393   3.849   4.387   6.717
 1832SOL     OW 6394   2.036   2.545   5.608
 1832SOL    HW1 6395   2.106   2.573   5.543
 1832SOL    HW2 6396   1.958   2.507   5.558
 1833SOL     OW 6397   5.874   1.551   0.071
 1833SOL    HW1 6398   5.898   1.645   0.044
 1833SOL    HW2 6399   5.779   1.533   0.047
 1834SOL     OW 6400   2.018   4.086   6.712
 1834SOL    HW1 6401   1.948   4.016   6.697
 1834SOL    HW2 6402   2.049   4.083   6.807
 1835SOL     OW 6403   6.103   6.936   6.618
 1835SOL    HW1 6404   6.115   6.995   6.697
 1835SOL    HW2 6405   6.038   6.978   6.554
 1836SOL     OW 6406   6.119   1.011   4.770
 1836SOL    HW1 6407   6.067   1.052   4.695
 1836SOL    HW2 6408   6.192   1.074   4.798
 1837SOL     OW 6409   1.126   1.878   1.320
 1837SOL    HW1 6410   1.204   1.934   1.349
 1837SOL    HW2 6411   1.156   1.784   1.305
 1838SOL     OW 6412   5.303   0.224   0.324
 1838SOL    HW1 6413   5.260   0.190   0.408
 1838SOL    HW2 6414   5.321   0.147   0.262
 1839SOL     OW 6415   6.900   2.052   6.140
 1839SOL    HW1 6416   6.894   1.978   6.207
 1839SOL    HW2 6417   6.962   2.025   6.066
 1840SOL     OW 6418   2.228   0.204   5.766
 1840SOL    HW1 6419   2.306   0.142   5.759
 1840SOL    HW2 6420   2.254   0.285   5.819
 1841SOL     OW 6421   2.626   6.923   1.895
 1841SOL    HW1 6422   2.652   6.911   1.992
 1841SOL    HW2 6423   2.630   6.834   1.849
 1842SOL     OW 6424   0.040   4.574   1.843
 1842SOL    HW1 6425   6.961   4.594   1.837
 1842SOL    HW2 6426   0.068   4.572   1.939
 1843SOL     OW 6427   3.153   0.798   6.721
 1843SOL    HW1 6428   3.103   0.779   6.636
 1843SOL    HW2 6429   3.248   0.768   6.711
 1844SOL     OW 6430   4.873   3.643   1.212
 1844SOL    HW1 6431   4.845   3.653   1.307
 1844SOL    HW2 6432   4.795   3.661   1.151
 1845SOL     OW 6433   0.595   2.658   4.544
 1845SOL    HW1 6434   0.626   2.573   4.588
 1845SOL    HW2 6435   0.653   2.734   4.576
 1846SOL     OW 6436   3.879   1.597   2.254
 1846SOL    HW1 6437   3.853   1.670   2.317
 1846SOL    HW2 6438   3.806   1.582   2.187
 1847SOL     OW 6439   3.236   6.037   6.705
 1847SOL    HW1 6440   3.242   6.056   6.607
 1847SOL    HW2 6441   3.313   5.979   6.732
 1848SOL     OW 6442   3.311   5.783   4.593
 1848SOL    HW1 6443   3.221   5.771   4.553
 1848SOL    HW2 6444   3.380   5.740   4.534
 1849SOL     OW 6445   4.629   2.604   2.249
 1849SOL    HW1 6446   4.685   2.677   2.209
 1849SOL    HW2 6447   4.547   2.590   2.195
 1850SOL     OW 6448   4.860   1.478   0.861
 1850SOL    HW1 6449   4.915   1.455   0.941
 1850SOL    HW2 6450   4.784   1.414   0.854
 1851SOL     OW 6451   1.178   5.167   3.723
 1851SOL    HW1 6452   1.227   5.254   3.721
 1851SOL    HW2 6453   1.099   5.174   3.783
 1852SOL     OW 6454   0.298   0.252   3.709
 1852SOL    HW1 6455   0.288   0.247   3.609
 1852SOL    HW2 6456   0.319   0.161   3.745
 1853SOL     OW 6457   1.106   2.008   5.102
 1853SOL    HW1 6458   1.081   2.039   5.010
 1853SOL    HW2 6459   1.206   2.005   5.111
 1854SOL     OW 6460   1.016   6.904   4.130
 1854SOL    HW1 6461   0.963   6.832   4.084
 1854SOL    HW2 6462   1.106   6.911   4.086
 1855SOL     OW 6463   6.748   1.754   5.042
 1855SOL    HW1 6464   6.717   1.748   5.137
 1855SOL    HW2 6465   6.848   1.747   5.039
 1856SOL     OW 6466   4.980   3.859   6.872
 1856SOL    HW1 6467   5.001   3.922   6.797
 1856SOL    HW2 6468   4.940   3.910   6.948
 1857SOL     OW 6469   4.845   0.686   6.887
 1857SOL    HW1 6470   4.872   0.782   6.899
 1857SOL    HW2 6471   4.745   0.680   6.890
 1858SOL     OW 6472   4.874   2.123   4.714
 1858SOL    HW1 6473   4.882   2.212   4.670
 1858SOL    HW2 6474   4.835   2.057   4.649
 1859SOL     OW 6475   6.321   6.111   2.639
 1859SOL    HW1 6476   6.395   6.127   2.573
 1859SOL    HW2 6477   6.233   6.126   2.595
 1860SOL     OW 6478   2.064   0.818   0.707
 1860SOL    HW1 6479   1.982   0.762   0.714
 1860SOL    HW2 6480   2.133   0.784   0.770
 1861SOL     OW 6481   6.667   6.957   5.538
 1861SOL    HW1 6482   6.672   0.036   5.518
 1861SOL    HW2 6483   6.684   6.905   5.455
 1862SOL     OW 6484   3.923   5.081   5.045
 1862SOL    HW1 6485   3.901   5.103   5.140
 1862SOL    HW2 6486   3.878   5.147   4.984
 1863SOL     OW 6487   0.184   1.208   1.332
 1863SOL    HW1 6488   0.115   1.257   1.279
 1863SOL    HW2 6489   0.148   1.118   1.358
 1864SOL     OW 6490   2.379   6.087   2.356
 1864SOL    HW1 6491   2.405   6.147   2.280
 1864SOL    HW2 6492   2.363   5.994   2.321
 1865SOL     OW 6493   6.098   2.363   5.616
 1865SOL    HW1 6494   6.055   2.436   5.563
 1865SOL    HW2 6495   6.198   2.368   5.605
 1866SOL     OW 6496   0.168   4.101   5.309
 1866SOL    HW1 6497   0.196   4.187   5.351
 1866SOL    HW2 6498   0.234   4.029   5.333
 1867SOL     OW 6499   1.247   0.771   0.876
 1867SOL    HW1 6500   1.174   0.823   0.922
 1867SOL    HW2 6501   1.236   0.779   0.777
 1868SOL     OW 6502   5.424   3.492   5.888
 1868SOL    HW1 6503   5.474   3.497   5.802
 1868SOL    HW2 6504   5.451   3.569   5.946
 1869SOL     OW 6505   5.190   0.577   4.981
 1869SOL    HW1 6506   5.258   0.557   5.052
 1869SOL    HW2 6507   5.236   0.613   4.900
 1870SOL     OW 6508   5.430   0.991   5.545
 1870SOL    HW1 6509   5.458   0.896   5.559
 1870SOL    HW2 6510   5.381   0.998   5.458
 1871SOL     OW 6511   2.989   4.590   0.084
 1871SOL    HW1 6512   2.889   4.598   0.082
 1871SOL    HW2 6513   3.022   4.604   0.178
 1872SOL     OW 6514   2.423   3.364   0.017
 1872SOL    HW1 6515   2.366   3.409   6.967
 1872SOL    HW2 6516   2.368   3.296   0.065
 1873SOL     OW 6517   5.904   1.246   2.027
 1873SOL    HW1 6518   5.984   1.207   2.072
 1873SOL    HW2 6519   5.934   1.320   1.966
 1874SOL     OW 6520   2.277   5.224   6.684
 1874SOL    HW1 6521   2.371   5.197   6.660
 1874SOL    HW2 6522   2.213   5.156   6.649
 1875SOL     OW 6523   1.006   6.054   2.586
 1875SOL    HW1 6524   0.914   6.075   2.619
 1875SOL    HW2 6525   1.005   6.050   2.486
 1876SOL     OW 6526   0.538   4.999   5.436
 1876SOL    HW1 6527   0.568   5.090   5.468
 1876SOL    HW2 6528   0.572   4.984   5.343
 1877SOL     OW 6529   0.435   1.185   3.693
 1877SOL    HW1 6530   0.394   1.276   3.702
 1877SOL    HW2 6531   0.363   1.118   3.676
 1878SOL     OW 6532   5.951   3.825   4.498
 1878SOL    HW1 6533   5.991   3.916   4.483
 1878SOL    HW2 6534   5.873   3.833   4.560
 1879SOL     OW 6535   4.021   6.188   5.249
 1879SOL    HW1 6536   4.001   6.167   5.345
 1879SOL    HW2 6537   4.004   6.285   5.232
 1880SOL     OW 6538   1.592   3.779   4.370
 1880SOL    HW1 6539   1.626   3.693   4.407
 1880SOL    HW2 6540   1.668   3.843   4.359
 1881SOL     OW 6541   2.646   2.080   3.085
 1881SOL    HW1 6542   2.636   1.996   3.032
 1881SOL    HW2 6543   2.703   2.145   3.035
 1882SOL     OW 6544   4.003   6.875   0.142
 1882SOL    HW1 6545   3.915   6.906   0.106
 1882SOL    HW2 6546   4.065   6.856   0.066
 1883SOL     OW 6547   2.133   3.566   2.932
 1883SOL    HW1 6548   2.129   3.478   2.884
 1883SOL    HW2 6549   2.149   3.639   2.867
 1884SOL     OW 6550   4.874   1.084   0.085
 1884SOL    HW1 6551   4.941   1.115   0.152
 1884SOL    HW2 6552   4.808   1.023   0.129
 1885SOL     OW 6553   0.043   1.807   0.923
 1885SOL    HW1 6554   6.979   1.752   0.914
 1885SOL    HW2 6555   0.117   1.762   0.872
 1886SOL     OW 6556   3.377   3.070   4.670
 1886SOL    HW1 6557   3.376   3.161   4.628
 1886SOL    HW2 6558   3.396   3.080   4.768
 1887SOL     OW 6559   0.790   5.919   5.465
 1887SOL    HW1 6560   0.803   6.014   5.493
 1887SOL    HW2 6561   0.809   5.858   5.542
 1888SOL     OW 6562   1.980   1.997   5.682
 1888SOL    HW1 6563   2.033   1.926   5.635
 1888SOL    HW2 6564   1.885   1.966   5.692
 1889SOL     OW 6565   3.794   3.881   0.080
 1889SOL    HW1 6566   3.704   3.847   0.052
 1889SOL    HW2 6567   3.833   3.937   0.007
 1890SOL     OW 6568   6.179   6.422   6.351
 1890SOL    HW1 6569   6.209   6.416   6.255
 1890SOL    HW2 6570   6.228   6.354   6.405
 1891SOL     OW 6571   5.335   3.188   6.791
 1891SOL    HW1 6572   5.298   3.266   6.841
 1891SOL    HW2 6573   5.323   3.203   6.693
 1892SOL     OW 6574   3.753   0.772   3.213
 1892SOL    HW1 6575   3.681   0.704   3.196
 1892SOL    HW2 6576   3.712   0.863   3.217
 1893SOL     OW 6577   2.853   2.291   0.082
 1893SOL    HW1 6578   2.868   2.384   0.117
 1893SOL    HW2 6579   2.872   2.289   7.003
 1894SOL     OW 6580   5.086   3.313   0.785
 1894SOL    HW1 6581   5.037   3.398   0.768
 1894SOL    HW2 6582   5.024   3.236   0.775
 1895SOL     OW 6583   4.516   5.515   2.968
 1895SOL    HW1 6584   4.464   5.490   2.887
 1895SOL    HW2 6585   4.464   5.580   3.023
 1896SOL     OW 6586   6.953   1.412   4.683
 1896SOL    HW1 6587   6.992   1.491   4.731
 1896SOL    HW2 6588   0.005   1.366   4.630
 1897SOL     OW 6589   5.440   5.285   3.370
 1897SOL    HW1 6590   5.423   5.373   3.413
 1897SOL    HW2 6591   5.357   5.254   3.324
 1898SOL     OW 6592   5.094   6.547   0.311
 1898SOL    HW1 6593   5.116   6.474   0.247
 1898SOL    HW2 6594   5.023   6.606   0.271
 1899SOL     OW 6595   1.455   3.135   3.806
 1899SOL    HW1 6596   1.535   3.078   3.825
 1899SOL    HW2 6597   1.372   3.087   3.835
 1900SOL     OW 6598   2.585   5.797   1.598
 1900SOL    HW1 6599   2.623   5.723   1.543
 1900SOL    HW2 6600   2.485   5.790   1.600
 1901SOL     OW 6601   0.484   1.748   6.140
 1901SOL    HW1 6602   0.442   1.723   6.052
 1901SOL    HW2 6603   0.459   1.843   6.162
 1902SOL     OW 6604   1.426   2.616   4.704
 1902SOL    HW1 6605   1.405   2.523   4.674
 1902SOL    HW2 6606   1.422   2.620   4.804
 1903SOL     OW 6607   6.915   6.033   3.920
 1903SOL    HW1 6608   6.928   6.128   3.947
 1903SOL    HW2 6609   6.872   5.982   3.994
 1904SOL     OW 6610   0.500   0.247   4.061
 1904SOL    HW1 6611   0.457   0.273   4.147
 1904SOL    HW2 6612   0.473   0.310   3.989
 1905SOL     OW 6613   5.744   3.333   5.653
 1905SOL    HW1 6614   5.647   3.343   5.633
 1905SOL    HW2 6615   5.797   3.336   5.568
 1906SOL     OW 6616   1.944   6.277   5.848
 1906SOL    HW1 6617   1.916   6.368   5.817
 1906SOL    HW2 6618   2.012   6.240   5.785
 1907SOL     OW 6619   4.308   6.631   3.322
 1907SOL    HW1 6620   4.326   6.626   3.223
 1907SOL    HW2 6621   4.382   6.586   3.372
 1908SOL     OW 6622   4.959   4.564   0.913
 1908SOL    HW1 6623   4.954   4.499   0.989
 1908SOL    HW2 6624   5.054   4.571   0.882
 1909SOL     OW 6625   4.990   5.366   3.633
 1909SOL    HW1 6626   4.905   5.391   3.586
 1909SOL    HW2 6627   5.026   5.281   3.593
 1910SOL     OW 6628   5.602   3.708   4.132
 1910SOL    HW1 6629   5.613   3.632   4.196
 1910SOL    HW2 6630   5.530   3.686   4.067
 1911SOL     OW 6631   1.102   2.503   5.613
 1911SOL    HW1 6632   1.024   2.474   5.669
 1911SOL    HW2 6633   1.145   2.583   5.655
 1912SOL     OW 6634   3.433   0.021   2.578
 1912SOL    HW1 6635   3.528   0.043   2.555
 1912SOL    HW2 6636   3.404   6.960   2.527
 1913SOL     OW 6637   2.847   3.968   6.993
 1913SOL    HW1 6638   2.754   3.987   6.963
 1913SOL    HW2 6639   2.904   3.946   6.914
 1914SOL     OW 6640   4.152   1.404   5.377
 1914SOL    HW1 6641   4.142   1.484   5.318
 1914SOL    HW2 6642   4.072   1.345   5.367
 1915SOL     OW 6643   2.320   6.575   5.080
 1915SOL    HW1 6644   2.373   6.586   5.164
 1915SOL    HW2 6645   2.230   6.619   5.091
 1916SOL     OW 6646   3.522   6.322   2.732
 1916SOL    HW1 6647   3.509   6.418   2.710
 1916SOL    HW2 6648   3.435   6.274   2.726
 1917SOL     OW 6649   4.087   3.671   3.499
 1917SOL    HW1 6650   4.161   3.734   3.523
 1917SOL    HW2 6651   4.029   3.656   3.579
 1918SOL     OW 6652   0.911   6.409   5.669
 1918SOL    HW1 6653   0.869   6.418   5.759
 1918SOL    HW2 6654   0.883   6.486   5.611
 1919SOL     OW 6655   5.377   0.449   1.921
 1919SOL    HW1 6656   5.402   0.545   1.910
 1919SOL    HW2 6657   5.457   0.391   1.904
 1920SOL     OW 6658   6.051   6.631   4.388
 1920SOL    HW1 6659   6.027   6.552   4.331
 1920SOL    HW2 6660   6.144   6.660   4.367
 1921SOL     OW 6661   2.461   6.823   6.667
 1921SOL    HW1 6662   2.513   6.806   6.584
 1921SOL    HW2 6663   2.433   6.919   6.670
 1922SOL     OW 6664   3.650   4.717   6.884
 1922SOL    HW1 6665   3.661   4.737   6.981
 1922SOL    HW2 6666   3.636   4.619   6.871
 1923SOL     OW 6667   1.796   2.892   0.953
 1923SOL    HW1 6668   1.872   2.835   0.984
 1923SOL    HW2 6669   1.780   2.876   0.855
 1924SOL     OW 6670   0.736   4.077   1.683
 1924SOL    HW1 6671   0.692   4.167   1.676
 1924SOL    HW2 6672   0.829   4.082   1.648
 1925SOL     OW 6673   3.536   4.604   0.295
 1925SOL    HW1 6674   3.514   4.512   0.330
 1925SOL    HW2 6675   3.542   4.668   0.372
 1926SOL     OW 6676   0.310   0.156   3.427
 1926SOL    HW1 6677   0.395   0.106   3.415
 1926SOL    HW2 6678   0.245   0.130   3.356
 1927SOL     OW 6679   5.362   3.382   1.595
 1927SOL    HW1 6680   5.299   3.451   1.560
 1927SOL    HW2 6681   5.352   3.297   1.542
 1928SOL     OW 6682   0.307   5.490   4.639
 1928SOL    HW1 6683   0.313   5.571   4.582
 1928SOL    HW2 6684   0.330   5.409   4.586
 1929SOL     OW 6685   1.317   4.520   3.088
 1929SOL    HW1 6686   1.405   4.519   3.039
 1929SOL    HW2 6687   1.297   4.614   3.118
 1930SOL     OW 6688   6.396   5.610   5.707
 1930SOL    HW1 6689   6.492   5.639   5.709
 1930SOL    HW2 6690   6.385   5.532   5.645
 1931SOL     OW 6691   2.102   2.756   3.627
 1931SOL    HW1 6692   2.180   2.797   3.675
 1931SOL    HW2 6693   2.027   2.742   3.691
 1932SOL     OW 6694   6.269   3.344   2.122
 1932SOL    HW1 6695   6.341   3.367   2.188
 1932SOL    HW2 6696   6.193   3.407   2.132
 1933SOL     OW 6697   2.461   5.570   0.238
 1933SOL    HW1 6698   2.417   5.514   0.308
 1933SOL    HW2 6699   2.561   5.559   0.245
 1934SOL     OW 6700   6.665   6.261   3.207
 1934SOL    HW1 6701   6.694   6.342   3.258
 1934SOL    HW2 6702   6.602   6.207   3.263
 1935SOL     OW 6703   1.116   1.666   2.588
 1935SOL    HW1 6704   1.039   1.640   2.647
 1935SOL    HW2 6705   1.193   1.606   2.606
 1936SOL     OW 6706   0.391   5.891   4.705
 1936SOL    HW1 6707   0.450   5.944   4.644
 1936SOL    HW2 6708   0.437   5.806   4.731
 1937SOL     OW 6709   4.683   1.791   3.326
 1937SOL    HW1 6710   4.645   1.876   3.361
 1937SOL    HW2 6711   4.618   1.716   3.341
 1938SOL     OW 6712   5.020   6.873   4.042
 1938SOL    HW1 6713   4.981   6.950   4.092
 1938SOL    HW2 6714   4.961   6.851   3.964
 1939SOL     OW 6715   2.646   0.945   4.543
 1939SOL    HW1 6716   2.650   0.905   4.634
 1939SOL    HW2 6717   2.642   1.045   4.550
 1940SOL     OW 6718   6.377   6.952   6.572
 1940SOL    HW1 6719   6.278   6.940   6.564
 1940SOL    HW2 6720   6.411   7.007   6.496
 1941SOL     OW 6721   4.398   4.961   2.852
 1941SOL    HW1 6722   4.301   4.981   2.871
 1941SOL    HW2 6723   4.439   4.916   2.932
 1942SOL     OW 6724   0.239   3.306   2.629
 1942SOL    HW1 6725   0.163   3.301   2.564
 1942SOL    HW2 6726   0.214   3.368   2.704
 1943SOL     OW 6727   3.486   5.341   3.524
 1943SOL    HW1 6728   3.548   5.372   3.596
 1943SOL    HW2 6729   3.446   5.421   3.478
 1944SOL     OW 6730   6.829   6.483   2.011
 1944SOL    HW1 6731   6.878   6.498   1.925
 1944SOL    HW2 6732   6.748   6.428   1.993
 1945SOL     OW 6733   2.909   5.271   2.439
 1945SOL    HW1 6734   2.910   5.189   2.381
 1945SOL    HW2 6735   2.845   5.257   2.515
 1946SOL     OW 6736   1.552   6.698   6.915
 1946SOL    HW1 6737   1.539   6.797   6.917
 1946SOL    HW2 6738   1.620   6.675   6.845
 1947SOL     OW 6739   4.213   0.783   3.746
 1947SOL    HW1 6740   4.212   0.811   3.842
 1947SOL    HW2 6741   4.149   0.708   3.732
 1948SOL     OW 6742   6.203   2.835   4.993
 1948SOL    HW1 6743   6.137   2.761   4.978
 1948SOL    HW2 6744   6.221   2.882   4.907
 1949SOL     OW 6745   4.678   3.439   0.044
 1949SOL    HW1 6746   4.757   3.380   0.032
 1949SOL    HW2 6747   4.608   3.415   6.995
 1950SOL     OW 6748   2.569   4.755   0.533
 1950SOL    HW1 6749   2.550   4.852   0.521
 1950SOL    HW2 6750   2.602   4.716   0.446
 1951SOL     OW 6751   5.946   2.666   6.623
 1951SOL    HW1 6752   5.848   2.657   6.637
 1951SOL    HW2 6753   5.991   2.680   6.711
 1952SOL     OW 6754   2.929   3.729   3.469
 1952SOL    HW1 6755   2.929   3.658   3.398
 1952SOL    HW2 6756   2.896   3.690   3.555
 1953SOL     OW 6757   0.303   2.251   4.759
 1953SOL    HW1 6758   0.344   2.257   4.667
 1953SOL    HW2 6759   0.207   2.225   4.751
 1954SOL     OW 6760   2.346   2.404   4.263
 1954SOL    HW1 6761   2.420   2.462   4.298
 1954SOL    HW2 6762   2.377   2.357   4.181
 1955SOL     OW 6763   6.495   5.651   2.827
 1955SOL    HW1 6764   6.439   5.573   2.857
 1955SOL    HW2 6765   6.436   5.718   2.782
 1956SOL     OW 6766   3.965   5.915   3.181
 1956SOL    HW1 6767   4.010   5.829   3.205
 1956SOL    HW2 6768   4.000   5.947   3.093
 1957SOL     OW 6769   2.323   6.425   5.718
 1957SOL    HW1 6770   2.337   6.328   5.698
 1957SOL    HW2 6771   2.406   6.476   5.696
 1958SOL     OW 6772   4.035   3.816   6.266
 1958SOL    HW1 6773   3.962   3.787   6.204
 1958SOL    HW2 6774   4.027   3.766   6.352
 1959SOL     OW 6775   2.595   0.344   0.960
 1959SOL    HW1 6776   2.582   0.255   1.003
 1959SOL    HW2 6777   2.542   0.349   0.875
 1960SOL     OW 6778   5.273   5.162   3.189
 1960SOL    HW1 6779   5.296   5.077   3.142
 1960SOL    HW2 6780   5.178   5.158   3.220
 1961SOL     OW 6781   5.545   4.295   5.334
 1961SOL    HW1 6782   5.602   4.289   5.252
 1961SOL    HW2 6783   5.603   4.283   5.415
 1962SOL     OW 6784   0.585   6.878   4.200
 1962SOL    HW1 6785   0.534   6.960   4.225
 1962SOL    HW2 6786   0.530   6.821   4.140
 1963SOL     OW 6787   2.526   1.336   3.609
 1963SOL    HW1 6788   2.464   1.299   3.539
 1963SOL    HW2 6789   2.498   1.303   3.699
 1964SOL     OW 6790   6.723   2.838   2.235
 1964SOL    HW1 6791   6.677   2.874   2.316
 1964SOL    HW2 6792   6.820   2.827   2.254
 1965SOL     OW 6793   2.292   0.310   3.381
 1965SOL    HW1 6794   2.339   0.319   3.293
 1965SOL    HW2 6795   2.194   0.302   3.366
 1966SOL     OW 6796   6.753   6.348   0.033
 1966SOL    HW1 6797   6.845   6.355   0.071
 1966SOL    HW2 6798   6.759   6.337   6.953
 1967SOL     OW 6799   6.128   2.745   4.656
 1967SOL    HW1 6800   6.159   2.825   4.707
 1967SOL    HW2 6801   6.093   2.676   4.720
 1968SOL     OW 6802   4.307   5.649   4.387
 1968SOL    HW1 6803   4.225   5.688   4.429
 1968SOL    HW2 6804   4.303   5.549   4.393
 1969SOL     OW 6805   6.343   0.815   1.440
 1969SOL    HW1 6806   6.311   0.805   1.534
 1969SOL    HW2 6807   6.442   0.800   1.436
 1970SOL     OW 6808   2.220   1.649   4.640
 1970SOL    HW1 6809   2.127   1.616   4.657
 1970SOL    HW2 6810   2.286   1.577   4.664
 1971SOL     OW 6811   0.387   1.333   6.207
 1971SOL    HW1 6812   0.325   1.349   6.131
 1971SOL    HW2 6813   0.334   1.326   6.292
 1972SOL     OW 6814   1.178   0.138   3.535
 1972SOL    HW1 6815   1.194   0.204   3.608
 1972SOL    HW2 6816   1.091   0.092   3.550
 1973SOL     OW 6817   3.265   3.020   0.300
 1973SOL    HW1 6818   3.343   2.959   0.287
 1973SOL    HW2 6819   3.234   3.054   0.211
 1974SOL     OW 6820   6.298   6.458   4.145
 1974SOL    HW1 6821   6.330   6.434   4.054
 1974SOL    HW2 6822   6.284   6.557   4.151
 1975SOL     OW 6823   2.669   0.119   3.995
 1975SOL    HW1 6824   2.717   0.137   3.909
 1975SOL    HW2 6825   2.720   0.160   4.070
 1976SOL     OW 6826   6.411   4.784   6.036
 1976SOL    HW1 6827   6.416   4.850   6.111
 1976SOL    HW2 6828   6.317   4.751   6.027
 1977SOL     OW 6829   3.208   2.124   5.280
 1977SOL    HW1 6830   3.193   2.203   5.220
 1977SOL    HW2 6831   3.271   2.060   5.235
 1978SOL     OW 6832   7.002   2.473   4.852
 1978SOL    HW1 6833   0.041   2.544   4.892
 1978SOL    HW2 6834   7.016   2.470   4.754
 1979SOL     OW 6835   6.884   3.970   2.603
 1979SOL    HW1 6836   6.951   3.932   2.539
 1979SOL    HW2 6837   6.801   3.996   2.552
 1980SOL     OW 6838   2.580   0.776   3.052
 1980SOL    HW1 6839   2.601   0.679   3.057
 1980SOL    HW2 6840   2.525   0.794   2.970
 1981SOL     OW 6841   5.814   3.551   2.022
 1981SOL    HW1 6842   5.809   3.640   1.975
 1981SOL    HW2 6843   5.738   3.494   1.992
 1982SOL     OW 6844   0.286   6.939   5.420
 1982SOL    HW1 6845   0.220   6.977   5.483
 1982SOL    HW2 6846   0.254   6.951   5.326
 1983SOL     OW 6847   0.747   4.823   1.708
 1983SOL    HW1 6848   0.675   4.874   1.660
 1983SOL    HW2 6849   0.705   4.767   1.780
 1984SOL     OW 6850   3.909   0.880   5.637
 1984SOL    HW1 6851   3.811   0.864   5.649
 1984SOL    HW2 6852   3.938   0.955   5.697
 1985SOL     OW 6853   1.312   5.519   2.090
 1985SOL    HW1 6854   1.362   5.439   2.055
 1985SOL    HW2 6855   1.376   5.593   2.107
 1986SOL     OW 6856   6.697   2.229   0.821
 1986SOL    HW1 6857   6.782   2.246   0.771
 1986SOL    HW2 6858   6.621   2.268   0.770
 1987SOL     OW 6859   2.491   3.370   0.332
 1987SOL    HW1 6860   2.504   3.275   0.362
 1987SOL    HW2 6861   2.469   3.370   0.234
 1988SOL     OW 6862   5.079   2.799   0.933
 1988SOL    HW1 6863   5.016   2.822   0.860
 1988SOL    HW2 6864   5.169   2.838   0.913
 1989SOL     OW 6865   2.630   2.206   3.717
 1989SOL    HW1 6866   2.702   2.231   3.651
 1989SOL    HW2 6867   2.562   2.150   3.670
 1990SOL     OW 6868   1.016   0.918   2.871
 1990SOL    HW1 6869   1.013   0.857   2.951
 1990SOL    HW2 6870   0.932   0.908   2.819
 1991SOL     OW 6871   4.774   6.086   2.739
 1991SOL    HW1 6872   4.699   6.020   2.751
 1991SOL    HW2 6873   4.860   6.037   2.728
 1992SOL     OW 6874   2.383   5.443   5.387
 1992SOL    HW1 6875   2.389   5.464   5.484
 1992SOL    HW2 6876   2.413   5.349   5.371
 1993SOL     OW 6877   3.207   3.152   4.125
 1993SOL    HW1 6878   3.240   3.065   4.163
 1993SOL    HW2 6879   3.238   3.161   4.030
 1994SOL     OW 6880   6.543   2.054   1.684
 1994SOL    HW1 6881   6.620   2.107   1.720
 1994SOL    HW2 6882   6.491   2.110   1.620
 1995SOL     OW 6883   3.941   2.332   1.260
 1995SOL    HW1 6884   3.963   2.324   1.357
 1995SOL    HW2 6885   3.955   2.244   1.215
 1996SOL     OW 6886   2.142   4.593   5.393
 1996SOL    HW1 6887   2.136   4.520   5.325
 1996SOL    HW2 6888   2.149   4.553   5.484
 1997SOL     OW 6889   5.680   6.280   3.916
 1997SOL    HW1 6890   5.777   6.306   3.915
 1997SOL    HW2 6891   5.671   6.183   3.893
 1998SOL     OW 6892   3.068   4.850   4.513
 1998SOL    HW1 6893   3.044   4.763   4.470
 1998SOL    HW2 6894   3.024   4.857   4.602
 1999SOL     OW 6895   3.432   1.810   1.870
 1999SOL    HW1 6896   3.361   1.845   1.931
 1999SOL    HW2 6897   3.489   1.886   1.838
 2000SOL     OW 6898   2.758   1.197   5.323
 2000SOL    HW1 6899   2.854   1.171   5.320
 2000SOL    HW2 6900   2.746   1.278   5.381
 2001SOL     OW 6901   2.302   2.608   6.842
 2001SOL    HW1 6902   2.307   2.552   6.760
 2001SOL    HW2 6903   2.294   2.704   6.816
 2002SOL     OW 6904   1.578   4.723   5.117
 2002SOL    HW1 6905   1.645   4.780   5.070
 2002SOL    HW2 6906   1.502   4.779   5.148
 2003SOL     OW 6907   6.393   3.727   3.349
 2003SOL    HW1 6908   6.299   3.752   3.323
 2003SOL    HW2 6909   6.458   3.773   3.290
 2004SOL     OW 6910   3.307   7.010   6.762
 2004SOL    HW1 6911   3.283   6.921   6.800
 2004SOL    HW2 6912   3.259   0.063   6.811
 2005SOL     OW 6913   2.770   6.753   5.143
 2005SOL    HW1 6914   2.682   6.751   5.094
 2005SOL    HW2 6915   2.844   6.767   5.077
 2006SOL     OW 6916   4.638   6.870   3.426
 2006SOL    HW1 6917   4.589   6.874   3.339
 2006SOL    HW2 6918   4.732   6.901   3.413
 2007SOL     OW 6919   6.722   5.782   6.704
 2007SOL    HW1 6920   6.641   5.838   6.683
 2007SOL    HW2 6921   6.793   5.800   6.635
 2008SOL     OW 6922   0.307   5.889   5.689
 2008SOL    HW1 6923   0.259   5.805   5.712
 2008SOL    HW2 6924   0.278   5.921   5.599
 2009SOL     OW 6925   1.070   0.591   0.151
 2009SOL    HW1 6926   1.108   0.501   0.127
 2009SOL    HW2 6927   0.999   0.580   0.220
 2010SOL     OW 6928   2.294   1.038   0.922
 2010SOL    HW1 6929   2.246   0.964   0.969
 2010SOL    HW2 6930   2.227   1.101   0.881
 2011SOL     OW 6931   6.309   1.569   4.577
 2011SOL    HW1 6932   6.295   1.563   4.478
 2011SOL    HW2 6933   6.396   1.525   4.601
 2012SOL     OW 6934   6.626   3.400   1.509
 2012SOL    HW1 6935   6.720   3.433   1.493
 2012SOL    HW2 6936   6.598   3.342   1.432
 2013SOL     OW 6937   3.684   2.614   1.375
 2013SOL    HW1 6938   3.637   2.609   1.463
 2013SOL    HW2 6939   3.749   2.690   1.376
 2014SOL     OW 6940   3.118   5.478   3.396
 2014SOL    HW1 6941   3.040   5.540   3.387
 2014SOL    HW2 6942   3.181   5.512   3.465
 2015SOL     OW 6943   2.742   5.523   0.298
 2015SOL    HW1 6944   2.798   5.605   0.296
 2015SOL    HW2 6945   2.726   5.496   0.394
 2016SOL     OW 6946   5.925   5.746   4.965
 2016SOL    HW1 6947   5.903   5.835   5.003
 2016SOL    HW2 6948   5.953   5.756   4.869
 2017SOL     OW 6949   1.861   5.239   2.083
 2017SOL    HW1 6950   1.775   5.212   2.125
 2017SOL    HW2 6951   1.882   5.334   2.106
 2018SOL     OW 6952   0.249   4.319   5.469
 2018SOL    HW1 6953   0.240   4.417   5.489
 2018SOL    HW2 6954   0.255   4.268   5.555
 2019SOL     OW 6955   5.212   0.735   2.532
 2019SOL    HW1 6956   5.299   0.775   2.503
 2019SOL    HW2 6957   5.137   0.776   2.481
 2020SOL     OW 6958   2.540   5.594   3.391
 2020SOL    HW1 6959   2.623   5.540   3.393
 2020SOL    HW2 6960   2.471   5.553   3.451
 2021SOL     OW 6961   1.823   5.923   2.024
 2021SOL    HW1 6962   1.830   5.827   2.054
 2021SOL    HW2 6963   1.886   5.979   2.078
 2022SOL     OW 6964   3.614   5.478   1.423
 2022SOL    HW1 6965   3.706   5.507   1.397
 2022SOL    HW2 6966   3.580   5.411   1.356
 2023SOL     OW 6967   6.379   2.116   5.621
 2023SOL    HW1 6968   6.328   2.059   5.556
 2023SOL    HW2 6969   6.373   2.212   5.593
 2024SOL     OW 6970   5.778   0.473   3.312
 2024SOL    HW1 6971   5.813   0.531   3.238
 2024SOL    HW2 6972   5.793   0.377   3.288
 2025SOL     OW 6973   6.163   1.010   1.296
 2025SOL    HW1 6974   6.159   1.110   1.294
 2025SOL    HW2 6975   6.227   0.981   1.366
 2026SOL     OW 6976   1.943   1.956   5.061
 2026SOL    HW1 6977   1.924   1.913   4.972
 2026SOL    HW2 6978   1.932   2.055   5.053
 2027SOL     OW 6979   6.700   0.174   2.410
 2027SOL    HW1 6980   6.602   0.175   2.432
 2027SOL    HW2 6981   6.711   0.186   2.311
 2028SOL     OW 6982   4.110   4.220   5.669
 2028SOL    HW1 6983   4.091   4.305   5.621
 2028SOL    HW2 6984   4.026   4.165   5.675
 2029SOL     OW 6985   1.871   0.572   0.610
 2029SOL    HW1 6986   1.952   0.529   0.570
 2029SOL    HW2 6987   1.815   0.503   0.655
 2030SOL     OW 6988   2.217   2.916   2.479
 2030SOL    HW1 6989   2.287   2.844   2.484
 2030SOL    HW2 6990   2.191   2.944   2.571
 2031SOL     OW 6991   5.933   6.828   2.183
 2031SOL    HW1 6992   5.934   6.914   2.134
 2031SOL    HW2 6993   5.878   6.837   2.266
 2032SOL     OW 6994   4.269   6.202   2.051
 2032SOL    HW1 6995   4.208   6.253   2.112
 2032SOL    HW2 6996   4.364   6.224   2.072
 2033SOL     OW 6997   0.451   4.848   6.536
 2033SOL    HW1 6998   0.426   4.821   6.443
 2033SOL    HW2 6999   0.548   4.872   6.539
 2034SOL     OW 7000   2.136   5.393   3.911
 2034SOL    HW1 7001   2.235   5.406   3.900
 2034SOL    HW2 7002   2.105   5.321   3.849
 2035SOL     OW 7003   0.688   1.983   3.345
 2035SOL    HW1 7004   0.613   1.931   3.387
 2035SOL    HW2 7005   0.735   2.035   3.415
 2036SOL     OW 7006   0.785   4.913   0.950
 2036SOL    HW1 7007   0.860   4.928   1.014
 2036SOL    HW2 7008   0.697   4.930   0.996
 2037SOL     OW 7009   0.588   2.731   6.853
 2037SOL    HW1 7010   0.613   2.671   6.778
 2037SOL    HW2 7011   0.622   2.823   6.836
 2038SOL     OW 7012   1.782   0.119   4.836
 2038SOL    HW1 7013   1.741   0.189   4.777
 2038SOL    HW2 7014   1.710   0.062   4.875
 2039SOL     OW 7015   1.130   5.512   2.277
 2039SOL    HW1 7016   1.038   5.507   2.238
 2039SOL    HW2 7017   1.197   5.519   2.203
 2040SOL     OW 7018   4.104   3.390   4.430
 2040SOL    HW1 7019   4.079   3.347   4.517
 2040SOL    HW2 7020   4.031   3.453   4.403
 2041SOL     OW 7021   5.083   2.966   0.031
 2041SOL    HW1 7022   5.097   2.961   0.130
 2041SOL    HW2 7023   5.172   2.959   7.004
 2042SOL     OW 7024   3.278   6.308   0.710
 2042SOL    HW1 7025   3.203   6.280   0.771
 2042SOL    HW2 7026   3.320   6.391   0.745
 2043SOL     OW 7027   4.494   5.765   2.481
 2043SOL    HW1 7028   4.467   5.759   2.385
 2043SOL    HW2 7029   4.563   5.695   2.501
 2044SOL     OW 7030   6.289   0.778   2.608
 2044SOL    HW1 7031   6.213   0.759   2.670
 2044SOL    HW2 7032   6.338   0.860   2.639
 2045SOL     OW 7033   3.013   6.698   6.258
 2045SOL    HW1 7034   3.031   6.663   6.350
 2045SOL    HW2 7035   3.100   6.717   6.212
 2046SOL     OW 7036   5.714   6.991   5.823
 2046SOL    HW1 7037   5.645   6.950   5.763
 2046SOL    HW2 7038   5.710   0.071   5.814
 2047SOL     OW 7039   5.247   3.393   0.364
 2047SOL    HW1 7040   5.281   3.318   0.420
 2047SOL    HW2 7041   5.190   3.356   0.290
 2048SOL     OW 7042   4.466   6.205   5.689
 2048SOL    HW1 7043   4.442   6.289   5.640
 2048SOL    HW2 7044   4.478   6.225   5.787
 2049SOL     OW 7045   5.339   5.253   6.597
 2049SOL    HW1 7046   5.378   5.166   6.629
 2049SOL    HW2 7047   5.377   5.276   6.508
 2050SOL     OW 7048   5.503   0.987   3.128
 2050SOL    HW1 7049   5.499   1.086   3.135
 2050SOL    HW2 7050   5.515   0.947   3.219
 2051SOL     OW 7051   2.994   5.913   1.181
 2051SOL    HW1 7052   3.019   5.962   1.266
 2051SOL    HW2 7053   2.897   5.889   1.184
 2052SOL     OW 7054   2.057   2.518   0.978
 2052SOL    HW1 7055   2.066   2.574   0.896
 2052SOL    HW2 7056   2.141   2.464   0.990
 2053SOL     OW 7057   4.605   0.735   0.872
 2053SOL    HW1 7058   4.514   0.739   0.830
 2053SOL    HW2 7059   4.669   0.693   0.808
 2054SOL     OW 7060   0.936   2.978   1.035
 2054SOL    HW1 7061   0.917   3.000   1.131
 2054SOL    HW2 7062   0.997   3.048   0.996
 2055SOL     OW 7063   6.593   1.112   3.664
 2055SOL    HW1 7064   6.641   1.024   3.664
 2055SOL    HW2 7065   6.559   1.132   3.756
 2056SOL     OW 7066   0.551   6.454   2.633
 2056SOL    HW1 7067   0.592   6.382   2.576
 2056SOL    HW2 7068   0.465   6.420   2.671
 2057SOL     OW 7069   4.832   3.153   4.066
 2057SOL    HW1 7070   4.808   3.069   4.115
 2057SOL    HW2 7071   4.823   3.138   3.968
 2058SOL     OW 7072   0.863   1.254   1.163
 2058SOL    HW1 7073   0.960   1.250   1.187
 2058SOL    HW2 7074   0.817   1.171   1.196
 2059SOL     OW 7075   1.595   1.027   6.950
 2059SOL    HW1 7076   1.585   1.127   6.947
 2059SOL    HW2 7077   1.541   0.986   6.876
 2060SOL     OW 7078   0.341   4.966   3.140
 2060SOL    HW1 7079   0.416   4.975   3.074
 2060SOL    HW2 7080   0.361   4.892   3.204
 2061SOL     OW 7081   1.442   0.440   0.678
 2061SOL    HW1 7082   1.464   0.513   0.614
 2061SOL    HW2 7083   1.401   0.363   0.629
 2062SOL     OW 7084   3.625   0.436   3.847
 2062SOL    HW1 7085   3.679   0.419   3.764
 2062SOL    HW2 7086   3.531   0.403   3.833
 2063SOL     OW 7087   2.282   2.630   1.274
 2063SOL    HW1 7088   2.363   2.612   1.330
 2063SOL    HW2 7089   2.225   2.548   1.270
 2064SOL     OW 7090   1.353   2.004   0.990
 2064SOL    HW1 7091   1.302   2.005   0.904
 2064SOL    HW2 7092   1.330   1.922   1.042
 2065SOL     OW 7093   0.017   2.841   2.619
 2065SOL    HW1 7094   0.108   2.879   2.603
 2065SOL    HW2 7095   0.018   2.743   2.602
 2066SOL     OW 7096   0.814   6.283   3.343
 2066SOL    HW1 7097   0.800   6.309   3.439
 2066SOL    HW2 7098   0.815   6.183   3.336
 2067SOL     OW 7099   0.107   0.760   0.685
 2067SOL    HW1 7100   0.050   0.682   0.711
 2067SOL    HW2 7101   0.193   0.726   0.647
 2068SOL     OW 7102   1.997   2.289   5.205
 2068SOL    HW1 7103   1.982   2.364   5.270
 2068SOL    HW2 7104   1.988   2.201   5.252
 2069SOL     OW 7105   1.602   2.140   2.265
 2069SOL    HW1 7106   1.504   2.117   2.270
 2069SOL    HW2 7107   1.656   2.056   2.272
 2070SOL     OW 7108   0.005   1.661   2.473
 2070SOL    HW1 7109   0.075   1.590   2.465
 2070SOL    HW2 7110   6.961   1.655   2.395
 2071SOL     OW 7111   2.556   6.235   5.612
 2071SOL    HW1 7112   2.656   6.224   5.608
 2071SOL    HW2 7113   2.513   6.146   5.600
 2072SOL     OW 7114   5.033   4.882   2.499
 2072SOL    HW1 7115   4.988   4.795   2.483
 2072SOL    HW2 7116   4.973   4.943   2.550
 2073SOL     OW 7117   3.352   6.811   5.217
 2073SOL    HW1 7118   3.324   6.872   5.291
 2073SOL    HW2 7119   3.274   6.797   5.155
 2074SOL     OW 7120   5.727   1.852   3.052
 2074SOL    HW1 7121   5.777   1.797   3.120
 2074SOL    HW2 7122   5.713   1.797   2.969
 2075SOL     OW 7123   4.034   3.036   5.888
 2075SOL    HW1 7124   3.941   3.026   5.923
 2075SOL    HW2 7125   4.039   3.117   5.829
 2076SOL     OW 7126   5.273   6.794   0.155
 2076SOL    HW1 7127   5.326   6.709   0.156
 2076SOL    HW2 7128   5.231   6.806   0.065
 2077SOL     OW 7129   4.568   1.136   4.460
 2077SOL    HW1 7130   4.567   1.174   4.552
 2077SOL    HW2 7131   4.501   1.185   4.403
 2078SOL     OW 7132   4.127   5.950   3.793
 2078SOL    HW1 7133   4.132   6.046   3.767
 2078SOL    HW2 7134   4.168   5.894   3.721
 2079SOL     OW 7135   5.747   0.073   3.767
 2079SOL    HW1 7136   5.773   0.166   3.741
 2079SOL    HW2 7137   5.677   0.039   3.704
 2080SOL     OW 7138   2.948   2.010   3.419
 2080SOL    HW1 7139   2.993   2.097   3.441
 2080SOL    HW2 7140   2.869   2.028   3.360
 2081SOL     OW 7141   0.771   5.951   4.231
 2081SOL    HW1 7142   0.842   5.904   4.283
 2081SOL    HW2 7143   0.778   6.050   4.246
 2082SOL     OW 7144   5.069   0.856   2.273
 2082SOL    HW1 7145   5.103   0.945   2.302
 2082SOL    HW2 7146   5.137   0.812   2.214
 2083SOL     OW 7147   3.574   4.738   6.089
 2083SOL    HW1 7148   3.566   4.727   5.990
 2083SOL    HW2 7149   3.486   4.764   6.127
 2084SOL     OW 7150   0.371   2.379   3.048
 2084SOL    HW1 7151   0.381   2.400   2.951
 2084SOL    HW2 7152   0.449   2.324   3.078
 2085SOL     OW 7153   6.005   6.570   0.140
 2085SOL    HW1 7154   6.061   6.517   0.202
 2085SOL    HW2 7155   5.971   6.511   0.067
 2086SOL     OW 7156   3.540   5.108   6.940
 2086SOL    HW1 7157   3.484   5.149   7.013
 2086SOL    HW2 7158   3.487   5.105   6.855
 2087SOL     OW 7159   5.610   6.047   3.534
 2087SOL    HW1 7160   5.532   6.043   3.596
 2087SOL    HW2 7161   5.629   5.955   3.499
 2088SOL     OW 7162   2.639   6.449   1.769
 2088SOL    HW1 7163   2.707   6.377   1.750
 2088SOL    HW2 7164   2.561   6.409   1.816
 2089SOL     OW 7165   2.456   1.124   6.315
 2089SOL    HW1 7166   2.522   1.171   6.374
 2089SOL    HW2 7167   2.504   1.067   6.249
 2090SOL     OW 7168   3.266   3.811   3.816
 2090SOL    HW1 7169   3.239   3.827   3.721
 2090SOL    HW2 7170   3.184   3.804   3.873
 2091SOL     OW 7171   2.763   4.157   0.884
 2091SOL    HW1 7172   2.748   4.079   0.945
 2091SOL    HW2 7173   2.857   4.189   0.894
 2092SOL     OW 7174   6.619   0.034   0.916
 2092SOL    HW1 7175   6.706   0.055   0.872
 2092SOL    HW2 7176   6.585   6.965   0.885
 2093SOL     OW 7177   1.690   1.554   1.498
 2093SOL    HW1 7178   1.654   1.501   1.575
 2093SOL    HW2 7179   1.775   1.513   1.466
 2094SOL     OW 7180   7.007   0.501   2.043
 2094SOL    HW1 7181   0.047   0.581   2.033
 2094SOL    HW2 7182   7.018   0.463   2.135
 2095SOL     OW 7183   6.005   4.631   5.211
 2095SOL    HW1 7184   6.083   4.569   5.217
 2095SOL    HW2 7185   6.036   4.722   5.183
 2096SOL     OW 7186   5.204   4.198   3.523
 2096SOL    HW1 7187   5.160   4.256   3.591
 2096SOL    HW2 7188   5.302   4.219   3.520
 2097SOL     OW 7189   6.272   3.578   5.936
 2097SOL    HW1 7190   6.240   3.598   5.843
 2097SOL    HW2 7191   6.308   3.661   5.978
 2098SOL     OW 7192   4.051   0.387   3.913
 2098SOL    HW1 7193   3.984   0.327   3.956
 2098SOL    HW2 7194   4.005   0.442   3.843
 2099SOL     OW 7195   2.811   1.786   3.717
 2099SOL    HW1 7196   2.817   1.689   3.739
 2099SOL    HW2 7197   2.738   1.801   3.650
 2100SOL     OW 7198   4.542   4.957   6.031
 2100SOL    HW1 7199   4.546   5.053   6.005
 2100SOL    HW2 7200   4.471   4.943   6.100
 2101SOL     OW 7201   6.288   6.843   1.810
 2101SOL    HW1 7202   6.376   6.865   1.853
 2101SOL    HW2 7203   6.304   6.804   1.720
 2102SOL     OW 7204   0.421   5.393   1.254
 2102SOL    HW1 7205   0.513   5.434   1.251
 2102SOL    HW2 7206   0.388   5.393   1.348
 2103SOL     OW 7207   3.296   3.620   6.587
 2103SOL    HW1 7208   3.331   3.558   6.517
 2103SOL    HW2 7209   3.235   3.687   6.545
 2104SOL     OW 7210   1.209   4.772   6.017
 2104SOL    HW1 7211   1.242   4.710   6.088
 2104SOL    HW2 7212   1.206   4.865   6.052
 2105SOL     OW 7213   5.817   5.756   2.607
 2105SOL    HW1 7214   5.861   5.667   2.616
 2105SOL    HW2 7215   5.717   5.744   2.606
 2106SOL     OW 7216   5.641   6.368   6.300
 2106SOL    HW1 7217   5.635   6.296   6.232
 2106SOL    HW2 7218   5.735   6.377   6.332
 2107SOL     OW 7219   2.501   5.252   0.208
 2107SOL    HW1 7220   2.519   5.168   0.156
 2107SOL    HW2 7221   2.557   5.252   0.291
 2108SOL     OW 7222   5.796   4.622   6.318
 2108SOL    HW1 7223   5.719   4.627   6.381
 2108SOL    HW2 7224   5.763   4.595   6.227
 2109SOL     OW 7225   5.305   5.491   2.952
 2109SOL    HW1 7226   5.262   5.580   2.941
 2109SOL    HW2 7227   5.389   5.501   3.006
 2110SOL     OW 7228   1.107   4.948   5.288
 2110SOL    HW1 7229   1.137   4.864   5.243
 2110SOL    HW2 7230   1.097   4.930   5.386
 2111SOL     OW 7231   1.849   2.070   6.607
 2111SOL    HW1 7232   1.886   2.127   6.533
 2111SOL    HW2 7233   1.864   1.973   6.585
 2112SOL     OW 7234   5.251   3.999   0.690
 2112SOL    HW1 7235   5.213   4.074   0.745
 2112SOL    HW2 7236   5.178   3.939   0.661
 2113SOL     OW 7237   6.914   1.378   3.363
 2113SOL    HW1 7238   6.979   1.311   3.398
 2113SOL    HW2 7239   6.915   1.377   3.263
 2114SOL     OW 7240   1.527   3.243   6.868
 2114SOL    HW1 7241   1.478   3.324   6.900
 2114SOL    HW2 7242   1.593   3.270   6.798
 2115SOL     OW 7243   4.012   5.369   2.176
 2115SOL    HW1 7244   4.031   5.351   2.079
 2115SOL    HW2 7245   3.918   5.342   2.197
 2116SOL     OW 7246   0.474   4.010   4.207
 2116SOL    HW1 7247   0.511   4.094   4.247
 2116SOL    HW2 7248   0.425   3.959   4.278
 2117SOL     OW 7249   6.680   5.859   5.518
 2117SOL    HW1 7250   6.610   5.920   5.480
 2117SOL    HW2 7251   6.657   5.765   5.493
 2118SOL     OW 7252   0.182   3.070   2.168
 2118SOL    HW1 7253   0.279   3.069   2.143
 2118SOL    HW2 7254   0.172   3.092   2.265
 2119SOL     OW 7255   4.023   6.432   0.176
 2119SOL    HW1 7256   4.057   6.344   0.143
 2119SOL    HW2 7257   4.072   6.458   0.260
 2120SOL     OW 7258   6.637   4.017   2.069
 2120SOL    HW1 7259   6.604   4.106   2.100
 2120SOL    HW2 7260   6.737   4.016   2.073
 2121SOL     OW 7261   0.512   3.738   5.155
 2121SOL    HW1 7262   0.449   3.729   5.078
 2121SOL    HW2 7263   0.556   3.828   5.151
 2122SOL     OW 7264   3.631   5.012   5.209
 2122SOL    HW1 7265   3.691   5.031   5.286
 2122SOL    HW2 7266   3.613   4.914   5.204
 2123SOL     OW 7267   4.250   5.456   3.497
 2123SOL    HW1 7268   4.182   5.526   3.516
 2123SOL    HW2 7269   4.208   5.365   3.504
 2124SOL     OW 7270   2.223   2.180   2.000
 2124SOL    HW1 7271   2.310   2.141   2.033
 2124SOL    HW2 7272   2.220   2.277   2.023
 2125SOL     OW 7273   5.179   6.041   0.419
 2125SOL    HW1 7274   5.178   5.967   0.486
 2125SOL    HW2 7275   5.096   6.096   0.430
 2126SOL     OW 7276   3.266   1.927   1.272
 2126SOL    HW1 7277   3.189   1.964   1.220
 2126SOL    HW2 7278   3.346   1.920   1.212
 2127SOL     OW 7279   5.215   2.749   4.368
 2127SOL    HW1 7280   5.138   2.706   4.321
 2127SOL    HW2 7281   5.284   2.680   4.389
 2128SOL     OW 7282   0.800   3.916   4.320
 2128SOL    HW1 7283   0.792   3.826   4.277
 2128SOL    HW2 7284   0.869   3.971   4.272
 2129SOL     OW 7285   4.458   2.144   4.967
 2129SOL    HW1 7286   4.369   2.100   4.957
 2129SOL    HW2 7287   4.530   2.081   4.939
 2130SOL     OW 7288   4.902   6.868   3.343
 2130SOL    HW1 7289   4.918   6.907   3.252
 2130SOL    HW2 7290   4.890   6.769   3.335
 2131SOL     OW 7291   5.188   1.718   6.625
 2131SOL    HW1 7292   5.258   1.684   6.689
 2131SOL    HW2 7293   5.184   1.817   6.631
 2132SOL     OW 7294   1.561   3.518   1.226
 2132SOL    HW1 7295   1.558   3.490   1.322
 2132SOL    HW2 7296   1.568   3.438   1.167
 2133SOL     OW 7297   2.516   4.048   6.199
 2133SOL    HW1 7298   2.613   4.038   6.178
 2133SOL    HW2 7299   2.474   4.113   6.136
 2134SOL     OW 7300   6.901   6.623   0.231
 2134SOL    HW1 7301   6.808   6.634   0.196
 2134SOL    HW2 7302   6.963   6.607   0.154
 2135SOL     OW 7303   6.396   5.182   5.639
 2135SOL    HW1 7304   6.479   5.238   5.642
 2135SOL    HW2 7305   6.419   5.089   5.610
 2136SOL     OW 7306   1.221   5.481   6.820
 2136SOL    HW1 7307   1.238   5.560   6.761
 2136SOL    HW2 7308   1.125   5.480   6.847
 2137SOL     OW 7309   1.564   6.957   3.491
 2137SOL    HW1 7310   1.499   7.011   3.438
 2137SOL    HW2 7311   1.583   7.003   3.578
 2138SOL     OW 7312   5.443   1.620   1.621
 2138SOL    HW1 7313   5.458   1.680   1.543
 2138SOL    HW2 7314   5.364   1.562   1.603
 2139SOL     OW 7315   2.838   6.176   5.670
 2139SOL    HW1 7316   2.902   6.101   5.685
 2139SOL    HW2 7317   2.857   6.250   5.735
 2140SOL     OW 7318   2.361   1.894   3.242
 2140SOL    HW1 7319   2.335   1.925   3.333
 2140SOL    HW2 7320   2.461   1.885   3.238
 2141SOL     OW 7321   6.689   3.309   3.157
 2141SOL    HW1 7322   6.705   3.218   3.194
 2141SOL    HW2 7323   6.772   3.342   3.112
 2142SOL     OW 7324   2.029   1.849   2.183
 2142SOL    HW1 7325   2.013   1.921   2.115
 2142SOL    HW2 7326   1.990   1.877   2.271
 2143SOL     OW 7327   6.207   5.572   5.460
 2143SOL    HW1 7328   6.306   5.586   5.449
 2143SOL    HW2 7329   6.190   5.475   5.480
 2144SOL     OW 7330   6.086   4.412   2.841
 2144SOL    HW1 7331   6.071   4.324   2.795
 2144SOL    HW2 7332   6.006   4.434   2.897
 2145SOL     OW 7333   3.698   1.279   3.149
 2145SOL    HW1 7334   3.732   1.237   3.233
 2145SOL    HW2 7335   3.663   1.371   3.170
 2146SOL     OW 7336   1.915   1.577   6.952
 2146SOL    HW1 7337   2.010   1.600   6.933
 2146SOL    HW2 7338   1.894   1.487   6.913
 2147SOL     OW 7339   5.975   0.048   5.379
 2147SOL    HW1 7340   5.953   0.027   5.474
 2147SOL    HW2 7341   5.890   0.058   5.327
 2148SOL     OW 7342   1.100   2.224   4.904
 2148SOL    HW1 7343   1.140   2.268   4.985
 2148SOL    HW2 7344   1.121   2.278   4.823
 2149SOL     OW 7345   0.197   6.721   0.217
 2149SOL    HW1 7346   0.149   6.675   0.142
 2149SOL    HW2 7347   0.165   6.815   0.224
 2150SOL     OW 7348   1.999   2.805   0.536
 2150SOL    HW1 7349   2.021   2.774   0.444
 2150SOL    HW2 7350   2.068   2.771   0.600
 2151SOL     OW 7351   0.699   4.962   6.531
 2151SOL    HW1 7352   0.707   4.941   6.628
 2151SOL    HW2 7353   0.780   4.929   6.483
 2152SOL     OW 7354   5.439   6.271   4.207
 2152SOL    HW1 7355   5.347   6.234   4.219
 2152SOL    HW2 7356   5.435   6.349   4.144
 2153SOL     OW 7357   4.867   6.618   4.175
 2153SOL    HW1 7358   4.814   6.597   4.257
 2153SOL    HW2 7359   4.857   6.714   4.152
 2154SOL     OW 7360   2.489   6.613   2.257
 2154SOL    HW1 7361   2.535   6.574   2.337
 2154SOL    HW2 7362   2.393   6.632   2.279
 2155SOL     OW 7363   5.294   0.470   0.693
 2155SOL    HW1 7364   5.206   0.467   0.742
 2155SOL    HW2 7365   5.337   0.559   0.707
 2156SOL     OW 7366   6.370   1.895   4.857
 2156SOL    HW1 7367   6.408   1.873   4.947
 2156SOL    HW2 7368   6.308   1.822   4.827
 2157SOL     OW 7369   4.268   6.428   3.777
 2157SOL    HW1 7370   4.360   6.455   3.808
 2157SOL    HW2 7371   4.243   6.481   3.696
 2158SOL     OW 7372   2.879   6.799   0.880
 2158SOL    HW1 7373   2.862   6.885   0.832
 2158SOL    HW2 7374   2.793   6.764   0.917
 2159SOL     OW 7375   0.038   1.415   5.610
 2159SOL    HW1 7376   6.994   1.437   5.684
 2159SOL    HW2 7377   0.000   1.449   5.524
 2160SOL     OW 7378   5.456   6.645   6.921
 2160SOL    HW1 7379   5.464   6.616   6.826
 2160SOL    HW2 7380   5.477   6.742   6.928
 2161SOL     OW 7381   1.596   3.675   0.821
 2161SOL    HW1 7382   1.565   3.735   0.895
 2161SOL    HW2 7383   1.646   3.729   0.753
 2162SOL     OW 7384   1.863   0.003   0.144
 2162SOL    HW1 7385   1.825   0.019   0.236
 2162SOL    HW2 7386   1.862   0.090   0.094
 2163SOL     OW 7387   0.930   2.889   4.225
 2163SOL    HW1 7388   0.949   2.791   4.231
 2163SOL    HW2 7389   0.962   2.924   4.137
 2164SOL     OW 7390   2.177   4.497   1.732
 2164SOL    HW1 7391   2.191   4.516   1.830
 2164SOL    HW2 7392   2.199   4.578   1.679
 2165SOL     OW 7393   6.371   1.531   5.584
 2165SOL    HW1 7394   6.278   1.528   5.550
 2165SOL    HW2 7395   6.431   1.477   5.524
 2166SOL     OW 7396   0.299   2.559   1.810
 2166SOL    HW1 7397   0.395   2.540   1.830
 2166SOL    HW2 7398   0.275   2.518   1.722
 2167SOL     OW 7399   1.722   2.626   2.865
 2167SOL    HW1 7400   1.679   2.674   2.790
 2167SOL    HW2 7401   1.654   2.604   2.935
 2168SOL     OW 7402   1.864   2.941   2.955
 2168SOL    HW1 7403   1.880   2.856   2.904
 2168SOL    HW2 7404   1.915   2.938   3.041
 2169SOL     OW 7405   6.853   6.932   1.211
 2169SOL    HW1 7406   6.814   7.015   1.252
 2169SOL    HW2 7407   6.904   6.882   1.280
 2170SOL     OW 7408   1.694   2.843   6.446
 2170SOL    HW1 7409   1.637   2.811   6.521
 2170SOL    HW2 7410   1.738   2.765   6.402
 2171SOL     OW 7411   6.911   6.276   1.392
 2171SOL    HW1 7412   7.004   6.311   1.405
 2171SOL    HW2 7413   6.845   6.349   1.404
 2172SOL     OW 7414   2.442   2.537   4.743
 2172SOL    HW1 7415   2.456   2.582   4.655
 2172SOL    HW2 7416   2.454   2.603   4.817
 2173SOL     OW 7417   4.740   0.617   5.207
 2173SOL    HW1 7418   4.811   0.601   5.139
 2173SOL    HW2 7419   4.696   0.706   5.189
 2174SOL     OW 7420   5.278   0.119   6.139
 2174SOL    HW1 7421   5.354   0.121   6.074
 2174SOL    HW2 7422   5.312   0.140   6.230
 2175SOL     OW 7423   3.682   2.951   5.611
 2175SOL    HW1 7424   3.681   2.914   5.518
 2175SOL    HW2 7425   3.685   3.051   5.607
 2176SOL     OW 7426   6.755   1.807   2.880
 2176SOL    HW1 7427   6.754   1.764   2.790
 2176SOL    HW2 7428   6.823   1.880   2.882
 2177SOL     OW 7429   0.232   1.205   5.598
 2177SOL    HW1 7430   0.173   1.286   5.603
 2177SOL    HW2 7431   0.271   1.186   5.688
 2178SOL     OW 7432   1.775   2.718   2.206
 2178SOL    HW1 7433   1.835   2.797   2.198
 2178SOL    HW2 7434   1.789   2.674   2.295
 2179SOL     OW 7435   1.378   4.185   0.083
 2179SOL    HW1 7436   1.412   4.152   7.014
 2179SOL    HW2 7437   1.288   4.144   0.101
 2180SOL     OW 7438   0.489   5.228   2.595
 2180SOL    HW1 7439   0.498   5.152   2.530
 2180SOL    HW2 7440   0.398   5.227   2.636
 2181SOL     OW 7441   4.494   4.800   4.203
 2181SOL    HW1 7442   4.530   4.706   4.199
 2181SOL    HW2 7443   4.486   4.828   4.298
 2182SOL     OW 7444   0.254   6.812   1.496
 2182SOL    HW1 7445   0.350   6.790   1.476
 2182SOL    HW2 7446   0.220   6.877   1.428
 2183SOL     OW 7447   3.787   3.036   6.723
 2183SOL    HW1 7448   3.860   3.041   6.791
 2183SOL    HW2 7449   3.700   3.062   6.763
 2184SOL     OW 7450   6.577   1.634   6.746
 2184SOL    HW1 7451   6.551   1.720   6.790
 2184SOL    HW2 7452   6.564   1.558   6.810
 2185SOL     OW 7453   0.777   1.244   6.392
 2185SOL    HW1 7454   0.752   1.238   6.296
 2185SOL    HW2 7455   0.835   1.165   6.416
 2186SOL     OW 7456   0.015   6.147   5.355
 2186SOL    HW1 7457   0.077   6.194   5.292
 2186SOL    HW2 7458   0.067   6.082   5.411
 2187SOL     OW 7459   5.981   4.129   1.907
 2187SOL    HW1 7460   6.026   4.042   1.886
 2187SOL    HW2 7461   5.924   4.117   1.989
 2188SOL     OW 7462   3.132   1.275   1.037
 2188SOL    HW1 7463   3.038   1.310   1.034
 2188SOL    HW2 7464   3.131   1.177   1.016
 2189SOL     OW 7465   2.079   0.591   2.174
 2189SOL    HW1 7466   2.067   0.689   2.156
 2189SOL    HW2 7467   2.174   0.566   2.156
 2190SOL     OW 7468   6.384   4.574   2.207
 2190SOL    HW1 7469   6.302   4.520   2.225
 2190SOL    HW2 7470   6.394   4.587   2.108
 2191SOL     OW 7471   3.545   6.697   6.697
 2191SOL    HW1 7472   3.541   6.686   6.797
 2191SOL    HW2 7473   3.605   6.774   6.675
 2192SOL     OW 7474   4.461   2.421   1.620
 2192SOL    HW1 7475   4.506   2.476   1.550
 2192SOL    HW2 7476   4.404   2.351   1.576
 2193SOL     OW 7477   1.298   0.665   5.229
 2193SOL    HW1 7478   1.346   0.579   5.248
 2193SOL    HW2 7479   1.301   0.723   5.311
 2194SOL     OW 7480   0.844   4.624   5.375
 2194SOL    HW1 7481   0.808   4.675   5.453
 2194SOL    HW2 7482   0.778   4.627   5.300
 2195SOL     OW 7483   0.246   4.124   5.699
 2195SOL    HW1 7484   0.319   4.174   5.746
 2195SOL    HW2 7485   0.266   4.026   5.702
 2196SOL     OW 7486   4.181   1.484   6.861
 2196SOL    HW1 7487   4.087   1.512   6.879
 2196SOL    HW2 7488   4.236   1.496   6.943
 2197SOL     OW 7489   4.100   5.448   6.987
 2197SOL    HW1 7490   4.144   5.402   0.045
 2197SOL    HW2 7491   4.077   5.381   6.917
 2198SOL     OW 7492   1.649   1.140   6.217
 2198SOL    HW1 7493   1.709   1.200   6.271
 2198SOL    HW2 7494   1.554   1.152   6.247
 2199SOL     OW 7495   4.172   6.664   3.888
 2199SOL    HW1 7496   4.237   6.726   3.844
 2199SOL    HW2 7497   4.215   6.575   3.900
 2200SOL     OW 7498   2.779   2.185   4.707
 2200SOL    HW1 7499   2.877   2.172   4.696
 2200SOL    HW2 7500   2.744   2.241   4.632
 2201SOL     OW 7501   5.933   3.415   4.949
 2201SOL    HW1 7502   5.953   3.354   5.025
 2201SOL    HW2 7503   5.977   3.504   4.965
 2202SOL     OW 7504   4.282   6.798   4.197
 2202SOL    HW1 7505   4.274   6.885   4.246
 2202SOL    HW2 7506   4.295   6.815   4.100
 2203SOL     OW 7507   2.042   5.940   1.155
 2203SOL    HW1 7508   2.133   5.981   1.152
 2203SOL    HW2 7509   1.978   6.005   1.197
 2204SOL     OW 7510   5.019   2.923   0.638
 2204SOL    HW1 7511   4.946   2.864   0.602
 2204SOL    HW2 7512   4.991   3.019   0.628
 2205SOL     OW 7513   5.105   5.611   0.995
 2205SOL    HW1 7514   5.045   5.682   0.959
 2205SOL    HW2 7515   5.094   5.604   1.094
 2206SOL     OW 7516   3.575   2.916   5.321
 2206SOL    HW1 7517   3.534   2.825   5.311
 2206SOL    HW2 7518   3.671   2.912   5.292
 2207SOL     OW 7519   4.559   5.036   1.807
 2207SOL    HW1 7520   4.612   4.983   1.873
 2207SOL    HW2 7521   4.569   4.996   1.716
 2208SOL     OW 7522   6.400   6.380   3.522
 2208SOL    HW1 7523   6.304   6.381   3.549
 2208SOL    HW2 7524   6.415   6.449   3.451
 2209SOL     OW 7525   2.422   5.736   3.660
 2209SOL    HW1 7526   2.519   5.761   3.657
 2209SOL    HW2 7527   2.413   5.638   3.672
 2210SOL     OW 7528   5.186   6.536   1.859
 2210SOL    HW1 7529   5.221   6.621   1.900
 2210SOL    HW2 7530   5.206   6.459   1.920
 2211SOL     OW 7531   1.410   0.812   1.569
 2211SOL    HW1 7532   1.329   0.756   1.585
 2211SOL    HW2 7533   1.471   0.805   1.647
 2212SOL     OW 7534   2.939   6.241   6.224
 2212SOL    HW1 7535   2.986   6.304   6.285
 2212SOL    HW2 7536   2.870   6.290   6.171
 2213SOL     OW 7537   3.220   1.166   4.706
 2213SOL    HW1 7538   3.259   1.241   4.759
 2213SOL    HW2 7539   3.196   1.199   4.615
 2214SOL     OW 7540   4.437   4.742   6.542
 2214SOL    HW1 7541   4.343   4.735   6.577
 2214SOL    HW2 7542   4.501   4.721   6.616
 2215SOL     OW 7543   5.963   5.277   6.488
 2215SOL    HW1 7544   5.918   5.276   6.399
 2215SOL    HW2 7545   5.992   5.184   6.512
 2216SOL     OW 7546   0.366   6.340   0.160
 2216SOL    HW1 7547   0.309   6.379   0.233
 2216SOL    HW2 7548   0.313   6.272   0.110
 2217SOL     OW 7549   4.065   1.149   3.417
 2217SOL    HW1 7550   3.985   1.122   3.471
 2217SOL    HW2 7551   4.148   1.134   3.471
 2218SOL     OW 7552   5.965   5.619   5.347
 2218SOL    HW1 7553   6.046   5.603   5.402
 2218SOL    HW2 7554   5.950   5.541   5.286
 2219SOL     OW 7555   5.591   2.072   0.369
 2219SOL    HW1 7556   5.530   1.993   0.362
 2219SOL    HW2 7557   5.538   2.156   0.357
 2220SOL     OW 7558   7.019   6.780   4.326
 2220SOL    HW1 7559   0.001   6.708   4.257
 2220SOL    HW2 7560   6.953   6.850   4.300
 2221SOL     OW 7561   5.315   0.336   3.505
 2221SOL    HW1 7562   5.367   0.294   3.431
 2221SOL    HW2 7563   5.272   0.264   3.560
 2222SOL     OW 7564   3.630   1.228   3.698
 2222SOL    HW1 7565   3.531   1.223   3.681
 2222SOL    HW2 7566   3.656   1.158   3.765
 2223SOL     OW 7567   0.907   0.116   5.508
 2223SOL    HW1 7568   0.873   0.062   5.585
 2223SOL    HW2 7569   0.830   0.152   5.456
 2224SOL     OW 7570   5.496   4.387   6.749
 2224SOL    HW1 7571   5.422   4.320   6.763
 2224SOL    HW2 7572   5.471   4.473   6.793
 2225SOL     OW 7573   6.880   0.015   0.766
 2225SOL    HW1 7574   6.886   7.006   0.861
 2225SOL    HW2 7575   6.857   6.956   0.708
 2226SOL     OW 7576   2.760   3.418   6.875
 2226SOL    HW1 7577   2.830   3.360   6.834
 2226SOL    HW2 7578   2.765   3.410   6.975
 2227SOL     OW 7579   4.440   1.587   1.576
 2227SOL    HW1 7580   4.374   1.645   1.529
 2227SOL    HW2 7581   4.473   1.634   1.658
 2228SOL     OW 7582   5.074   6.510   6.312
 2228SOL    HW1 7583   5.064   6.595   6.364
 2228SOL    HW2 7584   5.090   6.434   6.376
 2229SOL     OW 7585   3.091   3.123   4.459
 2229SOL    HW1 7586   3.080   3.185   4.380
 2229SOL    HW2 7587   3.163   3.057   4.439
 2230SOL     OW 7588   6.682   0.928   6.090
 2230SOL    HW1 7589   6.742   0.948   6.012
 2230SOL    HW2 7590   6.683   0.830   6.108
 2231SOL     OW 7591   0.909   6.932   6.412
 2231SOL    HW1 7592   0.929   6.879   6.495
 2231SOL    HW2 7593   0.994   6.951   6.363
 2232SOL     OW 7594   1.667   0.928   6.422
 2232SOL    HW1 7595   1.650   1.004   6.359
 2232SOL    HW2 7596   1.711   0.853   6.373
 2233SOL     OW 7597   2.941   5.306   1.241
 2233SOL    HW1 7598   2.850   5.307   1.199
 2233SOL    HW2 7599   2.951   5.387   1.300
 2234SOL     OW 7600   5.110   1.982   1.467
 2234SOL    HW1 7601   5.183   1.960   1.402
 2234SOL    HW2 7602   5.052   2.054   1.428
 2235SOL     OW 7603   1.339   2.408   3.303
 2235SOL    HW1 7604   1.288   2.488   3.335
 2235SOL    HW2 7605   1.342   2.408   3.203
 2236SOL     OW 7606   2.685   4.792   5.136
 2236SOL    HW1 7607   2.696   4.805   5.235
 2236SOL    HW2 7608   2.757   4.731   5.103
 2237SOL     OW 7609   5.934   6.925   5.983
 2237SOL    HW1 7610   5.862   6.940   5.915
 2237SOL    HW2 7611   5.912   6.978   6.065
 2238SOL     OW 7612   5.636   4.051   2.324
 2238SOL    HW1 7613   5.693   3.980   2.282
 2238SOL    HW2 7614   5.693   4.126   2.355
 2239SOL     OW 7615   3.866   0.088   2.958
 2239SOL    HW1 7616   3.919   0.014   2.915
 2239SOL    HW2 7617   3.815   0.051   3.035
 2240SOL     OW 7618   4.873   5.330   2.388
 2240SOL    HW1 7619   4.864   5.379   2.475
 2240SOL    HW2 7620   4.969   5.303   2.375
 2241SOL     OW 7621   1.130   2.097   3.000
 2241SOL    HW1 7622   1.111   2.125   3.094
 2241SOL    HW2 7623   1.085   2.009   2.982
 2242SOL     OW 7624   5.334   2.028   4.341
 2242SOL    HW1 7625   5.308   2.068   4.429
 2242SOL    HW2 7626   5.349   2.102   4.274
 2243SOL     OW 7627   2.513   0.447   0.066
 2243SOL    HW1 7628   2.439   0.389   0.101
 2243SOL    HW2 7629   2.475   0.530   0.025
 2244SOL     OW 7630   2.521   1.748   1.475
 2244SOL    HW1 7631   2.572   1.728   1.391
 2244SOL    HW2 7632   2.448   1.680   1.487
 2245SOL     OW 7633   0.058   0.918   0.467
 2245SOL    HW1 7634   0.033   1.014   0.482
 2245SOL    HW2 7635   0.046   0.867   0.553
 2246SOL     OW 7636   5.376   0.555   5.901
 2246SOL    HW1 7637   5.423   0.488   5.843
 2246SOL    HW2 7638   5.298   0.593   5.851
 2247SOL     OW 7639   3.337   3.279   1.603
 2247SOL    HW1 7640   3.262   3.342   1.582
 2247SOL    HW2 7641   3.334   3.256   1.700
 2248SOL     OW 7642   5.196   3.356   4.900
 2248SOL    HW1 7643   5.265   3.351   4.827
 2248SOL    HW2 7644   5.106   3.372   4.860
 2249SOL     OW 7645   1.939   6.264   3.483
 2249SOL    HW1 7646   1.930   6.303   3.391
 2249SOL    HW2 7647   2.031   6.226   3.494
 2250SOL     OW 7648   4.535   5.772   6.289
 2250SOL    HW1 7649   4.479   5.844   6.247
 2250SOL    HW2 7650   4.595   5.812   6.358
 2251SOL     OW 7651   3.881   6.666   4.745
 2251SOL    HW1 7652   3.796   6.644   4.699
 2251SOL    HW2 7653   3.905   6.762   4.729
 2252SOL     OW 7654   3.877   1.161   2.679
 2252SOL    HW1 7655   3.905   1.078   2.728
 2252SOL    HW2 7656   3.826   1.135   2.597
 2253SOL     OW 7657   1.465   2.883   1.582
 2253SOL    HW1 7658   1.464   2.831   1.667
 2253SOL    HW2 7659   1.381   2.936   1.575
 2254SOL     OW 7660   3.063   3.397   3.003
 2254SOL    HW1 7661   3.006   3.460   3.055
 2254SOL    HW2 7662   3.019   3.377   2.915
 2255SOL     OW 7663   1.259   2.255   6.431
 2255SOL    HW1 7664   1.284   2.214   6.519
 2255SOL    HW2 7665   1.320   2.332   6.412
 2256SOL     OW 7666   5.161   0.533   1.147
 2256SOL    HW1 7667   5.070   0.553   1.183
 2256SOL    HW2 7668   5.153   0.483   1.061
 2257SOL     OW 7669   0.224   0.478   6.387
 2257SOL    HW1 7670   0.141   0.474   6.442
 2257SOL    HW2 7671   0.303   0.452   6.443
 2258SOL     OW 7672   2.614   0.263   3.228
 2258SOL    HW1 7673   2.597   0.218   3.316
 2258SOL    HW2 7674   2.545   0.233   3.162
 2259SOL     OW 7675   5.953   0.520   5.449
 2259SOL    HW1 7676   6.000   0.438   5.483
 2259SOL    HW2 7677   5.976   0.598   5.508
 2260SOL     OW 7678   1.403   3.780   1.228
 2260SOL    HW1 7679   1.430   3.684   1.219
 2260SOL    HW2 7680   1.444   3.832   1.153
 2261SOL     OW 7681   5.091   4.318   6.423
 2261SOL    HW1 7682   5.099   4.357   6.515
 2261SOL    HW2 7683   4.995   4.319   6.395
 2262SOL     OW 7684   6.599   0.317   3.974
 2262SOL    HW1 7685   6.543   0.235   3.979
 2262SOL    HW2 7686   6.666   0.316   4.048
 2263SOL     OW 7687   2.198   4.525   6.566
 2263SOL    HW1 7688   2.128   4.454   6.554
 2263SOL    HW2 7689   2.287   4.482   6.576
 2264SOL     OW 7690   1.908   0.144   6.756
 2264SOL    HW1 7691   1.870   0.219   6.811
 2264SOL    HW2 7692   1.974   0.093   6.811
 2265SOL     OW 7693   0.286   6.134   3.563
 2265SOL    HW1 7694   0.337   6.167   3.642
 2265SOL    HW2 7695   0.278   6.207   3.495
 2266SOL     OW 7696   4.995   4.001   6.336
 2266SOL    HW1 7697   4.987   3.911   6.293
 2266SOL    HW2 7698   4.911   4.022   6.386
 2267SOL     OW 7699   5.575   2.840   4.565
 2267SOL    HW1 7700   5.494   2.892   4.593
 2267SOL    HW2 7701   5.602   2.867   4.473
 2268SOL     OW 7702   0.995   6.073   4.594
 2268SOL    HW1 7703   0.905   6.109   4.569
 2268SOL    HW2 7704   0.983   5.994   4.655
 2269SOL     OW 7705   1.820   2.512   5.426
 2269SOL    HW1 7706   1.774   2.599   5.442
 2269SOL    HW2 7707   1.762   2.437   5.459
 2270SOL     OW 7708   4.679   2.009   6.437
 2270SOL    HW1 7709   4.742   2.074   6.394
 2270SOL    HW2 7710   4.636   1.953   6.367
 2271SOL     OW 7711   3.977   5.719   5.391
 2271SOL    HW1 7712   3.947   5.628   5.360
 2271SOL    HW2 7713   4.013   5.711   5.484
 2272SOL     OW 7714   6.078   0.711   6.209
 2272SOL    HW1 7715   6.020   0.706   6.291
 2272SOL    HW2 7716   6.158   0.768   6.229
 2273SOL     OW 7717   1.171   2.088   4.245
 2273SOL    HW1 7718   1.120   2.028   4.306
 2273SOL    HW2 7719   1.268   2.087   4.270
 2274SOL     OW 7720   1.300   1.521   0.004
 2274SOL    HW1 7721   1.270   1.522   6.928
 2274SOL    HW2 7722   1.222   1.501   0.063
 2275SOL     OW 7723   5.698   3.686   3.170
 2275SOL    HW1 7724   5.768   3.620   3.198
 2275SOL    HW2 7725   5.615   3.638   3.144
 2276SOL     OW 7726   2.044   1.588   1.395
 2276SOL    HW1 7727   1.973   1.518   1.382
 2276SOL    HW2 7728   2.104   1.561   1.471
 2277SOL     OW 7729   3.473   2.926   3.275
 2277SOL    HW1 7730   3.438   2.971   3.357
 2277SOL    HW2 7731   3.411   2.944   3.198
 2278SOL     OW 7732   6.762   3.485   3.827
 2278SOL    HW1 7733   6.846   3.488   3.881
 2278SOL    HW2 7734   6.684   3.472   3.888
 2279SOL     OW 7735   0.638   5.243   5.557
 2279SOL    HW1 7736   0.732   5.219   5.531
 2279SOL    HW2 7737   0.636   5.339   5.587
 2280SOL     OW 7738   4.842   2.408   5.870
 2280SOL    HW1 7739   4.749   2.402   5.905
 2280SOL    HW2 7740   4.841   2.442   5.776
 2281SOL     OW 7741   4.947   6.875   2.080
 2281SOL    HW1 7742   5.018   6.859   2.148
 2281SOL    HW2 7743   4.860   6.839   2.114
 2282SOL     OW 7744   3.179   5.446   5.741
 2282SOL    HW1 7745   3.176   5.370   5.806
 2282SOL    HW2 7746   3.104   5.436   5.675
 2283SOL     OW 7747   6.928   0.915   5.043
 2283SOL    HW1 7748   6.869   0.964   5.107
 2283SOL    HW2 7749   6.922   0.817   5.061
 2284SOL     OW 7750   1.495   3.970   6.392
 2284SOL    HW1 7751   1.397   3.965   6.370
 2284SOL    HW2 7752   1.518   3.898   6.457
 2285SOL     OW 7753   1.239   5.148   6.420
 2285SOL    HW1 7754   1.337   5.151   6.440
 2285SOL    HW2 7755   1.189   5.121   6.503
 2286SOL     OW 7756   4.591   4.434   2.617
 2286SOL    HW1 7757   4.516   4.500   2.625
 2286SOL    HW2 7758   4.642   4.432   2.703
 2287SOL     OW 7759   1.488   1.178   4.251
 2287SOL    HW1 7760   1.403   1.165   4.201
 2287SOL    HW2 7761   1.542   1.250   4.208
 2288SOL     OW 7762   6.145   5.323   3.139
 2288SOL    HW1 7763   6.114   5.255   3.073
 2288SOL    HW2 7764   6.085   5.320   3.219
 2289SOL     OW 7765   0.168   5.165   0.142
 2289SOL    HW1 7766   0.186   5.073   0.106
 2289SOL    HW2 7767   0.073   5.190   0.126
 2290SOL     OW 7768   0.922   5.434   6.864
 2290SOL    HW1 7769   0.831   5.452   6.902
 2290SOL    HW2 7770   0.963   5.356   6.909
 2291SOL     OW 7771   1.902   1.760   6.559
 2291SOL    HW1 7772   1.802   1.763   6.562
 2291SOL    HW2 7773   1.935   1.691   6.623
 2292SOL     OW 7774   1.859   0.654   4.440
 2292SOL    HW1 7775   1.815   0.741   4.415
 2292SOL    HW2 7776   1.950   0.650   4.398
 2293SOL     OW 7777   5.126   4.384   2.914
 2293SOL    HW1 7778   5.164   4.292   2.923
 2293SOL    HW2 7779   5.171   4.431   2.838
 2294SOL     OW 7780   3.670   6.748   6.939
 2294SOL    HW1 7781   3.658   6.761   0.018
 2294SOL    HW2 7782   3.677   6.650   6.919
 2295SOL     OW 7783   0.948   0.860   1.886
 2295SOL    HW1 7784   0.947   0.938   1.825
 2295SOL    HW2 7785   0.856   0.819   1.890
 2296SOL     OW 7786   2.875   6.091   0.497
 2296SOL    HW1 7787   2.783   6.110   0.462
 2296SOL    HW2 7788   2.925   6.034   0.432
 2297SOL     OW 7789   4.020   6.405   6.806
 2297SOL    HW1 7790   4.065   6.457   6.879
 2297SOL    HW2 7791   4.084   6.388   6.732
 2298SOL     OW 7792   4.172   3.292   6.789
 2298SOL    HW1 7793   4.124   3.209   6.816
 2298SOL    HW2 7794   4.193   3.347   6.870
 2299SOL     OW 7795   4.119   7.003   0.898
 2299SOL    HW1 7796   4.195   6.938   0.896
 2299SOL    HW2 7797   4.150   0.072   0.861
 2300SOL     OW 7798   1.278   5.450   1.150
 2300SOL    HW1 7799   1.242   5.375   1.094
 2300SOL    HW2 7800   1.217   5.529   1.143
 2301SOL     OW 7801   3.723   3.414   1.905
 2301SOL    HW1 7802   3.742   3.378   1.814
 2301SOL    HW2 7803   3.744   3.344   1.974
 2302SOL     OW 7804   2.648   5.284   2.553
 2302SOL    HW1 7805   2.676   5.311   2.645
 2302SOL    HW2 7806   2.588   5.204   2.558
 2303SOL     OW 7807   0.250   3.519   6.417
 2303SOL    HW1 7808   0.303   3.442   6.454
 2303SOL    HW2 7809   0.180   3.546   6.484
 2304SOL     OW 7810   1.724   1.381   4.665
 2304SOL    HW1 7811   1.656   1.414   4.730
 2304SOL    HW2 7812   1.699   1.289   4.635
 2305SOL     OW 7813   4.044   4.843   1.897
 2305SOL    HW1 7814   3.961   4.880   1.857
 2305SOL    HW2 7815   4.086   4.778   1.834
 2306SOL     OW 7816   0.570   4.268   0.322
 2306SOL    HW1 7817   0.584   4.347   0.263
 2306SOL    HW2 7818   0.621   4.190   0.285
 2307SOL     OW 7819   0.319   0.922   3.243
 2307SOL    HW1 7820   0.358   0.870   3.319
 2307SOL    HW2 7821   0.383   0.992   3.213
 2308SOL     OW 7822   1.070   0.075   0.322
 2308SOL    HW1 7823   1.077   0.086   0.421
 2308SOL    HW2 7824   1.161   0.063   0.283
 2309SOL     OW 7825   2.156   5.011   6.561
 2309SOL    HW1 7826   2.146   4.914   6.582
 2309SOL    HW2 7827   2.108   5.033   6.477
 2310SOL     OW 7828   5.629   1.593   3.322
 2310SOL    HW1 7829   5.623   1.589   3.223
 2310SOL    HW2 7830   5.582   1.514   3.362
 2311SOL     OW 7831   2.595   0.447   2.724
 2311SOL    HW1 7832   2.641   0.433   2.812
 2311SOL    HW2 7833   2.664   0.456   2.652
 2312SOL     OW 7834   2.351   0.941   2.476
 2312SOL    HW1 7835   2.419   1.014   2.484
 2312SOL    HW2 7836   2.390   0.865   2.425
 2313SOL     OW 7837   5.002   4.361   2.009
 2313SOL    HW1 7838   4.952   4.286   2.053
 2313SOL    HW2 7839   4.936   4.422   1.963
 2314SOL     OW 7840   6.478   5.961   2.907
 2314SOL    HW1 7841   6.443   5.898   2.836
 2314SOL    HW2 7842   6.454   5.926   2.997
 2315SOL     OW 7843   4.592   6.229   4.875
 2315SOL    HW1 7844   4.526   6.164   4.838
 2315SOL    HW2 7845   4.648   6.184   4.944
 2316SOL     OW 7846   3.444   1.512   5.954
 2316SOL    HW1 7847   3.453   1.602   5.911
 2316SOL    HW2 7848   3.385   1.519   6.034
 2317SOL     OW 7849   6.828   5.125   2.567
 2317SOL    HW1 7850   6.862   5.208   2.522
 2317SOL    HW2 7851   6.863   5.120   2.660
 2318SOL     OW 7852   1.166   4.546   3.973
 2318SOL    HW1 7853   1.176   4.620   3.907
 2318SOL    HW2 7854   1.099   4.479   3.938
 2319SOL     OW 7855   2.154   5.500   3.228
 2319SOL    HW1 7856   2.132   5.524   3.322
 2319SOL    HW2 7857   2.201   5.411   3.227
 2320SOL     OW 7858   0.926   1.764   5.399
 2320SOL    HW1 7859   0.898   1.843   5.344
 2320SOL    HW2 7860   1.021   1.776   5.427
 2321SOL     OW 7861   1.859   5.049   5.322
 2321SOL    HW1 7862   1.784   5.015   5.379
 2321SOL    HW2 7863   1.917   5.110   5.376
 2322SOL     OW 7864   2.198   4.231   1.637
 2322SOL    HW1 7865   2.251   4.198   1.559
 2322SOL    HW2 7866   2.212   4.329   1.649
 2323SOL     OW 7867   2.497   5.575   0.596
 2323SOL    HW1 7868   2.428   5.647   0.601
 2323SOL    HW2 7869   2.584   5.614   0.568
 2324SOL     OW 7870   6.565   5.018   2.475
 2324SOL    HW1 7871   6.537   4.928   2.509
 2324SOL    HW2 7872   6.653   5.043   2.515
 2325SOL     OW 7873   6.242   5.115   2.730
 2325SOL    HW1 7874   6.211   5.207   2.704
 2325SOL    HW2 7875   6.249   5.058   2.649
 2326SOL     OW 7876   1.957   0.455   0.218
 2326SOL    HW1 7877   2.022   0.513   0.169
 2326SOL    HW2 7878   1.972   0.359   0.193
 2327SOL     OW 7879   6.641   6.261   2.160
 2327SOL    HW1 7880   6.719   6.207   2.129
 2327SOL    HW2 7881   6.598   6.306   2.081
 2328SOL     OW 7882   2.162   3.899   2.197
 2328SOL    HW1 7883   2.224   3.974   2.173
 2328SOL    HW2 7884   2.166   3.829   2.126
 2329SOL     OW 7885   0.561   4.730   2.546
 2329SOL    HW1 7886   0.621   4.782   2.486
 2329SOL    HW2 7887   0.490   4.686   2.493
 2330SOL     OW 7888   6.066   2.843   1.388
 2330SOL    HW1 7889   6.050   2.750   1.420
 2330SOL    HW2 7890   6.151   2.846   1.334
 2331SOL     OW 7891   5.069   5.899   1.324
 2331SOL    HW1 7892   5.151   5.844   1.307
 2331SOL    HW2 7893   4.995   5.867   1.264
 2332SOL     OW 7894   6.205   0.034   5.899
 2332SOL    HW1 7895   6.128   7.006   5.941
 2332SOL    HW2 7896   6.290   7.004   5.919
 2333SOL     OW 7897   1.155   4.700   2.531
 2333SOL    HW1 7898   1.201   4.783   2.563
 2333SOL    HW2 7899   1.144   4.703   2.432
 2334SOL     OW 7900   3.153   1.435   6.364
 2334SOL    HW1 7901   3.089   1.402   6.433
 2334SOL    HW2 7902   3.139   1.384   6.279
 2335SOL     OW 7903   6.874   1.542   3.591
 2335SOL    HW1 7904   6.903   1.494   3.508
 2335SOL    HW2 7905   6.802   1.490   3.637
 2336SOL     OW 7906   1.790   2.027   3.594
 2336SOL    HW1 7907   1.851   2.056   3.668
 2336SOL    HW2 7908   1.843   1.981   3.523
 2337SOL     OW 7909   3.929   0.967   1.682
 2337SOL    HW1 7910   3.856   1.034   1.690
 2337SOL    HW2 7911   4.014   1.013   1.654
 2338SOL     OW 7912   6.915   3.742   3.658
 2338SOL    HW1 7913   6.831   3.783   3.692
 2338SOL    HW2 7914   6.983   3.740   3.731
 2339SOL     OW 7915   3.167   3.181   3.156
 2339SOL    HW1 7916   3.214   3.224   3.233
 2339SOL    HW2 7917   3.148   3.250   3.087
 2340SOL     OW 7918   2.319   4.215   6.812
 2340SOL    HW1 7919   2.266   4.233   6.729
 2340SOL    HW2 7920   2.378   4.293   6.831
 2341SOL     OW 7921   2.521   4.682   4.126
 2341SOL    HW1 7922   2.507   4.632   4.212
 2341SOL    HW2 7923   2.494   4.624   4.049
 2342SOL     OW 7924   3.615   1.067   4.189
 2342SOL    HW1 7925   3.575   1.008   4.260
 2342SOL    HW2 7926   3.548   1.082   4.117
 2343SOL     OW 7927   0.561   0.134   1.176
 2343SOL    HW1 7928   0.563   0.082   1.261
 2343SOL    HW2 7929   0.596   0.226   1.193
 2344SOL     OW 7930   5.981   4.311   0.338
 2344SOL    HW1 7931   5.944   4.234   0.287
 2344SOL    HW2 7932   5.916   4.338   0.410
 2345SOL     OW 7933   3.539   6.301   5.005
 2345SOL    HW1 7934   3.441   6.305   5.024
 2345SOL    HW2 7935   3.585   6.249   5.077
 2346SOL     OW 7936   4.722   3.606   0.255
 2346SOL    HW1 7937   4.800   3.660   0.224
 2346SOL    HW2 7938   4.691   3.546   0.182
 2347SOL     OW 7939   1.473   1.634   1.325
 2347SOL    HW1 7940   1.547   1.641   1.392
 2347SOL    HW2 7941   1.502   1.674   1.239
 2348SOL     OW 7942   0.420   5.542   2.076
 2348SOL    HW1 7943   0.484   5.495   2.015
 2348SOL    HW2 7944   0.460   5.550   2.167
 2349SOL     OW 7945   1.210   4.325   5.174
 2349SOL    HW1 7946   1.268   4.271   5.113
 2349SOL    HW2 7947   1.255   4.333   5.263
 2350SOL     OW 7948   5.264   3.668   0.122
 2350SOL    HW1 7949   5.343   3.607   0.127
 2350SOL    HW2 7950   5.296   3.762   0.113
 2351SOL     OW 7951   2.305   5.797   1.692
 2351SOL    HW1 7952   2.297   5.853   1.774
 2351SOL    HW2 7953   2.289   5.853   1.611
 2352SOL     OW 7954   6.777   2.477   3.454
 2352SOL    HW1 7955   6.718   2.399   3.431
 2352SOL    HW2 7956   6.734   2.530   3.527
 2353SOL     OW 7957   3.154   5.227   4.120
 2353SOL    HW1 7958   3.223   5.155   4.119
 2353SOL    HW2 7959   3.156   5.277   4.034
 2354SOL     OW 7960   2.522   2.590   3.897
 2354SOL    HW1 7961   2.478   2.529   3.830
 2354SOL    HW2 7962   2.606   2.547   3.930
 2355SOL     OW 7963   2.643   5.606   4.439
 2355SOL    HW1 7964   2.717   5.543   4.462
 2355SOL    HW2 7965   2.645   5.626   4.341
 2356SOL     OW 7966   6.878   2.490   6.773
 2356SOL    HW1 7967   6.973   2.468   6.793
 2356SOL    HW2 7968   6.832   2.517   6.858
 2357SOL     OW 7969   2.325   6.699   2.946
 2357SOL    HW1 7970   2.234   6.738   2.957
 2357SOL    HW2 7971   2.372   6.697   3.034
 2358SOL     OW 7972   3.758   5.113   5.665
 2358SOL    HW1 7973   3.771   5.189   5.601
 2358SOL    HW2 7974   3.745   5.150   5.758
 2359SOL     OW 7975   1.596   0.626   4.989
 2359SOL    HW1 7976   1.692   0.603   4.971
 2359SOL    HW2 7977   1.548   0.545   5.023
 2360SOL     OW 7978   6.707   4.077   0.097
 2360SOL    HW1 7979   6.729   4.002   0.159
 2360SOL    HW2 7980   6.774   4.079   0.022
 2361SOL     OW 7981   3.616   1.194   0.200
 2361SOL    HW1 7982   3.552   1.208   0.125
 2361SOL    HW2 7983   3.566   1.166   0.282
 2362SOL     OW 7984   2.710   6.079   3.168
 2362SOL    HW1 7985   2.646   6.152   3.191
 2362SOL    HW2 7986   2.705   6.007   3.237
 2363SOL     OW 7987   3.955   0.607   3.761
 2363SOL    HW1 7988   3.911   0.692   3.789
 2363SOL    HW2 7989   3.933   0.588   3.665
 2364SOL     OW 7990   1.401   2.680   1.363
 2364SOL    HW1 7991   1.458   2.599   1.360
 2364SOL    HW2 7992   1.415   2.727   1.451
 2365SOL     OW 7993   5.121   2.145   0.229
 2365SOL    HW1 7994   5.188   2.119   0.159
 2365SOL    HW2 7995   5.077   2.062   0.264
 2366SOL     OW 7996   4.370   5.520   0.791
 2366SOL    HW1 7997   4.378   5.425   0.822
 2366SOL    HW2 7998   4.286   5.531   0.738
 2367SOL     OW 7999   2.173   3.378   6.104
 2367SOL    HW1 8000   2.257   3.427   6.084
 2367SOL    HW2 8001   2.111   3.385   6.026
 2368SOL     OW 8002   5.825   6.257   1.860
 2368SOL    HW1 8003   5.806   6.216   1.771
 2368SOL    HW2 8004   5.906   6.214   1.900
 2369SOL     OW 8005   2.742   1.242   3.166
 2369SOL    HW1 8006   2.757   1.335   3.200
 2369SOL    HW2 8007   2.733   1.179   3.243
 2370SOL     OW 8008   5.476   2.693   6.134
 2370SOL    HW1 8009   5.502   2.597   6.140
 2370SOL    HW2 8010   5.558   2.750   6.141
 2371SOL     OW 8011   1.939   6.126   1.829
 2371SOL    HW1 8012   1.855   6.089   1.869
 2371SOL    HW2 8013   1.919   6.214   1.786
 2372SOL     OW 8014   6.324   2.898   2.684
 2372SOL    HW1 8015   6.248   2.937   2.736
 2372SOL    HW2 8016   6.403   2.959   2.688
 2373SOL     OW 8017   2.237   3.476   6.457
 2373SOL    HW1 8018   2.237   3.466   6.357
 2373SOL    HW2 8019   2.144   3.469   6.491
 2374SOL     OW 8020   5.356   2.711   4.742
 2374SOL    HW1 8021   5.377   2.671   4.831
 2374SOL    HW2 8022   5.420   2.677   4.673
 2375SOL     OW 8023   1.685   6.890   5.939
 2375SOL    HW1 8024   1.633   6.897   5.853
 2375SOL    HW2 8025   1.701   6.982   5.975
 2376SOL     OW 8026   6.832   2.703   4.351
 2376SOL    HW1 8027   6.926   2.726   4.327
 2376SOL    HW2 8028   6.797   2.634   4.286
 2377SOL     OW 8029   3.331   2.913   4.136
 2377SOL    HW1 8030   3.404   2.931   4.071
 2377SOL    HW2 8031   3.263   2.853   4.094
 2378SOL     OW 8032   5.351   2.448   0.925
 2378SOL    HW1 8033   5.364   2.362   0.974
 2378SOL    HW2 8034   5.258   2.452   0.888
 2379SOL     OW 8035   6.786   6.862   6.501
 2379SOL    HW1 8036   6.699   6.826   6.468
 2379SOL    HW2 8037   6.823   6.801   6.571
 2380SOL     OW 8038   6.409   2.042   2.687
 2380SOL    HW1 8039   6.503   2.039   2.721
 2380SOL    HW2 8040   6.345   2.038   2.764
 2381SOL     OW 8041   1.779   6.060   2.674
 2381SOL    HW1 8042   1.693   6.077   2.626
 2381SOL    HW2 8043   1.761   6.035   2.769
 2382SOL     OW 8044   1.395   3.306   5.829
 2382SOL    HW1 8045   1.330   3.231   5.822
 2382SOL    HW2 8046   1.443   3.301   5.917
 2383SOL     OW 8047   5.768   5.820   2.311
 2383SOL    HW1 8048   5.805   5.751   2.373
 2383SOL    HW2 8049   5.829   5.899   2.307
 2384SOL     OW 8050   4.159   1.044   1.567
 2384SOL    HW1 8051   4.146   0.962   1.511
 2384SOL    HW2 8052   4.207   1.114   1.514
 2385SOL     OW 8053   1.626   2.467   0.006
 2385SOL    HW1 8054   1.562   2.542   7.007
 2385SOL    HW2 8055   1.712   2.485   6.978
 2386SOL     OW 8056   4.447   4.941   3.971
 2386SOL    HW1 8057   4.476   4.900   4.058
 2386SOL    HW2 8058   4.515   4.920   3.901
 2387SOL     OW 8059   1.388   1.415   2.948
 2387SOL    HW1 8060   1.484   1.442   2.951
 2387SOL    HW2 8061   1.376   1.327   2.994
 2388SOL     OW 8062   0.118   1.764   4.160
 2388SOL    HW1 8063   0.213   1.760   4.127
 2388SOL    HW2 8064   0.118   1.755   4.260
 2389SOL     OW 8065   3.712   6.696   2.555
 2389SOL    HW1 8066   3.687   6.631   2.626
 2389SOL    HW2 8067   3.637   6.704   2.490
 2390SOL     OW 8068   3.102   4.534   1.292
 2390SOL    HW1 8069   3.115   4.631   1.268
 2390SOL    HW2 8070   3.005   4.517   1.308
 2391SOL     OW 8071   4.083   5.457   4.949
 2391SOL    HW1 8072   4.084   5.556   4.958
 2391SOL    HW2 8073   4.173   5.421   4.973
 2392SOL     OW 8074   3.873   1.382   6.945
 2392SOL    HW1 8075   3.920   1.295   6.929
 2392SOL    HW2 8076   3.860   1.395   0.024
 2393SOL     OW 8077   3.683   5.139   4.789
 2393SOL    HW1 8078   3.766   5.177   4.831
 2393SOL    HW2 8079   3.708   5.086   4.708
 2394SOL     OW 8080   6.983   4.634   5.687
 2394SOL    HW1 8081   0.059   4.664   5.687
 2394SOL    HW2 8082   6.932   4.685   5.617
 2395SOL     OW 8083   4.581   6.553   6.306
 2395SOL    HW1 8084   4.579   6.554   6.406
 2395SOL    HW2 8085   4.487   6.551   6.271
 2396SOL     OW 8086   2.937   5.307   0.775
 2396SOL    HW1 8087   2.850   5.317   0.823
 2396SOL    HW2 8088   3.013   5.307   0.840
 2397SOL     OW 8089   0.634   3.571   4.312
 2397SOL    HW1 8090   0.544   3.616   4.313
 2397SOL    HW2 8091   0.678   3.583   4.401
 2398SOL     OW 8092   4.787   3.747   5.345
 2398SOL    HW1 8093   4.767   3.837   5.306
 2398SOL    HW2 8094   4.778   3.678   5.273
 2399SOL     OW 8095   4.334   2.413   1.249
 2399SOL    HW1 8096   4.317   2.465   1.333
 2399SOL    HW2 8097   4.253   2.416   1.191
 2400SOL     OW 8098   1.857   5.076   0.088
 2400SOL    HW1 8099   1.821   5.162   0.051
 2400SOL    HW2 8100   1.782   5.023   0.128
 2401SOL     OW 8101   6.497   5.944   6.655
 2401SOL    HW1 8102   6.467   5.898   6.739
 2401SOL    HW2 8103   6.440   6.025   6.640
 2402SOL     OW 8104   6.877   6.653   4.116
 2402SOL    HW1 8105   6.870   6.558   4.146
 2402SOL    HW2 8106   6.790   6.684   4.080
 2403SOL     OW 8107   0.921   1.263   4.498
 2403SOL    HW1 8108   1.011   1.255   4.455
 2403SOL    HW2 8109   0.892   1.358   4.497
 2404SOL     OW 8110   1.326   0.407   0.269
 2404SOL    HW1 8111   1.278   0.351   0.201
 2404SOL    HW2 8112   1.303   0.376   0.361
 2405SOL     OW 8113   2.843   4.454   1.354
 2405SOL    HW1 8114   2.811   4.449   1.448
 2405SOL    HW2 8115   2.766   4.443   1.292
 2406SOL     OW 8116   4.986   1.073   1.216
 2406SOL    HW1 8117   4.991   1.010   1.293
 2406SOL    HW2 8118   4.891   1.102   1.203
 2407SOL     OW 8119   5.268   6.981   3.544
 2407SOL    HW1 8120   5.212   0.015   3.481
 2407SOL    HW2 8121   5.222   6.974   3.633
 2408SOL     OW 8122   4.379   4.905   2.229
 2408SOL    HW1 8123   4.369   4.846   2.309
 2408SOL    HW2 8124   4.474   4.933   2.219
 2409SOL     OW 8125   1.289   4.575   0.609
 2409SOL    HW1 8126   1.209   4.516   0.613
 2409SOL    HW2 8127   1.282   4.646   0.679
 2410SOL     OW 8128   3.609   2.979   2.704
 2410SOL    HW1 8129   3.662   2.967   2.789
 2410SOL    HW2 8130   3.668   2.959   2.626
 2411SOL     OW 8131   4.036   0.648   4.449
 2411SOL    HW1 8132   4.067   0.585   4.378
 2411SOL    HW2 8133   3.936   0.646   4.455
 2412SOL     OW 8134   4.086   3.627   1.211
 2412SOL    HW1 8135   4.117   3.667   1.125
 2412SOL    HW2 8136   4.160   3.631   1.278
 2413SOL     OW 8137   4.088   0.348   3.365
 2413SOL    HW1 8138   4.070   0.442   3.392
 2413SOL    HW2 8139   4.093   0.290   3.446
 2414SOL     OW 8140   5.316   2.990   4.275
 2414SOL    HW1 8141   5.266   2.911   4.311
 2414SOL    HW2 8142   5.253   3.051   4.228
 2415SOL     OW 8143   4.402   0.441   3.632
 2415SOL    HW1 8144   4.387   0.466   3.536
 2415SOL    HW2 8145   4.487   0.481   3.664
 2416SOL     OW 8146   5.585   1.721   6.581
 2416SOL    HW1 8147   5.553   1.785   6.651
 2416SOL    HW2 8148   5.617   1.772   6.501
 2417SOL     OW 8149   3.292   4.065   5.343
 2417SOL    HW1 8150   3.362   4.121   5.388
 2417SOL    HW2 8151   3.235   4.022   5.413
 2418SOL     OW 8152   2.984   3.231   2.527
 2418SOL    HW1 8153   3.078   3.264   2.527
 2418SOL    HW2 8154   2.941   3.251   2.439
 2419SOL     OW 8155   6.725   0.851   3.695
 2419SOL    HW1 8156   6.704   0.772   3.637
 2419SOL    HW2 8157   6.694   0.833   3.788
 2420SOL     OW 8158   2.274   0.076   1.887
 2420SOL    HW1 8159   2.252   0.171   1.908
 2420SOL    HW2 8160   2.343   0.072   1.815
 2421SOL     OW 8161   3.676   2.091   3.336
 2421SOL    HW1 8162   3.686   2.171   3.395
 2421SOL    HW2 8163   3.766   2.050   3.321
 2422SOL     OW 8164   5.258   1.585   1.144
 2422SOL    HW1 8165   5.305   1.520   1.204
 2422SOL    HW2 8166   5.325   1.632   1.087
 2423SOL     OW 8167   1.697   4.728   2.526
 2423SOL    HW1 8168   1.761   4.786   2.474
 2423SOL    HW2 8169   1.619   4.705   2.469
 2424SOL     OW 8170   6.637   0.124   0.419
 2424SOL    HW1 8171   6.576   0.084   0.351
 2424SOL    HW2 8172   6.680   0.052   0.473
 2425SOL     OW 8173   6.928   0.034   4.325
 2425SOL    HW1 8174   6.902   0.068   4.415
 2425SOL    HW2 8175   7.001   0.092   4.287
 2426SOL     OW 8176   2.112   5.291   4.467
 2426SOL    HW1 8177   2.131   5.194   4.454
 2426SOL    HW2 8178   2.126   5.340   4.381
 2427SOL     OW 8179   6.477   0.253   5.771
 2427SOL    HW1 8180   6.435   0.293   5.853
 2427SOL    HW2 8181   6.575   0.274   5.770
 2428SOL     OW 8182   5.467   1.573   0.344
 2428SOL    HW1 8183   5.527   1.637   0.392
 2428SOL    HW2 8184   5.514   1.486   0.331
 2429SOL     OW 8185   4.830   5.075   2.526
 2429SOL    HW1 8186   4.850   5.173   2.520
 2429SOL    HW2 8187   4.732   5.060   2.513
 2430SOL     OW 8188   4.352   0.052   2.779
 2430SOL    HW1 8189   4.260   0.091   2.772
 2430SOL    HW2 8190   4.401   0.095   2.856
 2431SOL     OW 8191   4.350   6.819   2.397
 2431SOL    HW1 8192   4.298   6.741   2.361
 2431SOL    HW2 8193   4.310   6.904   2.364
 2432SOL     OW 8194   2.285   5.818   2.184
 2432SOL    HW1 8195   2.350   5.742   2.189
 2432SOL    HW2 8196   2.227   5.818   2.266
 2433SOL     OW 8197   4.901   0.059   0.617
 2433SOL    HW1 8198   4.851   0.010   0.546
 2433SOL    HW2 8199   4.995   0.073   0.588
 2434SOL     OW 8200   3.276   2.961   4.385
 2434SOL    HW1 8201   3.298   2.962   4.288
 2434SOL    HW2 8202   3.339   2.901   4.433
 2435SOL     OW 8203   5.893   5.964   6.280
 2435SOL    HW1 8204   5.843   5.887   6.319
 2435SOL    HW2 8205   5.985   5.967   6.318
 2436SOL     OW 8206   2.880   4.549   0.618
 2436SOL    HW1 8207   2.860   4.645   0.635
 2436SOL    HW2 8208   2.846   4.493   0.693
 2437SOL     OW 8209   0.143   0.875   5.817
 2437SOL    HW1 8210   0.045   0.893   5.810
 2437SOL    HW2 8211   0.181   0.861   5.725
 2438SOL     OW 8212   3.623   3.462   0.663
 2438SOL    HW1 8213   3.557   3.386   0.657
 2438SOL    HW2 8214   3.574   3.548   0.652
 2439SOL     OW 8215   6.109   4.473   5.883
 2439SOL    HW1 8216   6.104   4.414   5.964
 2439SOL    HW2 8217   6.089   4.567   5.909
 2440SOL     OW 8218   6.145   5.265   5.771
 2440SOL    HW1 8219   6.083   5.256   5.693
 2440SOL    HW2 8220   6.240   5.263   5.740
 2441SOL     OW 8221   6.478   1.848   0.507
 2441SOL    HW1 8222   6.457   1.761   0.551
 2441SOL    HW2 8223   6.457   1.923   0.569
 2442SOL     OW 8224   6.585   2.157   4.210
 2442SOL    HW1 8225   6.512   2.128   4.272
 2442SOL    HW2 8226   6.579   2.107   4.124
 2443SOL     OW 8227   2.770   4.803   5.387
 2443SOL    HW1 8228   2.866   4.783   5.366
 2443SOL    HW2 8229   2.722   4.717   5.404
 2444SOL     OW 8230   3.803   2.189   5.841
 2444SOL    HW1 8231   3.733   2.189   5.913
 2444SOL    HW2 8232   3.888   2.224   5.878
 2445SOL     OW 8233   1.190   0.245   1.086
 2445SOL    HW1 8234   1.248   0.271   1.009
 2445SOL    HW2 8235   1.235   0.173   1.139
 2446SOL     OW 8236   4.800   3.001   6.600
 2446SOL    HW1 8237   4.768   3.045   6.684
 2446SOL    HW2 8238   4.803   3.068   6.526
 2447SOL     OW 8239   1.241   3.910   6.550
 2447SOL    HW1 8240   1.232   3.817   6.515
 2447SOL    HW2 8241   1.283   3.909   6.640
 2448SOL     OW 8242   6.549   0.784   4.909
 2448SOL    HW1 8243   6.609   0.715   4.869
 2448SOL    HW2 8244   6.506   0.747   4.991
 2449SOL     OW 8245   6.878   3.091   5.550
 2449SOL    HW1 8246   6.796   3.139   5.581
 2449SOL    HW2 8247   6.898   3.016   5.614
 2450SOL     OW 8248   2.288   3.291   1.444
 2450SOL    HW1 8249   2.263   3.388   1.453
 2450SOL    HW2 8250   2.263   3.243   1.528
 2451SOL     OW 8251   1.936   5.822   3.584
 2451SOL    HW1 8252   1.889   5.905   3.612
 2451SOL    HW2 8253   1.948   5.762   3.662
 2452SOL     OW 8254   2.581   2.018   4.777
 2452SOL    HW1 8255   2.657   2.062   4.729
 2452SOL    HW2 8256   2.573   1.923   4.747
 2453SOL     OW 8257   0.217   4.270   0.933
 2453SOL    HW1 8258   0.282   4.321   0.990
 2453SOL    HW2 8259   0.185   4.189   0.983
 2454SOL     OW 8260   0.992   6.663   2.342
 2454SOL    HW1 8261   1.031   6.572   2.330
 2454SOL    HW2 8262   0.932   6.684   2.265
 2455SOL     OW 8263   5.569   3.593   1.306
 2455SOL    HW1 8264   5.634   3.628   1.374
 2455SOL    HW2 8265   5.613   3.521   1.252
 2456SOL     OW 8266   2.719   6.601   1.548
 2456SOL    HW1 8267   2.668   6.555   1.621
 2456SOL    HW2 8268   2.789   6.660   1.589
 2457SOL     OW 8269   5.485   5.738   1.057
 2457SOL    HW1 8270   5.525   5.747   1.148
 2457SOL    HW2 8271   5.396   5.784   1.055
 2458SOL     OW 8272   0.543   6.406   1.659
 2458SOL    HW1 8273   0.465   6.408   1.722
 2458SOL    HW2 8274   0.589   6.318   1.666
 2459SOL     OW 8275   1.404   1.990   0.374
 2459SOL    HW1 8276   1.391   2.034   0.463
 2459SOL    HW2 8277   1.501   1.985   0.353
 2460SOL     OW 8278   2.223   4.435   0.927
 2460SOL    HW1 8279   2.246   4.485   1.011
 2460SOL    HW2 8280   2.224   4.498   0.849
 2461SOL     OW 8281   4.531   1.465   3.027
 2461SOL    HW1 8282   4.498   1.545   3.079
 2461SOL    HW2 8283   4.491   1.382   3.066
 2462SOL     OW 8284   3.116   4.132   6.089
 2462SOL    HW1 8285   3.095   4.216   6.039
 2462SOL    HW2 8286   3.139   4.060   6.024
 2463SOL     OW 8287   0.920   2.996   5.222
 2463SOL    HW1 8288   0.937   3.007   5.320
 2463SOL    HW2 8289   0.960   3.072   5.172
 2464SOL     OW 8290   1.387   3.645   0.635
 2464SOL    HW1 8291   1.444   3.651   0.717
 2464SOL    HW2 8292   1.407   3.723   0.575
 2465SOL     OW 8293   6.032   4.145   2.799
 2465SOL    HW1 8294   5.971   4.105   2.868
 2465SOL    HW2 8295   5.984   4.149   2.712
 2466SOL     OW 8296   3.854   1.597   1.582
 2466SOL    HW1 8297   3.903   1.522   1.538
 2466SOL    HW2 8298   3.916   1.645   1.644
 2467SOL     OW 8299   0.636   1.380   4.760
 2467SOL    HW1 8300   0.580   1.353   4.681
 2467SOL    HW2 8301   0.718   1.323   4.763
 2468SOL     OW 8302   6.361   5.347   6.342
 2468SOL    HW1 8303   6.443   5.343   6.285
 2468SOL    HW2 8304   6.385   5.379   6.434
 2469SOL     OW 8305   2.563   2.486   6.105
 2469SOL    HW1 8306   2.620   2.454   6.030
 2469SOL    HW2 8307   2.481   2.530   6.069
 2470SOL     OW 8308   5.365   2.890   1.216
 2470SOL    HW1 8309   5.449   2.926   1.175
 2470SOL    HW2 8310   5.369   2.790   1.217
 2471SOL     OW 8311   6.968   1.376   3.095
 2471SOL    HW1 8312   6.947   1.470   3.069
 2471SOL    HW2 8313   6.969   1.318   3.013
 2472SOL     OW 8314   6.457   0.832   3.862
 2472SOL    HW1 8315   6.480   0.744   3.903
 2472SOL    HW2 8316   6.466   0.905   3.930
 2473SOL     OW 8317   0.572   5.926   5.019
 2473SOL    HW1 8318   0.500   5.984   4.980
 2473SOL    HW2 8319   0.638   5.983   5.068
 2474SOL     OW 8320   5.980   6.758   4.724
 2474SOL    HW1 8321   6.001   6.740   4.820
 2474SOL    HW2 8322   6.059   6.735   4.667
 2475SOL     OW 8323   3.430   2.686   6.183
 2475SOL    HW1 8324   3.391   2.665   6.093
 2475SOL    HW2 8325   3.529   2.695   6.176
 2476SOL     OW 8326   0.847   1.328   3.342
 2476SOL    HW1 8327   0.762   1.361   3.302
 2476SOL    HW2 8328   0.827   1.248   3.400
 2477SOL     OW 8329   4.561   4.525   2.214
 2477SOL    HW1 8330   4.528   4.444   2.164
 2477SOL    HW2 8331   4.661   4.524   2.217
 2478SOL     OW 8332   6.656   0.543   2.596
 2478SOL    HW1 8333   6.608   0.554   2.682
 2478SOL    HW2 8334   6.594   0.562   2.520
 2479SOL     OW 8335   1.391   3.229   0.190
 2479SOL    HW1 8336   1.456   3.161   0.159
 2479SOL    HW2 8337   1.438   3.317   0.203
 2480SOL     OW 8338   6.541   4.748   1.448
 2480SOL    HW1 8339   6.631   4.705   1.458
 2480SOL    HW2 8340   6.539   4.834   1.497
 2481SOL     OW 8341   4.147   4.720   2.542
 2481SOL    HW1 8342   4.207   4.675   2.475
 2481SOL    HW2 8343   4.072   4.766   2.494
 2482SOL     OW 8344   4.243   2.334   4.489
 2482SOL    HW1 8345   4.311   2.355   4.560
 2482SOL    HW2 8346   4.201   2.246   4.508
 2483SOL     OW 8347   1.088   3.557   0.251
 2483SOL    HW1 8348   1.173   3.546   0.303
 2483SOL    HW2 8349   1.070   3.654   0.237
 2484SOL     OW 8350   3.375   4.476   6.007
 2484SOL    HW1 8351   3.345   4.561   5.965
 2484SOL    HW2 8352   3.413   4.495   6.098
 2485SOL     OW 8353   0.753   5.130   6.924
 2485SOL    HW1 8354   0.721   5.124   7.019
 2485SOL    HW2 8355   0.713   5.055   6.872
 2486SOL     OW 8356   0.817   4.771   3.605
 2486SOL    HW1 8357   0.895   4.807   3.554
 2486SOL    HW2 8358   0.833   4.783   3.703
 2487SOL     OW 8359   2.908   1.428   0.989
 2487SOL    HW1 8360   2.840   1.448   0.918
 2487SOL    HW2 8361   2.902   1.497   1.061
 2488SOL     OW 8362   2.749   5.612   6.811
 2488SOL    HW1 8363   2.720   5.687   6.752
 2488SOL    HW2 8364   2.719   5.629   6.905
 2489SOL     OW 8365   6.725   5.545   4.553
 2489SOL    HW1 8366   6.632   5.582   4.541
 2489SOL    HW2 8367   6.789   5.621   4.568
 2490SOL     OW 8368   5.655   2.470   1.163
 2490SOL    HW1 8369   5.709   2.536   1.216
 2490SOL    HW2 8370   5.624   2.514   1.078
 2491SOL     OW 8371   6.423   4.044   2.629
 2491SOL    HW1 8372   6.347   4.077   2.573
 2491SOL    HW2 8373   6.399   4.050   2.726
 2492SOL     OW 8374   3.626   1.972   6.825
 2492SOL    HW1 8375   3.725   1.966   6.815
 2492SOL    HW2 8376   3.592   1.893   6.876
 2493SOL     OW 8377   6.794   0.699   5.637
 2493SOL    HW1 8378   6.784   0.642   5.719
 2493SOL    HW2 8379   6.719   0.765   5.633
 2494SOL     OW 8380   5.331   5.181   0.637
 2494SOL    HW1 8381   5.269   5.158   0.712
 2494SOL    HW2 8382   5.298   5.263   0.591
 2495SOL     OW 8383   6.734   1.131   2.421
 2495SOL    HW1 8384   6.651   1.078   2.406
 2495SOL    HW2 8385   6.749   1.142   2.519
 2496SOL     OW 8386   1.878   4.696   0.388
 2496SOL    HW1 8387   1.875   4.661   0.482
 2496SOL    HW2 8388   1.960   4.750   0.375
 2497SOL     OW 8389   6.056   1.136   6.522
 2497SOL    HW1 8390   6.102   1.220   6.493
 2497SOL    HW2 8391   5.993   1.106   6.450
 2498SOL     OW 8392   1.038   3.153   4.385
 2498SOL    HW1 8393   0.998   3.229   4.333
 2498SOL    HW2 8394   0.973   3.077   4.389
 2499SOL     OW 8395   5.213   0.632   6.855
 2499SOL    HW1 8396   5.145   0.610   6.784
 2499SOL    HW2 8397   5.166   0.663   6.937
 2500SOL     OW 8398   5.079   3.093   5.751
 2500SOL    HW1 8399   5.024   3.176   5.761
 2500SOL    HW2 8400   5.171   3.109   5.787
 2501SOL     OW 8401   6.550   5.038   0.895
 2501SOL    HW1 8402   6.605   5.006   0.818
 2501SOL    HW2 8403   6.514   4.960   0.945
 2502SOL     OW 8404   1.334   6.678   3.188
 2502SOL    HW1 8405   1.315   6.589   3.229
 2502SOL    HW2 8406   1.271   6.746   3.227
 2503SOL     OW 8407   5.436   6.392   3.947
 2503SOL    HW1 8408   5.479   6.482   3.941
 2503SOL    HW2 8409   5.501   6.321   3.918
 2504SOL     OW 8410   2.467   4.898   3.161
 2504SOL    HW1 8411   2.399   4.944   3.104
 2504SOL    HW2 8412   2.444   4.911   3.257
 2505SOL     OW 8413   5.270   3.956   4.288
 2505SOL    HW1 8414   5.227   3.873   4.325
 2505SOL    HW2 8415   5.369   3.946   4.290
 2506SOL     OW 8416   1.093   1.361   0.356
 2506SOL    HW1 8417   1.079   1.452   0.396
 2506SOL    HW2 8418   1.066   1.362   0.260
 2507SOL     OW 8419   6.970   5.928   0.573
 2507SOL    HW1 8420   6.905   5.961   0.505
 2507SOL    HW2 8421   0.002   5.850   0.536
 2508SOL     OW 8422   1.734   1.822   1.492
 2508SOL    HW1 8423   1.714   1.868   1.405
 2508SOL    HW2 8424   1.693   1.731   1.491
 2509SOL     OW 8425   5.865   6.645   3.878
 2509SOL    HW1 8426   5.941   6.699   3.843
 2509SOL    HW2 8427   5.897   6.552   3.897
 2510SOL     OW 8428   3.559   5.695   2.697
 2510SOL    HW1 8429   3.484   5.740   2.744
 2510SOL    HW2 8430   3.613   5.763   2.647
 2511SOL     OW 8431   0.787   5.294   4.367
 2511SOL    HW1 8432   0.707   5.294   4.307
 2511SOL    HW2 8433   0.781   5.370   4.431
 2512SOL     OW 8434   6.356   3.125   4.537
 2512SOL    HW1 8435   6.363   3.082   4.447
 2512SOL    HW2 8436   6.349   3.224   4.526
 2513SOL     OW 8437   0.252   5.121   1.163
 2513SOL    HW1 8438   0.262   5.179   1.244
 2513SOL    HW2 8439   0.336   5.125   1.108
 2514SOL     OW 8440   0.089   2.038   4.525
 2514SOL    HW1 8441   0.019   2.109   4.531
 2514SOL    HW2 8442   0.145   2.054   4.444
 2515SOL     OW 8443   0.742   4.805   6.096
 2515SOL    HW1 8444   0.764   4.720   6.048
 2515SOL    HW2 8445   0.826   4.857   6.113
 2516SOL     OW 8446   4.180   6.789   4.743
 2516SOL    HW1 8447   4.208   6.741   4.659
 2516SOL    HW2 8448   4.146   6.723   4.809
 2517SOL     OW 8449   2.735   5.683   0.545
 2517SOL    HW1 8450   2.783   5.659   0.629
 2517SOL    HW2 8451   2.786   5.755   0.497
 2518SOL     OW 8452   1.837   2.090   0.105
 2518SOL    HW1 8453   1.897   2.094   0.024
 2518SOL    HW2 8454   1.890   2.058   0.183
 2519SOL     OW 8455   6.196   4.260   4.564
 2519SOL    HW1 8456   6.212   4.161   4.561
 2519SOL    HW2 8457   6.282   4.308   4.549
 2520SOL     OW 8458   4.185   5.861   0.784
 2520SOL    HW1 8459   4.149   5.949   0.815
 2520SOL    HW2 8460   4.235   5.818   0.859
 2521SOL     OW 8461   5.751   6.576   5.656
 2521SOL    HW1 8462   5.691   6.591   5.578
 2521SOL    HW2 8463   5.696   6.571   5.740
 2522SOL     OW 8464   2.711   5.209   5.238
 2522SOL    HW1 8465   2.784   5.179   5.177
 2522SOL    HW2 8466   2.735   5.188   5.333
 2523SOL     OW 8467   0.748   2.098   6.857
 2523SOL    HW1 8468   0.800   2.078   6.774
 2523SOL    HW2 8469   0.767   2.028   6.926
 2524SOL     OW 8470   1.630   0.091   4.354
 2524SOL    HW1 8471   1.687   0.071   4.274
 2524SOL    HW2 8472   1.666   0.172   4.400
 2525SOL     OW 8473   2.883   4.732   2.243
 2525SOL    HW1 8474   2.882   4.632   2.240
 2525SOL    HW2 8475   2.822   4.769   2.174
 2526SOL     OW 8476   1.582   2.981   4.381
 2526SOL    HW1 8477   1.613   2.937   4.465
 2526SOL    HW2 8478   1.483   2.995   4.386
 2527SOL     OW 8479   6.979   6.781   3.877
 2527SOL    HW1 8480   6.974   6.726   3.961
 2527SOL    HW2 8481   6.956   6.724   3.798
 2528SOL     OW 8482   5.288   5.263   1.289
 2528SOL    HW1 8483   5.347   5.246   1.368
 2528SOL    HW2 8484   5.329   5.333   1.231
 2529SOL     OW 8485   5.270   4.817   4.737
 2529SOL    HW1 8486   5.241   4.912   4.727
 2529SOL    HW2 8487   5.341   4.811   4.807
 2530SOL     OW 8488   1.019   6.484   3.463
 2530SOL    HW1 8489   0.972   6.412   3.514
 2530SOL    HW2 8490   1.034   6.453   3.369
 2531SOL     OW 8491   5.495   2.425   6.132
 2531SOL    HW1 8492   5.488   2.393   6.037
 2531SOL    HW2 8493   5.481   2.348   6.194
 2532SOL     OW 8494   0.567   5.496   6.502
 2532SOL    HW1 8495   0.619   5.411   6.509
 2532SOL    HW2 8496   0.609   5.565   6.561
 2533SOL     OW 8497   5.483   1.016   4.437
 2533SOL    HW1 8498   5.517   0.934   4.483
 2533SOL    HW2 8499   5.383   1.021   4.446
 2534SOL     OW 8500   6.512   1.520   2.828
 2534SOL    HW1 8501   6.462   1.575   2.894
 2534SOL    HW2 8502   6.465   1.433   2.814
 2535SOL     OW 8503   3.207   1.088   1.814
 2535SOL    HW1 8504   3.120   1.081   1.862
 2535SOL    HW2 8505   3.240   1.183   1.818
 2536SOL     OW 8506   0.836   0.308   3.208
 2536SOL    HW1 8507   0.922   0.342   3.246
 2536SOL    HW2 8508   0.760   0.361   3.246
 2537SOL     OW 8509   1.978   6.346   2.103
 2537SOL    HW1 8510   2.037   6.310   2.031
 2537SOL    HW2 8511   2.031   6.406   2.163
 2538SOL     OW 8512   6.622   5.730   5.238
 2538SOL    HW1 8513   6.667   5.742   5.150
 2538SOL    HW2 8514   6.551   5.800   5.249
 2539SOL     OW 8515   1.099   0.153   5.331
 2539SOL    HW1 8516   1.180   0.168   5.388
 2539SOL    HW2 8517   1.019   0.138   5.390
 2540SOL     OW 8518   5.218   2.619   1.956
 2540SOL    HW1 8519   5.184   2.529   1.983
 2540SOL    HW2 8520   5.220   2.626   1.856
 2541SOL     OW 8521   1.530   0.843   0.317
 2541SOL    HW1 8522   1.497   0.937   0.318
 2541SOL    HW2 8523   1.586   0.829   0.236
 2542SOL     OW 8524   4.211   1.841   2.539
 2542SOL    HW1 8525   4.208   1.758   2.483
 2542SOL    HW2 8526   4.229   1.816   2.634
 2543SOL     OW 8527   5.923   6.274   5.101
 2543SOL    HW1 8528   5.844   6.226   5.140
 2543SOL    HW2 8529   5.987   6.299   5.173
 2544SOL     OW 8530   0.161   0.235   0.092
 2544SOL    HW1 8531   0.260   0.225   0.081
 2544SOL    HW2 8532   0.143   0.308   0.157
 2545SOL     OW 8533   0.204   1.739   0.487
 2545SOL    HW1 8534   0.166   1.830   0.507
 2545SOL    HW2 8535   0.241   1.739   0.394
 2546SOL     OW 8536   5.883   3.480   2.792
 2546SOL    HW1 8537   5.801   3.484   2.849
 2546SOL    HW2 8538   5.959   3.442   2.846
 2547SOL     OW 8539   5.770   4.027   1.058
 2547SOL    HW1 8540   5.738   4.121   1.058
 2547SOL    HW2 8541   5.846   4.017   0.993
 2548SOL     OW 8542   6.287   0.429   5.222
 2548SOL    HW1 8543   6.342   0.428   5.305
 2548SOL    HW2 8544   6.214   0.361   5.229
 2549SOL     OW 8545   2.505   4.434   6.881
 2549SOL    HW1 8546   2.595   4.429   6.924
 2549SOL    HW2 8547   2.492   4.525   6.841
 2550SOL     OW 8548   3.840   0.972   0.925
 2550SOL    HW1 8549   3.841   0.902   0.996
 2550SOL    HW2 8550   3.873   1.059   0.962
 2551SOL     OW 8551   2.979   4.641   0.907
 2551SOL    HW1 8552   2.955   4.563   0.964
 2551SOL    HW2 8553   2.898   4.672   0.857
 2552SOL     OW 8554   2.771   5.733   1.170
 2552SOL    HW1 8555   2.852   5.684   1.139
 2552SOL    HW2 8556   2.689   5.692   1.129
 2553SOL     OW 8557   4.304   1.780   1.408
 2553SOL    HW1 8558   4.390   1.771   1.358
 2553SOL    HW2 8559   4.239   1.712   1.375
 2554SOL     OW 8560   1.303   6.329   0.975
 2554SOL    HW1 8561   1.258   6.311   1.063
 2554SOL    HW2 8562   1.364   6.253   0.953
 2555SOL     OW 8563   0.569   6.398   4.490
 2555SOL    HW1 8564   0.521   6.311   4.498
 2555SOL    HW2 8565   0.575   6.442   4.580
 2556SOL     OW 8566   5.839   0.539   1.012
 2556SOL    HW1 8567   5.831   0.638   1.006
 2556SOL    HW2 8568   5.776   0.496   0.948
 2557SOL     OW 8569   2.601   1.370   0.109
 2557SOL    HW1 8570   2.582   1.286   0.160
 2557SOL    HW2 8571   2.697   1.373   0.084
 2558SOL     OW 8572   5.774   2.665   1.282
 2558SOL    HW1 8573   5.867   2.657   1.319
 2558SOL    HW2 8574   5.715   2.709   1.349
 2559SOL     OW 8575   6.543   5.647   3.638
 2559SOL    HW1 8576   6.615   5.688   3.693
 2559SOL    HW2 8577   6.547   5.547   3.646
 2560SOL     OW 8578   4.274   2.616   1.459
 2560SOL    HW1 8579   4.304   2.660   1.544
 2560SOL    HW2 8580   4.239   2.685   1.397
 2561SOL     OW 8581   3.738   0.689   4.747
 2561SOL    HW1 8582   3.711   0.785   4.760
 2561SOL    HW2 8583   3.727   0.640   4.833
 2562SOL     OW 8584   1.945   6.562   4.922
 2562SOL    HW1 8585   1.906   6.476   4.888
 2562SOL    HW2 8586   1.948   6.560   5.022
 2563SOL     OW 8587   4.532   2.552   0.078
 2563SOL    HW1 8588   4.448   2.600   0.055
 2563SOL    HW2 8589   4.517   2.494   0.158
 2564SOL     OW 8590   1.684   1.198   1.507
 2564SOL    HW1 8591   1.595   1.236   1.530
 2564SOL    HW2 8592   1.721   1.148   1.586
 2565SOL     OW 8593   0.005   0.228   0.680
 2565SOL    HW1 8594   0.021   0.282   0.762
 2565SOL    HW2 8595   6.979   0.143   0.704
 2566SOL     OW 8596   2.644   1.006   0.478
 2566SOL    HW1 8597   2.570   0.974   0.538
 2566SOL    HW2 8598   2.722   0.945   0.486
 2567SOL     OW 8599   2.072   1.133   5.958
 2567SOL    HW1 8600   2.067   1.210   6.023
 2567SOL    HW2 8601   1.980   1.103   5.935
 2568SOL     OW 8602   3.138   6.313   0.392
 2568SOL    HW1 8603   3.053   6.319   0.339
 2568SOL    HW2 8604   3.150   6.395   0.447
 2569SOL     OW 8605   2.761   6.517   6.776
 2569SOL    HW1 8606   2.771   6.588   6.707
 2569SOL    HW2 8607   2.673   6.529   6.823
 2570SOL     OW 8608   6.903   0.108   3.456
 2570SOL    HW1 8609   6.912   0.170   3.535
 2570SOL    HW2 8610   6.873   0.018   3.488
 2571SOL     OW 8611   3.713   3.486   2.439
 2571SOL    HW1 8612   3.776   3.489   2.362
 2571SOL    HW2 8613   3.635   3.547   2.421
 2572SOL     OW 8614   3.135   6.292   2.202
 2572SOL    HW1 8615   3.066   6.291   2.130
 2572SOL    HW2 8616   3.214   6.345   2.172
 2573SOL     OW 8617   6.090   0.677   2.755
 2573SOL    HW1 8618   6.128   0.613   2.822
 2573SOL    HW2 8619   6.078   0.767   2.797
 2574SOL     OW 8620   0.246   4.358   2.098
 2574SOL    HW1 8621   0.259   4.326   2.192
 2574SOL    HW2 8622   0.191   4.441   2.098
 2575SOL     OW 8623   4.555   3.428   5.347
 2575SOL    HW1 8624   4.614   3.494   5.301
 2575SOL    HW2 8625   4.611   3.370   5.407
 2576SOL     OW 8626   0.056   0.527   3.107
 2576SOL    HW1 8627   0.047   0.477   3.021
 2576SOL    HW2 8628   6.987   0.526   3.155
 2577SOL     OW 8629   1.614   4.788   0.800
 2577SOL    HW1 8630   1.711   4.803   0.816
 2577SOL    HW2 8631   1.586   4.837   0.717
 2578SOL     OW 8632   4.510   1.796   4.996
 2578SOL    HW1 8633   4.563   1.755   5.070
 2578SOL    HW2 8634   4.431   1.738   4.976
 2579SOL     OW 8635   6.895   1.888   6.389
 2579SOL    HW1 8636   6.817   1.923   6.441
 2579SOL    HW2 8637   6.967   1.861   6.453
 2580SOL     OW 8638   1.330   2.204   5.533
 2580SOL    HW1 8639   1.248   2.198   5.477
 2580SOL    HW2 8640   1.315   2.269   5.608
 2581SOL     OW 8641   4.638   6.215   4.262
 2581SOL    HW1 8642   4.565   6.258   4.208
 2581SOL    HW2 8643   4.597   6.148   4.324
 2582SOL     OW 8644   6.682   4.251   2.966
 2582SOL    HW1 8645   6.646   4.264   3.059
 2582SOL    HW2 8646   6.657   4.330   2.909
 2583SOL     OW 8647   2.671   0.991   0.170
 2583SOL    HW1 8648   2.613   1.050   0.227
 2583SOL    HW2 8649   2.642   0.896   0.180
 2584SOL     OW 8650   3.632   0.040   3.121
 2584SOL    HW1 8651   3.604   7.009   3.203
 2584SOL    HW2 8652   3.584   0.128   3.118
 2585SOL     OW 8653   3.888   0.873   2.708
 2585SOL    HW1 8654   3.974   0.823   2.720
 2585SOL    HW2 8655   3.862   0.872   2.612
 2586SOL     OW 8656   0.933   2.022   4.087
 2586SOL    HW1 8657   1.018   2.032   4.139
 2586SOL    HW2 8658   0.856   2.044   4.146
 2587SOL     OW 8659   6.231   4.286   3.508
 2587SOL    HW1 8660   6.166   4.322   3.575
 2587SOL    HW2 8661   6.195   4.300   3.416
 2588SOL     OW 8662   3.435   6.867   2.825
 2588SOL    HW1 8663   3.503   6.940   2.820
 2588SOL    HW2 8664   3.358   6.889   2.766
 2589SOL     OW 8665   4.228   6.631   1.957
 2589SOL    HW1 8666   4.230   6.550   1.898
 2589SOL    HW2 8667   4.321   6.658   1.981
 2590SOL     OW 8668   4.403   6.084   4.021
 2590SOL    HW1 8669   4.314   6.130   4.020
 2590SOL    HW2 8670   4.475   6.152   4.010
 2591SOL     OW 8671   6.119   0.648   1.027
 2591SOL    HW1 8672   6.038   0.612   0.981
 2591SOL    HW2 8673   6.092   0.685   1.116
 2592SOL     OW 8674   2.925   4.821   1.774
 2592SOL    HW1 8675   2.869   4.740   1.756
 2592SOL    HW2 8676   2.949   4.865   1.688
 2593SOL     OW 8677   2.407   0.132   4.212
 2593SOL    HW1 8678   2.399   0.136   4.312
 2593SOL    HW2 8679   2.487   0.078   4.187
 2594SOL     OW 8680   2.282   5.799   5.853
 2594SOL    HW1 8681   2.250   5.730   5.789
 2594SOL    HW2 8682   2.218   5.807   5.930
 2595SOL     OW 8683   6.722   3.035   4.945
 2595SOL    HW1 8684   6.810   2.994   4.967
 2595SOL    HW2 8685   6.715   3.048   4.846
 2596SOL     OW 8686   4.909   1.360   0.613
 2596SOL    HW1 8687   4.910   1.409   0.700
 2596SOL    HW2 8688   4.886   1.264   0.629
 2597SOL     OW 8689   2.283   2.324   6.421
 2597SOL    HW1 8690   2.272   2.230   6.453
 2597SOL    HW2 8691   2.192   2.366   6.411
 2598SOL     OW 8692   6.255   1.003   3.044
 2598SOL    HW1 8693   6.341   1.007   2.994
 2598SOL    HW2 8694   6.181   1.038   2.987
 2599SOL     OW 8695   5.005   5.544   6.354
 2599SOL    HW1 8696   5.100   5.571   6.333
 2599SOL    HW2 8697   4.945   5.572   6.279
 2600SOL     OW 8698   0.195   2.651   4.410
 2600SOL    HW1 8699   0.170   2.747   4.425
 2600SOL    HW2 8700   0.293   2.643   4.397
 2601SOL     OW 8701   4.194   4.581   5.394
 2601SOL    HW1 8702   4.235   4.533   5.316
 2601SOL    HW2 8703   4.214   4.531   5.478
 2602SOL     OW 8704   5.975   6.444   6.882
 2602SOL    HW1 8705   6.014   6.370   6.938
 2602SOL    HW2 8706   6.031   6.457   6.801
 2603SOL     OW 8707   1.608   1.856   0.151
 2603SOL    HW1 8708   1.618   1.934   0.090
 2603SOL    HW2 8709   1.648   1.775   0.108
 2604SOL     OW 8710   5.841   1.514   0.677
 2604SOL    HW1 8711   5.775   1.507   0.752
 2604SOL    HW2 8712   5.932   1.529   0.715
 2605SOL     OW 8713   5.577   2.392   5.203
 2605SOL    HW1 8714   5.526   2.379   5.118
 2605SOL    HW2 8715   5.555   2.482   5.241
 2606SOL     OW 8716   6.261   4.382   1.549
 2606SOL    HW1 8717   6.315   4.329   1.614
 2606SOL    HW2 8718   6.178   4.332   1.526
 2607SOL     OW 8719   0.553   1.061   3.421
 2607SOL    HW1 8720   0.519   1.112   3.500
 2607SOL    HW2 8721   0.542   1.116   3.338
 2608SOL     OW 8722   4.383   0.712   0.170
 2608SOL    HW1 8723   4.344   0.771   0.240
 2608SOL    HW2 8724   4.474   0.682   0.198
 2609SOL     OW 8725   0.732   4.103   3.681
 2609SOL    HW1 8726   0.767   4.189   3.643
 2609SOL    HW2 8727   0.803   4.060   3.737
 2610SOL     OW 8728   5.418   5.520   4.869
 2610SOL    HW1 8729   5.345   5.585   4.889
 2610SOL    HW2 8730   5.456   5.485   4.954
 2611SOL     OW 8731   2.607   6.291   2.030
 2611SOL    HW1 8732   2.515   6.279   2.068
 2611SOL    HW2 8733   2.618   6.230   1.951
 2612SOL     OW 8734   0.994   6.876   4.502
 2612SOL    HW1 8735   1.065   6.814   4.470
 2612SOL    HW2 8736   1.035   6.950   4.556
 2613SOL     OW 8737   4.264   1.549   0.118
 2613SOL    HW1 8738   4.331   1.599   0.063
 2613SOL    HW2 8739   4.252   1.595   0.206
 2614SOL     OW 8740   6.607   6.341   6.411
 2614SOL    HW1 8741   6.618   6.413   6.479
 2614SOL    HW2 8742   6.566   6.379   6.328
 2615SOL     OW 8743   6.971   3.764   1.439
 2615SOL    HW1 8744   0.039   3.726   1.469
 2615SOL    HW2 8745   6.951   3.847   1.490
 2616SOL     OW 8746   3.612   3.921   1.848
 2616SOL    HW1 8747   3.552   3.959   1.919
 2616SOL    HW2 8748   3.556   3.870   1.782
 2617SOL     OW 8749   2.862   6.446   1.359
 2617SOL    HW1 8750   2.786   6.492   1.405
 2617SOL    HW2 8751   2.944   6.504   1.363
 2618SOL     OW 8752   1.087   5.994   0.270
 2618SOL    HW1 8753   0.991   5.969   0.268
 2618SOL    HW2 8754   1.119   6.009   0.177
 2619SOL     OW 8755   6.411   0.981   2.005
 2619SOL    HW1 8756   6.315   0.958   1.991
 2619SOL    HW2 8757   6.460   0.899   2.036
 2620SOL     OW 8758   1.847   5.388   4.172
 2620SOL    HW1 8759   1.893   5.300   4.183
 2620SOL    HW2 8760   1.764   5.376   4.119
 2621SOL     OW 8761   1.760   5.747   4.042
 2621SOL    HW1 8762   1.829   5.675   4.045
 2621SOL    HW2 8763   1.716   5.748   3.952
 2622SOL     OW 8764   2.522   2.582   4.313
 2622SOL    HW1 8765   2.597   2.525   4.279
 2622SOL    HW2 8766   2.484   2.636   4.237
 2623SOL     OW 8767   2.839   6.774   5.852
 2623SOL    HW1 8768   2.800   6.775   5.944
 2623SOL    HW2 8769   2.939   6.779   5.858
 2624SOL     OW 8770   5.062   1.946   4.865
 2624SOL    HW1 8771   5.000   1.995   4.804
 2624SOL    HW2 8772   5.089   1.859   4.823
 2625SOL     OW 8773   2.350   6.937   6.342
 2625SOL    HW1 8774   2.327   6.990   6.261
 2625SOL    HW2 8775   2.334   6.992   6.424
 2626SOL     OW 8776   2.437   6.736   3.189
 2626SOL    HW1 8777   2.506   6.792   3.234
 2626SOL    HW2 8778   2.380   6.691   3.258
 2627SOL     OW 8779   0.534   0.397   4.975
 2627SOL    HW1 8780   0.448   0.402   4.924
 2627SOL    HW2 8781   0.590   0.322   4.938
 2628SOL     OW 8782   5.003   5.323   0.117
 2628SOL    HW1 8783   4.911   5.359   0.126
 2628SOL    HW2 8784   4.999   5.224   0.102
 2629SOL     OW 8785   2.753   3.631   1.764
 2629SOL    HW1 8786   2.711   3.540   1.767
 2629SOL    HW2 8787   2.851   3.622   1.750
 2630SOL     OW 8788   3.560   1.992   2.035
 2630SOL    HW1 8789   3.619   1.919   1.999
 2630SOL    HW2 8790   3.597   2.081   2.009
 2631SOL     OW 8791   3.158   6.527   4.461
 2631SOL    HW1 8792   3.213   6.548   4.380
 2631SOL    HW2 8793   3.092   6.599   4.476
 2632SOL     OW 8794   5.039   1.435   1.054
 2632SOL    HW1 8795   5.124   1.481   1.079
 2632SOL    HW2 8796   4.977   1.434   1.132
 2633SOL     OW 8797   7.001   2.419   0.216
 2633SOL    HW1 8798   6.908   2.381   0.212
 2633SOL    HW2 8799   0.010   2.448   0.125
 2634SOL     OW 8800   2.583   5.014   0.079
 2634SOL    HW1 8801   2.665   5.041   0.028
 2634SOL    HW2 8802   2.502   5.036   0.025
 2635SOL     OW 8803   6.694   4.167   3.704
 2635SOL    HW1 8804   6.618   4.180   3.768
 2635SOL    HW2 8805   6.661   4.172   3.610
 2636SOL     OW 8806   5.440   5.060   5.384
 2636SOL    HW1 8807   5.486   5.003   5.452
 2636SOL    HW2 8808   5.476   5.153   5.389
 2637SOL     OW 8809   5.332   5.531   2.179
 2637SOL    HW1 8810   5.350   5.493   2.089
 2637SOL    HW2 8811   5.343   5.630   2.177
 2638SOL     OW 8812   5.133   5.714   0.105
 2638SOL    HW1 8813   5.230   5.738   0.096
 2638SOL    HW2 8814   5.115   5.682   0.197
 2639SOL     OW 8815   6.873   0.497   0.053
 2639SOL    HW1 8816   6.862   0.406   0.092
 2639SOL    HW2 8817   6.916   0.557   0.119
 2640SOL     OW 8818   6.539   5.973   0.477
 2640SOL    HW1 8819   6.638   5.961   0.472
 2640SOL    HW2 8820   6.500   5.966   0.385
 2641SOL     OW 8821   6.997   5.511   1.325
 2641SOL    HW1 8822   7.012   5.568   1.245
 2641SOL    HW2 8823   6.909   5.464   1.317
 2642SOL     OW 8824   6.376   0.193   4.454
 2642SOL    HW1 8825   6.304   0.235   4.398
 2642SOL    HW2 8826   6.419   0.119   4.403
 2643SOL     OW 8827   1.809   0.571   2.283
 2643SOL    HW1 8828   1.791   0.649   2.344
 2643SOL    HW2 8829   1.904   0.576   2.252
 2644SOL     OW 8830   6.070   6.294   4.640
 2644SOL    HW1 8831   6.092   6.336   4.552
 2644SOL    HW2 8832   5.972   6.275   4.644
 2645SOL     OW 8833   5.119   5.772   6.746
 2645SOL    HW1 8834   5.169   5.848   6.787
 2645SOL    HW2 8835   5.147   5.687   6.789
 2646SOL     OW 8836   5.374   5.776   5.592
 2646SOL    HW1 8837   5.288   5.726   5.584
 2646SOL    HW2 8838   5.369   5.841   5.667
 2647SOL     OW 8839   3.461   4.342   0.349
 2647SOL    HW1 8840   3.442   4.297   0.262
 2647SOL    HW2 8841   3.376   4.357   0.399
 2648SOL     OW 8842   4.301   1.390   3.425
 2648SOL    HW1 8843   4.228   1.437   3.377
 2648SOL    HW2 8844   4.277   1.382   3.522
 2649SOL     OW 8845   2.937   3.962   5.072
 2649SOL    HW1 8846   2.860   3.979   5.134
 2649SOL    HW2 8847   2.915   3.887   5.010
 2650SOL     OW 8848   0.405   6.709   2.614
 2650SOL    HW1 8849   0.502   6.702   2.637
 2650SOL    HW2 8850   0.350   6.687   2.695
 2651SOL     OW 8851   1.517   0.201   2.925
 2651SOL    HW1 8852   1.566   0.118   2.951
 2651SOL    HW2 8853   1.434   0.176   2.875
 2652SOL     OW 8854   3.294   2.897   2.063
 2652SOL    HW1 8855   3.230   2.868   2.134
 2652SOL    HW2 8856   3.244   2.911   1.978
 2653SOL     OW 8857   6.178   6.676   1.183
 2653SOL    HW1 8858   6.081   6.653   1.183
 2653SOL    HW2 8859   6.191   6.767   1.222
 2654SOL     OW 8860   6.790   3.010   5.863
 2654SOL    HW1 8861   6.744   2.962   5.789
 2654SOL    HW2 8862   6.771   3.108   5.857
 2655SOL     OW 8863   5.738   4.975   4.249
 2655SOL    HW1 8864   5.699   4.888   4.278
 2655SOL    HW2 8865   5.771   5.025   4.329
 2656SOL     OW 8866   5.862   3.362   5.342
 2656SOL    HW1 8867   5.952   3.328   5.370
 2656SOL    HW2 8868   5.866   3.462   5.335
 2657SOL     OW 8869   3.998   2.128   5.524
 2657SOL    HW1 8870   3.979   2.154   5.619
 2657SOL    HW2 8871   3.922   2.156   5.466
 2658SOL     OW 8872   6.666   3.863   5.314
 2658SOL    HW1 8873   6.620   3.862   5.225
 2658SOL    HW2 8874   6.610   3.813   5.381
 2659SOL     OW 8875   6.535   1.252   3.884
 2659SOL    HW1 8876   6.567   1.333   3.836
 2659SOL    HW2 8877   6.470   1.279   3.956
 2660SOL     OW 8878   1.111   2.108   3.693
 2660SOL    HW1 8879   1.126   2.105   3.792
 2660SOL    HW2 8880   1.170   2.041   3.648
 2661SOL     OW 8881   3.573   6.948   3.575
 2661SOL    HW1 8882   3.482   6.931   3.615
 2661SOL    HW2 8883   3.585   6.889   3.495
 2662SOL     OW 8884   3.794   0.801   3.906
 2662SOL    HW1 8885   3.829   0.889   3.938
 2662SOL    HW2 8886   3.845   0.727   3.950
 2663SOL     OW 8887   0.812   3.815   3.030
 2663SOL    HW1 8888   0.842   3.724   3.001
 2663SOL    HW2 8889   0.770   3.808   3.121
 2664SOL     OW 8890   4.757   4.407   1.878
 2664SOL    HW1 8891   4.682   4.372   1.934
 2664SOL    HW2 8892   4.735   4.395   1.781
 2665SOL     OW 8893   4.618   0.861   5.182
 2665SOL    HW1 8894   4.596   0.953   5.214
 2665SOL    HW2 8895   4.600   0.854   5.083
 2666SOL     OW 8896   5.107   5.928   1.999
 2666SOL    HW1 8897   5.033   5.861   2.005
 2666SOL    HW2 8898   5.172   5.912   2.074
 2667SOL     OW 8899   2.076   4.484   2.697
 2667SOL    HW1 8900   1.980   4.459   2.706
 2667SOL    HW2 8901   2.130   4.439   2.769
 2668SOL     OW 8902   6.638   2.655   5.473
 2668SOL    HW1 8903   6.702   2.711   5.421
 2668SOL    HW2 8904   6.606   2.579   5.416
 2669SOL     OW 8905   3.685   5.960   4.630
 2669SOL    HW1 8906   3.632   6.032   4.674
 2669SOL    HW2 8907   3.742   5.999   4.557
 2670SOL     OW 8908   2.128   6.357   4.518
 2670SOL    HW1 8909   2.164   6.330   4.428
 2670SOL    HW2 8910   2.041   6.403   4.506
 2671SOL     OW 8911   3.149   3.701   6.995
 2671SOL    HW1 8912   3.222   3.756   0.015
 2671SOL    HW2 8913   3.103   3.753   6.923
 2672SOL     OW 8914   0.798   4.671   0.810
 2672SOL    HW1 8915   0.703   4.656   0.784
 2672SOL    HW2 8916   0.805   4.755   0.865
 2673SOL     OW 8917   3.813   1.885   3.027
 2673SOL    HW1 8918   3.767   1.820   3.087
 2673SOL    HW2 8919   3.912   1.879   3.041
 2674SOL     OW 8920   5.093   6.001   4.790
 2674SOL    HW1 8921   5.172   6.007   4.729
 2674SOL    HW2 8922   5.011   5.980   4.736
 2675SOL     OW 8923   0.332   5.085   5.693
 2675SOL    HW1 8924   0.313   5.159   5.757
 2675SOL    HW2 8925   0.421   5.099   5.650
 2676SOL     OW 8926   4.593   0.297   1.538
 2676SOL    HW1 8927   4.654   0.257   1.606
 2676SOL    HW2 8928   4.639   0.299   1.449
 2677SOL     OW 8929   2.325   4.802   1.881
 2677SOL    HW1 8930   2.387   4.736   1.840
 2677SOL    HW2 8931   2.374   4.857   1.949
 2678SOL     OW 8932   0.799   6.608   6.822
 2678SOL    HW1 8933   0.887   6.648   6.846
 2678SOL    HW2 8934   0.729   6.680   6.820
 2679SOL     OW 8935   2.074   4.851   1.348
 2679SOL    HW1 8936   1.996   4.814   1.398
 2679SOL    HW2 8937   2.059   4.948   1.327
 2680SOL     OW 8938   6.673   2.280   1.066
 2680SOL    HW1 8939   6.647   2.376   1.076
 2680SOL    HW2 8940   6.674   2.256   0.969
 2681SOL     OW 8941   1.674   2.092   1.862
 2681SOL    HW1 8942   1.714   2.102   1.771
 2681SOL    HW2 8943   1.601   2.160   1.875
 2682SOL     OW 8944   0.480   2.694   3.842
 2682SOL    HW1 8945   0.409   2.718   3.776
 2682SOL    HW2 8946   0.467   2.600   3.872
 2683SOL     OW 8947   1.766   0.105   0.538
 2683SOL    HW1 8948   1.841   0.106   0.604
 2683SOL    HW2 8949   1.738   0.010   0.521
 2684SOL     OW 8950   2.272   5.028   3.033
 2684SOL    HW1 8951   2.308   5.062   2.945
 2684SOL    HW2 8952   2.181   4.989   3.019
 2685SOL     OW 8953   5.236   4.762   5.919
 2685SOL    HW1 8954   5.227   4.808   5.831
 2685SOL    HW2 8955   5.322   4.711   5.922
 2686SOL     OW 8956   1.252   3.457   4.653
 2686SOL    HW1 8957   1.208   3.368   4.662
 2686SOL    HW2 8958   1.304   3.460   4.568
 2687SOL     OW 8959   4.771   5.034   2.927
 2687SOL    HW1 8960   4.750   4.953   2.872
 2687SOL    HW2 8961   4.859   5.022   2.973
 2688SOL     OW 8962   3.476   4.232   5.495
 2688SOL    HW1 8963   3.538   4.228   5.574
 2688SOL    HW2 8964   3.414   4.309   5.506
 2689SOL     OW 8965   6.096   2.010   3.917
 2689SOL    HW1 8966   6.150   1.930   3.943
 2689SOL    HW2 8967   6.087   2.072   3.995
 2690SOL     OW 8968   3.607   4.135   3.286
 2690SOL    HW1 8969   3.698   4.098   3.302
 2690SOL    HW2 8970   3.571   4.172   3.372
 2691SOL     OW 8971   1.375   5.871   1.406
 2691SOL    HW1 8972   1.336   5.904   1.492
 2691SOL    HW2 8973   1.466   5.910   1.394
 2692SOL     OW 8974   6.915   4.029   3.786
 2692SOL    HW1 8975   6.850   4.084   3.733
 2692SOL    HW2 8976   6.995   4.085   3.808
 2693SOL     OW 8977   2.167   3.915   2.476
 2693SOL    HW1 8978   2.164   3.920   2.376
 2693SOL    HW2 8979   2.075   3.901   2.511
 2694SOL     OW 8980   1.843   1.376   2.904
 2694SOL    HW1 8981   1.900   1.295   2.922
 2694SOL    HW2 8982   1.901   1.450   2.870
 2695SOL     OW 8983   4.148   2.260   1.921
 2695SOL    HW1 8984   4.145   2.338   1.859
 2695SOL    HW2 8985   4.056   2.221   1.930
 2696SOL     OW 8986   3.293   3.575   6.190
 2696SOL    HW1 8987   3.391   3.553   6.182
 2696SOL    HW2 8988   3.247   3.552   6.104
 2697SOL     OW 8989   2.354   0.904   5.189
 2697SOL    HW1 8990   2.306   0.943   5.268
 2697SOL    HW2 8991   2.288   0.858   5.129
 2698SOL     OW 8992   1.636   1.608   0.019
 2698SOL    HW1 8993   1.728   1.599   7.002
 2698SOL    HW2 8994   1.602   1.518   0.046
 2699SOL     OW 8995   1.218   4.921   4.006
 2699SOL    HW1 8996   1.134   4.902   4.056
 2699SOL    HW2 8997   1.228   4.855   3.932
 2700SOL     OW 8998   2.290   4.355   2.835
 2700SOL    HW1 8999   2.298   4.310   2.924
 2700SOL    HW2 9000   2.322   4.293   2.763
 2701SOL     OW 9001   2.158   0.813   5.024
 2701SOL    HW1 9002   2.061   0.835   5.011
 2701SOL    HW2 9003   2.205   0.819   4.936
 2702SOL     OW 9004   6.062   6.191   2.560
 2702SOL    HW1 9005   6.044   6.096   2.533
 2702SOL    HW2 9006   5.990   6.221   2.623
 2703SOL     OW 9007   2.111   2.642   2.283
 2703SOL    HW1 9008   2.175   2.659   2.358
 2703SOL    HW2 9009   2.035   2.587   2.316
 2704SOL     OW 9010   0.680   6.349   0.401
 2704SOL    HW1 9011   0.687   6.437   0.354
 2704SOL    HW2 9012   0.756   6.290   0.374
 2705SOL     OW 9013   0.357   3.114   2.779
 2705SOL    HW1 9014   0.297   3.149   2.707
 2705SOL    HW2 9015   0.301   3.071   2.850
 2706SOL     OW 9016   6.594   2.593   3.664
 2706SOL    HW1 9017   6.520   2.537   3.703
 2706SOL    HW2 9018   6.579   2.689   3.688
 2707SOL     OW 9019   3.506   0.909   0.120
 2707SOL    HW1 9020   3.545   0.922   0.211
 2707SOL    HW2 9021   3.447   0.987   0.098
 2708SOL     OW 9022   1.511   4.860   6.591
 2708SOL    HW1 9023   1.514   4.949   6.543
 2708SOL    HW2 9024   1.430   4.857   6.650
 2709SOL     OW 9025   3.880   0.193   1.688
 2709SOL    HW1 9026   3.912   0.274   1.737
 2709SOL    HW2 9027   3.788   0.170   1.718
 2710SOL     OW 9028   5.769   3.882   3.377
 2710SOL    HW1 9029   5.867   3.900   3.382
 2710SOL    HW2 9030   5.750   3.821   3.300
 2711SOL     OW 9031   0.784   6.638   2.042
 2711SOL    HW1 9032   0.736   6.688   2.113
 2711SOL    HW2 9033   0.810   6.700   1.969
 2712SOL     OW 9034   2.921   5.489   2.758
 2712SOL    HW1 9035   2.829   5.451   2.758
 2712SOL    HW2 9036   2.934   5.546   2.677
 2713SOL     OW 9037   2.261   2.934   5.490
 2713SOL    HW1 9038   2.360   2.946   5.496
 2713SOL    HW2 9039   2.236   2.909   5.396
 2714SOL     OW 9040   5.750   0.630   0.314
 2714SOL    HW1 9041   5.690   0.658   0.239
 2714SOL    HW2 9042   5.695   0.587   0.386
 2715SOL     OW 9043   5.951   0.486   0.416
 2715SOL    HW1 9044   5.911   0.428   0.487
 2715SOL    HW2 9045   5.878   0.534   0.367
 2716SOL     OW 9046   5.948   6.362   2.263
 2716SOL    HW1 9047   5.967   6.304   2.184
 2716SOL    HW2 9048   5.912   6.450   2.233
 2717SOL     OW 9049   0.522   7.016   3.350
 2717SOL    HW1 9050   0.601   6.989   3.406
 2717SOL    HW2 9051   0.554   0.042   3.267
 2718SOL     OW 9052   6.613   3.845   3.225
 2718SOL    HW1 9053   6.650   3.831   3.317
 2718SOL    HW2 9054   6.678   3.898   3.171
 2719SOL     OW 9055   4.348   4.545   3.008
 2719SOL    HW1 9056   4.348   4.575   2.913
 2719SOL    HW2 9057   4.307   4.615   3.066
 2720SOL     OW 9058   0.714   6.595   4.329
 2720SOL    HW1 9059   0.661   6.670   4.290
 2720SOL    HW2 9060   0.652   6.528   4.370
 2721SOL     OW 9061   4.989   6.196   3.048
 2721SOL    HW1 9062   4.898   6.195   3.006
 2721SOL    HW2 9063   5.041   6.275   3.015
 2722SOL     OW 9064   0.730   5.904   2.316
 2722SOL    HW1 9065   0.755   5.813   2.348
 2722SOL    HW2 9066   0.804   5.968   2.338
 2723SOL     OW 9067   1.996   2.335   4.091
 2723SOL    HW1 9068   1.928   2.265   4.115
 2723SOL    HW2 9069   1.957   2.426   4.107
 2724SOL     OW 9070   4.661   5.728   5.865
 2724SOL    HW1 9071   4.680   5.768   5.775
 2724SOL    HW2 9072   4.646   5.801   5.931
 2725SOL     OW 9073   2.102   4.733   3.075
 2725SOL    HW1 9074   2.033   4.660   3.077
 2725SOL    HW2 9075   2.193   4.693   3.070
 2726SOL     OW 9076   3.912   6.282   2.865
 2726SOL    HW1 9077   3.866   6.265   2.778
 2726SOL    HW2 9078   4.004   6.315   2.849
 2727SOL     OW 9079   2.183   5.384   4.205
 2727SOL    HW1 9080   2.200   5.288   4.226
 2727SOL    HW2 9081   2.172   5.396   4.106
 2728SOL     OW 9082   2.145   6.903   5.670
 2728SOL    HW1 9083   2.095   6.990   5.664
 2728SOL    HW2 9084   2.221   6.912   5.733
 2729SOL     OW 9085   0.038   4.616   2.418
 2729SOL    HW1 9086   0.072   4.707   2.440
 2729SOL    HW2 9087   6.997   4.584   2.491
 2730SOL     OW 9088   1.768   3.675   1.339
 2730SOL    HW1 9089   1.723   3.607   1.280
 2730SOL    HW2 9090   1.786   3.634   1.429
 2731SOL     OW 9091   2.326   3.187   0.166
 2731SOL    HW1 9092   2.295   3.135   0.086
 2731SOL    HW2 9093   2.344   3.125   0.242
 2732SOL     OW 9094   6.088   3.364   4.479
 2732SOL    HW1 9095   6.018   3.431   4.458
 2732SOL    HW2 9096   6.089   3.345   4.577
 2733SOL     OW 9097   2.073   0.425   0.447
 2733SOL    HW1 9098   2.002   0.449   0.381
 2733SOL    HW2 9099   2.161   0.459   0.415
 2734SOL     OW 9100   2.008   0.013   3.990
 2734SOL    HW1 9101   1.959   6.946   3.979
 2734SOL    HW2 9102   2.105   7.014   4.007
 2735SOL     OW 9103   1.639   5.548   1.593
 2735SOL    HW1 9104   1.592   5.480   1.649
 2735SOL    HW2 9105   1.639   5.636   1.639
 2736SOL     OW 9106   4.489   0.294   6.920
 2736SOL    HW1 9107   4.404   0.241   6.916
 2736SOL    HW2 9108   4.509   0.332   6.829
 2737SOL     OW 9109   4.646   3.965   5.507
 2737SOL    HW1 9110   4.709   3.890   5.528
 2737SOL    HW2 9111   4.607   4.001   5.591
 2738SOL     OW 9112   6.807   4.009   4.866
 2738SOL    HW1 9113   6.758   4.083   4.911
 2738SOL    HW2 9114   6.834   3.941   4.934
 2739SOL     OW 9115   4.661   3.757   6.642
 2739SOL    HW1 9116   4.648   3.665   6.605
 2739SOL    HW2 9117   4.692   3.750   6.737
 2740SOL     OW 9118   5.845   2.607   4.620
 2740SOL    HW1 9119   5.941   2.608   4.648
 2740SOL    HW2 9120   5.840   2.592   4.522
 2741SOL     OW 9121   2.217   3.469   5.724
 2741SOL    HW1 9122   2.246   3.374   5.709
 2741SOL    HW2 9123   2.295   3.530   5.707
 2742SOL     OW 9124   2.515   6.259   5.307
 2742SOL    HW1 9125   2.444   6.243   5.240
 2742SOL    HW2 9126   2.475   6.296   5.391
 2743SOL     OW 9127   6.076   3.834   6.168
 2743SOL    HW1 9128   6.080   3.737   6.193
 2743SOL    HW2 9129   6.015   3.882   6.231
 2744SOL     OW 9130   4.842   6.797   0.905
 2744SOL    HW1 9131   4.928   6.848   0.907
 2744SOL    HW2 9132   4.844   6.726   0.975
 2745SOL     OW 9133   3.125   5.725   2.204
 2745SOL    HW1 9134   3.204   5.736   2.265
 2745SOL    HW2 9135   3.049   5.779   2.237
 2746SOL     OW 9136   1.185   2.369   0.048
 2746SOL    HW1 9137   1.259   2.343   0.111
 2746SOL    HW2 9138   1.183   2.468   0.037
 2747SOL     OW 9139   4.872   6.168   3.859
 2747SOL    HW1 9140   4.840   6.238   3.924
 2747SOL    HW2 9141   4.810   6.164   3.782
 2748SOL     OW 9142   5.499   1.393   4.365
 2748SOL    HW1 9143   5.494   1.296   4.389
 2748SOL    HW2 9144   5.565   1.405   4.291
 2749SOL     OW 9145   5.612   4.878   3.317
 2749SOL    HW1 9146   5.576   4.837   3.233
 2749SOL    HW2 9147   5.622   4.808   3.387
 2750SOL     OW 9148   0.779   6.956   0.497
 2750SOL    HW1 9149   0.763   6.858   0.510
 2750SOL    HW2 9150   0.696   7.007   0.519
 2751SOL     OW 9151   1.206   0.299   6.610
 2751SOL    HW1 9152   1.303   0.297   6.631
 2751SOL    HW2 9153   1.154   0.307   6.695
 2752SOL     OW 9154   0.526   6.389   6.271
 2752SOL    HW1 9155   0.535   6.291   6.290
 2752SOL    HW2 9156   0.451   6.403   6.207
 2753SOL     OW 9157   3.429   5.463   4.394
 2753SOL    HW1 9158   3.335   5.491   4.411
 2753SOL    HW2 9159   3.448   5.378   4.443
 2754SOL     OW 9160   1.001   5.308   4.168
 2754SOL    HW1 9161   1.086   5.265   4.199
 2754SOL    HW2 9162   0.942   5.324   4.247
 2755SOL     OW 9163   4.597   6.678   2.855
 2755SOL    HW1 9164   4.627   6.768   2.887
 2755SOL    HW2 9165   4.506   6.686   2.814
 2756SOL     OW 9166   6.974   2.967   5.047
 2756SOL    HW1 9167   6.974   2.992   5.144
 2756SOL    HW2 9168   7.015   2.877   5.035
 2757SOL     OW 9169   5.079   4.140   5.587
 2757SOL    HW1 9170   5.109   4.108   5.497
 2757SOL    HW2 9171   5.003   4.083   5.619
 2758SOL     OW 9172   0.387   6.697   1.841
 2758SOL    HW1 9173   0.339   6.614   1.813
 2758SOL    HW2 9174   0.408   6.752   1.760
 2759SOL     OW 9175   4.012   3.858   4.990
 2759SOL    HW1 9176   4.071   3.840   5.069
 2759SOL    HW2 9177   3.973   3.949   4.997
 2760SOL     OW 9178   5.207   5.237   2.682
 2760SOL    HW1 9179   5.273   5.173   2.721
 2760SOL    HW2 9180   5.162   5.288   2.755
 2761SOL     OW 9181   2.060   3.484   3.730
 2761SOL    HW1 9182   2.077   3.497   3.828
 2761SOL    HW2 9183   2.137   3.520   3.677
 2762SOL     OW 9184   4.339   1.477   2.076
 2762SOL    HW1 9185   4.390   1.560   2.098
 2762SOL    HW2 9186   4.392   1.397   2.101
 2763SOL     OW 9187   5.424   0.793   3.867
 2763SOL    HW1 9188   5.392   0.795   3.772
 2763SOL    HW2 9189   5.388   0.873   3.915
 2764SOL     OW 9190   6.954   2.149   2.700
 2764SOL    HW1 9191   6.955   2.224   2.633
 2764SOL    HW2 9192   7.017   2.170   2.775
 2765SOL     OW 9193   0.029   6.607   0.010
 2765SOL    HW1 9194   6.989   6.663   6.972
 2765SOL    HW2 9195   0.041   6.517   6.987
 2766SOL     OW 9196   5.161   0.364   7.002
 2766SOL    HW1 9197   5.167   0.380   6.903
 2766SOL    HW2 9198   5.239   0.406   0.028
 2767SOL     OW 9199   0.455   6.110   6.075
 2767SOL    HW1 9200   0.522   6.080   6.007
 2767SOL    HW2 9201   0.498   6.177   6.135
 2768SOL     OW 9202   3.955   0.170   1.431
 2768SOL    HW1 9203   4.037   0.224   1.408
 2768SOL    HW2 9204   3.927   0.191   1.525
 2769SOL     OW 9205   0.765   4.935   5.800
 2769SOL    HW1 9206   0.785   5.023   5.843
 2769SOL    HW2 9207   0.767   4.863   5.869
 2770SOL     OW 9208   2.403   6.555   0.648
 2770SOL    HW1 9209   2.384   6.614   0.727
 2770SOL    HW2 9210   2.358   6.467   0.661
 2771SOL     OW 9211   3.976   6.248   5.742
 2771SOL    HW1 9212   3.952   6.333   5.789
 2771SOL    HW2 9213   4.036   6.193   5.800
 2772SOL     OW 9214   6.060   1.672   2.779
 2772SOL    HW1 9215   6.116   1.598   2.740
 2772SOL    HW2 9216   6.067   1.753   2.722
 2773SOL     OW 9217   5.249   1.772   6.189
 2773SOL    HW1 9218   5.268   1.674   6.189
 2773SOL    HW2 9219   5.193   1.795   6.109
 2774SOL     OW 9220   6.221   0.105   3.831
 2774SOL    HW1 9221   6.205   0.046   3.910
 2774SOL    HW2 9222   6.136   0.153   3.808
 2775SOL     OW 9223   0.022   2.210   4.810
 2775SOL    HW1 9224   0.017   2.283   4.879
 2775SOL    HW2 9225   6.984   2.233   4.732
 2776SOL     OW 9226   4.921   3.892   6.039
 2776SOL    HW1 9227   4.838   3.908   6.093
 2776SOL    HW2 9228   4.917   3.800   5.999
 2777SOL     OW 9229   1.668   1.724   0.639
 2777SOL    HW1 9230   1.693   1.724   0.542
 2777SOL    HW2 9231   1.750   1.739   0.694
 2778SOL     OW 9232   2.338   6.106   5.895
 2778SOL    HW1 9233   2.432   6.111   5.929
 2778SOL    HW2 9234   2.280   6.066   5.966
 2779SOL     OW 9235   5.169   1.050   3.569
 2779SOL    HW1 9236   5.200   1.119   3.503
 2779SOL    HW2 9237   5.239   0.981   3.580
 2780SOL     OW 9238   0.665   0.318   5.516
 2780SOL    HW1 9239   0.735   0.384   5.543
 2780SOL    HW2 9240   0.639   0.263   5.596
 2781SOL     OW 9241   6.737   0.169   3.002
 2781SOL    HW1 9242   6.641   0.177   2.977
 2781SOL    HW2 9243   6.794   0.183   2.922
 2782SOL     OW 9244   5.604   6.727   5.005
 2782SOL    HW1 9245   5.658   6.646   4.981
 2782SOL    HW2 9246   5.535   6.744   4.934
 2783SOL     OW 9247   6.621   2.545   1.954
 2783SOL    HW1 9248   6.543   2.500   1.910
 2783SOL    HW2 9249   6.645   2.628   1.904
 2784SOL     OW 9250   1.113   2.097   2.155
 2784SOL    HW1 9251   1.197   2.084   2.207
 2784SOL    HW2 9252   1.079   2.191   2.168
 2785SOL     OW 9253   5.289   3.584   3.792
 2785SOL    HW1 9254   5.238   3.629   3.866
 2785SOL    HW2 9255   5.381   3.563   3.824
 2786SOL     OW 9256   0.196   5.808   0.922
 2786SOL    HW1 9257   0.255   5.887   0.906
 2786SOL    HW2 9258   0.201   5.747   0.843
 2787SOL     OW 9259   0.409   6.889   6.084
 2787SOL    HW1 9260   0.405   6.989   6.084
 2787SOL    HW2 9261   0.499   6.859   6.116
 2788SOL     OW 9262   2.951   6.501   0.135
 2788SOL    HW1 9263   2.911   6.546   0.216
 2788SOL    HW2 9264   2.916   6.407   0.129
 2789SOL     OW 9265   2.230   2.008   3.481
 2789SOL    HW1 9266   2.203   2.102   3.500
 2789SOL    HW2 9267   2.204   1.949   3.558
 2790SOL     OW 9268   0.876   4.883   1.330
 2790SOL    HW1 9269   0.968   4.919   1.349
 2790SOL    HW2 9270   0.884   4.804   1.268
 2791SOL     OW 9271   0.154   3.460   5.448
 2791SOL    HW1 9272   0.110   3.437   5.535
 2791SOL    HW2 9273   0.098   3.427   5.372
 2792SOL     OW 9274   2.874   2.574   0.097
 2792SOL    HW1 9275   2.832   2.588   0.007
 2792SOL    HW2 9276   2.866   2.658   0.150
 2793SOL     OW 9277   4.340   3.683   6.150
 2793SOL    HW1 9278   4.360   3.619   6.224
 2793SOL    HW2 9279   4.324   3.774   6.188
 2794SOL     OW 9280   1.312   1.907   6.732
 2794SOL    HW1 9281   1.325   1.986   6.792
 2794SOL    HW2 9282   1.336   1.824   6.781
 2795SOL     OW 9283   1.462   6.915   0.505
 2795SOL    HW1 9284   1.405   6.833   0.516
 2795SOL    HW2 9285   1.461   6.968   0.590
 2796SOL     OW 9286   3.097   5.743   0.026
 2796SOL    HW1 9287   3.048   5.817   6.998
 2796SOL    HW2 9288   3.195   5.761   0.023
 2797SOL     OW 9289   4.879   4.005   4.762
 2797SOL    HW1 9290   4.898   3.908   4.772
 2797SOL    HW2 9291   4.938   4.044   4.691
 2798SOL     OW 9292   5.355   2.873   1.656
 2798SOL    HW1 9293   5.413   2.893   1.735
 2798SOL    HW2 9294   5.296   2.795   1.678
 2799SOL     OW 9295   3.235   0.265   4.663
 2799SOL    HW1 9296   3.223   0.195   4.592
 2799SOL    HW2 9297   3.298   0.232   4.732
 2800SOL     OW 9298   4.969   1.325   6.927
 2800SOL    HW1 9299   4.932   1.263   6.996
 2800SOL    HW2 9300   5.063   1.299   6.905
 2801SOL     OW 9301   0.189   4.321   3.025
 2801SOL    HW1 9302   0.093   4.294   3.027
 2801SOL    HW2 9303   0.220   4.339   3.118
 2802SOL     OW 9304   1.981   4.566   4.328
 2802SOL    HW1 9305   1.919   4.498   4.290
 2802SOL    HW2 9306   2.032   4.526   4.404
 2803SOL     OW 9307   3.347   2.704   6.584
 2803SOL    HW1 9308   3.258   2.660   6.570
 2803SOL    HW2 9309   3.333   2.803   6.594
 2804SOL     OW 9310   5.595   2.209   3.550
 2804SOL    HW1 9311   5.507   2.168   3.575
 2804SOL    HW2 9312   5.580   2.289   3.492
 2805SOL     OW 9313   3.940   5.730   0.482
 2805SOL    HW1 9314   3.929   5.820   0.440
 2805SOL    HW2 9315   3.994   5.671   0.421
 2806SOL     OW 9316   0.591   2.888   4.820
 2806SOL    HW1 9317   0.638   2.808   4.855
 2806SOL    HW2 9318   0.614   2.901   4.723
 2807SOL     OW 9319   4.502   1.546   3.697
 2807SOL    HW1 9320   4.409   1.514   3.714
 2807SOL    HW2 9321   4.529   1.611   3.768
 2808SOL     OW 9322   1.003   5.846   6.548
 2808SOL    HW1 9323   1.010   5.778   6.621
 2808SOL    HW2 9324   0.975   5.934   6.587
 2809SOL     OW 9325   1.386   6.457   0.693
 2809SOL    HW1 9326   1.400   6.371   0.645
 2809SOL    HW2 9327   1.349   6.438   0.785
 2810SOL     OW 9328   7.016   6.427   2.197
 2810SOL    HW1 9329   7.002   6.493   2.271
 2810SOL    HW2 9330   6.951   6.446   2.123
 2811SOL     OW 9331   1.087   0.016   0.588
 2811SOL    HW1 9332   1.141   0.007   0.672
 2811SOL    HW2 9333   1.035   6.952   0.572
 2812SOL     OW 9334   1.587   0.829   1.368
 2812SOL    HW1 9335   1.660   0.784   1.421
 2812SOL    HW2 9336   1.504   0.832   1.424
 2813SOL     OW 9337   6.144   2.023   1.400
 2813SOL    HW1 9338   6.155   1.995   1.496
 2813SOL    HW2 9339   6.193   2.108   1.385
 2814SOL     OW 9340   1.910   4.407   6.578
 2814SOL    HW1 9341   1.855   4.429   6.659
 2814SOL    HW2 9342   1.851   4.369   6.507
 2815SOL     OW 9343   6.375   6.276   4.716
 2815SOL    HW1 9344   6.283   6.243   4.694
 2815SOL    HW2 9345   6.375   6.311   4.810
 2816SOL     OW 9346   0.725   5.208   5.194
 2816SOL    HW1 9347   0.824   5.197   5.187
 2816SOL    HW2 9348   0.680   5.119   5.182
 2817SOL     OW 9349   2.837   0.889   1.667
 2817SOL    HW1 9350   2.928   0.927   1.650
 2817SOL    HW2 9351   2.833   0.849   1.758
 2818SOL     OW 9352   1.706   1.060   0.549
 2818SOL    HW1 9353   1.623   1.073   0.496
 2818SOL    HW2 9354   1.745   0.970   0.529
 2819SOL     OW 9355   6.178   0.346   6.644
 2819SOL    HW1 9356   6.109   0.285   6.681
 2819SOL    HW2 9357   6.220   0.304   6.563
 2820SOL     OW 9358   1.736   1.769   0.377
 2820SOL    HW1 9359   1.812   1.732   0.323
 2820SOL    HW2 9360   1.659   1.789   0.317
 2821SOL     OW 9361   3.622   2.169   6.064
 2821SOL    HW1 9362   3.651   2.091   6.118
 2821SOL    HW2 9363   3.574   2.235   6.123
 2822SOL     OW 9364   4.399   3.048   1.453
 2822SOL    HW1 9365   4.353   3.137   1.457
 2822SOL    HW2 9366   4.423   3.018   1.545
 2823SOL     OW 9367   5.354   4.104   2.952
 2823SOL    HW1 9368   5.386   4.069   2.864
 2823SOL    HW2 9369   5.255   4.113   2.950
 2824SOL     OW 9370   0.448   4.351   5.237
 2824SOL    HW1 9371   0.383   4.375   5.310
 2824SOL    HW2 9372   0.528   4.307   5.277
 2825SOL     OW 9373   5.006   2.570   5.683
 2825SOL    HW1 9374   4.999   2.658   5.730
 2825SOL    HW2 9375   5.101   2.539   5.686
 2826SOL     OW 9376   3.183   3.343   6.658
 2826SOL    HW1 9377   3.181   3.387   6.568
 2826SOL    HW2 9378   3.276   3.343   6.693
 2827SOL     OW 9379   6.589   1.683   0.047
 2827SOL    HW1 9380   6.584   1.626   0.129
 2827SOL    HW2 9381   6.538   1.767   0.062
 2828SOL     OW 9382   1.821   4.157   0.076
 2828SOL    HW1 9383   1.885   4.210   0.131
 2828SOL    HW2 9384   1.843   4.060   0.083
 2829SOL     OW 9385   3.473   4.188   1.174
 2829SOL    HW1 9386   3.413   4.133   1.116
 2829SOL    HW2 9387   3.440   4.282   1.175
 2830SOL     OW 9388   3.162   5.499   4.454
 2830SOL    HW1 9389   3.108   5.524   4.534
 2830SOL    HW2 9390   3.105   5.502   4.373
 2831SOL     OW 9391   6.080   1.750   1.872
 2831SOL    HW1 9392   6.085   1.812   1.794
 2831SOL    HW2 9393   6.079   1.804   1.957
 2832SOL     OW 9394   1.767   3.771   1.602
 2832SOL    HW1 9395   1.787   3.842   1.535
 2832SOL    HW2 9396   1.672   3.779   1.632
 2833SOL     OW 9397   6.428   2.086   3.637
 2833SOL    HW1 9398   6.335   2.079   3.600
 2833SOL    HW2 9399   6.426   2.137   3.723
 2834SOL     OW 9400   2.848   0.713   4.422
 2834SOL    HW1 9401   2.763   0.764   4.436
 2834SOL    HW2 9402   2.841   0.625   4.469
 2835SOL     OW 9403   6.342   1.279   0.568
 2835SOL    HW1 9404   6.337   1.357   0.630
 2835SOL    HW2 9405   6.397   1.207   0.610
 2836SOL     OW 9406   3.124   6.006   2.122
 2836SOL    HW1 9407   3.047   5.951   2.154
 2836SOL    HW2 9408   3.137   6.085   2.181
 2837SOL     OW 9409   5.007   4.195   3.150
 2837SOL    HW1 9410   4.915   4.233   3.142
 2837SOL    HW2 9411   5.011   4.135   3.230
 2838SOL     OW 9412   6.977   4.296   5.942
 2838SOL    HW1 9413   0.020   4.327   6.013
 2838SOL    HW2 9414   6.922   4.374   5.909
 2839SOL     OW 9415   5.248   2.602   6.311
 2839SOL    HW1 9416   5.314   2.603   6.236
 2839SOL    HW2 9417   5.181   2.675   6.297
 2840SOL     OW 9418   6.367   5.894   5.220
 2840SOL    HW1 9419   6.300   5.820   5.215
 2840SOL    HW2 9420   6.366   5.947   5.135
 2841SOL     OW 9421   5.699   3.434   2.971
 2841SOL    HW1 9422   5.612   3.391   2.949
 2841SOL    HW2 9423   5.731   3.401   3.060
 2842SOL     OW 9424   0.796   6.368   3.599
 2842SOL    HW1 9425   0.835   6.403   3.685
 2842SOL    HW2 9426   0.705   6.406   3.587
 2843SOL     OW 9427   0.755   2.609   4.239
 2843SOL    HW1 9428   0.680   2.576   4.297
 2843SOL    HW2 9429   0.739   2.704   4.214
 2844SOL     OW 9430   5.800   4.116   0.151
 2844SOL    HW1 9431   5.716   4.112   0.205
 2844SOL    HW2 9432   5.845   4.027   0.152
 2845SOL     OW 9433   3.726   1.779   1.144
 2845SOL    HW1 9434   3.775   1.823   1.219
 2845SOL    HW2 9435   3.723   1.681   1.159
 2846SOL     OW 9436   5.059   0.402   6.425
 2846SOL    HW1 9437   5.038   0.312   6.386
 2846SOL    HW2 9438   4.996   0.470   6.388
 2847SOL     OW 9439   5.695   4.627   2.642
 2847SOL    HW1 9440   5.792   4.604   2.639
 2847SOL    HW2 9441   5.684   4.726   2.653
 2848SOL     OW 9442   0.521   3.259   0.385
 2848SOL    HW1 9443   0.599   3.228   0.439
 2848SOL    HW2 9444   0.541   3.245   0.288
 2849SOL     OW 9445   5.416   0.702   0.748
 2849SOL    HW1 9446   5.421   0.737   0.655
 2849SOL    HW2 9447   5.438   0.776   0.813
 2850SOL     OW 9448   6.875   1.379   0.726
 2850SOL    HW1 9449   6.889   1.421   0.636
 2850SOL    HW2 9450   6.785   1.336   0.729
 2851SOL     OW 9451   3.387   3.188   2.350
 2851SOL    HW1 9452   3.350   3.101   2.381
 2851SOL    HW2 9453   3.486   3.189   2.365
 2852SOL     OW 9454   0.643   4.932   5.200
 2852SOL    HW1 9455   0.572   4.923   5.130
 2852SOL    HW2 9456   0.678   4.842   5.223
 2853SOL     OW 9457   0.221   4.708   5.734
 2853SOL    HW1 9458   0.294   4.658   5.781
 2853SOL    HW2 9459   0.191   4.784   5.792
 2854SOL     OW 9460   2.985   0.291   6.440
 2854SOL    HW1 9461   2.936   0.209   6.470
 2854SOL    HW2 9462   3.002   0.351   6.518
 2855SOL     OW 9463   2.735   2.389   4.287
 2855SOL    HW1 9464   2.794   2.308   4.287
 2855SOL    HW2 9465   2.710   2.411   4.381
 2856SOL     OW 9466   1.483   5.407   4.912
 2856SOL    HW1 9467   1.577   5.438   4.899
 2856SOL    HW2 9468   1.483   5.319   4.959
 2857SOL     OW 9469   0.825   4.459   6.816
 2857SOL    HW1 9470   0.767   4.526   6.770
 2857SOL    HW2 9471   0.870   4.501   6.894
 2858SOL     OW 9472   5.607   4.731   4.292
 2858SOL    HW1 9473   5.513   4.768   4.288
 2858SOL    HW2 9474   5.612   4.647   4.238
 2859SOL     OW 9475   0.444   5.011   2.062
 2859SOL    HW1 9476   0.434   5.099   2.108
 2859SOL    HW2 9477   0.524   5.014   2.002
 2860SOL     OW 9478   1.201   6.306   2.961
 2860SOL    HW1 9479   1.125   6.341   2.907
 2860SOL    HW2 9480   1.217   6.365   3.040
 2861SOL     OW 9481   5.695   3.151   5.266
 2861SOL    HW1 9482   5.724   3.230   5.321
 2861SOL    HW2 9483   5.596   3.141   5.271
 2862SOL     OW 9484   4.502   1.169   0.634
 2862SOL    HW1 9485   4.574   1.207   0.692
 2862SOL    HW2 9486   4.543   1.103   0.570
 2863SOL     OW 9487   5.603   1.150   6.436
 2863SOL    HW1 9488   5.557   1.134   6.348
 2863SOL    HW2 9489   5.534   1.173   6.505
 2864SOL     OW 9490   4.418   4.735   0.994
 2864SOL    HW1 9491   4.468   4.757   0.910
 2864SOL    HW2 9492   4.364   4.652   0.981
 2865SOL     OW 9493   5.827   4.295   6.255
 2865SOL    HW1 9494   5.794   4.202   6.239
 2865SOL    HW2 9495   5.921   4.303   6.222
 2866SOL     OW 9496   4.907   5.811   1.136
 2866SOL    HW1 9497   4.838   5.749   1.173
 2866SOL    HW2 9498   4.902   5.812   1.037
 2867SOL     OW 9499   0.335   5.915   3.448
 2867SOL    HW1 9500   0.424   5.883   3.481
 2867SOL    HW2 9501   0.314   6.004   3.489
 2868SOL     OW 9502   6.812   0.340   5.473
 2868SOL    HW1 9503   6.823   0.342   5.374
 2868SOL    HW2 9504   6.888   0.388   5.516
 2869SOL     OW 9505   5.687   4.274   5.108
 2869SOL    HW1 9506   5.766   4.272   5.047
 2869SOL    HW2 9507   5.609   4.318   5.062
 2870SOL     OW 9508   0.408   1.190   1.481
 2870SOL    HW1 9509   0.316   1.217   1.456
 2870SOL    HW2 9510   0.454   1.151   1.402
 2871SOL     OW 9511   4.738   1.221   3.081
 2871SOL    HW1 9512   4.641   1.220   3.104
 2871SOL    HW2 9513   4.764   1.313   3.050
 2872SOL     OW 9514   3.560   1.460   2.459
 2872SOL    HW1 9515   3.599   1.534   2.514
 2872SOL    HW2 9516   3.634   1.405   2.421
 2873SOL     OW 9517   6.861   0.235   2.754
 2873SOL    HW1 9518   6.909   0.169   2.695
 2873SOL    HW2 9519   6.803   0.294   2.698
 2874SOL     OW 9520   1.526   0.987   2.058
 2874SOL    HW1 9521   1.512   0.952   2.150
 2874SOL    HW2 9522   1.621   0.970   2.030
 2875SOL     OW 9523   3.294   0.499   2.194
 2875SOL    HW1 9524   3.271   0.417   2.142
 2875SOL    HW2 9525   3.383   0.487   2.238
 2876SOL     OW 9526   1.485   0.125   1.034
 2876SOL    HW1 9527   1.445   0.205   0.991
 2876SOL    HW2 9528   1.462   0.123   1.131
 2877SOL     OW 9529   1.068   3.475   6.778
 2877SOL    HW1 9530   0.978   3.459   6.739
 2877SOL    HW2 9531   1.082   3.415   6.856
 2878SOL     OW 9532   3.758   3.650   4.969
 2878SOL    HW1 9533   3.763   3.609   4.878
 2878SOL    HW2 9534   3.850   3.660   5.006
 2879SOL     OW 9535   6.156   6.018   0.367
 2879SOL    HW1 9536   6.199   5.962   0.438
 2879SOL    HW2 9537   6.218   6.026   0.289
 2880SOL     OW 9538   1.505   1.775   2.835
 2880SOL    HW1 9539   1.441   1.711   2.877
 2880SOL    HW2 9540   1.458   1.860   2.814
 2881SOL     OW 9541   5.515   5.037   0.024
 2881SOL    HW1 9542   5.556   4.957   0.068
 2881SOL    HW2 9543   5.506   5.021   6.945
 2882SOL     OW 9544   4.776   6.411   0.036
 2882SOL    HW1 9545   4.843   6.484   0.051
 2882SOL    HW2 9546   4.824   6.327   0.011
 2883SOL     OW 9547   5.203   6.397   3.151
 2883SOL    HW1 9548   5.138   6.438   3.086
 2883SOL    HW2 9549   5.283   6.363   3.101
 2884SOL     OW 9550   6.358   5.846   3.695
 2884SOL    HW1 9551   6.329   5.843   3.791
 2884SOL    HW2 9552   6.428   5.776   3.679
 2885SOL     OW 9553   0.513   4.151   3.222
 2885SOL    HW1 9554   0.524   4.073   3.160
 2885SOL    HW2 9555   0.417   4.175   3.228
 2886SOL     OW 9556   2.036   4.474   5.104
 2886SOL    HW1 9557   1.956   4.460   5.162
 2886SOL    HW2 9558   2.108   4.409   5.129
 2887SOL     OW 9559   6.924   4.768   2.843
 2887SOL    HW1 9560   7.002   4.718   2.806
 2887SOL    HW2 9561   6.937   4.783   2.941
 2888SOL     OW 9562   4.466   5.943   6.664
 2888SOL    HW1 9563   4.527   5.990   6.727
 2888SOL    HW2 9564   4.509   5.859   6.631
 2889SOL     OW 9565   4.062   5.144   3.768
 2889SOL    HW1 9566   4.003   5.064   3.781
 2889SOL    HW2 9567   4.128   5.149   3.843
 2890SOL     OW 9568   1.264   1.710   0.958
 2890SOL    HW1 9569   1.247   1.683   0.863
 2890SOL    HW2 9570   1.217   1.646   1.019
 2891SOL     OW 9571   1.380   1.645   5.349
 2891SOL    HW1 9572   1.416   1.552   5.343
 2891SOL    HW2 9573   1.456   1.710   5.353
 2892SOL     OW 9574   5.893   3.816   2.264
 2892SOL    HW1 9575   5.827   3.743   2.246
 2892SOL    HW2 9576   5.960   3.785   2.332
 2893SOL     OW 9577   6.719   6.061   5.026
 2893SOL    HW1 9578   6.631   6.109   5.018
 2893SOL    HW2 9579   6.722   5.986   4.959
 2894SOL     OW 9580   1.840   5.524   1.392
 2894SOL    HW1 9581   1.765   5.521   1.458
 2894SOL    HW2 9582   1.827   5.600   1.329
 2895SOL     OW 9583   4.719   6.314   6.240
 2895SOL    HW1 9584   4.683   6.405   6.263
 2895SOL    HW2 9585   4.804   6.323   6.189
 2896SOL     OW 9586   6.760   6.782   6.136
 2896SOL    HW1 9587   6.697   6.733   6.077
 2896SOL    HW2 9588   6.722   6.872   6.158
 2897SOL     OW 9589   2.899   6.321   3.778
 2897SOL    HW1 9590   2.963   6.280   3.712
 2897SOL    HW2 9591   2.858   6.249   3.834
 2898SOL     OW 9592   5.316   2.401   2.538
 2898SOL    HW1 9593   5.224   2.399   2.578
 2898SOL    HW2 9594   5.309   2.408   2.439
 2899SOL     OW 9595   6.361   2.721   1.058
 2899SOL    HW1 9596   6.345   2.623   1.047
 2899SOL    HW2 9597   6.456   2.742   1.037
 2900SOL     OW 9598   3.167   3.034   5.022
 2900SOL    HW1 9599   3.159   3.058   4.925
 2900SOL    HW2 9600   3.261   3.005   5.042
 2901SOL     OW 9601   1.207   3.310   1.134
 2901SOL    HW1 9602   1.194   3.409   1.126
 2901SOL    HW2 9603   1.252   3.275   1.052
 2902SOL     OW 9604   5.110   6.115   3.560
 2902SOL    HW1 9605   5.039   6.149   3.622
 2902SOL    HW2 9606   5.199   6.121   3.605
 2903SOL     OW 9607   0.815   5.467   1.638
 2903SOL    HW1 9608   0.726   5.441   1.602
 2903SOL    HW2 9609   0.865   5.386   1.669
 2904SOL     OW 9610   2.967   4.752   4.121
 2904SOL    HW1 9611   3.045   4.814   4.123
 2904SOL    HW2 9612   2.974   4.692   4.040
 2905SOL     OW 9613   1.352   4.611   1.494
 2905SOL    HW1 9614   1.402   4.584   1.576
 2905SOL    HW2 9615   1.303   4.532   1.457
 2906SOL     OW 9616   6.650   6.076   6.202
 2906SOL    HW1 9617   6.635   6.074   6.103
 2906SOL    HW2 9618   6.687   6.165   6.228
 2907SOL     OW 9619   6.756   1.235   6.040
 2907SOL    HW1 9620   6.823   1.216   6.112
 2907SOL    HW2 9621   6.699   1.154   6.026
 2908SOL     OW 9622   3.628   5.800   3.694
 2908SOL    HW1 9623   3.630   5.720   3.753
 2908SOL    HW2 9624   3.720   5.817   3.659
 2909SOL     OW 9625   0.365   6.381   1.051
 2909SOL    HW1 9626   0.405   6.363   0.961
 2909SOL    HW2 9627   0.278   6.430   1.039
 2910SOL     OW 9628   1.030   0.260   4.464
 2910SOL    HW1 9629   1.029   0.209   4.378
 2910SOL    HW2 9630   1.114   0.239   4.514
 2911SOL     OW 9631   6.834   3.497   3.533
 2911SOL    HW1 9632   6.869   3.584   3.568
 2911SOL    HW2 9633   6.890   3.469   3.454
 2912SOL     OW 9634   0.226   1.445   3.101
 2912SOL    HW1 9635   0.133   1.409   3.096
 2912SOL    HW2 9636   0.224   1.541   3.130
 2913SOL     OW 9637   0.959   6.625   4.203
 2913SOL    HW1 9638   0.870   6.624   4.249
 2913SOL    HW2 9639   1.021   6.685   4.253
 2914SOL     OW 9640   3.881   4.374   0.980
 2914SOL    HW1 9641   3.942   4.335   1.049
 2914SOL    HW2 9642   3.811   4.306   0.956
 2915SOL     OW 9643   2.213   0.297   3.686
 2915SOL    HW1 9644   2.234   0.259   3.596
 2915SOL    HW2 9645   2.286   0.273   3.751
 2916SOL     OW 9646   0.556   5.842   6.245
 2916SOL    HW1 9647   0.642   5.806   6.280
 2916SOL    HW2 9648   0.546   5.937   6.275
 2917SOL     OW 9649   1.705   1.216   3.855
 2917SOL    HW1 9650   1.711   1.277   3.776
 2917SOL    HW2 9651   1.734   1.124   3.828
 2918SOL     OW 9652   5.142   1.174   0.988
 2918SOL    HW1 9653   5.085   1.173   1.070
 2918SOL    HW2 9654   5.181   1.265   0.976
 2919SOL     OW 9655   0.732   5.709   4.942
 2919SOL    HW1 9656   0.737   5.643   5.017
 2919SOL    HW2 9657   0.689   5.793   4.974
 2920SOL     OW 9658   2.827   2.331   1.670
 2920SOL    HW1 9659   2.855   2.394   1.743
 2920SOL    HW2 9660   2.837   2.237   1.702
 2921SOL     OW 9661   6.914   5.350   3.567
 2921SOL    HW1 9662   6.960   5.430   3.604
 2921SOL    HW2 9663   6.883   5.369   3.473
 2922SOL     OW 9664   4.156   4.754   3.477
 2922SOL    HW1 9665   4.060   4.771   3.454
 2922SOL    HW2 9666   4.213   4.772   3.396
 2923SOL     OW 9667   1.423   4.548   3.670
 2923SOL    HW1 9668   1.502   4.569   3.612
 2923SOL    HW2 9669   1.453   4.503   3.753
 2924SOL     OW 9670   5.085   1.595   6.984
 2924SOL    HW1 9671   5.089   1.506   6.938
 2924SOL    HW2 9672   5.150   1.657   6.942
 2925SOL     OW 9673   5.376   6.687   4.791
 2925SOL    HW1 9674   5.360   6.781   4.762
 2925SOL    HW2 9675   5.400   6.631   4.712
 2926SOL     OW 9676   6.837   2.423   5.079
 2926SOL    HW1 9677   6.879   2.457   4.996
 2926SOL    HW2 9678   6.907   2.401   5.146
 2927SOL     OW 9679   0.934   1.950   2.497
 2927SOL    HW1 9680   0.900   1.899   2.417
 2927SOL    HW2 9681   0.976   1.886   2.561
 2928SOL     OW 9682   5.055   4.911   0.259
 2928SOL    HW1 9683   5.090   4.818   0.248
 2928SOL    HW2 9684   4.975   4.923   0.200
 2929SOL     OW 9685   1.703   1.780   3.049
 2929SOL    HW1 9686   1.651   1.783   2.964
 2929SOL    HW2 9687   1.799   1.799   3.030
 2930SOL     OW 9688   0.620   3.085   4.375
 2930SOL    HW1 9689   0.619   3.006   4.313
 2930SOL    HW2 9690   0.575   3.163   4.330
 2931SOL     OW 9691   5.710   3.924   5.647
 2931SOL    HW1 9692   5.802   3.963   5.647
 2931SOL    HW2 9693   5.642   3.996   5.662
 2932SOL     OW 9694   6.955   6.636   0.770
 2932SOL    HW1 9695   0.033   6.645   0.750
 2932SOL    HW2 9696   6.927   6.708   0.834
 2933SOL     OW 9697   0.802   0.411   6.863
 2933SOL    HW1 9698   0.758   0.409   6.952
 2933SOL    HW2 9699   0.737   0.383   6.793
 2934SOL     OW 9700   5.916   5.245   2.703
 2934SOL    HW1 9701   5.963   5.218   2.788
 2934SOL    HW2 9702   5.943   5.182   2.630
 2935SOL     OW 9703   0.843   4.561   6.000
 2935SOL    HW1 9704   0.868   4.480   6.053
 2935SOL    HW2 9705   0.915   4.582   5.934
 2936SOL     OW 9706   4.440   6.503   2.656
 2936SOL    HW1 9707   4.527   6.543   2.683
 2936SOL    HW2 9708   4.426   6.417   2.706
 2937SOL     OW 9709   6.252   3.391   3.380
 2937SOL    HW1 9710   6.230   3.471   3.437
 2937SOL    HW2 9711   6.272   3.313   3.439
 2938SOL     OW 9712   0.533   5.348   1.641
 2938SOL    HW1 9713   0.497   5.423   1.585
 2938SOL    HW2 9714   0.547   5.267   1.584
 2939SOL     OW 9715   5.487   6.153   2.097
 2939SOL    HW1 9716   5.551   6.221   2.061
 2939SOL    HW2 9717   5.498   6.146   2.196
 2940SOL     OW 9718   4.776   5.467   3.495
 2940SOL    HW1 9719   4.695   5.509   3.537
 2940SOL    HW2 9720   4.801   5.519   3.413
 2941SOL     OW 9721   3.124   5.401   2.375
 2941SOL    HW1 9722   3.037   5.353   2.377
 2941SOL    HW2 9723   3.195   5.340   2.338
 2942SOL     OW 9724   3.050   1.989   1.113
 2942SOL    HW1 9725   3.011   2.047   1.042
 2942SOL    HW2 9726   2.977   1.960   1.176
 2943SOL     OW 9727   0.282   4.109   3.982
 2943SOL    HW1 9728   0.321   4.035   4.037
 2943SOL    HW2 9729   0.227   4.168   4.040
 2944SOL     OW 9730   0.685   5.206   3.302
 2944SOL    HW1 9731   0.768   5.157   3.275
 2944SOL    HW2 9732   0.630   5.224   3.221
 2945SOL     OW 9733   5.665   3.553   0.535
 2945SOL    HW1 9734   5.694   3.460   0.512
 2945SOL    HW2 9735   5.683   3.614   0.458
 2946SOL     OW 9736   3.120   4.012   4.447
 2946SOL    HW1 9737   3.095   4.103   4.478
 2946SOL    HW2 9738   3.090   3.944   4.514
 2947SOL     OW 9739   6.611   6.354   0.678
 2947SOL    HW1 9740   6.524   6.312   0.652
 2947SOL    HW2 9741   6.686   6.306   0.633
 2948SOL     OW 9742   5.936   4.568   0.975
 2948SOL    HW1 9743   6.000   4.536   1.044
 2948SOL    HW2 9744   5.986   4.610   0.899
 2949SOL     OW 9745   1.880   5.701   1.013
 2949SOL    HW1 9746   1.940   5.764   1.062
 2949SOL    HW2 9747   1.798   5.684   1.068
 2950SOL     OW 9748   5.565   5.046   1.801
 2950SOL    HW1 9749   5.617   5.012   1.723
 2950SOL    HW2 9750   5.521   4.970   1.848
 2951SOL     OW 9751   0.735   2.150   0.921
 2951SOL    HW1 9752   0.816   2.097   0.942
 2951SOL    HW2 9753   0.760   2.231   0.868
 2952SOL     OW 9754   0.757   1.653   4.696
 2952SOL    HW1 9755   0.795   1.737   4.733
 2952SOL    HW2 9756   0.739   1.588   4.770
 2953SOL     OW 9757   1.400   5.714   3.109
 2953SOL    HW1 9758   1.417   5.766   3.025
 2953SOL    HW2 9759   1.406   5.616   3.089
 2954SOL     OW 9760   0.623   4.476   6.132
 2954SOL    HW1 9761   0.561   4.547   6.164
 2954SOL    HW2 9762   0.692   4.516   6.071
 2955SOL     OW 9763   1.563   4.806   5.886
 2955SOL    HW1 9764   1.653   4.787   5.926
 2955SOL    HW2 9765   1.538   4.901   5.904
 2956SOL     OW 9766   6.110   3.622   4.990
 2956SOL    HW1 9767   6.175   3.592   4.920
 2956SOL    HW2 9768   6.104   3.722   4.990
 2957SOL     OW 9769   1.554   5.065   1.928
 2957SOL    HW1 9770   1.584   5.043   2.021
 2957SOL    HW2 9771   1.552   4.981   1.873
 2958SOL     OW 9772   2.124   3.931   1.243
 2958SOL    HW1 9773   2.031   3.961   1.224
 2958SOL    HW2 9774   2.171   3.999   1.298
 2959SOL     OW 9775   0.194   4.270   4.167
 2959SOL    HW1 9776   0.282   4.270   4.215
 2959SOL    HW2 9777   0.124   4.314   4.224
 2960SOL     OW 9778   4.933   6.380   0.785
 2960SOL    HW1 9779   4.835   6.390   0.766
 2960SOL    HW2 9780   4.985   6.434   0.719
 2961SOL     OW 9781   5.977   2.099   0.621
 2961SOL    HW1 9782   5.964   2.197   0.609
 2961SOL    HW2 9783   5.926   2.068   0.701
 2962SOL     OW 9784   6.739   0.463   3.791
 2962SOL    HW1 9785   6.818   0.424   3.743
 2962SOL    HW2 9786   6.692   0.390   3.841
 2963SOL     OW 9787   1.821   2.182   5.868
 2963SOL    HW1 9788   1.881   2.248   5.823
 2963SOL    HW2 9789   1.821   2.096   5.816
 2964SOL     OW 9790   0.847   1.061   5.811
 2964SOL    HW1 9791   0.854   1.160   5.821
 2964SOL    HW2 9792   0.926   1.018   5.854
 2965SOL     OW 9793   5.710   0.210   6.044
 2965SOL    HW1 9794   5.797   0.244   6.011
 2965SOL    HW2 9795   5.702   0.228   6.142
 2966SOL     OW 9796   3.483   6.922   3.307
 2966SOL    HW1 9797   3.485   6.831   3.348
 2966SOL    HW2 9798   3.406   6.973   3.346
 2967SOL     OW 9799   5.659   0.078   5.298
 2967SOL    HW1 9800   5.665   0.033   5.208
 2967SOL    HW2 9801   5.573   0.051   5.342
 2968SOL     OW 9802   1.497   3.804   1.698
 2968SOL    HW1 9803   1.496   3.881   1.762
 2968SOL    HW2 9804   1.483   3.718   1.748
 2969SOL     OW 9805   4.214   1.981   4.932
 2969SOL    HW1 9806   4.236   1.935   4.846
 2969SOL    HW2 9807   4.154   2.059   4.913
 2970SOL     OW 9808   3.213   2.267   6.070
 2970SOL    HW1 9809   3.251   2.281   5.978
 2970SOL    HW2 9810   3.273   2.311   6.137
 2971SOL     OW 9811   4.203   3.531   5.566
 2971SOL    HW1 9812   4.287   3.576   5.534
 2971SOL    HW2 9813   4.196   3.440   5.524
 2972SOL     OW 9814   0.802   5.796   6.354
 2972SOL    HW1 9815   0.842   5.720   6.302
 2972SOL    HW2 9816   0.875   5.849   6.397
 2973SOL     OW 9817   5.608   0.398   4.019
 2973SOL    HW1 9818   5.516   0.411   3.980
 2973SOL    HW2 9819   5.672   0.458   3.972
 2974SOL     OW 9820   5.040   5.776   2.491
 2974SOL    HW1 9821   5.102   5.701   2.513
 2974SOL    HW2 9822   4.960   5.740   2.442
 2975SOL     OW 9823   0.460   3.325   4.541
 2975SOL    HW1 9824   0.558   3.313   4.530
 2975SOL    HW2 9825   0.425   3.256   4.605
 2976SOL     OW 9826   3.982   0.482   1.048
 2976SOL    HW1 9827   4.016   0.494   0.955
 2976SOL    HW2 9828   3.925   0.401   1.053
 2977SOL     OW 9829   1.769   1.431   2.521
 2977SOL    HW1 9830   1.677   1.409   2.553
 2977SOL    HW2 9831   1.809   1.351   2.475
 2978SOL     OW 9832   3.116   6.013   0.310
 2978SOL    HW1 9833   3.168   5.936   0.348
 2978SOL    HW2 9834   3.130   6.094   0.367
 2979SOL     OW 9835   2.288   1.713   5.695
 2979SOL    HW1 9836   2.193   1.736   5.715
 2979SOL    HW2 9837   2.295   1.615   5.676
 2980SOL     OW 9838   2.910   3.554   3.255
 2980SOL    HW1 9839   2.871   3.566   3.164
 2980SOL    HW2 9840   2.902   3.458   3.282
 2981SOL     OW 9841   2.877   2.073   1.749
 2981SOL    HW1 9842   2.894   2.005   1.677
 2981SOL    HW2 9843   2.964   2.097   1.793
 2982SOL     OW 9844   0.864   0.273   2.579
 2982SOL    HW1 9845   0.962   0.263   2.598
 2982SOL    HW2 9846   0.811   0.261   2.663
 2983SOL     OW 9847   6.032   2.493   6.258
 2983SOL    HW1 9848   6.118   2.532   6.225
 2983SOL    HW2 9849   5.963   2.500   6.186
 2984SOL     OW 9850   1.120   6.310   1.194
 2984SOL    HW1 9851   1.083   6.397   1.227
 2984SOL    HW2 9852   1.059   6.271   1.125
 2985SOL     OW 9853   6.977   6.807   5.691
 2985SOL    HW1 9854   0.023   6.801   5.766
 2985SOL    HW2 9855   7.008   6.878   5.627
 2986SOL     OW 9856   4.120   3.470   2.812
 2986SOL    HW1 9857   4.145   3.387   2.863
 2986SOL    HW2 9858   4.156   3.463   2.719
 2987SOL     OW 9859   2.445   6.652   5.314
 2987SOL    HW1 9860   2.542   6.648   5.336
 2987SOL    HW2 9861   2.396   6.698   5.388
 2988SOL     OW 9862   0.803   1.917   6.607
 2988SOL    HW1 9863   0.764   1.840   6.555
 2988SOL    HW2 9864   0.903   1.911   6.604
 2989SOL     OW 9865   5.651   3.682   6.064
 2989SOL    HW1 9866   5.610   3.772   6.047
 2989SOL    HW2 9867   5.679   3.642   5.977
 2990SOL     OW 9868   4.787   1.585   4.879
 2990SOL    HW1 9869   4.853   1.510   4.882
 2990SOL    HW2 9870   4.755   1.606   4.972
 2991SOL     OW 9871   6.333   2.619   0.112
 2991SOL    HW1 9872   6.372   2.683   0.179
 2991SOL    HW2 9873   6.233   2.626   0.114
 2992SOL     OW 9874   2.018   3.914   4.862
 2992SOL    HW1 9875   1.932   3.877   4.825
 2992SOL    HW2 9876   2.060   3.846   4.922
 2993SOL     OW 9877   3.896   5.145   6.516
 2993SOL    HW1 9878   3.894   5.230   6.570
 2993SOL    HW2 9879   3.854   5.071   6.569
 2994SOL     OW 9880   2.744   5.065   4.381
 2994SOL    HW1 9881   2.718   4.972   4.357
 2994SOL    HW2 9882   2.706   5.088   4.471
 2995SOL     OW 9883   5.022   0.373   2.276
 2995SOL    HW1 9884   5.004   0.280   2.245
 2995SOL    HW2 9885   4.986   0.384   2.369
 2996SOL     OW 9886   0.191   0.616   3.627
 2996SOL    HW1 9887   0.100   0.610   3.587
 2996SOL    HW2 9888   0.183   0.638   3.725
 2997SOL     OW 9889   4.873   5.712   3.870
 2997SOL    HW1 9890   4.846   5.795   3.919
 2997SOL    HW2 9891   4.830   5.632   3.912
 2998SOL     OW 9892   3.092   0.223   1.823
 2998SOL    HW1 9893   3.031   0.169   1.880
 2998SOL    HW2 9894   3.105   0.178   1.734
 2999SOL     OW 9895   2.105   5.110   0.213
 2999SOL    HW1 9896   2.148   5.195   0.183
 2999SOL    HW2 9897   2.021   5.095   0.162
 3000SOL     OW 9898   1.948   4.295   6.289
 3000SOL    HW1 9899   2.017   4.312   6.359
 3000SOL    HW2 9900   1.992   4.256   6.208
 3001SOL     OW 9901   3.302   0.401   6.264
 3001SOL    HW1 9902   3.223   0.361   6.217
 3001SOL    HW2 9903   3.354   0.329   6.309
 3002SOL     OW 9904   1.526   1.893   1.949
 3002SOL    HW1 9905   1.434   1.900   1.909
 3002SOL    HW2 9906   1.584   1.964   1.909
 3003SOL     OW 9907   1.780   6.099   6.810
 3003SOL    HW1 9908   1.872   6.135   6.816
 3003SOL    HW2 9909   1.714   6.174   6.806
 3004SOL     OW 9910   2.915   0.647   5.096
 3004SOL    HW1 9911   2.920   0.746   5.106
 3004SOL    HW2 9912   2.994   0.615   5.044
 3005SOL     OW 9913   2.629   1.588   6.957
 3005SOL    HW1 9914   2.610   1.670   7.011
 3005SOL    HW2 9915   2.621   1.507   7.015
 3006SOL     OW 9916   5.771   0.840   5.751
 3006SOL    HW1 9917   5.859   0.804   5.785
 3006SOL    HW2 9918   5.752   0.928   5.795
 3007SOL     OW 9919   6.022   5.712   5.634
 3007SOL    HW1 9920   6.083   5.654   5.580
 3007SOL    HW2 9921   6.066   5.735   5.721
 3008SOL     OW 9922   5.687   3.830   5.360
 3008SOL    HW1 9923   5.714   3.911   5.307
 3008SOL    HW2 9924   5.701   3.849   5.458
 3009SOL     OW 9925   5.507   3.589   1.704
 3009SOL    HW1 9926   5.436   3.637   1.757
 3009SOL    HW2 9927   5.465   3.516   1.652
 3010SOL     OW 9928   4.329   4.576   1.552
 3010SOL    HW1 9929   4.381   4.603   1.471
 3010SOL    HW2 9930   4.327   4.476   1.559
 3011SOL     OW 9931   6.190   7.001   0.971
 3011SOL    HW1 9932   6.263   0.050   0.962
 3011SOL    HW2 9933   6.216   6.919   0.919
 3012SOL     OW 9934   2.107   1.974   4.628
 3012SOL    HW1 9935   2.130   1.957   4.724
 3012SOL    HW2 9936   2.188   2.009   4.580
 3013SOL     OW 9937   0.381   5.349   5.007
 3013SOL    HW1 9938   0.405   5.271   4.950
 3013SOL    HW2 9939   0.290   5.382   4.981
 3014SOL     OW 9940   3.878   0.336   0.468
 3014SOL    HW1 9941   3.876   0.357   0.370
 3014SOL    HW2 9942   3.848   0.241   0.482
 3015SOL     OW 9943   2.344   6.654   6.318
 3015SOL    HW1 9944   2.305   6.742   6.343
 3015SOL    HW2 9945   2.363   6.601   6.400
 3016SOL     OW 9946   3.000   0.744   4.658
 3016SOL    HW1 9947   2.912   0.779   4.625
 3016SOL    HW2 9948   3.019   0.656   4.614
 3017SOL     OW 9949   1.726   6.253   0.199
 3017SOL    HW1 9950   1.796   6.255   0.128
 3017SOL    HW2 9951   1.761   6.206   0.280
 3018SOL     OW 9952   2.226   2.840   1.857
 3018SOL    HW1 9953   2.231   2.857   1.955
 3018SOL    HW2 9954   2.179   2.754   1.840
 3019SOL     OW 9955   0.650   1.328   5.581
 3019SOL    HW1 9956   0.611   1.248   5.535
 3019SOL    HW2 9957   0.750   1.328   5.568
 3020SOL     OW 9958   5.875   3.913   6.351
 3020SOL    HW1 9959   5.914   3.970   6.423
 3020SOL    HW2 9960   5.784   3.881   6.380
 3021SOL     OW 9961   4.362   6.640   4.588
 3021SOL    HW1 9962   4.444   6.641   4.530
 3021SOL    HW2 9963   4.382   6.589   4.672
 3022SOL     OW 9964   3.970   6.646   2.428
 3022SOL    HW1 9965   4.053   6.646   2.485
 3022SOL    HW2 9966   3.889   6.641   2.486
 3023SOL     OW 9967   5.050   4.400   5.092
 3023SOL    HW1 9968   5.071   4.307   5.123
 3023SOL    HW2 9969   5.036   4.459   5.171
 3024SOL     OW 9970   6.113   1.411   6.591
 3024SOL    HW1 9971   6.015   1.411   6.567
 3024SOL    HW2 9972   6.129   1.480   6.661
 3025SOL     OW 9973   3.914   5.424   0.790
 3025SOL    HW1 9974   3.995   5.480   0.776
 3025SOL    HW2 9975   3.907   5.400   0.887
 3026SOL     OW 9976   6.824   6.560   2.471
 3026SOL    HW1 9977   6.784   6.613   2.396
 3026SOL    HW2 9978   6.751   6.510   2.518
 3027SOL     OW 9979   4.230   0.213   0.789
 3027SOL    HW1 9980   4.196   0.282   0.853
 3027SOL    HW2 9981   4.328   0.202   0.802
 3028SOL     OW 9982   4.001   3.328   3.726
 3028SOL    HW1 9983   3.976   3.416   3.765
 3028SOL    HW2 9984   4.042   3.270   3.797
 3029SOL     OW 9985   0.288   2.320   5.026
 3029SOL    HW1 9986   0.384   2.340   5.046
 3029SOL    HW2 9987   0.273   2.323   4.927
 3030SOL     OW 9988   0.409   3.779   6.400
 3030SOL    HW1 9989   0.389   3.683   6.418
 3030SOL    HW2 9990   0.366   3.806   6.314
 3031SOL     OW 9991   0.367   4.833   6.801
 3031SOL    HW1 9992   0.418   4.781   6.869
 3031SOL    HW2 9993   0.387   4.799   6.710
 3032SOL     OW 9994   3.825   6.750   3.789
 3032SOL    HW1 9995   3.861   6.673   3.737
 3032SOL    HW2 9996   3.886   6.828   3.779
 3033SOL     OW 9997   1.995   0.650   6.727
 3033SOL    HW1 9998   2.083   0.616   6.759
 3033SOL    HW2 9999   1.987   0.747   6.748
 3034SOL     OW10000   4.914   3.449   3.281
 3034SOL    HW110001   4.894   3.392   3.202
 3034SOL    HW210002   4.930   3.544   3.251
 3035SOL     OW10003   6.578   4.533   6.737
 3035SOL    HW110004   6.546   4.569   6.824
 3035SOL    HW210005   6.540   4.441   6.723
 3036SOL     OW10006   2.810   2.706   6.529
 3036SOL    HW110007   2.817   2.623   6.584
 3036SOL    HW210008   2.772   2.683   6.439
 3037SOL     OW10009   0.628   5.303   6.053
 3037SOL    HW110010   0.640   5.399   6.029
 3037SOL    HW210011   0.569   5.295   6.133
 3038SOL     OW10012   5.730   4.663   5.105
 3038SOL    HW110013   5.824   4.678   5.136
 3038SOL    HW210014   5.727   4.666   5.005
 3039SOL     OW10015   6.426   3.203   6.513
 3039SOL    HW110016   6.435   3.218   6.414
 3039SOL    HW210017   6.513   3.223   6.558
 3040SOL     OW10018   3.875   6.573   6.599
 3040SOL    HW110019   3.943   6.510   6.560
 3040SOL    HW210020   3.799   6.521   6.637
 3041SOL     OW10021   2.543   5.915   6.451
 3041SOL    HW110022   2.612   5.889   6.383
 3041SOL    HW210023   2.454   5.880   6.424
 3042SOL     OW10024   0.521   5.353   4.319
 3042SOL    HW110025   0.468   5.307   4.248
 3042SOL    HW210026   0.483   5.330   4.409
 3043SOL     OW10027   2.398   3.553   1.008
 3043SOL    HW110028   2.307   3.512   1.015
 3043SOL    HW210029   2.402   3.636   1.063
 3044SOL     OW10030   4.000   3.850   3.881
 3044SOL    HW110031   3.963   3.923   3.938
 3044SOL    HW210032   4.062   3.793   3.935
 3045SOL     OW10033   5.852   0.215   3.244
 3045SOL    HW110034   5.827   0.225   3.147
 3045SOL    HW210035   5.773   0.180   3.295
 3046SOL     OW10036   6.783   5.710   1.548
 3046SOL    HW110037   6.688   5.741   1.553
 3046SOL    HW210038   6.832   5.763   1.480
 3047SOL     OW10039   4.396   1.938   3.799
 3047SOL    HW110040   4.306   1.907   3.833
 3047SOL    HW210041   4.418   1.890   3.714
 3048SOL     OW10042   4.203   4.844   1.147
 3048SOL    HW110043   4.205   4.938   1.182
 3048SOL    HW210044   4.292   4.821   1.108
 3049SOL     OW10045   0.268   0.810   1.181
 3049SOL    HW110046   0.220   0.857   1.107
 3049SOL    HW210047   0.367   0.813   1.164
 3050SOL     OW10048   3.717   2.676   5.477
 3050SOL    HW110049   3.667   2.598   5.440
 3050SOL    HW210050   3.707   2.678   5.576
 3051SOL     OW10051   2.097   4.191   6.021
 3051SOL    HW110052   2.127   4.117   6.081
 3051SOL    HW210053   2.148   4.275   6.043
 3052SOL     OW10054   6.330   6.164   4.123
 3052SOL    HW110055   6.248   6.156   4.065
 3052SOL    HW210056   6.322   6.247   4.179
 3053SOL     OW10057   0.376   5.614   5.924
 3053SOL    HW110058   0.390   5.569   6.013
 3053SOL    HW210059   0.297   5.676   5.930
 3054SOL     OW10060   6.199   6.654   3.521
 3054SOL    HW110061   6.144   6.738   3.527
 3054SOL    HW210062   6.198   6.621   3.427
 3055SOL     OW10063   5.686   6.558   0.718
 3055SOL    HW110064   5.686   6.458   0.722
 3055SOL    HW210065   5.626   6.588   0.644
 3056SOL     OW10066   4.718   2.100   1.107
 3056SOL    HW110067   4.756   2.192   1.105
 3056SOL    HW210068   4.792   2.033   1.120
 3057SOL     OW10069   6.717   2.598   3.055
 3057SOL    HW110070   6.780   2.568   3.127
 3057SOL    HW210071   6.623   2.577   3.082
 3058SOL     OW10072   5.480   3.473   6.638
 3058SOL    HW110073   5.428   3.418   6.574
 3058SOL    HW210074   5.578   3.461   6.621
 3059SOL     OW10075   1.976   2.807   3.402
 3059SOL    HW110076   2.037   2.785   3.478
 3059SOL    HW210077   1.921   2.887   3.426
 3060SOL     OW10078   6.130   3.170   3.861
 3060SOL    HW110079   6.161   3.152   3.954
 3060SOL    HW210080   6.163   3.260   3.832
 3061SOL     OW10081   5.198   6.052   2.817
 3061SOL    HW110082   5.293   6.047   2.849
 3061SOL    HW210083   5.170   6.147   2.810
 3062SOL     OW10084   3.896   5.226   0.130
 3062SOL    HW110085   3.939   5.207   0.218
 3062SOL    HW210086   3.893   5.142   0.076
 3063SOL     OW10087   6.284   5.549   1.229
 3063SOL    HW110088   6.297   5.524   1.134
 3063SOL    HW210089   6.369   5.534   1.280
 3064SOL     OW10090   5.054   1.052   6.039
 3064SOL    HW110091   5.118   1.120   6.076
 3064SOL    HW210092   5.099   0.963   6.036
 3065SOL     OW10093   5.086   1.065   6.595
 3065SOL    HW110094   5.036   1.036   6.513
 3065SOL    HW210095   5.068   1.163   6.611
 3066SOL     OW10096   5.297   6.996   5.474
 3066SOL    HW110097   5.314   7.011   5.377
 3066SOL    HW210098   5.222   6.932   5.486
 3067SOL     OW10099   1.317   2.338   4.721
 3067SOL    HW110100   1.247   2.364   4.656
 3067SOL    HW210101   1.397   2.303   4.672
 3068SOL     OW10102   6.300   0.417   1.020
 3068SOL    HW110103   6.239   0.494   1.001
 3068SOL    HW210104   6.356   0.439   1.100
 3069SOL     OW10105   5.361   5.622   3.783
 3069SOL    HW110106   5.270   5.631   3.742
 3069SOL    HW210107   5.373   5.530   3.818
 3070SOL     OW10108   3.045   1.540   0.573
 3070SOL    HW110109   2.947   1.522   0.560
 3070SOL    HW210110   3.073   1.509   0.664
 3071SOL     OW10111   6.419   4.476   4.524
 3071SOL    HW110112   6.371   4.551   4.479
 3071SOL    HW210113   6.498   4.449   4.470
 3072SOL     OW10114   1.888   6.461   4.494
 3072SOL    HW110115   1.875   6.537   4.558
 3072SOL    HW210116   1.811   6.398   4.502
 3073SOL     OW10117   0.129   5.119   3.406
 3073SOL    HW110118   0.156   5.048   3.471
 3073SOL    HW210119   0.146   5.087   3.313
 3074SOL     OW10120   3.074   3.128   2.006
 3074SOL    HW110121   2.981   3.134   1.970
 3074SOL    HW210122   3.071   3.131   2.106
 3075SOL     OW10123   3.751   4.455   0.709
 3075SOL    HW110124   3.774   4.408   0.625
 3075SOL    HW210125   3.824   4.444   0.776
 3076SOL     OW10126   2.284   1.288   4.113
 3076SOL    HW110127   2.281   1.191   4.140
 3076SOL    HW210128   2.191   1.320   4.093
 3077SOL     OW10129   6.604   3.824   2.588
 3077SOL    HW110130   6.543   3.903   2.597
 3077SOL    HW210131   6.591   3.782   2.498
 3078SOL     OW10132   6.227   4.769   1.120
 3078SOL    HW110133   6.291   4.720   1.178
 3078SOL    HW210134   6.266   4.781   1.029
 3079SOL     OW10135   0.141   4.085   2.254
 3079SOL    HW110136   0.212   4.133   2.306
 3079SOL    HW210137   0.099   4.014   2.310
 3080SOL     OW10138   3.396   4.681   1.265
 3080SOL    HW110139   3.332   4.729   1.325
 3080SOL    HW210140   3.466   4.635   1.319
 3081SOL     OW10141   1.877   2.677   6.286
 3081SOL    HW110142   1.933   2.609   6.238
 3081SOL    HW210143   1.937   2.746   6.328
 3082SOL     OW10144   6.184   3.888   4.894
 3082SOL    HW110145   6.123   3.931   4.828
 3082SOL    HW210146   6.238   3.959   4.940
 3083SOL     OW10147   4.458   5.791   1.436
 3083SOL    HW110148   4.389   5.802   1.365
 3083SOL    HW210149   4.499   5.880   1.458
 3084SOL     OW10150   0.382   5.235   4.086
 3084SOL    HW110151   0.301   5.279   4.045
 3084SOL    HW210152   0.369   5.136   4.086
 3085SOL     OW10153   6.744   5.668   5.761
 3085SOL    HW110154   6.787   5.584   5.729
 3085SOL    HW210155   6.809   5.744   5.752
 3086SOL     OW10156   6.027   6.146   6.078
 3086SOL    HW110157   5.983   6.124   6.165
 3086SOL    HW210158   5.997   6.236   6.048
 3087SOL     OW10159   3.374   6.886   1.247
 3087SOL    HW110160   3.350   6.789   1.239
 3087SOL    HW210161   3.303   6.934   1.299
 3088SOL     OW10162   2.376   3.188   5.365
 3088SOL    HW110163   2.437   3.242   5.423
 3088SOL    HW210164   2.430   3.129   5.306
 3089SOL     OW10165   3.678   6.885   0.308
 3089SOL    HW110166   3.637   6.820   0.244
 3089SOL    HW210167   3.734   6.835   0.374
 3090SOL     OW10168   1.562   2.257   2.652
 3090SOL    HW110169   1.583   2.315   2.573
 3090SOL    HW210170   1.573   2.161   2.627
 3091SOL     OW10171   1.022   2.100   6.386
 3091SOL    HW110172   1.054   2.005   6.380
 3091SOL    HW210173   1.101   2.160   6.399
 3092SOL     OW10174   5.136   1.931   3.458
 3092SOL    HW110175   5.192   1.866   3.407
 3092SOL    HW210176   5.051   1.886   3.487
 3093SOL     OW10177   6.457   5.331   6.736
 3093SOL    HW110178   6.495   5.423   6.724
 3093SOL    HW210179   6.445   5.313   6.834
 3094SOL     OW10180   2.255   0.936   6.352
 3094SOL    HW110181   2.287   0.864   6.414
 3094SOL    HW210182   2.319   1.014   6.356
 3095SOL     OW10183   1.837   3.155   6.057
 3095SOL    HW110184   1.758   3.103   6.089
 3095SOL    HW210185   1.824   3.180   5.961
 3096SOL     OW10186   1.827   3.317   3.830
 3096SOL    HW110187   1.880   3.401   3.826
 3096SOL    HW210188   1.744   3.332   3.883
 3097SOL     OW10189   4.985   2.180   6.434
 3097SOL    HW110190   4.932   2.237   6.496
 3097SOL    HW210191   5.029   2.238   6.366
 3098SOL     OW10192   1.877   4.050   2.423
 3098SOL    HW110193   1.847   4.000   2.505
 3098SOL    HW210194   1.870   3.989   2.344
 3099SOL     OW10195   0.319   0.554   5.987
 3099SOL    HW110196   0.228   0.566   5.948
 3099SOL    HW210197   0.371   0.490   5.932
 3100SOL     OW10198   5.957   3.935   2.946
 3100SOL    HW110199   5.880   3.882   2.980
 3100SOL    HW210200   6.017   3.876   2.892
 3101SOL     OW10201   5.401   0.524   3.901
 3101SOL    HW110202   5.420   0.617   3.868
 3101SOL    HW210203   5.316   0.524   3.953
 3102SOL     OW10204   5.916   3.175   2.918
 3102SOL    HW110205   5.893   3.152   3.013
 3102SOL    HW210206   5.853   3.128   2.856
 3103SOL     OW10207   1.260   1.007   2.581
 3103SOL    HW110208   1.274   0.913   2.610
 3103SOL    HW210209   1.163   1.030   2.588
 3104SOL     OW10210   5.683   1.088   6.130
 3104SOL    HW110211   5.591   1.122   6.149
 3104SOL    HW210212   5.693   0.997   6.170
 3105SOL     OW10213   5.605   4.474   0.353
 3105SOL    HW110214   5.687   4.461   0.409
 3105SOL    HW210215   5.536   4.407   0.379
 3106SOL     OW10216   5.350   2.047   5.727
 3106SOL    HW110217   5.257   2.016   5.706
 3106SOL    HW210218   5.405   2.046   5.643
 3107SOL     OW10219   4.593   2.247   4.634
 3107SOL    HW110220   4.651   2.171   4.663
 3107SOL    HW210221   4.540   2.280   4.712
 3108SOL     OW10222   2.443   4.533   3.920
 3108SOL    HW110223   2.372   4.594   3.883
 3108SOL    HW210224   2.526   4.542   3.865
 3109SOL     OW10225   0.177   5.380   3.976
 3109SOL    HW110226   0.117   5.324   3.919
 3109SOL    HW210227   0.124   5.425   4.047
 3110SOL     OW10228   1.659   5.389   3.950
 3110SOL    HW110229   1.644   5.402   3.852
 3110SOL    HW210230   1.571   5.377   3.996
 3111SOL     OW10231   6.919   3.633   4.115
 3111SOL    HW110232   6.938   3.662   4.208
 3111SOL    HW210233   6.983   3.561   4.089
 3112SOL     OW10234   4.422   0.285   1.063
 3112SOL    HW110235   4.466   0.236   0.988
 3112SOL    HW210236   4.325   0.258   1.068
 3113SOL     OW10237   1.434   6.783   3.749
 3113SOL    HW110238   1.344   6.743   3.734
 3113SOL    HW210239   1.469   6.820   3.663
 3114SOL     OW10240   4.782   5.519   5.522
 3114SOL    HW110241   4.821   5.601   5.565
 3114SOL    HW210242   4.746   5.458   5.593
 3115SOL     OW10243   4.905   5.371   4.755
 3115SOL    HW110244   4.997   5.374   4.796
 3115SOL    HW210245   4.902   5.300   4.685
 3116SOL     OW10246   0.926   2.830   6.795
 3116SOL    HW110247   0.866   2.895   6.842
 3116SOL    HW210248   0.936   2.748   6.852
 3117SOL     OW10249   4.419   0.096   1.793
 3117SOL    HW110250   4.352   0.023   1.783
 3117SOL    HW210251   4.482   0.095   1.715
 3118SOL     OW10252   1.129   2.531   3.390
 3118SOL    HW110253   1.052   2.471   3.411
 3118SOL    HW210254   1.110   2.584   3.307
 3119SOL     OW10255   4.435   6.332   3.488
 3119SOL    HW110256   4.480   6.339   3.399
 3119SOL    HW210257   4.484   6.390   3.554
 3120SOL     OW10258   3.763   6.092   6.532
 3120SOL    HW110259   3.673   6.098   6.575
 3120SOL    HW210260   3.833   6.084   6.603
 3121SOL     OW10261   4.088   1.796   2.993
 3121SOL    HW110262   4.147   1.793   2.912
 3121SOL    HW210263   4.138   1.760   3.072
 3122SOL     OW10264   5.518   3.311   6.323
 3122SOL    HW110265   5.549   3.227   6.279
 3122SOL    HW210266   5.581   3.385   6.301
 3123SOL     OW10267   1.851   3.230   2.393
 3123SOL    HW110268   1.872   3.208   2.297
 3123SOL    HW210269   1.858   3.329   2.406
 3124SOL     OW10270   5.078   6.836   5.546
 3124SOL    HW110271   5.022   6.825   5.464
 3124SOL    HW210272   5.030   6.798   5.625
 3125SOL     OW10273   1.817   1.853   4.834
 3125SOL    HW110274   1.820   1.788   4.758
 3125SOL    HW210275   1.780   1.941   4.801
 3126SOL     OW10276   5.077   4.153   5.175
 3126SOL    HW110277   5.074   4.060   5.139
 3126SOL    HW210278   5.139   4.157   5.253
 3127SOL     OW10279   6.275   2.272   6.072
 3127SOL    HW110280   6.181   2.254   6.100
 3127SOL    HW210281   6.304   2.204   6.005
 3128SOL     OW10282   4.583   1.780   1.423
 3128SOL    HW110283   4.571   1.683   1.402
 3128SOL    HW210284   4.566   1.795   1.521
 3129SOL     OW10285   4.313   4.818   0.604
 3129SOL    HW110286   4.398   4.792   0.650
 3129SOL    HW210287   4.257   4.737   0.589
 3130SOL     OW10288   6.252   5.460   2.564
 3130SOL    HW110289   6.312   5.539   2.559
 3130SOL    HW210290   6.307   5.376   2.562
 3131SOL     OW10291   0.415   2.563   3.298
 3131SOL    HW110292   0.423   2.491   3.229
 3131SOL    HW210293   0.505   2.606   3.311
 3132SOL     OW10294   4.663   3.858   6.183
 3132SOL    HW110295   4.726   3.851   6.260
 3132SOL    HW210296   4.595   3.785   6.187
 3133SOL     OW10297   5.963   6.393   4.210
 3133SOL    HW110298   5.935   6.352   4.123
 3133SOL    HW210299   6.035   6.338   4.252
 3134SOL     OW10300   4.297   5.212   3.020
 3134SOL    HW110301   4.208   5.181   3.052
 3134SOL    HW210302   4.331   5.283   3.080
 3135SOL     OW10303   3.933   0.892   6.295
 3135SOL    HW110304   3.906   0.987   6.309
 3135SOL    HW210305   3.889   0.856   6.213
 3136SOL     OW10306   6.041   6.222   2.028
 3136SOL    HW110307   6.121   6.277   2.002
 3136SOL    HW210308   6.071   6.146   2.086
 3137SOL     OW10309   5.278   4.214   6.796
 3137SOL    HW110310   5.265   4.124   6.754
 3137SOL    HW210311   5.213   4.279   6.755
 3138SOL     OW10312   0.069   6.676   4.913
 3138SOL    HW110313   0.040   6.684   4.818
 3138SOL    HW210314   0.156   6.626   4.917
 3139SOL     OW10315   1.420   4.891   2.390
 3139SOL    HW110316   1.443   4.914   2.485
 3139SOL    HW210317   1.348   4.953   2.357
 3140SOL     OW10318   5.104   5.521   6.925
 3140SOL    HW110319   5.079   5.428   6.953
 3140SOL    HW210320   5.099   5.582   7.003
 3141SOL     OW10321   5.832   2.145   0.223
 3141SOL    HW110322   5.740   2.129   0.258
 3141SOL    HW210323   5.854   2.242   0.231
 3142SOL     OW10324   4.238   0.826   4.023
 3142SOL    HW110325   4.293   0.881   4.085
 3142SOL    HW210326   4.233   0.732   4.057
 3143SOL     OW10327   6.286   1.545   0.218
 3143SOL    HW110328   6.303   1.447   0.216
 3143SOL    HW210329   6.301   1.584   0.127
 3144SOL     OW10330   3.607   5.117   6.417
 3144SOL    HW110331   3.658   5.044   6.371
 3144SOL    HW210332   3.671   5.186   6.452
 3145SOL     OW10333   0.570   6.216   5.643
 3145SOL    HW110334   0.552   6.157   5.722
 3145SOL    HW210335   0.651   6.183   5.595
 3146SOL     OW10336   6.965   1.569   4.211
 3146SOL    HW110337   6.904   1.613   4.277
 3146SOL    HW210338   7.012   1.639   4.158
 3147SOL     OW10339   4.737   6.926   0.466
 3147SOL    HW110340   4.759   6.933   0.369
 3147SOL    HW210341   4.639   6.909   0.477
 3148SOL     OW10342   5.889   4.956   0.252
 3148SOL    HW110343   5.796   4.942   0.217
 3148SOL    HW210344   5.886   4.977   0.349
 3149SOL     OW10345   4.170   3.363   0.060
 3149SOL    HW110346   4.073   3.351   0.081
 3149SOL    HW210347   4.218   3.395   0.142
 3150SOL     OW10348   0.147   0.238   5.401
 3150SOL    HW110349   0.239   0.232   5.361
 3150SOL    HW210350   0.079   0.245   5.328
 3151SOL     OW10351   0.209   1.682   6.452
 3151SOL    HW110352   0.291   1.735   6.473
 3151SOL    HW210353   0.129   1.731   6.486
 3152SOL     OW10354   2.620   1.778   6.259
 3152SOL    HW110355   2.564   1.861   6.262
 3152SOL    HW210356   2.648   1.760   6.165
 3153SOL     OW10357   5.578   6.038   1.862
 3153SOL    HW110358   5.530   6.070   1.943
 3153SOL    HW210359   5.653   5.978   1.890
 3154SOL     OW10360   3.251   2.357   1.049
 3154SOL    HW110361   3.347   2.346   1.074
 3154SOL    HW210362   3.241   2.347   0.950
 3155SOL     OW10363   0.221   6.112   6.781
 3155SOL    HW110364   0.163   6.031   6.776
 3155SOL    HW210365   0.202   6.172   6.703
 3156SOL     OW10366   3.061   4.295   0.833
 3156SOL    HW110367   3.020   4.367   0.777
 3156SOL    HW210368   3.049   4.317   0.930
 3157SOL     OW10369   1.381   1.193   3.414
 3157SOL    HW110370   1.332   1.230   3.492
 3157SOL    HW210371   1.470   1.159   3.444
 3158SOL     OW10372   2.052   0.383   6.025
 3158SOL    HW110373   2.045   0.290   6.061
 3158SOL    HW210374   2.078   0.445   6.099
 3159SOL     OW10375   4.550   5.880   1.750
 3159SOL    HW110376   4.455   5.851   1.760
 3159SOL    HW210377   4.569   5.902   1.654
 3160SOL     OW10378   2.433   0.966   5.773
 3160SOL    HW110379   2.483   0.899   5.827
 3160SOL    HW210380   2.409   0.927   5.684
 3161SOL     OW10381   1.881   2.442   1.873
 3161SOL    HW110382   1.887   2.402   1.782
 3161SOL    HW210383   1.909   2.375   1.941
 3162SOL     OW10384   1.464   5.748   2.105
 3162SOL    HW110385   1.386   5.809   2.095
 3162SOL    HW210386   1.535   5.792   2.160
 3163SOL     OW10387   5.568   4.491   2.026
 3163SOL    HW110388   5.663   4.523   2.024
 3163SOL    HW210389   5.524   4.520   2.110
 3164SOL     OW10390   2.501   0.138   3.651
 3164SOL    HW110391   2.543   0.113   3.564
 3164SOL    HW210392   2.413   0.092   3.661
 3165SOL     OW10393   0.579   5.725   0.037
 3165SOL    HW110394   0.612   5.812   0.073
 3165SOL    HW210395   0.509   5.687   0.099
 3166SOL     OW10396   3.723   1.934   4.703
 3166SOL    HW110397   3.763   2.021   4.674
 3166SOL    HW210398   3.623   1.941   4.702
 3167SOL     OW10399   6.613   2.926   2.460
 3167SOL    HW110400   6.529   2.978   2.478
 3167SOL    HW210401   6.670   2.925   2.543
 3168SOL     OW10402   5.417   1.722   0.992
 3168SOL    HW110403   5.516   1.723   0.976
 3168SOL    HW210404   5.369   1.757   0.911
 3169SOL     OW10405   1.048   2.633   1.574
 3169SOL    HW110406   0.963   2.669   1.537
 3169SOL    HW210407   1.095   2.579   1.504
 3170SOL     OW10408   2.637   4.592   3.695
 3170SOL    HW110409   2.677   4.535   3.623
 3170SOL    HW210410   2.609   4.680   3.655
 3171SOL     OW10411   5.708   1.604   4.753
 3171SOL    HW110412   5.711   1.678   4.821
 3171SOL    HW210413   5.617   1.600   4.712
 3172SOL     OW10414   5.574   4.256   1.467
 3172SOL    HW110415   5.495   4.204   1.501
 3172SOL    HW210416   5.566   4.264   1.367
 3173SOL     OW10417   4.989   3.972   0.223
 3173SOL    HW110418   5.084   4.000   0.220
 3173SOL    HW210419   4.949   3.998   0.311
 3174SOL     OW10420   2.919   3.141   7.007
 3174SOL    HW110421   2.935   3.169   6.912
 3174SOL    HW210422   2.935   3.043   7.016
 3175SOL     OW10423   6.096   6.045   5.391
 3175SOL    HW110424   6.078   5.964   5.335
 3175SOL    HW210425   6.041   6.042   5.474
 3176SOL     OW10426   6.896   5.014   3.834
 3176SOL    HW110427   6.982   4.982   3.875
 3176SOL    HW210428   6.876   5.106   3.868
 3177SOL     OW10429   5.232   2.616   1.689
 3177SOL    HW110430   5.135   2.607   1.669
 3177SOL    HW210431   5.285   2.600   1.606
 3178SOL     OW10432   1.501   0.776   2.834
 3178SOL    HW110433   1.588   0.760   2.787
 3178SOL    HW210434   1.427   0.779   2.767
 3179SOL     OW10435   0.474   3.958   2.615
 3179SOL    HW110436   0.383   3.995   2.629
 3179SOL    HW210437   0.470   3.881   2.550
 3180SOL     OW10438   5.972   0.109   6.471
 3180SOL    HW110439   5.933   0.167   6.542
 3180SOL    HW210440   5.904   0.093   6.400
 3181SOL     OW10441   0.178   6.631   4.464
 3181SOL    HW110442   0.099   6.662   4.411
 3181SOL    HW210443   0.154   6.549   4.515
 3182SOL     OW10444   1.330   0.070   1.540
 3182SOL    HW110445   1.322   6.993   1.566
 3182SOL    HW210446   1.323   0.128   1.621
 3183SOL     OW10447   4.363   4.229   0.391
 3183SOL    HW110448   4.274   4.205   0.354
 3183SOL    HW210449   4.401   4.151   0.440
 3184SOL     OW10450   6.187   0.497   4.651
 3184SOL    HW110451   6.118   0.434   4.687
 3184SOL    HW210452   6.144   0.583   4.626
 3185SOL     OW10453   1.495   0.796   6.093
 3185SOL    HW110454   1.482   0.767   6.188
 3185SOL    HW210455   1.499   0.896   6.089
 3186SOL     OW10456   0.837   2.229   5.997
 3186SOL    HW110457   0.834   2.285   6.079
 3186SOL    HW210458   0.778   2.149   6.009
 3187SOL     OW10459   4.823   0.299   3.165
 3187SOL    HW110460   4.802   0.264   3.256
 3187SOL    HW210461   4.902   0.361   3.170
 3188SOL     OW10462   1.598   6.228   1.345
 3188SOL    HW110463   1.553   6.317   1.352
 3188SOL    HW210464   1.607   6.188   1.436
 3189SOL     OW10465   2.542   2.108   5.502
 3189SOL    HW110466   2.603   2.090   5.426
 3189SOL    HW210467   2.459   2.053   5.492
 3190SOL     OW10468   6.431   6.076   4.411
 3190SOL    HW110469   6.332   6.076   4.427
 3190SOL    HW210470   6.463   6.170   4.398
 3191SOL     OW10471   3.964   5.152   0.709
 3191SOL    HW110472   3.953   5.246   0.743
 3191SOL    HW210473   4.026   5.103   0.769
 3192SOL     OW10474   5.800   0.982   3.401
 3192SOL    HW110475   5.887   1.013   3.363
 3192SOL    HW210476   5.807   0.977   3.501
 3193SOL     OW10477   3.559   5.789   4.445
 3193SOL    HW110478   3.534   5.813   4.351
 3193SOL    HW210479   3.596   5.870   4.492
 3194SOL     OW10480   2.134   6.138   5.729
 3194SOL    HW110481   2.162   6.111   5.637
 3194SOL    HW210482   2.213   6.135   5.790
 3195SOL     OW10483   0.642   5.721   1.619
 3195SOL    HW110484   0.613   5.809   1.657
 3195SOL    HW210485   0.694   5.671   1.688
 3196SOL     OW10486   5.758   0.298   3.014
 3196SOL    HW110487   5.676   0.299   2.957
 3196SOL    HW210488   5.791   0.392   3.027
 3197SOL     OW10489   3.045   0.914   6.946
 3197SOL    HW110490   3.101   0.987   6.986
 3197SOL    HW210491   3.094   0.876   6.867
 3198SOL     OW10492   5.771   4.145   4.102
 3198SOL    HW110493   5.726   4.175   4.186
 3198SOL    HW210494   5.797   4.049   4.110
 3199SOL     OW10495   5.077   3.640   4.023
 3199SOL    HW110496   5.035   3.672   4.108
 3199SOL    HW210497   5.010   3.643   3.949
 3200SOL     OW10498   6.543   3.214   4.740
 3200SOL    HW110499   6.493   3.157   4.675
 3200SOL    HW210500   6.481   3.244   4.812
 3201SOL     OW10501   6.479   3.450   2.615
 3201SOL    HW110502   6.482   3.533   2.671
 3201SOL    HW210503   6.459   3.371   2.673
 3202SOL     OW10504   2.970   2.676   5.979
 3202SOL    HW110505   2.892   2.636   5.931
 3202SOL    HW210506   2.940   2.755   6.032
 3203SOL     OW10507   3.307   6.221   1.717
 3203SOL    HW110508   3.306   6.232   1.816
 3203SOL    HW210509   3.326   6.125   1.694
 3204SOL     OW10510   4.897   0.734   3.636
 3204SOL    HW110511   4.837   0.808   3.605
 3204SOL    HW210512   4.951   0.701   3.558
 3205SOL     OW10513   5.108   2.983   0.308
 3205SOL    HW110514   5.021   2.990   0.357
 3205SOL    HW210515   5.180   2.955   0.372
 3206SOL     OW10516   3.801   5.035   6.979
 3206SOL    HW110517   3.707   5.053   6.951
 3206SOL    HW210518   3.813   4.937   6.996
 3207SOL     OW10519   2.081   6.535   3.201
 3207SOL    HW110520   1.996   6.483   3.209
 3207SOL    HW210521   2.078   6.593   3.119
 3208SOL     OW10522   6.846   4.022   6.883
 3208SOL    HW110523   6.822   3.945   6.824
 3208SOL    HW210524   6.935   4.007   6.925
 3209SOL     OW10525   5.420   0.238   5.016
 3209SOL    HW110526   5.491   0.308   5.026
 3209SOL    HW210527   5.446   0.174   4.944
 3210SOL     OW10528   5.152   4.927   2.240
 3210SOL    HW110529   5.133   5.022   2.215
 3210SOL    HW210530   5.126   4.913   2.336
 3211SOL     OW10531   2.520   0.186   6.906
 3211SOL    HW110532   2.512   0.091   6.876
 3211SOL    HW210533   2.540   0.188   7.004
 3212SOL     OW10534   3.488   6.827   4.534
 3212SOL    HW110535   3.395   6.795   4.555
 3212SOL    HW210536   3.501   6.828   4.435
 3213SOL     OW10537   1.295   0.365   5.805
 3213SOL    HW110538   1.202   0.333   5.789
 3213SOL    HW210539   1.358   0.320   5.742
 3214SOL     OW10540   2.804   0.405   2.916
 3214SOL    HW110541   2.875   0.473   2.902
 3214SOL    HW210542   2.845   0.313   2.919
 3215SOL     OW10543   2.255   3.245   1.708
 3215SOL    HW110544   2.301   3.312   1.766
 3215SOL    HW210545   2.156   3.258   1.714
 3216SOL     OW10546   6.367   4.357   1.067
 3216SOL    HW110547   6.382   4.260   1.084
 3216SOL    HW210548   6.297   4.392   1.130
 3217SOL     OW10549   6.065   5.808   3.946
 3217SOL    HW110550   6.134   5.737   3.949
 3217SOL    HW210551   6.034   5.820   3.851
 3218SOL     OW10552   5.859   1.373   3.553
 3218SOL    HW110553   5.836   1.437   3.626
 3218SOL    HW210554   5.956   1.383   3.529
 3219SOL     OW10555   4.713   1.978   4.543
 3219SOL    HW110556   4.720   2.023   4.455
 3219SOL    HW210557   4.646   1.904   4.539
 3220SOL     OW10558   0.351   3.280   5.575
 3220SOL    HW110559   0.286   3.235   5.635
 3220SOL    HW210560   0.304   3.353   5.524
 3221SOL     OW10561   4.323   1.863   2.166
 3221SOL    HW110562   4.315   1.902   2.074
 3221SOL    HW210563   4.244   1.805   2.184
 3222SOL     OW10564   3.155   0.836   3.410
 3222SOL    HW110565   3.059   0.818   3.391
 3222SOL    HW210566   3.163   0.889   3.495
 3223SOL     OW10567   1.848   5.641   0.531
 3223SOL    HW110568   1.868   5.706   0.604
 3223SOL    HW210569   1.864   5.548   0.564
 3224SOL     OW10570   4.517   2.543   3.596
 3224SOL    HW110571   4.546   2.598   3.518
 3224SOL    HW210572   4.563   2.576   3.679
 3225SOL     OW10573   4.016   0.864   5.073
 3225SOL    HW110574   4.031   0.960   5.100
 3225SOL    HW210575   4.027   0.856   4.974
 3226SOL     OW10576   5.920   0.930   0.574
 3226SOL    HW110577   5.997   0.983   0.610
 3226SOL    HW210578   5.937   0.833   0.589
 3227SOL     OW10579   5.764   4.267   5.833
 3227SOL    HW110580   5.676   4.279   5.878
 3227SOL    HW210581   5.824   4.210   5.889
 3228SOL     OW10582   1.954   4.330   0.691
 3228SOL    HW110583   2.020   4.278   0.637
 3228SOL    HW210584   1.977   4.428   0.687
 3229SOL     OW10585   0.805   0.890   0.660
 3229SOL    HW110586   0.809   0.990   0.654
 3229SOL    HW210587   0.825   0.850   0.570
 3230SOL     OW10588   3.402   6.585   5.536
 3230SOL    HW110589   3.371   6.496   5.567
 3230SOL    HW210590   3.327   6.651   5.543
 3231SOL     OW10591   2.741   2.206   2.682
 3231SOL    HW110592   2.714   2.186   2.776
 3231SOL    HW210593   2.812   2.143   2.653
 3232SOL     OW10594   2.957   4.861   3.753
 3232SOL    HW110595   2.950   4.831   3.657
 3232SOL    HW210596   2.870   4.898   3.783
 3233SOL     OW10597   2.494   0.404   5.572
 3233SOL    HW110598   2.535   0.402   5.481
 3233SOL    HW210599   2.534   0.332   5.628
 3234SOL     OW10600   3.525   3.721   0.601
 3234SOL    HW110601   3.439   3.682   0.633
 3234SOL    HW210602   3.559   3.787   0.667
 3235SOL     OW10603   0.429   2.011   2.717
 3235SOL    HW110604   0.525   2.034   2.701
 3235SOL    HW210605   0.405   2.033   2.812
 3236SOL     OW10606   5.897   6.713   0.558
 3236SOL    HW110607   5.841   6.731   0.477
 3236SOL    HW210608   5.845   6.656   0.622
 3237SOL     OW10609   6.137   1.898   5.600
 3237SOL    HW110610   6.145   1.877   5.503
 3237SOL    HW210611   6.079   1.978   5.612
 3238SOL     OW10612   6.992   4.966   1.005
 3238SOL    HW110613   0.015   5.038   0.949
 3238SOL    HW210614   0.034   4.886   1.007
 3239SOL     OW10615   5.872   1.010   4.929
 3239SOL    HW110616   5.954   1.006   4.871
 3239SOL    HW210617   5.897   0.992   5.024
 3240SOL     OW10618   0.726   1.674   1.679
 3240SOL    HW110619   0.684   1.702   1.592
 3240SOL    HW210620   0.677   1.717   1.755
 3241SOL     OW10621   0.377   2.918   5.685
 3241SOL    HW110622   0.352   2.964   5.600
 3241SOL    HW210623   0.450   2.851   5.667
 3242SOL     OW10624   0.266   5.042   5.274
 3242SOL    HW110625   0.300   5.118   5.219
 3242SOL    HW210626   0.319   5.036   5.359
 3243SOL     OW10627   6.019   5.467   5.093
 3243SOL    HW110628   5.999   5.556   5.051
 3243SOL    HW210629   6.026   5.398   5.021
 3244SOL     OW10630   4.765   0.277   6.935
 3244SOL    HW110631   4.666   0.287   6.946
 3244SOL    HW210632   4.784   0.217   6.858
 3245SOL     OW10633   2.523   6.315   4.115
 3245SOL    HW110634   2.565   6.376   4.048
 3245SOL    HW210635   2.449   6.264   4.072
 3246SOL     OW10636   6.753   5.684   2.827
 3246SOL    HW110637   6.764   5.748   2.903
 3246SOL    HW210638   6.656   5.661   2.816
 3247SOL     OW10639   2.285   4.305   4.676
 3247SOL    HW110640   2.377   4.329   4.707
 3247SOL    HW210641   2.256   4.219   4.718
 3248SOL     OW10642   6.393   2.449   3.807
 3248SOL    HW110643   6.421   2.372   3.864
 3248SOL    HW210644   6.315   2.495   3.849
 3249SOL     OW10645   3.862   4.041   4.019
 3249SOL    HW110646   3.893   4.136   4.011
 3249SOL    HW210647   3.867   4.012   4.115
 3250SOL     OW10648   4.838   5.420   3.875
 3250SOL    HW110649   4.755   5.406   3.821
 3250SOL    HW210650   4.918   5.417   3.815
 3251SOL     OW10651   2.459   2.037   2.523
 3251SOL    HW110652   2.362   2.061   2.512
 3251SOL    HW210653   2.503   2.036   2.434
 3252SOL     OW10654   1.679   1.692   2.554
 3252SOL    HW110655   1.726   1.605   2.571
 3252SOL    HW210656   1.668   1.741   2.641
 3253SOL     OW10657   6.606   3.463   1.141
 3253SOL    HW110658   6.507   3.465   1.125
 3253SOL    HW210659   6.634   3.369   1.163
 3254SOL     OW10660   6.505   6.834   0.792
 3254SOL    HW110661   6.572   6.760   0.786
 3254SOL    HW210662   6.483   6.867   0.700
 3255SOL     OW10663   3.820   4.866   2.189
 3255SOL    HW110664   3.761   4.813   2.127
 3255SOL    HW210665   3.763   4.919   2.251
 3256SOL     OW10666   5.425   2.726   2.095
 3256SOL    HW110667   5.424   2.815   2.049
 3256SOL    HW210668   5.352   2.669   2.060
 3257SOL     OW10669   2.608   1.051   2.721
 3257SOL    HW110670   2.567   0.961   2.710
 3257SOL    HW210671   2.557   1.102   2.790
 3258SOL     OW10672   0.633   5.026   3.921
 3258SOL    HW110673   0.667   5.107   3.969
 3258SOL    HW210674   0.575   5.055   3.845
 3259SOL     OW10675   6.082   4.810   3.297
 3259SOL    HW110676   6.051   4.722   3.261
 3259SOL    HW210677   6.140   4.855   3.229
 3260SOL     OW10678   2.563   4.836   3.585
 3260SOL    HW110679   2.465   4.825   3.595
 3260SOL    HW210680   2.596   4.905   3.650
 3261SOL     OW10681   6.057   6.821   3.831
 3261SOL    HW110682   6.050   6.856   3.737
 3261SOL    HW210683   6.010   6.885   3.893
 3262SOL     OW10684   3.246   1.691   2.939
 3262SOL    HW110685   3.148   1.687   2.920
 3262SOL    HW210686   3.262   1.669   3.035
 3263SOL     OW10687   5.532   6.890   1.773
 3263SOL    HW110688   5.500   6.975   1.730
 3263SOL    HW210689   5.588   6.839   1.708
 3264SOL     OW10690   1.091   5.054   6.203
 3264SOL    HW110691   0.992   5.044   6.214
 3264SOL    HW210692   1.129   5.096   6.285
 3265SOL     OW10693   0.022   6.193   6.034
 3265SOL    HW110694   0.108   6.240   6.013
 3265SOL    HW210695   6.990   6.179   5.949
 3266SOL     OW10696   3.953   4.691   6.587
 3266SOL    HW110697   3.904   4.645   6.661
 3266SOL    HW210698   4.025   4.631   6.552
 3267SOL     OW10699   2.958   0.283   0.739
 3267SOL    HW110700   3.051   0.295   0.704
 3267SOL    HW210701   2.895   0.337   0.684
 3268SOL     OW10702   5.436   4.149   2.163
 3268SOL    HW110703   5.512   4.117   2.220
 3268SOL    HW210704   5.366   4.078   2.158
 3269SOL     OW10705   2.092   5.503   0.862
 3269SOL    HW110706   1.993   5.491   0.855
 3269SOL    HW210707   2.123   5.477   0.953
 3270SOL     OW10708   1.773   3.096   6.491
 3270SOL    HW110709   1.837   3.115   6.417
 3270SOL    HW210710   1.752   2.998   6.492
 3271SOL     OW10711   0.924   4.115   1.421
 3271SOL    HW110712   0.973   4.101   1.335
 3271SOL    HW210713   0.990   4.116   1.496
 3272SOL     OW10714   3.636   0.143   0.772
 3272SOL    HW110715   3.673   0.118   0.683
 3272SOL    HW210716   3.549   0.191   0.759
 3273SOL     OW10717   4.351   3.670   6.503
 3273SOL    HW110718   4.304   3.623   6.428
 3273SOL    HW210719   4.384   3.759   6.472
 3274SOL     OW10720   4.416   0.404   2.135
 3274SOL    HW110721   4.331   0.437   2.177
 3274SOL    HW210722   4.400   0.391   2.037
 3275SOL     OW10723   5.331   0.508   1.496
 3275SOL    HW110724   5.287   0.593   1.466
 3275SOL    HW210725   5.395   0.528   1.570
 3276SOL     OW10726   5.749   5.558   0.304
 3276SOL    HW110727   5.812   5.490   0.340
 3276SOL    HW210728   5.783   5.592   0.217
 3277SOL     OW10729   4.041   1.186   2.112
 3277SOL    HW110730   4.081   1.272   2.144
 3277SOL    HW210731   4.103   1.110   2.131
 3278SOL     OW10732   5.204   1.401   6.766
 3278SOL    HW110733   5.178   1.378   6.672
 3278SOL    HW210734   5.275   1.472   6.765
 3279SOL     OW10735   4.323   0.539   2.544
 3279SOL    HW110736   4.288   0.496   2.461
 3279SOL    HW210737   4.368   0.470   2.601
 3280SOL     OW10738   6.619   2.884   4.316
 3280SOL    HW110739   6.691   2.825   4.354
 3280SOL    HW210740   6.650   2.924   4.230
 3281SOL     OW10741   5.935   2.716   2.175
 3281SOL    HW110742   5.939   2.802   2.123
 3281SOL    HW210743   5.892   2.645   2.119
 3282SOL     OW10744   6.711   4.658   5.283
 3282SOL    HW110745   6.760   4.608   5.211
 3282SOL    HW210746   6.650   4.596   5.331
 3283SOL     OW10747   3.319   1.313   0.461
 3283SOL    HW110748   3.287   1.326   0.367
 3283SOL    HW210749   3.380   1.388   0.485
 3284SOL     OW10750   2.006   1.149   5.246
 3284SOL    HW110751   2.104   1.135   5.259
 3284SOL    HW210752   1.955   1.081   5.298
 3285SOL     OW10753   3.747   1.772   3.917
 3285SOL    HW110754   3.794   1.839   3.860
 3285SOL    HW210755   3.658   1.750   3.878
 3286SOL     OW10756   1.171   4.099   3.360
 3286SOL    HW110757   1.205   4.161   3.289
 3286SOL    HW210758   1.233   4.100   3.438
 3287SOL     OW10759   2.969   1.206   0.471
 3287SOL    HW110760   2.975   1.306   0.471
 3287SOL    HW210761   2.912   1.176   0.547
 3288SOL     OW10762   3.239   5.266   1.838
 3288SOL    HW110763   3.267   5.272   1.934
 3288SOL    HW210764   3.315   5.292   1.779
 3289SOL     OW10765   5.041   0.136   0.103
 3289SOL    HW110766   5.000   0.103   0.018
 3289SOL    HW210767   5.132   0.172   0.085
 3290SOL     OW10768   0.734   4.915   0.122
 3290SOL    HW110769   0.666   4.842   0.118
 3290SOL    HW210770   0.702   4.989   0.181
 3291SOL     OW10771   5.280   6.226   5.730
 3291SOL    HW110772   5.350   6.200   5.664
 3291SOL    HW210773   5.233   6.309   5.699
 3292SOL     OW10774   0.370   3.423   1.044
 3292SOL    HW110775   0.434   3.369   1.100
 3292SOL    HW210776   0.344   3.505   1.094
 3293SOL     OW10777   6.650   4.375   2.555
 3293SOL    HW110778   6.733   4.430   2.550
 3293SOL    HW210779   6.580   4.424   2.607
 3294SOL     OW10780   4.136   2.932   5.421
 3294SOL    HW110781   4.189   2.908   5.339
 3294SOL    HW210782   4.092   2.850   5.457
 3295SOL     OW10783   1.042   3.470   3.515
 3295SOL    HW110784   1.000   3.530   3.447
 3295SOL    HW210785   1.106   3.408   3.469
 3296SOL     OW10786   2.105   0.670   0.098
 3296SOL    HW110787   2.185   0.729   0.102
 3296SOL    HW210788   2.109   0.615   0.014
 3297SOL     OW10789   2.966   0.509   5.784
 3297SOL    HW110790   2.901   0.500   5.710
 3297SOL    HW210791   2.971   0.605   5.813
 3298SOL     OW10792   3.925   4.067   6.066
 3298SOL    HW110793   3.884   4.037   6.152
 3298SOL    HW210794   3.937   3.988   6.005
 3299SOL     OW10795   2.699   6.970   4.287
 3299SOL    HW110796   2.685   6.918   4.371
 3299SOL    HW210797   2.728   6.909   4.214
 3300SOL     OW10798   1.765   0.920   3.158
 3300SOL    HW110799   1.731   0.994   3.100
 3300SOL    HW210800   1.717   0.835   3.135
 3301SOL     OW10801   1.120   0.952   2.091
 3301SOL    HW110802   1.119   0.922   2.187
 3301SOL    HW210803   1.043   0.911   2.042
 3302SOL     OW10804   1.305   4.495   4.751
 3302SOL    HW110805   1.404   4.495   4.737
 3302SOL    HW210806   1.259   4.487   4.663
 3303SOL     OW10807   4.564   3.731   0.624
 3303SOL    HW110808   4.657   3.762   0.605
 3303SOL    HW210809   4.545   3.741   0.722
 3304SOL     OW10810   2.374   3.793   1.149
 3304SOL    HW110811   2.444   3.857   1.181
 3304SOL    HW210812   2.284   3.832   1.165
 3305SOL     OW10813   3.248   2.802   6.893
 3305SOL    HW110814   3.169   2.847   6.853
 3305SOL    HW210815   3.221   2.713   6.929
 3306SOL     OW10816   2.542   0.569   1.119
 3306SOL    HW110817   2.589   0.543   1.203
 3306SOL    HW210818   2.536   0.489   1.058
 3307SOL     OW10819   2.229   5.545   5.168
 3307SOL    HW110820   2.211   5.488   5.088
 3307SOL    HW210821   2.297   5.501   5.226
 3308SOL     OW10822   5.239   5.668   1.276
 3308SOL    HW110823   5.264   5.660   1.372
 3308SOL    HW210824   5.285   5.598   1.223
 3309SOL     OW10825   6.113   3.654   4.159
 3309SOL    HW110826   6.042   3.646   4.228
 3309SOL    HW210827   6.086   3.722   4.091
 3310SOL     OW10828   6.469   4.402   6.396
 3310SOL    HW110829   6.494   4.496   6.372
 3310SOL    HW210830   6.537   4.365   6.459
 3311SOL     OW10831   2.107   2.812   0.271
 3311SOL    HW110832   2.166   2.892   0.260
 3311SOL    HW210833   2.156   2.730   0.241
 3312SOL     OW10834   5.125   3.660   0.423
 3312SOL    HW110835   5.083   3.673   0.333
 3312SOL    HW210836   5.189   3.584   0.419
 3313SOL     OW10837   0.994   6.717   3.798
 3313SOL    HW110838   0.911   6.726   3.853
 3313SOL    HW210839   1.009   6.801   3.746
 3314SOL     OW10840   3.053   6.263   3.406
 3314SOL    HW110841   3.087   6.287   3.315
 3314SOL    HW210842   3.026   6.167   3.408
 3315SOL     OW10843   0.952   6.438   3.824
 3315SOL    HW110844   0.959   6.537   3.812
 3315SOL    HW210845   1.035   6.403   3.868
 3316SOL     OW10846   3.414   1.564   0.232
 3316SOL    HW110847   3.371   1.477   0.205
 3316SOL    HW210848   3.449   1.555   0.325
 3317SOL     OW10849   5.581   2.007   0.900
 3317SOL    HW110850   5.501   2.040   0.851
 3317SOL    HW210851   5.597   1.911   0.876
 3318SOL     OW10852   3.775   2.489   0.805
 3318SOL    HW110853   3.745   2.538   0.886
 3318SOL    HW210854   3.804   2.554   0.734
 3319SOL     OW10855   6.431   6.720   3.677
 3319SOL    HW110856   6.340   6.712   3.637
 3319SOL    HW210857   6.494   6.658   3.630
 3320SOL     OW10858   6.041   0.620   2.283
 3320SOL    HW110859   5.989   0.631   2.368
 3320SOL    HW210860   6.085   0.530   2.282
 3321SOL     OW10861   4.638   1.878   7.000
 3321SOL    HW110862   4.737   1.872   6.994
 3321SOL    HW210863   4.598   1.786   6.994
 3322SOL     OW10864   6.093   3.621   1.604
 3322SOL    HW110865   6.000   3.633   1.568
 3322SOL    HW210866   6.148   3.571   1.537
 3323SOL     OW10867   1.340   0.327   2.062
 3323SOL    HW110868   1.278   0.275   2.121
 3323SOL    HW210869   1.426   0.344   2.111
 3324SOL     OW10870   6.193   5.687   5.856
 3324SOL    HW110871   6.277   5.657   5.812
 3324SOL    HW210872   6.198   5.668   5.954
 3325SOL     OW10873   2.713   5.308   6.175
 3325SOL    HW110874   2.655   5.260   6.241
 3325SOL    HW210875   2.657   5.346   6.102
 3326SOL     OW10876   4.046   1.756   1.750
 3326SOL    HW110877   3.993   1.806   1.818
 3326SOL    HW210878   4.076   1.669   1.788
 3327SOL     OW10879   1.405   6.256   6.014
 3327SOL    HW110880   1.313   6.264   6.051
 3327SOL    HW210881   1.403   6.271   5.915
 3328SOL     OW10882   4.732   2.993   5.194
 3328SOL    HW110883   4.701   3.088   5.180
 3328SOL    HW210884   4.688   2.956   5.276
 3329SOL     OW10885   6.798   6.503   5.750
 3329SOL    HW110886   6.727   6.486   5.818
 3329SOL    HW210887   6.758   6.499   5.658
 3330SOL     OW10888   6.866   2.551   2.529
 3330SOL    HW110889   6.849   2.540   2.627
 3330SOL    HW210890   6.842   2.466   2.482
 3331SOL     OW10891   1.773   3.215   0.348
 3331SOL    HW110892   1.737   3.274   0.277
 3331SOL    HW210893   1.798   3.126   0.308
 3332SOL     OW10894   0.138   4.042   1.862
 3332SOL    HW110895   0.212   4.012   1.801
 3332SOL    HW210896   0.078   3.965   1.882
 3333SOL     OW10897   3.173   6.000   5.156
 3333SOL    HW110898   3.187   6.008   5.057
 3333SOL    HW210899   3.207   5.911   5.187
 3334SOL     OW10900   1.366   3.005   1.195
 3334SOL    HW110901   1.360   3.061   1.112
 3334SOL    HW210902   1.435   2.934   1.181
 3335SOL     OW10903   5.470   4.391   4.381
 3335SOL    HW110904   5.463   4.354   4.288
 3335SOL    HW210905   5.412   4.472   4.389
 3336SOL     OW10906   3.422   6.495   5.923
 3336SOL    HW110907   3.322   6.502   5.926
 3336SOL    HW210908   3.454   6.437   5.998
 3337SOL     OW10909   3.509   1.535   0.458
 3337SOL    HW110910   3.604   1.536   0.488
 3337SOL    HW210911   3.451   1.580   0.526
 3338SOL     OW10912   6.730   5.377   0.222
 3338SOL    HW110913   6.791   5.309   0.262
 3338SOL    HW210914   6.677   5.336   0.148
 3339SOL     OW10915   0.492   4.720   6.271
 3339SOL    HW110916   0.579   4.765   6.249
 3339SOL    HW210917   0.420   4.757   6.213
 3340SOL     OW10918   4.173   0.206   1.673
 3340SOL    HW110919   4.150   0.300   1.648
 3340SOL    HW210920   4.246   0.206   1.741
 3341SOL     OW10921   1.059   0.324   6.868
 3341SOL    HW110922   1.099   0.321   6.959
 3341SOL    HW210923   0.962   0.348   6.874
 3342SOL     OW10924   1.733   6.546   5.521
 3342SOL    HW110925   1.645   6.579   5.489
 3342SOL    HW210926   1.795   6.623   5.535
 3343SOL     OW10927   0.034   2.074   0.933
 3343SOL    HW110928   0.021   2.103   1.028
 3343SOL    HW210929   0.034   1.974   0.928
 3344SOL     OW10930   1.729   2.443   6.397
 3344SOL    HW110931   1.781   2.521   6.361
 3344SOL    HW210932   1.638   2.443   6.355
 3345SOL     OW10933   2.570   3.223   6.234
 3345SOL    HW110934   2.557   3.144   6.294
 3345SOL    HW210935   2.498   3.223   6.163
 3346SOL     OW10936   2.013   5.565   2.972
 3346SOL    HW110937   2.058   5.611   2.895
 3346SOL    HW210938   2.081   5.532   3.037
 3347SOL     OW10939   6.523   4.104   4.174
 3347SOL    HW110940   6.548   4.034   4.107
 3347SOL    HW210941   6.556   4.078   4.264
 3348SOL     OW10942   3.908   3.628   3.716
 3348SOL    HW110943   3.918   3.708   3.776
 3348SOL    HW210944   3.811   3.610   3.701
 3349SOL     OW10945   4.875   2.646   0.338
 3349SOL    HW110946   4.956   2.692   0.373
 3349SOL    HW210947   4.881   2.638   0.238
 3350SOL     OW10948   2.503   3.055   1.147
 3350SOL    HW110949   2.504   3.132   1.210
 3350SOL    HW210950   2.411   3.042   1.111
 3351SOL     OW10951   6.185   2.932   0.721
 3351SOL    HW110952   6.100   2.895   0.684
 3351SOL    HW210953   6.166   3.019   0.767
 3352SOL     OW10954   0.256   3.467   0.138
 3352SOL    HW110955   0.225   3.386   0.187
 3352SOL    HW210956   0.320   3.439   0.065
 3353SOL     OW10957   1.403   6.688   6.532
 3353SOL    HW110958   1.451   6.757   6.588
 3353SOL    HW210959   1.409   6.714   6.436
 3354SOL     OW10960   0.884   0.087   2.340
 3354SOL    HW110961   0.956   0.027   2.375
 3354SOL    HW210962   0.850   0.145   2.414
 3355SOL     OW10963   5.984   0.993   2.541
 3355SOL    HW110964   5.966   0.896   2.526
 3355SOL    HW210965   5.898   1.044   2.540
 3356SOL     OW10966   1.148   3.751   6.907
 3356SOL    HW110967   1.202   3.672   6.875
 3356SOL    HW210968   1.208   3.831   6.915
 3357SOL     OW10969   2.446   5.588   2.262
 3357SOL    HW110970   2.518   5.520   2.251
 3357SOL    HW210971   2.430   5.604   2.359
 3358SOL     OW10972   6.858   3.905   3.364
 3358SOL    HW110973   6.938   3.931   3.310
 3358SOL    HW210974   6.871   3.813   3.401
 3359SOL     OW10975   2.157   1.274   1.958
 3359SOL    HW110976   2.132   1.225   2.042
 3359SOL    HW210977   2.228   1.341   1.977
 3360SOL     OW10978   2.875   1.275   6.277
 3360SOL    HW110979   2.850   1.309   6.186
 3360SOL    HW210980   2.938   1.199   6.268
 3361SOL     OW10981   2.343   1.062   2.846
 3361SOL    HW110982   2.383   1.063   2.938
 3361SOL    HW210983   2.269   0.995   2.842
 3362SOL     OW10984   3.036   1.928   4.496
 3362SOL    HW110985   3.044   2.015   4.544
 3362SOL    HW210986   2.940   1.911   4.473
 3363SOL     OW10987   6.548   0.835   0.035
 3363SOL    HW110988   6.465   0.891   0.044
 3363SOL    HW210989   6.526   0.749   7.009
 3364SOL     OW10990   1.785   5.398   5.332
 3364SOL    HW110991   1.856   5.353   5.277
 3364SOL    HW210992   1.695   5.379   5.292
 3365SOL     OW10993   6.434   2.384   5.133
 3365SOL    HW110994   6.510   2.327   5.101
 3365SOL    HW210995   6.466   2.478   5.146
 3366SOL     OW10996   5.360   0.447   0.168
 3366SOL    HW110997   5.331   0.389   0.245
 3366SOL    HW210998   5.413   0.524   0.202
 3367SOL     OW10999   2.530   6.920   2.482
 3367SOL    HW111000   2.521   6.991   2.412
 3367SOL    HW211001   2.527   6.963   2.573
 3368SOL     OW11002   6.190   1.262   4.627
 3368SOL    HW111003   6.196   1.357   4.598
 3368SOL    HW211004   6.102   1.223   4.598
 3369SOL     OW11005   4.203   5.308   6.589
 3369SOL    HW111006   4.158   5.397   6.581
 3369SOL    HW211007   4.175   5.264   6.674
 3370SOL     OW11008   6.070   0.694   5.624
 3370SOL    HW111009   6.019   0.781   5.624
 3370SOL    HW211010   6.137   0.695   5.699
 3371SOL     OW11011   6.797   4.624   1.426
 3371SOL    HW111012   6.810   4.543   1.368
 3371SOL    HW211013   6.859   4.618   1.505
 3372SOL     OW11014   1.664   3.087   2.807
 3372SOL    HW111015   1.725   3.054   2.880
 3372SOL    HW211016   1.708   3.074   2.718
 3373SOL     OW11017   1.089   2.775   6.211
 3373SOL    HW111018   1.010   2.755   6.154
 3373SOL    HW211019   1.072   2.744   6.305
 3374SOL     OW11020   3.747   6.274   5.439
 3374SOL    HW111021   3.800   6.196   5.472
 3374SOL    HW211022   3.715   6.328   5.517
 3375SOL     OW11023   3.515   3.780   4.681
 3375SOL    HW111024   3.542   3.875   4.668
 3375SOL    HW211025   3.586   3.719   4.644
 3376SOL     OW11026   3.458   2.938   1.521
 3376SOL    HW111027   3.462   3.033   1.554
 3376SOL    HW211028   3.419   2.880   1.592
 3377SOL     OW11029   2.816   5.449   5.800
 3377SOL    HW111030   2.718   5.437   5.810
 3377SOL    HW211031   2.842   5.435   5.704
 3378SOL     OW11032   6.748   1.171   1.172
 3378SOL    HW111033   6.747   1.123   1.084
 3378SOL    HW211034   6.669   1.233   1.177
 3379SOL     OW11035   5.905   5.270   5.608
 3379SOL    HW111036   5.865   5.362   5.611
 3379SOL    HW211037   5.877   5.225   5.523
 3380SOL     OW11038   0.598   4.020   5.446
 3380SOL    HW111039   0.502   4.012   5.419
 3380SOL    HW211040   0.607   4.091   5.516
 3381SOL     OW11041   3.237   2.525   1.334
 3381SOL    HW111042   3.252   2.455   1.403
 3381SOL    HW211043   3.278   2.495   1.247
 3382SOL     OW11044   0.456   6.484   0.518
 3382SOL    HW111045   0.524   6.415   0.496
 3382SOL    HW211046   0.438   6.540   0.436
 3383SOL     OW11047   0.596   4.071   1.356
 3383SOL    HW111048   0.661   4.033   1.291
 3383SOL    HW211049   0.644   4.130   1.421
 3384SOL     OW11050   3.445   3.748   3.400
 3384SOL    HW111051   3.419   3.673   3.340
 3384SOL    HW211052   3.544   3.749   3.412
 3385SOL     OW11053   6.804   4.152   4.124
 3385SOL    HW111054   6.829   4.102   4.206
 3385SOL    HW211055   6.814   4.092   4.044
 3386SOL     OW11056   5.965   4.122   4.532
 3386SOL    HW111057   5.880   4.157   4.492
 3386SOL    HW211058   6.034   4.193   4.531
 3387SOL     OW11059   3.355   1.667   2.459
 3387SOL    HW111060   3.382   1.763   2.450
 3387SOL    HW211061   3.429   1.608   2.425
 3388SOL     OW11062   5.897   1.940   1.293
 3388SOL    HW111063   5.990   1.940   1.331
 3388SOL    HW211064   5.837   1.996   1.351
 3389SOL     OW11065   3.971   5.839   2.680
 3389SOL    HW111066   4.057   5.801   2.645
 3389SOL    HW211067   3.921   5.767   2.728
 3390SOL     OW11068   4.379   1.388   5.838
 3390SOL    HW111069   4.370   1.380   5.738
 3390SOL    HW211070   4.467   1.429   5.859
 3391SOL     OW11071   3.079   1.823   3.972
 3391SOL    HW111072   3.120   1.756   3.911
 3391SOL    HW211073   3.094   1.795   4.067
 3392SOL     OW11074   5.232   6.746   3.742
 3392SOL    HW111075   5.197   6.658   3.774
 3392SOL    HW211076   5.241   6.809   3.819
 3393SOL     OW11077   6.947   6.690   6.651
 3393SOL    HW111078   0.025   6.686   6.673
 3393SOL    HW211079   6.894   6.695   6.735
 3394SOL     OW11080   5.136   1.370   1.810
 3394SOL    HW111081   5.225   1.324   1.799
 3394SOL    HW211082   5.152   1.465   1.836
 3395SOL     OW11083   1.880   3.800   5.153
 3395SOL    HW111084   1.808   3.859   5.190
 3395SOL    HW211085   1.838   3.720   5.110
 3396SOL     OW11086   6.549   3.831   4.315
 3396SOL    HW111087   6.577   3.747   4.270
 3396SOL    HW211088   6.534   3.814   4.413
 3397SOL     OW11089   3.359   5.449   6.396
 3397SOL    HW111090   3.343   5.380   6.467
 3397SOL    HW211091   3.324   5.415   6.308
 3398SOL     OW11092   0.591   1.424   3.272
 3398SOL    HW111093   0.505   1.373   3.271
 3398SOL    HW211094   0.611   1.456   3.179
 3399SOL     OW11095   4.162   6.022   4.390
 3399SOL    HW111096   4.156   5.934   4.438
 3399SOL    HW211097   4.126   6.012   4.298
 3400SOL     OW11098   5.062   2.272   0.606
 3400SOL    HW111099   5.010   2.281   0.521
 3400SOL    HW211100   5.068   2.361   0.651
 3401SOL     OW11101   6.666   4.597   6.508
 3401SOL    HW111102   6.601   4.651   6.454
 3401SOL    HW211103   6.624   4.574   6.597
 3402SOL     OW11104   4.048   4.722   2.155
 3402SOL    HW111105   4.023   4.674   2.072
 3402SOL    HW211106   3.974   4.783   2.183
 3403SOL     OW11107   3.986   1.807   6.253
 3403SOL    HW111108   3.893   1.768   6.251
 3403SOL    HW211109   4.000   1.861   6.170
 3404SOL     OW11110   4.663   6.015   1.942
 3404SOL    HW111111   4.623   6.106   1.953
 3404SOL    HW211112   4.613   5.965   1.872
 3405SOL     OW11113   6.128   4.238   6.975
 3405SOL    HW111114   6.040   4.285   6.975
 3405SOL    HW211115   6.122   4.155   0.010
 3406SOL     OW11116   1.414   3.656   1.477
 3406SOL    HW111117   1.417   3.717   1.398
 3406SOL    HW211118   1.463   3.697   1.553
 3407SOL     OW11119   1.353   5.433   2.959
 3407SOL    HW111120   1.297   5.406   3.037
 3407SOL    HW211121   1.296   5.476   2.889
 3408SOL     OW11122   5.427   3.505   2.650
 3408SOL    HW111123   5.363   3.552   2.589
 3408SOL    HW211124   5.405   3.526   2.745
 3409SOL     OW11125   2.462   1.068   6.842
 3409SOL    HW111126   2.559   1.047   6.849
 3409SOL    HW211127   2.436   1.131   6.916
 3410SOL     OW11128   0.232   2.285   0.032
 3410SOL    HW111129   0.199   2.236   0.113
 3410SOL    HW211130   0.327   2.258   0.014
 3411SOL     OW11131   5.139   2.099   2.177
 3411SOL    HW111132   5.084   2.178   2.206
 3411SOL    HW211133   5.235   2.125   2.175
 3412SOL     OW11134   4.578   5.374   6.903
 3412SOL    HW111135   4.565   5.290   6.850
 3412SOL    HW211136   4.579   5.453   6.841
 3413SOL     OW11137   5.164   1.075   2.383
 3413SOL    HW111138   5.121   1.044   2.468
 3413SOL    HW211139   5.103   1.140   2.337
 3414SOL     OW11140   3.830   0.448   5.479
 3414SOL    HW111141   3.793   0.535   5.510
 3414SOL    HW211142   3.794   0.374   5.536
 3415SOL     OW11143   1.499   5.857   5.474
 3415SOL    HW111144   1.499   5.944   5.524
 3415SOL    HW211145   1.439   5.792   5.521
 3416SOL     OW11146   2.223   4.188   5.440
 3416SOL    HW111147   2.199   4.262   5.503
 3416SOL    HW211148   2.322   4.181   5.433
 3417SOL     OW11149   5.403   0.630   1.214
 3417SOL    HW111150   5.309   0.607   1.193
 3417SOL    HW211151   5.464   0.563   1.172
 3418SOL     OW11152   2.965   1.824   5.865
 3418SOL    HW111153   3.021   1.901   5.894
 3418SOL    HW211154   2.969   1.751   5.933
 3419SOL     OW11155   4.839   3.437   6.288
 3419SOL    HW111156   4.871   3.354   6.242
 3419SOL    HW211157   4.739   3.443   6.280
 3420SOL     OW11158   3.395   0.999   4.852
 3420SOL    HW111159   3.324   1.049   4.801
 3420SOL    HW211160   3.367   0.904   4.863
 3421SOL     OW11161   0.256   6.577   2.842
 3421SOL    HW111162   0.201   6.508   2.794
 3421SOL    HW211163   0.201   6.620   2.913
 3422SOL     OW11164   3.426   2.046   2.702
 3422SOL    HW111165   3.488   2.084   2.770
 3422SOL    HW211166   3.413   1.948   2.718
 3423SOL     OW11167   3.372   0.874   1.882
 3423SOL    HW111168   3.457   0.926   1.885
 3423SOL    HW211169   3.295   0.937   1.869
 3424SOL     OW11170   4.931   1.770   1.532
 3424SOL    HW111171   5.003   1.839   1.538
 3424SOL    HW211172   4.853   1.807   1.482
 3425SOL     OW11173   4.353   3.985   1.441
 3425SOL    HW111174   4.421   4.058   1.437
 3425SOL    HW211175   4.301   3.992   1.526
 3426SOL     OW11176   4.932   3.830   0.868
 3426SOL    HW111177   4.927   3.730   0.870
 3426SOL    HW211178   4.941   3.861   0.773
 3427SOL     OW11179   0.911   1.579   0.625
 3427SOL    HW111180   0.957   1.668   0.621
 3427SOL    HW211181   0.896   1.554   0.720
 3428SOL     OW11182   4.441   4.682   3.304
 3428SOL    HW111183   4.436   4.609   3.372
 3428SOL    HW211184   4.359   4.680   3.246
 3429SOL     OW11185   0.551   2.976   0.946
 3429SOL    HW111186   0.544   2.992   1.045
 3429SOL    HW211187   0.545   3.064   0.898
 3430SOL     OW11188   0.945   5.303   6.594
 3430SOL    HW111189   0.977   5.367   6.663
 3430SOL    HW211190   0.993   5.216   6.603
 3431SOL     OW11191   1.821   5.997   6.410
 3431SOL    HW111192   1.834   6.082   6.463
 3431SOL    HW211193   1.768   5.932   6.465
 3432SOL     OW11194   3.627   1.706   6.182
 3432SOL    HW111195   3.605   1.645   6.106
 3432SOL    HW211196   3.627   1.654   6.267
 3433SOL     OW11197   4.422   0.996   4.137
 3433SOL    HW111198   4.434   1.094   4.120
 3433SOL    HW211199   4.492   0.964   4.201
 3434SOL     OW11200   4.461   1.829   3.552
 3434SOL    HW111201   4.484   1.900   3.486
 3434SOL    HW211202   4.469   1.739   3.510
 3435SOL     OW11203   1.034   1.376   0.076
 3435SOL    HW111204   0.934   1.372   0.071
 3435SOL    HW211205   1.073   1.317   0.006
 3436SOL     OW11206   3.979   6.744   1.966
 3436SOL    HW111207   4.063   6.689   1.971
 3436SOL    HW211208   3.986   6.809   1.891
 3437SOL     OW11209   4.328   0.475   0.044
 3437SOL    HW111210   4.341   0.568   0.079
 3437SOL    HW211211   4.391   0.460   6.986
 3438SOL     OW11212   0.686   5.237   6.491
 3438SOL    HW111213   0.672   5.140   6.509
 3438SOL    HW211214   0.774   5.266   6.528
 3439SOL     OW11215   2.270   0.621   4.128
 3439SOL    HW111216   2.261   0.604   4.030
 3439SOL    HW211217   2.331   0.554   4.169
 3440SOL     OW11218   3.540   2.050   0.194
 3440SOL    HW111219   3.544   2.114   0.117
 3440SOL    HW211220   3.546   1.956   0.160
 3441SOL     OW11221   4.821   0.381   4.375
 3441SOL    HW111222   4.806   0.467   4.422
 3441SOL    HW211223   4.738   0.355   4.325
 3442SOL     OW11224   0.879   5.113   3.070
 3442SOL    HW111225   0.880   5.038   3.005
 3442SOL    HW211226   0.906   5.080   3.160
 3443SOL     OW11227   5.770   6.622   4.608
 3443SOL    HW111228   5.794   6.553   4.540
 3443SOL    HW211229   5.853   6.652   4.656
 3444SOL     OW11230   4.000   5.564   0.272
 3444SOL    HW111231   4.037   5.600   0.186
 3444SOL    HW211232   3.904   5.540   0.259
 3445SOL     OW11233   5.663   4.947   5.215
 3445SOL    HW111234   5.576   4.995   5.200
 3445SOL    HW211235   5.652   4.850   5.191
 3446SOL     OW11236   2.360   6.415   1.833
 3446SOL    HW111237   2.304   6.337   1.806
 3446SOL    HW211238   2.307   6.475   1.893
 3447SOL     OW11239   6.303   4.564   5.471
 3447SOL    HW111240   6.289   4.507   5.552
 3447SOL    HW211241   6.258   4.652   5.485
 3448SOL     OW11242   4.099   3.474   0.871
 3448SOL    HW111243   4.065   3.400   0.930
 3448SOL    HW211244   4.032   3.493   0.799
 3449SOL     OW11245   6.471   6.114   3.452
 3449SOL    HW111246   6.442   6.200   3.496
 3449SOL    HW211247   6.394   6.051   3.451
 3450SOL     OW11248   0.704   1.877   1.284
 3450SOL    HW111249   0.637   1.830   1.341
 3450SOL    HW211250   0.671   1.969   1.262
 3451SOL     OW11251   1.882   4.955   4.565
 3451SOL    HW111252   1.823   5.032   4.589
 3451SOL    HW211253   1.869   4.931   4.469
 3452SOL     OW11254   6.780   1.827   0.667
 3452SOL    HW111255   6.803   1.761   0.739
 3452SOL    HW211256   6.702   1.882   0.695
 3453SOL     OW11257   5.573   5.967   5.350
 3453SOL    HW111258   5.573   5.899   5.276
 3453SOL    HW211259   5.644   5.943   5.417
 3454SOL     OW11260   0.391   1.026   0.754
 3454SOL    HW111261   0.349   1.116   0.747
 3454SOL    HW211262   0.446   1.021   0.838
 3455SOL     OW11263   1.374   3.017   3.323
 3455SOL    HW111264   1.390   2.950   3.396
 3455SOL    HW211265   1.406   2.980   3.236
 3456SOL     OW11266   6.661   0.431   0.446
 3456SOL    HW111267   6.671   0.332   0.457
 3456SOL    HW211268   6.750   0.475   0.458
 3457SOL     OW11269   2.173   6.742   3.615
 3457SOL    HW111270   2.192   6.660   3.560
 3457SOL    HW211271   2.130   6.715   3.701
 3458SOL     OW11272   5.327   4.926   0.498
 3458SOL    HW111273   5.268   4.921   0.418
 3458SOL    HW211274   5.326   5.019   0.535
 3459SOL     OW11275   6.089   0.146   3.331
 3459SOL    HW111276   6.102   0.205   3.410
 3459SOL    HW211277   6.006   0.172   3.283
 3460SOL     OW11278   4.259   2.925   0.286
 3460SOL    HW111279   4.194   2.972   0.346
 3460SOL    HW211280   4.246   2.826   0.293
 3461SOL     OW11281   2.640   6.067   2.858
 3461SOL    HW111282   2.698   6.045   2.937
 3461SOL    HW211283   2.633   6.166   2.849
 3462SOL     OW11284   4.883   2.444   2.684
 3462SOL    HW111285   4.883   2.496   2.598
 3462SOL    HW211286   4.959   2.378   2.683
 3463SOL     OW11287   1.340   3.196   0.914
 3463SOL    HW111288   1.420   3.239   0.956
 3463SOL    HW211289   1.330   3.229   0.820
 3464SOL     OW11290   5.353   1.600   5.972
 3464SOL    HW111291   5.389   1.682   5.927
 3464SOL    HW211292   5.407   1.579   6.054
 3465SOL     OW11293   1.678   4.859   1.730
 3465SOL    HW111294   1.720   4.885   1.643
 3465SOL    HW211295   1.724   4.780   1.767
 3466SOL     OW11296   6.420   4.032   4.642
 3466SOL    HW111297   6.518   4.013   4.638
 3466SOL    HW211298   6.387   4.012   4.734
 3467SOL     OW11299   3.758   3.337   0.397
 3467SOL    HW111300   3.739   3.434   0.383
 3467SOL    HW211301   3.682   3.294   0.446
 3468SOL     OW11302   4.037   1.407   1.435
 3468SOL    HW111303   4.018   1.353   1.353
 3468SOL    HW211304   4.112   1.365   1.485
 3469SOL     OW11305   3.855   5.509   5.268
 3469SOL    HW111306   3.807   5.478   5.350
 3469SOL    HW211307   3.788   5.530   5.196
 3470SOL     OW11308   1.488   2.452   1.652
 3470SOL    HW111309   1.432   2.460   1.734
 3470SOL    HW211310   1.526   2.360   1.646
 3471SOL     OW11311   5.076   3.080   4.739
 3471SOL    HW111312   4.991   3.033   4.715
 3471SOL    HW211313   5.093   3.070   4.837
 3472SOL     OW11314   5.103   1.929   2.386
 3472SOL    HW111315   5.102   1.990   2.307
 3472SOL    HW211316   5.165   1.852   2.369
 3473SOL     OW11317   6.156   4.484   1.828
 3473SOL    HW111318   6.177   4.457   1.734
 3473SOL    HW211319   6.075   4.435   1.860
 3474SOL     OW11320   4.649   4.274   3.682
 3474SOL    HW111321   4.587   4.346   3.713
 3474SOL    HW211322   4.689   4.228   3.762
 3475SOL     OW11323   0.154   4.009   4.321
 3475SOL    HW111324   0.139   4.101   4.358
 3475SOL    HW211325   0.225   3.963   4.373
 3476SOL     OW11326   1.852   2.280   3.169
 3476SOL    HW111327   1.800   2.224   3.104
 3476SOL    HW211328   1.890   2.360   3.123
 3477SOL     OW11329   0.672   4.392   1.932
 3477SOL    HW111330   0.704   4.323   1.997
 3477SOL    HW211331   0.576   4.374   1.909
 3478SOL     OW11332   2.670   0.475   1.350
 3478SOL    HW111333   2.599   0.406   1.359
 3478SOL    HW211334   2.674   0.530   1.433
 3479SOL     OW11335   0.681   4.224   5.280
 3479SOL    HW111336   0.745   4.285   5.233
 3479SOL    HW211337   0.732   4.164   5.342
 3480SOL     OW11338   1.202   4.827   6.396
 3480SOL    HW111339   1.292   4.851   6.360
 3480SOL    HW211340   1.207   4.737   6.440
 3481SOL     OW11341   6.076   0.735   4.681
 3481SOL    HW111342   5.983   0.706   4.702
 3481SOL    HW211343   6.117   0.779   4.761
 3482SOL     OW11344   5.992   3.045   6.758
 3482SOL    HW111345   6.052   3.125   6.753
 3482SOL    HW211346   5.914   3.065   6.817
 3483SOL     OW11347   5.096   2.619   5.349
 3483SOL    HW111348   5.065   2.636   5.256
 3483SOL    HW211349   5.098   2.520   5.366
 3484SOL     OW11350   1.286   3.052   4.371
 3484SOL    HW111351   1.277   2.982   4.442
 3484SOL    HW211352   1.205   3.111   4.373
 3485SOL     OW11353   6.815   3.235   0.145
 3485SOL    HW111354   6.721   3.214   0.115
 3485SOL    HW211355   6.816   3.323   0.192
 3486SOL     OW11356   1.854   6.842   4.961
 3486SOL    HW111357   1.953   6.849   4.966
 3486SOL    HW211358   1.828   6.756   4.917
 3487SOL     OW11359   4.200   1.817   6.937
 3487SOL    HW111360   4.193   1.894   6.873
 3487SOL    HW211361   4.154   1.737   6.897
 3488SOL     OW11362   5.222   6.543   4.986
 3488SOL    HW111363   5.303   6.577   4.938
 3488SOL    HW211364   5.196   6.608   5.057
 3489SOL     OW11365   3.447   6.170   0.519
 3489SOL    HW111366   3.398   6.248   0.558
 3489SOL    HW211367   3.455   6.098   0.589
 3490SOL     OW11368   3.518   6.413   1.086
 3490SOL    HW111369   3.560   6.434   0.998
 3490SOL    HW211370   3.444   6.478   1.104
 3491SOL     OW11371   4.449   4.646   5.900
 3491SOL    HW111372   4.500   4.631   5.984
 3491SOL    HW211373   4.442   4.560   5.849
 3492SOL     OW11374   6.176   4.014   3.566
 3492SOL    HW111375   6.217   4.093   3.612
 3492SOL    HW211376   6.192   3.932   3.621
 3493SOL     OW11377   0.033   3.424   5.680
 3493SOL    HW111378   6.955   3.414   5.657
 3493SOL    HW211379   0.069   3.337   5.714
 3494SOL     OW11380   3.803   1.349   2.020
 3494SOL    HW111381   3.898   1.324   2.039
 3494SOL    HW211382   3.796   1.386   1.928
 3495SOL     OW11383   1.611   3.813   3.680
 3495SOL    HW111384   1.618   3.798   3.779
 3495SOL    HW211385   1.702   3.832   3.643
 3496SOL     OW11386   6.338   5.270   1.220
 3496SOL    HW111387   6.292   5.185   1.195
 3496SOL    HW211388   6.292   5.310   1.299
 3497SOL     OW11389   3.347   0.260   1.645
 3497SOL    HW111390   3.338   0.162   1.661
 3497SOL    HW211391   3.373   0.306   1.730
 3498SOL     OW11392   2.504   2.518   1.399
 3498SOL    HW111393   2.533   2.423   1.404
 3498SOL    HW211394   2.533   2.567   1.481
 3499SOL     OW11395   5.796   6.234   4.649
 3499SOL    HW111396   5.797   6.154   4.708
 3499SOL    HW211397   5.704   6.274   4.647
 3500SOL     OW11398   3.103   2.182   3.893
 3500SOL    HW111399   3.163   2.179   3.813
 3500SOL    HW211400   3.120   2.103   3.951
 3501SOL     OW11401   1.382   6.625   5.997
 3501SOL    HW111402   1.395   6.605   5.900
 3501SOL    HW211403   1.290   6.661   6.012
 3502SOL     OW11404   4.853   2.404   1.609
 3502SOL    HW111405   4.811   2.345   1.677
 3502SOL    HW211406   4.783   2.460   1.565
 3503SOL     OW11407   0.910   5.581   6.225
 3503SOL    HW111408   0.983   5.558   6.162
 3503SOL    HW211409   0.917   5.524   6.307
 3504SOL     OW11410   1.968   1.118   0.199
 3504SOL    HW111411   2.066   1.133   0.183
 3504SOL    HW211412   1.951   1.020   0.209
 3505SOL     OW11413   4.864   3.004   5.548
 3505SOL    HW111414   4.770   2.973   5.533
 3505SOL    HW211415   4.903   2.954   5.625
 3506SOL     OW11416   4.297   4.777   5.062
 3506SOL    HW111417   4.200   4.793   5.079
 3506SOL    HW211418   4.314   4.679   5.050
 3507SOL     OW11419   3.343   1.273   0.742
 3507SOL    HW111420   3.302   1.241   0.656
 3507SOL    HW211421   3.290   1.351   0.777
 3508SOL     OW11422   3.821   1.545   6.017
 3508SOL    HW111423   3.830   1.570   6.114
 3508SOL    HW211424   3.906   1.504   5.985
 3509SOL     OW11425   4.195   5.633   6.531
 3509SOL    HW111426   4.098   5.606   6.534
 3509SOL    HW211427   4.205   5.727   6.565
 3510SOL     OW11428   2.436   1.382   1.389
 3510SOL    HW111429   2.471   1.298   1.431
 3510SOL    HW211430   2.401   1.361   1.297
 3511SOL     OW11431   2.542   4.593   1.790
 3511SOL    HW111432   2.509   4.499   1.785
 3511SOL    HW211433   2.630   4.595   1.836
 3512SOL     OW11434   0.050   5.386   6.255
 3512SOL    HW111435   7.019   5.467   6.225
 3512SOL    HW211436   0.067   5.326   6.177
 3513SOL     OW11437   5.800   1.888   0.413
 3513SOL    HW111438   5.731   1.960   0.419
 3513SOL    HW211439   5.890   1.928   0.399
 3514SOL     OW11440   3.038   1.662   1.960
 3514SOL    HW111441   3.090   1.745   1.981
 3514SOL    HW211442   2.955   1.660   2.016
 3515SOL     OW11443   0.284   4.713   4.732
 3515SOL    HW111444   0.293   4.739   4.828
 3515SOL    HW211445   0.285   4.613   4.725
 3516SOL     OW11446   4.932   0.653   1.269
 3516SOL    HW111447   4.948   0.621   1.363
 3516SOL    HW211448   4.849   0.709   1.268
 3517SOL     OW11449   4.966   0.899   1.455
 3517SOL    HW111450   4.894   0.870   1.392
 3517SOL    HW211451   4.937   0.881   1.549
 3518SOL     OW11452   5.432   1.207   5.080
 3518SOL    HW111453   5.424   1.304   5.101
 3518SOL    HW211454   5.523   1.188   5.043
 3519SOL     OW11455   3.253   1.735   0.903
 3519SOL    HW111456   3.240   1.815   0.845
 3519SOL    HW211457   3.276   1.764   0.996
 3520SOL     OW11458   2.720   6.064   4.283
 3520SOL    HW111459   2.663   6.141   4.255
 3520SOL    HW211460   2.776   6.090   4.362
 3521SOL     OW11461   2.658   2.621   6.324
 3521SOL    HW111462   2.566   2.625   6.364
 3521SOL    HW211463   2.651   2.618   6.224
 3522SOL     OW11464   1.173   6.257   6.625
 3522SOL    HW111465   1.239   6.332   6.615
 3522SOL    HW211466   1.212   6.173   6.585
 3523SOL     OW11467   3.360   5.783   0.055
 3523SOL    HW111468   3.331   5.879   0.052
 3523SOL    HW211469   3.460   5.778   0.060
 3524SOL     OW11470   4.578   1.071   3.727
 3524SOL    HW111471   4.615   1.007   3.794
 3524SOL    HW211472   4.628   1.158   3.733
 3525SOL     OW11473   0.169   2.784   3.349
 3525SOL    HW111474   0.196   2.689   3.364
 3525SOL    HW211475   0.228   2.844   3.402
 3526SOL     OW11476   0.354   6.711   2.108
 3526SOL    HW111477   0.265   6.749   2.131
 3526SOL    HW211478   0.357   6.692   2.009
 3527SOL     OW11479   6.705   2.957   6.710
 3527SOL    HW111480   6.714   2.955   6.810
 3527SOL    HW211481   6.613   2.926   6.685
 3528SOL     OW11482   2.154   4.969   4.900
 3528SOL    HW111483   2.169   5.034   4.975
 3528SOL    HW211484   2.118   4.884   4.937
 3529SOL     OW11485   4.530   4.739   0.757
 3529SOL    HW111486   4.546   4.641   0.742
 3529SOL    HW211487   4.615   4.789   0.741
 3530SOL     OW11488   6.722   6.909   0.514
 3530SOL    HW111489   6.789   6.836   0.507
 3530SOL    HW211490   6.630   6.871   0.512
 3531SOL     OW11491   4.641   2.237   0.478
 3531SOL    HW111492   4.554   2.189   0.474
 3531SOL    HW211493   4.716   2.171   0.473
 3532SOL     OW11494   2.388   0.623   1.503
 3532SOL    HW111495   2.483   0.647   1.524
 3532SOL    HW211496   2.327   0.680   1.557
 3533SOL     OW11497   1.773   2.640   3.283
 3533SOL    HW111498   1.840   2.708   3.313
 3533SOL    HW211499   1.794   2.551   3.324
 3534SOL     OW11500   0.602   1.047   0.950
 3534SOL    HW111501   0.563   1.109   1.017
 3534SOL    HW211502   0.605   0.954   0.988
 3535SOL     OW11503   3.294   6.618   3.741
 3535SOL    HW111504   3.276   6.537   3.685
 3535SOL    HW211505   3.365   6.597   3.808
 3536SOL     OW11506   4.139   2.022   3.565
 3536SOL    HW111507   4.144   2.101   3.504
 3536SOL    HW211508   4.171   1.940   3.517
 3537SOL     OW11509   1.876   7.016   3.144
 3537SOL    HW111510   1.840   0.037   3.228
 3537SOL    HW211511   1.868   6.916   3.150
 3538SOL     OW11512   3.188   5.544   1.763
 3538SOL    HW111513   3.172   5.619   1.827
 3538SOL    HW211514   3.162   5.458   1.806
 3539SOL     OW11515   3.397   3.984   4.401
 3539SOL    HW111516   3.303   4.004   4.432
 3539SOL    HW211517   3.397   3.899   4.347
 3540SOL     OW11518   1.617   2.460   3.613
 3540SOL    HW111519   1.543   2.397   3.638
 3540SOL    HW211520   1.672   2.420   3.539
 3541SOL     OW11521   3.932   3.904   4.715
 3541SOL    HW111522   4.019   3.905   4.664
 3541SOL    HW211523   3.946   3.864   4.805
 3542SOL     OW11524   6.747   5.387   1.254
 3542SOL    HW111525   6.668   5.448   1.252
 3542SOL    HW211526   6.789   5.384   1.163
 3543SOL     OW11527   5.145   2.326   4.346
 3543SOL    HW111528   5.138   2.327   4.247
 3543SOL    HW211529   5.221   2.384   4.374
 3544SOL     OW11530   2.685   6.843   0.071
 3544SOL    HW111531   2.666   6.748   0.094
 3544SOL    HW211532   2.779   6.852   0.036
 3545SOL     OW11533   2.912   5.400   0.539
 3545SOL    HW111534   2.960   5.359   0.617
 3545SOL    HW211535   2.968   5.474   0.501
 3546SOL     OW11536   0.905   4.532   2.656
 3546SOL    HW111537   0.986   4.588   2.673
 3546SOL    HW211538   0.891   4.521   2.558
 3547SOL     OW11539   5.103   4.783   4.492
 3547SOL    HW111540   5.011   4.813   4.517
 3547SOL    HW211541   5.168   4.808   4.564
 3548SOL     OW11542   4.615   3.339   5.651
 3548SOL    HW111543   4.676   3.292   5.586
 3548SOL    HW211544   4.637   3.436   5.653
 3549SOL     OW11545   4.996   3.548   2.335
 3549SOL    HW111546   4.964   3.544   2.241
 3549SOL    HW211547   5.005   3.454   2.371
 3550SOL     OW11548   4.927   1.755   3.480
 3550SOL    HW111549   4.859   1.770   3.409
 3550SOL    HW211550   5.012   1.721   3.439
 3551SOL     OW11551   1.748   6.530   2.475
 3551SOL    HW111552   1.716   6.575   2.558
 3551SOL    HW211553   1.829   6.476   2.496
 3552SOL     OW11554   6.343   4.223   2.825
 3552SOL    HW111555   6.264   4.281   2.841
 3552SOL    HW211556   6.402   4.265   2.756
 3553SOL     OW11557   6.225   1.816   3.322
 3553SOL    HW111558   6.211   1.750   3.248
 3553SOL    HW211559   6.178   1.901   3.301
 3554SOL     OW11560   4.199   5.711   6.982
 3554SOL    HW111561   4.184   5.612   6.986
 3554SOL    HW211562   4.297   5.730   6.975
 3555SOL     OW11563   1.010   2.354   3.971
 3555SOL    HW111564   0.995   2.352   4.070
 3555SOL    HW211565   1.092   2.302   3.948
 3556SOL     OW11566   4.296   1.444   6.424
 3556SOL    HW111567   4.252   1.525   6.384
 3556SOL    HW211568   4.384   1.470   6.464
 3557SOL     OW11569   0.751   0.102   4.013
 3557SOL    HW111570   0.671   0.162   4.012
 3557SOL    HW211571   0.804   0.119   4.096
 3558SOL     OW11572   0.554   6.758   1.349
 3558SOL    HW111573   0.565   6.659   1.361
 3558SOL    HW211574   0.644   6.802   1.348
 3559SOL     OW11575   0.854   0.500   6.066
 3559SOL    HW111576   0.799   0.580   6.089
 3559SOL    HW211577   0.924   0.526   5.999
 3560SOL     OW11578   6.892   0.218   1.722
 3560SOL    HW111579   6.966   0.220   1.789
 3560SOL    HW211580   6.898   0.135   1.667
 3561SOL     OW11581   5.552   4.668   3.929
 3561SOL    HW111582   5.452   4.668   3.932
 3561SOL    HW211583   5.586   4.743   3.985
 3562SOL     OW11584   4.028   2.184   2.271
 3562SOL    HW111585   4.040   2.276   2.234
 3562SOL    HW211586   3.935   2.152   2.253
 3563SOL     OW11587   4.506   6.407   1.750
 3563SOL    HW111588   4.509   6.375   1.655
 3563SOL    HW211589   4.414   6.396   1.786
 3564SOL     OW11590   6.178   4.470   2.475
 3564SOL    HW111591   6.092   4.501   2.516
 3564SOL    HW211592   6.255   4.512   2.523
 3565SOL     OW11593   0.827   0.848   5.550
 3565SOL    HW111594   0.914   0.821   5.510
 3565SOL    HW211595   0.758   0.857   5.477
 3566SOL     OW11596   1.066   4.299   5.621
 3566SOL    HW111597   1.156   4.343   5.633
 3566SOL    HW211598   1.019   4.295   5.709
 3567SOL     OW11599   0.060   2.383   1.414
 3567SOL    HW111600   0.065   2.339   1.325
 3567SOL    HW211601   6.985   2.381   1.447
 3568SOL     OW11602   4.758   4.188   3.440
 3568SOL    HW111603   4.828   4.257   3.421
 3568SOL    HW211604   4.723   4.200   3.532
 3569SOL     OW11605   3.977   3.079   3.553
 3569SOL    HW111606   3.965   3.157   3.615
 3569SOL    HW211607   4.031   3.008   3.599
 3570SOL     OW11608   0.512   2.169   5.523
 3570SOL    HW111609   0.577   2.244   5.524
 3570SOL    HW211610   0.470   2.159   5.613
 3571SOL     OW11611   2.986   0.298   4.805
 3571SOL    HW111612   3.061   0.268   4.746
 3571SOL    HW211613   2.969   0.229   4.876
 3572SOL     OW11614   5.056   4.240   2.508
 3572SOL    HW111615   5.097   4.329   2.488
 3572SOL    HW211616   4.957   4.250   2.515
 3573SOL     OW11617   0.250   4.959   4.087
 3573SOL    HW111618   0.307   4.930   4.010
 3573SOL    HW211619   0.263   4.896   4.164
 3574SOL     OW11620   1.844   1.752   5.979
 3574SOL    HW111621   1.861   1.784   6.072
 3574SOL    HW211622   1.773   1.681   5.981
 3575SOL     OW11623   4.804   0.560   6.392
 3575SOL    HW111624   4.855   0.593   6.472
 3575SOL    HW211625   4.710   0.593   6.397
 3576SOL     OW11626   1.133   2.687   0.755
 3576SOL    HW111627   1.138   2.748   0.835
 3576SOL    HW211628   1.063   2.721   0.693
 3577SOL     OW11629   1.797   3.600   4.589
 3577SOL    HW111630   1.794   3.501   4.598
 3577SOL    HW211631   1.891   3.632   4.600
 3578SOL     OW11632   4.359   2.410   0.556
 3578SOL    HW111633   4.442   2.466   0.550
 3578SOL    HW211634   4.289   2.458   0.608
 3579SOL     OW11635   1.151   3.471   1.932
 3579SOL    HW111636   1.234   3.525   1.948
 3579SOL    HW211637   1.176   3.374   1.922
 3580SOL     OW11638   6.912   4.140   1.918
 3580SOL    HW111639   7.012   4.138   1.914
 3580SOL    HW211640   6.879   4.228   1.885
 3581SOL     OW11641   1.864   0.233   2.319
 3581SOL    HW111642   1.846   0.147   2.366
 3581SOL    HW211643   1.830   0.309   2.373
 3582SOL     OW11644   4.774   6.131   6.815
 3582SOL    HW111645   4.861   6.124   6.863
 3582SOL    HW211646   4.722   6.047   6.826
 3583SOL     OW11647   1.675   5.717   1.203
 3583SOL    HW111648   1.645   5.808   1.231
 3583SOL    HW211649   1.607   5.649   1.230
 3584SOL     OW11650   5.646   4.636   4.824
 3584SOL    HW111651   5.606   4.556   4.779
 3584SOL    HW211652   5.716   4.675   4.765
 3585SOL     OW11653   4.301   2.161   3.891
 3585SOL    HW111654   4.314   2.229   3.819
 3585SOL    HW211655   4.331   2.071   3.858
 3586SOL     OW11656   6.382   2.395   5.640
 3586SOL    HW111657   6.459   2.407   5.703
 3586SOL    HW211658   6.415   2.405   5.546
 3587SOL     OW11659   2.387   0.635   6.267
 3587SOL    HW111660   2.338   0.652   6.352
 3587SOL    HW211661   2.465   0.697   6.260
 3588SOL     OW11662   6.131   3.451   3.830
 3588SOL    HW111663   6.078   3.450   3.745
 3588SOL    HW211664   6.069   3.443   3.908
 3589SOL     OW11665   0.457   0.883   6.338
 3589SOL    HW111666   0.407   0.915   6.418
 3589SOL    HW211667   0.411   0.803   6.299
 3590SOL     OW11668   6.174   4.982   5.351
 3590SOL    HW111669   6.137   5.032   5.271
 3590SOL    HW211670   6.101   4.928   5.392
 3591SOL     OW11671   5.147   2.062   0.747
 3591SOL    HW111672   5.120   1.981   0.695
 3591SOL    HW211673   5.123   2.144   0.696
 3592SOL     OW11674   1.484   6.479   1.385
 3592SOL    HW111675   1.443   6.512   1.300
 3592SOL    HW211676   1.452   6.534   1.462
 3593SOL     OW11677   4.414   3.162   5.756
 3593SOL    HW111678   4.494   3.221   5.751
 3593SOL    HW211679   4.352   3.183   5.680
 3594SOL     OW11680   4.571   4.604   5.212
 3594SOL    HW111681   4.558   4.694   5.253
 3594SOL    HW211682   4.497   4.587   5.147
 3595SOL     OW11683   4.491   0.052   5.573
 3595SOL    HW111684   4.546   0.035   5.655
 3595SOL    HW211685   4.459   0.146   5.573
 3596SOL     OW11686   3.398   1.635   2.171
 3596SOL    HW111687   3.361   1.707   2.112
 3596SOL    HW211688   3.498   1.635   2.163
 3597SOL     OW11689   3.999   4.449   5.576
 3597SOL    HW111690   3.981   4.468   5.480
 3597SOL    HW211691   3.922   4.481   5.631
 3598SOL     OW11692   6.907   5.431   4.752
 3598SOL    HW111693   6.931   5.338   4.724
 3598SOL    HW211694   6.849   5.473   4.682
 3599SOL     OW11695   2.465   1.154   5.249
 3599SOL    HW111696   2.433   1.064   5.219
 3599SOL    HW211697   2.553   1.143   5.298
 3600SOL     OW11698   2.254   4.211   1.118
 3600SOL    HW111699   2.248   4.302   1.077
 3600SOL    HW211700   2.276   4.144   1.047
 3601SOL     OW11701   3.488   0.757   5.212
 3601SOL    HW111702   3.514   0.661   5.207
 3601SOL    HW211703   3.435   0.773   5.295
 3602SOL     OW11704   1.888   2.088   0.994
 3602SOL    HW111705   1.807   2.036   0.965
 3602SOL    HW211706   1.876   2.184   0.969
 3603SOL     OW11707   1.409   6.805   6.289
 3603SOL    HW111708   1.508   6.811   6.303
 3603SOL    HW211709   1.388   6.729   6.228
 3604SOL     OW11710   6.741   1.018   4.234
 3604SOL    HW111711   6.740   0.924   4.269
 3604SOL    HW211712   6.779   1.079   4.303
 3605SOL     OW11713   1.362   0.303   4.748
 3605SOL    HW111714   1.344   0.300   4.650
 3605SOL    HW211715   1.456   0.332   4.764
 3606SOL     OW11716   2.650   0.509   3.113
 3606SOL    HW111717   2.620   0.435   3.175
 3606SOL    HW211718   2.694   0.469   3.033
 3607SOL     OW11719   6.065   1.455   3.891
 3607SOL    HW111720   6.135   1.470   3.821
 3607SOL    HW211721   6.088   1.373   3.944
 3608SOL     OW11722   3.893   1.937   5.719
 3608SOL    HW111723   3.876   2.019   5.773
 3608SOL    HW211724   3.918   1.962   5.626
 3609SOL     OW11725   2.933   6.755   4.941
 3609SOL    HW111726   2.937   6.660   4.911
 3609SOL    HW211727   2.940   6.816   4.862
 3610SOL     OW11728   1.789   0.259   5.728
 3610SOL    HW111729   1.872   0.206   5.747
 3610SOL    HW211730   1.815   0.351   5.699
 3611SOL     OW11731   5.472   3.513   3.194
 3611SOL    HW111732   5.411   3.537   3.270
 3611SOL    HW211733   5.421   3.516   3.108
 3612SOL     OW11734   4.767   1.988   0.347
 3612SOL    HW111735   4.779   1.931   0.428
 3612SOL    HW211736   4.670   1.987   0.320
 3613SOL     OW11737   3.873   0.513   2.824
 3613SOL    HW111738   3.872   0.447   2.899
 3613SOL    HW211739   3.894   0.604   2.860
 3614SOL     OW11740   3.429   5.709   0.392
 3614SOL    HW111741   3.368   5.674   0.320
 3614SOL    HW211742   3.453   5.635   0.455
 3615SOL     OW11743   5.630   2.352   4.816
 3615SOL    HW111744   5.697   2.290   4.856
 3615SOL    HW211745   5.655   2.447   4.836
 3616SOL     OW11746   1.498   1.313   1.258
 3616SOL    HW111747   1.470   1.280   1.168
 3616SOL    HW211748   1.446   1.395   1.282
 3617SOL     OW11749   4.151   5.112   4.784
 3617SOL    HW111750   4.183   5.121   4.879
 3617SOL    HW211751   4.095   5.030   4.776
 3618SOL     OW11752   1.045   5.310   4.791
 3618SOL    HW111753   0.953   5.346   4.774
 3618SOL    HW211754   1.039   5.212   4.812
 3619SOL     OW11755   6.679   2.087   2.742
 3619SOL    HW111756   6.777   2.096   2.722
 3619SOL    HW211757   6.656   2.143   2.821
 3620SOL     OW11758   4.957   6.564   5.519
 3620SOL    HW111759   4.889   6.587   5.588
 3620SOL    HW211760   4.913   6.559   5.429
 3621SOL     OW11761   2.933   3.296   3.388
 3621SOL    HW111762   3.020   3.319   3.431
 3621SOL    HW211763   2.950   3.238   3.308
 3622SOL     OW11764   2.694   5.770   6.256
 3622SOL    HW111765   2.683   5.696   6.322
 3622SOL    HW211766   2.659   5.742   6.167
 3623SOL     OW11767   1.457   6.096   5.639
 3623SOL    HW111768   1.555   6.085   5.649
 3623SOL    HW211769   1.432   6.192   5.653
 3624SOL     OW11770   2.721   1.659   2.888
 3624SOL    HW111771   2.818   1.646   2.908
 3624SOL    HW211772   2.693   1.596   2.815
 3625SOL     OW11773   6.040   2.499   1.895
 3625SOL    HW111774   6.046   2.442   1.977
 3625SOL    HW211775   5.978   2.455   1.829
 3626SOL     OW11776   1.000   3.367   5.766
 3626SOL    HW111777   0.943   3.372   5.684
 3626SOL    HW211778   0.943   3.372   5.847
 3627SOL     OW11779   3.300   1.295   2.649
 3627SOL    HW111780   3.337   1.340   2.731
 3627SOL    HW211781   3.210   1.257   2.669
 3628SOL     OW11782   0.009   0.918   1.817
 3628SOL    HW111783   0.079   0.971   1.865
 3628SOL    HW211784   6.956   0.979   1.785
 3629SOL     OW11785   1.608   0.839   4.496
 3629SOL    HW111786   1.649   0.813   4.583
 3629SOL    HW211787   1.513   0.806   4.493
 3630SOL     OW11788   6.331   2.266   2.484
 3630SOL    HW111789   6.321   2.187   2.545
 3630SOL    HW211790   6.245   2.282   2.436
 3631SOL     OW11791   1.988   5.359   2.797
 3631SOL    HW111792   1.965   5.279   2.852
 3631SOL    HW211793   1.988   5.441   2.855
 3632SOL     OW11794   5.211   2.956   2.613
 3632SOL    HW111795   5.147   3.028   2.589
 3632SOL    HW211796   5.285   2.995   2.669
 3633SOL     OW11797   4.477   5.042   5.667
 3633SOL    HW111798   4.542   5.061   5.593
 3633SOL    HW211799   4.383   5.057   5.634
 3634SOL     OW11800   2.987   5.346   6.167
 3634SOL    HW111801   3.058   5.282   6.195
 3634SOL    HW211802   2.898   5.312   6.197
 3635SOL     OW11803   2.020   6.960   2.756
 3635SOL    HW111804   1.925   6.930   2.747
 3635SOL    HW211805   2.023   0.038   2.778
 3636SOL     OW11806   6.712   6.255   4.589
 3636SOL    HW111807   6.697   6.184   4.520
 3636SOL    HW211808   6.625   6.281   4.630
 3637SOL     OW11809   5.234   2.539   6.584
 3637SOL    HW111810   5.247   2.565   6.488
 3637SOL    HW211811   5.158   2.474   6.590
 3638SOL     OW11812   0.848   2.451   3.792
 3638SOL    HW111813   0.894   2.400   3.864
 3638SOL    HW211814   0.917   2.503   3.739
 3639SOL     OW11815   3.824   3.375   3.992
 3639SOL    HW111816   3.831   3.329   4.080
 3639SOL    HW211817   3.747   3.338   3.940
 3640SOL     OW11818   4.671   1.500   2.275
 3640SOL    HW111819   4.592   1.456   2.319
 3640SOL    HW211820   4.646   1.529   2.183
 3641SOL     OW11821   0.512   3.646   1.480
 3641SOL    HW111822   0.600   3.611   1.512
 3641SOL    HW211823   0.510   3.745   1.492
 3642SOL     OW11824   4.544   4.153   6.410
 3642SOL    HW111825   4.504   4.238   6.444
 3642SOL    HW211826   4.553   4.157   6.310
 3643SOL     OW11827   4.235   5.747   4.764
 3643SOL    HW111828   4.225   5.755   4.863
 3643SOL    HW211829   4.217   5.652   4.736
 3644SOL     OW11830   3.631   1.409   1.444
 3644SOL    HW111831   3.585   1.485   1.491
 3644SOL    HW211832   3.564   1.337   1.425
 3645SOL     OW11833   2.104   3.783   3.495
 3645SOL    HW111834   2.026   3.759   3.437
 3645SOL    HW211835   2.189   3.755   3.450
 3646SOL     OW11836   2.406   4.803   5.116
 3646SOL    HW111837   2.502   4.777   5.126
 3646SOL    HW211838   2.401   4.896   5.080
 3647SOL     OW11839   3.186   0.404   0.599
 3647SOL    HW111840   3.221   0.428   0.509
 3647SOL    HW211841   3.191   0.484   0.659
 3648SOL     OW11842   5.616   4.615   3.410
 3648SOL    HW111843   5.673   4.563   3.345
 3648SOL    HW211844   5.651   4.602   3.502
 3649SOL     OW11845   5.644   2.852   0.241
 3649SOL    HW111846   5.610   2.784   0.176
 3649SOL    HW211847   5.733   2.886   0.210
 3650SOL     OW11848   5.466   6.578   0.165
 3650SOL    HW111849   5.478   6.481   0.185
 3650SOL    HW211850   5.465   6.591   0.066
 3651SOL     OW11851   1.211   1.747   5.915
 3651SOL    HW111852   1.167   1.834   5.894
 3651SOL    HW211853   1.280   1.726   5.846
 3652SOL     OW11854   5.714   2.378   2.444
 3652SOL    HW111855   5.733   2.282   2.420
 3652SOL    HW211856   5.798   2.421   2.476
 3653SOL     OW11857   2.186   1.741   0.820
 3653SOL    HW111858   2.181   1.818   0.757
 3653SOL    HW211859   2.225   1.770   0.907
 3654SOL     OW11860   4.079   6.145   0.821
 3654SOL    HW111861   4.088   6.150   0.721
 3654SOL    HW211862   4.013   6.213   0.852
 3655SOL     OW11863   1.016   0.265   4.119
 3655SOL    HW111864   1.105   0.219   4.120
 3655SOL    HW211865   0.959   0.227   4.192
 3656SOL     OW11866   0.364   0.607   0.663
 3656SOL    HW111867   0.350   0.544   0.740
 3656SOL    HW211868   0.455   0.648   0.669
 3657SOL     OW11869   6.399   4.941   6.251
 3657SOL    HW111870   6.307   4.909   6.275
 3657SOL    HW211871   6.438   4.991   6.328
 3658SOL     OW11872   1.357   4.626   5.821
 3658SOL    HW111873   1.293   4.645   5.896
 3658SOL    HW211874   1.429   4.695   5.821
 3659SOL     OW11875   1.054   1.802   0.214
 3659SOL    HW111876   1.147   1.812   0.179
 3659SOL    HW211877   1.028   1.883   0.267
 3660SOL     OW11878   4.230   4.782   4.639
 3660SOL    HW111879   4.279   4.696   4.652
 3660SOL    HW211880   4.294   4.858   4.641
 3661SOL     OW11881   1.116   1.090   5.323
 3661SOL    HW111882   1.102   1.069   5.227
 3661SOL    HW211883   1.207   1.130   5.335
 3662SOL     OW11884   3.672   2.403   5.750
 3662SOL    HW111885   3.741   2.341   5.787
 3662SOL    HW211886   3.710   2.496   5.746
 3663SOL     OW11887   1.360   2.727   5.602
 3663SOL    HW111888   1.313   2.784   5.670
 3663SOL    HW211889   1.294   2.696   5.534
 3664SOL     OW11890   2.296   1.859   1.043
 3664SOL    HW111891   2.197   1.866   1.054
 3664SOL    HW211892   2.339   1.853   1.133
 3665SOL     OW11893   7.011   6.779   4.641
 3665SOL    HW111894   0.066   6.844   4.656
 3665SOL    HW211895   7.005   6.756   4.544
 3666SOL     OW11896   2.021   3.358   5.043
 3666SOL    HW111897   2.068   3.365   4.954
 3666SOL    HW211898   2.067   3.417   5.109
 3667SOL     OW11899   2.350   6.664   1.507
 3667SOL    HW111900   2.341   6.569   1.478
 3667SOL    HW211901   2.418   6.710   1.450
 3668SOL     OW11902   4.798   1.088   0.613
 3668SOL    HW111903   4.866   1.055   0.678
 3668SOL    HW211904   4.804   1.035   0.528
 3669SOL     OW11905   6.581   0.867   2.367
 3669SOL    HW111906   6.526   0.834   2.290
 3669SOL    HW211907   6.678   0.866   2.341
 3670SOL     OW11908   2.223   6.708   2.370
 3670SOL    HW111909   2.200   6.778   2.302
 3670SOL    HW211910   2.227   6.751   2.461
 3671SOL     OW11911   0.392   0.360   5.772
 3671SOL    HW111912   0.443   0.437   5.735
 3671SOL    HW211913   0.444   0.276   5.758
 3672SOL     OW11914   2.874   0.493   3.820
 3672SOL    HW111915   2.910   0.579   3.786
 3672SOL    HW211916   2.774   0.496   3.818
 3673SOL     OW11917   3.317   1.430   1.227
 3673SOL    HW111918   3.239   1.372   1.202
 3673SOL    HW211919   3.285   1.506   1.283
 3674SOL     OW11920   6.885   4.964   6.019
 3674SOL    HW111921   6.867   4.997   6.112
 3674SOL    HW211922   6.834   4.880   6.003
 3675SOL     OW11923   5.899   0.374   5.219
 3675SOL    HW111924   5.927   0.431   5.297
 3675SOL    HW211925   5.974   0.312   5.195
 3676SOL     OW11926   1.971   1.034   5.713
 3676SOL    HW111927   2.019   0.946   5.715
 3676SOL    HW211928   2.025   1.103   5.760
 3677SOL     OW11929   1.139   1.014   5.034
 3677SOL    HW111930   1.166   0.919   5.019
 3677SOL    HW211931   1.119   1.057   4.946
 3678SOL     OW11932   2.660   0.851   3.722
 3678SOL    HW111933   2.577   0.810   3.760
 3678SOL    HW211934   2.671   0.944   3.757
 3679SOL     OW11935   3.274   0.772   2.122
 3679SOL    HW111936   3.301   0.790   2.028
 3679SOL    HW211937   3.272   0.674   2.138
 3680SOL     OW11938   4.185   1.594   3.922
 3680SOL    HW111939   4.197   1.692   3.935
 3680SOL    HW211940   4.162   1.551   4.009
 3681SOL     OW11941   1.229   5.188   3.395
 3681SOL    HW111942   1.224   5.274   3.446
 3681SOL    HW211943   1.240   5.112   3.458
 3682SOL     OW11944   5.420   1.206   1.783
 3682SOL    HW111945   5.394   1.154   1.702
 3682SOL    HW211946   5.411   1.149   1.864
 3683SOL     OW11947   6.424   1.874   1.308
 3683SOL    HW111948   6.385   1.964   1.288
 3683SOL    HW211949   6.524   1.880   1.307
 3684SOL     OW11950   3.036   5.980   5.692
 3684SOL    HW111951   3.102   5.944   5.627
 3684SOL    HW211952   3.051   5.937   5.782
 3685SOL     OW11953   1.827   6.745   3.082
 3685SOL    HW111954   1.828   6.660   3.029
 3685SOL    HW211955   1.773   6.731   3.165
 3686SOL     OW11956   1.105   5.270   0.864
 3686SOL    HW111957   1.162   5.235   0.790
 3686SOL    HW211958   1.104   5.204   0.939
 3687SOL     OW11959   0.271   4.774   4.458
 3687SOL    HW111960   0.265   4.739   4.552
 3687SOL    HW211961   0.186   4.752   4.409
 3688SOL     OW11962   0.041   3.213   1.806
 3688SOL    HW111963   0.123   3.257   1.841
 3688SOL    HW211964   0.041   3.116   1.832
 3689SOL     OW11965   2.249   2.481   5.071
 3689SOL    HW111966   2.159   2.451   5.041
 3689SOL    HW211967   2.297   2.404   5.115
 3690SOL     OW11968   0.156   5.545   2.074
 3690SOL    HW111969   0.255   5.555   2.078
 3690SOL    HW211970   0.124   5.566   1.981
 3691SOL     OW11971   2.008   1.942   0.291
 3691SOL    HW111972   2.058   2.026   0.314
 3691SOL    HW211973   2.064   1.886   0.230
 3692SOL     OW11974   0.886   2.745   5.620
 3692SOL    HW111975   0.833   2.804   5.681
 3692SOL    HW211976   0.981   2.740   5.652
 3693SOL     OW11977   0.265   1.751   3.065
 3693SOL    HW111978   0.268   1.729   2.967
 3693SOL    HW211979   0.214   1.836   3.078
 3694SOL     OW11980   6.759   6.773   2.063
 3694SOL    HW111981   6.743   6.777   2.161
 3694SOL    HW211982   6.779   6.679   2.035
 3695SOL     OW11983   5.923   3.581   4.334
 3695SOL    HW111984   5.943   3.665   4.384
 3695SOL    HW211985   5.824   3.573   4.321
 3696SOL     OW11986   4.294   0.257   4.135
 3696SOL    HW111987   4.313   0.328   4.202
 3696SOL    HW211988   4.308   0.294   4.043
 3697SOL     OW11989   6.632   4.769   2.849
 3697SOL    HW111990   6.587   4.856   2.869
 3697SOL    HW211991   6.728   4.786   2.826
 3698SOL     OW11992   1.247   0.129   3.978
 3698SOL    HW111993   1.159   0.130   3.930
 3698SOL    HW211994   1.273   0.034   3.997
 3699SOL     OW11995   3.148   1.858   3.320
 3699SOL    HW111996   3.049   1.862   3.315
 3699SOL    HW211997   3.187   1.935   3.269
 3700SOL     OW11998   0.838   5.092   4.910
 3700SOL    HW111999   0.857   5.110   5.006
 3700SOL    HW212000   0.919   5.050   4.868
 3701SOL     OW12001   6.377   0.500   2.045
 3701SOL    HW112002   6.392   0.445   2.128
 3701SOL    HW212003   6.463   0.506   1.994
 3702SOL     OW12004   6.447   4.435   3.501
 3702SOL    HW112005   6.460   4.465   3.595
 3702SOL    HW212006   6.388   4.354   3.499
 3703SOL     OW12007   0.967   2.084   3.472
 3703SOL    HW112008   0.936   1.989   3.477
 3703SOL    HW212009   1.010   2.110   3.558
 3704SOL     OW12010   6.348   6.317   1.003
 3704SOL    HW112011   6.374   6.413   0.997
 3704SOL    HW212012   6.302   6.300   1.090
 3705SOL     OW12013   6.542   3.901   3.712
 3705SOL    HW112014   6.559   3.966   3.638
 3705SOL    HW212015   6.543   3.950   3.799
 3706SOL     OW12016   0.518   5.800   6.783
 3706SOL    HW112017   0.538   5.761   6.873
 3706SOL    HW212018   0.592   5.778   6.720
 3707SOL     OW12019   6.959   4.224   2.996
 3707SOL    HW112020   6.968   4.199   3.092
 3707SOL    HW212021   6.865   4.208   2.966
 3708SOL     OW12022   1.441   5.771   0.187
 3708SOL    HW112023   1.484   5.776   0.277
 3708SOL    HW212024   1.352   5.726   0.195
 3709SOL     OW12025   0.463   1.663   1.113
 3709SOL    HW112026   0.528   1.665   1.189
 3709SOL    HW212027   0.403   1.584   1.123
 3710SOL     OW12028   2.038   3.576   5.441
 3710SOL    HW112029   2.020   3.658   5.387
 3710SOL    HW212030   2.028   3.597   5.538
 3711SOL     OW12031   1.598   4.731   5.589
 3711SOL    HW112032   1.616   4.718   5.687
 3711SOL    HW212033   1.621   4.647   5.540
 3712SOL     OW12034   3.184   5.009   3.879
 3712SOL    HW112035   3.194   4.969   3.970
 3712SOL    HW212036   3.113   4.960   3.829
 3713SOL     OW12037   6.376   0.286   6.037
 3713SOL    HW112038   6.440   0.288   6.113
 3713SOL    HW212039   6.301   0.350   6.054
 3714SOL     OW12040   0.420   5.425   0.796
 3714SOL    HW112041   0.492   5.486   0.763
 3714SOL    HW212042   0.457   5.333   0.807
 3715SOL     OW12043   5.755   4.237   2.494
 3715SOL    HW112044   5.708   4.326   2.490
 3715SOL    HW212045   5.750   4.200   2.586
 3716SOL     OW12046   5.361   5.353   5.565
 3716SOL    HW112047   5.345   5.270   5.617
 3716SOL    HW212048   5.378   5.429   5.628
 3717SOL     OW12049   4.804   0.177   1.065
 3717SOL    HW112050   4.722   0.127   1.039
 3717SOL    HW212051   4.878   0.156   1.001
 3718SOL     OW12052   5.222   6.370   6.822
 3718SOL    HW112053   5.287   6.409   6.756
 3718SOL    HW212054   5.172   6.294   6.779
 3719SOL     OW12055   2.579   4.038   6.986
 3719SOL    HW112056   2.576   4.043   0.066
 3719SOL    HW212057   2.487   4.051   6.949
 3720SOL     OW12058   0.770   2.108   0.582
 3720SOL    HW112059   0.737   2.201   0.599
 3720SOL    HW212060   0.697   2.053   0.543
 3721SOL     OW12061   6.748   0.293   5.741
 3721SOL    HW112062   6.784   0.206   5.777
 3721SOL    HW212063   6.749   0.290   5.641
 3722SOL     OW12064   5.413   6.463   1.580
 3722SOL    HW112065   5.371   6.553   1.594
 3722SOL    HW212066   5.439   6.454   1.484
 3723SOL     OW12067   4.526   4.277   5.960
 3723SOL    HW112068   4.518   4.204   6.028
 3723SOL    HW212069   4.435   4.311   5.937
 3724SOL     OW12070   6.377   4.027   5.247
 3724SOL    HW112071   6.440   4.009   5.171
 3724SOL    HW212072   6.409   4.106   5.299
 3725SOL     OW12073   0.300   6.074   0.849
 3725SOL    HW112074   0.217   6.095   0.796
 3725SOL    HW212075   0.365   6.149   0.840
 3726SOL     OW12076   5.888   3.644   5.387
 3726SOL    HW112077   5.960   3.700   5.428
 3726SOL    HW212078   5.813   3.703   5.357
 3727SOL     OW12079   6.658   1.792   4.154
 3727SOL    HW112080   6.746   1.784   4.107
 3727SOL    HW212081   6.661   1.739   4.239
 3728SOL     OW12082   1.976   5.027   0.437
 3728SOL    HW112083   2.035   5.072   0.370
 3728SOL    HW212084   1.886   5.011   0.396
 3729SOL     OW12085   6.924   7.007   6.294
 3729SOL    HW112086   7.018   6.977   6.276
 3729SOL    HW212087   6.878   6.941   6.353
 3730SOL     OW12088   5.586   4.379   4.700
 3730SOL    HW112089   5.622   4.289   4.725
 3730SOL    HW212090   5.577   4.385   4.601
 3731SOL     OW12091   6.598   1.600   1.738
 3731SOL    HW112092   6.511   1.572   1.699
 3731SOL    HW212093   6.638   1.673   1.682
 3732SOL     OW12094   4.289   2.675   6.994
 3732SOL    HW112095   4.286   2.771   0.003
 3732SOL    HW212096   4.196   2.637   6.999
 3733SOL     OW12097   1.597   1.456   3.367
 3733SOL    HW112098   1.595   1.420   3.273
 3733SOL    HW212099   1.529   1.528   3.376
 3734SOL     OW12100   4.076   0.952   1.912
 3734SOL    HW112101   4.039   1.041   1.938
 3734SOL    HW212102   4.039   0.925   1.823
 3735SOL     OW12103   4.122   0.908   2.430
 3735SOL    HW112104   4.102   0.835   2.495
 3735SOL    HW212105   4.116   0.873   2.336
 3736SOL     OW12106   0.778   1.351   0.060
 3736SOL    HW112107   0.707   1.374   0.128
 3736SOL    HW212108   0.767   1.256   0.031
 3737SOL     OW12109   4.954   1.785   4.394
 3737SOL    HW112110   5.046   1.780   4.354
 3737SOL    HW212111   4.942   1.873   4.439
 3738SOL     OW12112   0.594   1.016   0.442
 3738SOL    HW112113   0.497   1.031   0.460
 3738SOL    HW212114   0.605   0.973   0.353
 3739SOL     OW12115   3.444   4.786   6.691
 3739SOL    HW112116   3.461   4.781   6.593
 3739SOL    HW212117   3.529   4.767   6.741
 3740SOL     OW12118   6.331   6.478   6.846
 3740SOL    HW112119   6.298   6.542   6.916
 3740SOL    HW212120   6.258   6.461   6.779
 3741SOL     OW12121   6.427   4.830   6.754
 3741SOL    HW112122   6.524   4.821   6.732
 3741SOL    HW212123   6.393   4.917   6.719
 3742SOL     OW12124   5.131   5.322   1.832
 3742SOL    HW112125   5.116   5.369   1.746
 3742SOL    HW212126   5.062   5.251   1.845
 3743SOL     OW12127   2.561   4.108   1.425
 3743SOL    HW112128   2.632   4.177   1.409
 3743SOL    HW212129   2.600   4.031   1.475
 3744SOL     OW12130   6.162   6.024   2.193
 3744SOL    HW112131   6.219   6.062   2.266
 3744SOL    HW212132   6.126   5.935   2.222
 3745SOL     OW12133   6.072   0.955   2.784
 3745SOL    HW112134   6.080   1.031   2.847
 3745SOL    HW212135   6.040   0.988   2.695
 3746SOL     OW12136   4.930   0.285   5.211
 3746SOL    HW112137   5.006   0.254   5.269
 3746SOL    HW212138   4.844   0.251   5.248
 3747SOL     OW12139   2.226   5.153   5.353
 3747SOL    HW112140   2.210   5.060   5.387
 3747SOL    HW212141   2.161   5.216   5.396
 3748SOL     OW12142   5.386   2.068   3.365
 3748SOL    HW112143   5.474   2.020   3.364
 3748SOL    HW212144   5.318   2.011   3.412
 3749SOL     OW12145   5.622   5.243   1.175
 3749SOL    HW112146   5.711   5.253   1.130
 3749SOL    HW212147   5.555   5.209   1.110
 3750SOL     OW12148   6.779   4.126   1.375
 3750SOL    HW112149   6.704   4.107   1.439
 3750SOL    HW212150   6.864   4.088   1.411
 3751SOL     OW12151   1.791   5.133   0.649
 3751SOL    HW112152   1.714   5.111   0.590
 3751SOL    HW212153   1.874   5.089   0.614
 3752SOL     OW12154   1.159   6.934   6.323
 3752SOL    HW112155   1.245   6.882   6.325
 3752SOL    HW212156   1.171   0.002   6.370
 3753SOL     OW12157   0.595   1.263   5.954
 3753SOL    HW112158   0.562   1.206   6.029
 3753SOL    HW212159   0.685   1.230   5.924
 3754SOL     OW12160   6.792   6.588   1.345
 3754SOL    HW112161   6.751   6.613   1.257
 3754SOL    HW212162   6.720   6.566   1.410
 3755SOL     OW12163   4.434   2.487   2.917
 3755SOL    HW112164   4.474   2.532   2.997
 3755SOL    HW212165   4.486   2.511   2.835
 3756SOL     OW12166   3.373   0.015   0.191
 3756SOL    HW112167   3.382   7.004   0.095
 3756SOL    HW212168   3.366   6.954   0.250
 3757SOL     OW12169   3.130   4.144   5.146
 3757SOL    HW112170   3.180   4.101   5.221
 3757SOL    HW212171   3.055   4.085   5.117
 3758SOL     OW12172   0.124   0.695   1.936
 3758SOL    HW112173   0.171   0.737   2.014
 3758SOL    HW212174   0.071   0.765   1.888
 3759SOL     OW12175   5.218   4.110   0.397
 3759SOL    HW112176   5.137   4.164   0.422
 3759SOL    HW212177   5.254   4.065   0.479
 3760SOL     OW12178   1.749   1.871   5.742
 3760SOL    HW112179   1.653   1.848   5.723
 3760SOL    HW212180   1.778   1.827   5.827
 3761SOL     OW12181   0.140   6.339   4.351
 3761SOL    HW112182   0.049   6.363   4.384
 3761SOL    HW212183   0.147   6.239   4.343
 3762SOL     OW12184   0.513   3.501   0.841
 3762SOL    HW112185   0.471   3.588   0.818
 3762SOL    HW212186   0.461   3.456   0.914
 3763SOL     OW12187   0.371   2.586   4.680
 3763SOL    HW112188   0.450   2.578   4.619
 3763SOL    HW212189   0.339   2.495   4.706
 3764SOL     OW12190   2.405   0.204   3.040
 3764SOL    HW112191   2.311   0.175   3.058
 3764SOL    HW212192   2.414   0.231   2.944
 3765SOL     OW12193   6.090   1.127   3.788
 3765SOL    HW112194   6.063   1.119   3.692
 3765SOL    HW212195   6.127   1.039   3.819
 3766SOL     OW12196   2.431   1.489   4.686
 3766SOL    HW112197   2.519   1.471   4.641
 3766SOL    HW212198   2.437   1.461   4.782
 3767SOL     OW12199   6.871   4.376   1.296
 3767SOL    HW112200   6.871   4.375   1.196
 3767SOL    HW212201   6.844   4.286   1.331
 3768SOL     OW12202   4.891   6.592   1.078
 3768SOL    HW112203   4.857   6.589   1.172
 3768SOL    HW212204   4.969   6.529   1.069
 3769SOL     OW12205   4.336   6.492   4.819
 3769SOL    HW112206   4.272   6.417   4.833
 3769SOL    HW212207   4.323   6.561   4.890
 3770SOL     OW12208   1.879   2.997   7.000
 3770SOL    HW112209   1.906   2.931   0.051
 3770SOL    HW212210   1.930   2.979   6.915
 3771SOL     OW12211   4.968   1.515   5.610
 3771SOL    HW112212   4.962   1.569   5.694
 3771SOL    HW212213   4.908   1.555   5.540
 3772SOL     OW12214   5.266   0.349   2.952
 3772SOL    HW112215   5.343   0.408   2.972
 3772SOL    HW212216   5.188   0.404   2.923
 3773SOL     OW12217   6.346   2.431   0.993
 3773SOL    HW112218   6.251   2.427   0.964
 3773SOL    HW212219   6.406   2.421   0.913
 3774SOL     OW12220   1.521   1.384   1.692
 3774SOL    HW112221   1.501   1.290   1.723
 3774SOL    HW212222   1.476   1.449   1.753
 3775SOL     OW12223   5.914   2.709   3.358
 3775SOL    HW112224   5.838   2.771   3.376
 3775SOL    HW212225   5.880   2.615   3.350
 3776SOL     OW12226   2.687   2.262   6.521
 3776SOL    HW112227   2.639   2.302   6.442
 3776SOL    HW212228   2.624   2.202   6.571
 3777SOL     OW12229   1.221   4.510   3.477
 3777SOL    HW112230   1.242   4.497   3.573
 3777SOL    HW212231   1.298   4.481   3.420
 3778SOL     OW12232   1.927   0.479   1.885
 3778SOL    HW112233   1.898   0.389   1.916
 3778SOL    HW212234   1.857   0.547   1.910
 3779SOL     OW12235   1.771   4.852   6.778
 3779SOL    HW112236   1.830   4.839   6.859
 3779SOL    HW212237   1.795   4.784   6.709
 3780SOL     OW12238   2.064   0.393   4.100
 3780SOL    HW112239   2.162   0.400   4.122
 3780SOL    HW212240   2.053   0.341   4.016
 3781SOL     OW12241   3.186   5.228   4.467
 3781SOL    HW112242   3.172   5.327   4.459
 3781SOL    HW212243   3.134   5.181   4.396
 3782SOL     OW12244   2.713   0.993   2.344
 3782SOL    HW112245   2.642   1.036   2.289
 3782SOL    HW212246   2.803   1.026   2.315
 3783SOL     OW12247   5.406   4.681   4.948
 3783SOL    HW112248   5.428   4.706   5.042
 3783SOL    HW212249   5.491   4.676   4.894
 3784SOL     OW12250   4.671   2.659   4.549
 3784SOL    HW112251   4.762   2.667   4.507
 3784SOL    HW212252   4.603   2.645   4.478
 3785SOL     OW12253   0.449   0.181   2.257
 3785SOL    HW112254   0.367   0.151   2.208
 3785SOL    HW212255   0.525   0.119   2.236
 3786SOL     OW12256   2.587   6.293   1.461
 3786SOL    HW112257   2.632   6.209   1.429
 3786SOL    HW212258   2.528   6.271   1.539
 3787SOL     OW12259   4.432   1.140   3.474
 3787SOL    HW112260   4.480   1.142   3.562
 3787SOL    HW212261   4.395   1.231   3.455
 3788SOL     OW12262   6.931   3.074   2.471
 3788SOL    HW112263   6.880   3.053   2.387
 3788SOL    HW212264   6.963   2.989   2.512
 3789SOL     OW12265   2.110   5.299   2.410
 3789SOL    HW112266   2.143   5.362   2.480
 3789SOL    HW212267   2.075   5.351   2.332
 3790SOL     OW12268   1.824   3.508   2.382
 3790SOL    HW112269   1.738   3.538   2.423
 3790SOL    HW212270   1.899   3.564   2.416
 3791SOL     OW12271   6.541   0.517   2.842
 3791SOL    HW112272   6.580   0.550   2.928
 3791SOL    HW212273   6.442   0.536   2.842
 3792SOL     OW12274   1.140   5.576   6.062
 3792SOL    HW112275   1.195   5.503   6.104
 3792SOL    HW212276   1.193   5.660   6.059
 3793SOL     OW12277   6.895   6.004   2.845
 3793SOL    HW112278   6.834   5.989   2.923
 3793SOL    HW212279   6.844   6.042   2.769
 3794SOL     OW12280   4.269   0.037   4.286
 3794SOL    HW112281   4.278   0.108   4.217
 3794SOL    HW212282   4.348   0.039   4.348
 3795SOL     OW12283   6.092   0.353   0.809
 3795SOL    HW112284   6.148   0.431   0.781
 3795SOL    HW212285   6.117   0.325   0.902
 3796SOL     OW12286   0.128   2.759   1.468
 3796SOL    HW112287   0.122   2.859   1.470
 3796SOL    HW212288   0.074   2.721   1.544
 3797SOL     OW12289   6.826   5.949   2.377
 3797SOL    HW112290   6.894   6.021   2.373
 3797SOL    HW212291   6.856   5.878   2.442
 3798SOL     OW12292   1.226   4.430   0.022
 3798SOL    HW112293   1.285   4.360   0.064
 3798SOL    HW212294   1.283   4.503   7.004
 3799SOL     OW12295   0.880   0.465   5.605
 3799SOL    HW112296   0.907   0.532   5.536
 3799SOL    HW212297   0.825   0.510   5.675
 3800SOL     OW12298   4.934   2.355   4.574
 3800SOL    HW112299   4.896   2.448   4.569
 3800SOL    HW212300   4.985   2.336   4.490
 3801SOL     OW12301   6.769   0.536   5.843
 3801SOL    HW112302   6.778   0.449   5.795
 3801SOL    HW212303   6.767   0.519   5.941
 3802SOL     OW12304   1.726   2.511   4.878
 3802SOL    HW112305   1.720   2.588   4.942
 3802SOL    HW212306   1.822   2.494   4.856
 3803SOL     OW12307   4.485   1.006   1.233
 3803SOL    HW112308   4.402   0.998   1.177
 3803SOL    HW212309   4.479   0.942   1.310
 3804SOL     OW12310   5.150   3.695   4.926
 3804SOL    HW112311   5.096   3.634   4.984
 3804SOL    HW212312   5.127   3.678   4.830
 3805SOL     OW12313   1.969   3.979   1.574
 3805SOL    HW112314   2.053   4.027   1.596
 3805SOL    HW212315   1.979   3.882   1.599
 3806SOL     OW12316   3.515   0.706   6.948
 3806SOL    HW112317   3.472   0.754   6.872
 3806SOL    HW212318   3.527   0.769   0.006
 3807SOL     OW12319   1.689   6.637   2.712
 3807SOL    HW112320   1.762   6.626   2.779
 3807SOL    HW212321   1.601   6.621   2.755
 3808SOL     OW12322   4.050   1.047   0.666
 3808SOL    HW112323   4.013   0.996   0.744
 3808SOL    HW212324   3.976   1.070   0.603
 3809SOL     OW12325   4.243   1.255   0.514
 3809SOL    HW112326   4.242   1.194   0.593
 3809SOL    HW212327   4.332   1.249   0.468
 3810SOL     OW12328   1.913   3.767   6.846
 3810SOL    HW112329   1.819   3.764   6.881
 3810SOL    HW212330   1.911   3.760   6.746
 3811SOL     OW12331   0.050   0.381   6.196
 3811SOL    HW112332   0.134   0.410   6.243
 3811SOL    HW212333   7.018   0.461   6.167
 3812SOL     OW12334   4.252   0.788   6.070
 3812SOL    HW112335   4.337   0.833   6.097
 3812SOL    HW212336   4.219   0.732   6.146
 3813SOL     OW12337   3.819   4.983   1.821
 3813SOL    HW112338   3.763   4.925   1.880
 3813SOL    HW212339   3.790   4.973   1.726
 3814SOL     OW12340   2.186   0.543   1.790
 3814SOL    HW112341   2.215   0.639   1.795
 3814SOL    HW212342   2.096   0.534   1.834
 3815SOL     OW12343   5.473   2.180   2.089
 3815SOL    HW112344   5.502   2.274   2.105
 3815SOL    HW212345   5.429   2.173   1.999
 3816SOL     OW12346   0.664   6.114   0.702
 3816SOL    HW112347   0.601   6.120   0.625
 3816SOL    HW212348   0.740   6.053   0.678
 3817SOL     OW12349   5.550   2.026   5.237
 3817SOL    HW112350   5.517   2.024   5.143
 3817SOL    HW212351   5.624   1.959   5.247
 3818SOL     OW12352   3.467   6.146   3.399
 3818SOL    HW112353   3.376   6.106   3.390
 3818SOL    HW212354   3.535   6.084   3.359
 3819SOL     OW12355   5.272   3.357   6.418
 3819SOL    HW112356   5.357   3.328   6.374
 3819SOL    HW212357   5.221   3.277   6.448
 3820SOL     OW12358   4.346   5.849   3.315
 3820SOL    HW112359   4.248   5.829   3.318
 3820SOL    HW212360   4.384   5.841   3.408
 3821SOL     OW12361   0.330   4.527   1.435
 3821SOL    HW112362   0.255   4.467   1.405
 3821SOL    HW212363   0.372   4.489   1.518
 3822SOL     OW12364   1.057   3.701   1.328
 3822SOL    HW112365   1.075   3.603   1.341
 3822SOL    HW212366   1.055   3.746   1.417
 3823SOL     OW12367   2.528   3.344   5.582
 3823SOL    HW112368   2.604   3.368   5.521
 3823SOL    HW212369   2.487   3.427   5.618
 3824SOL     OW12370   0.599   2.665   5.983
 3824SOL    HW112371   0.591   2.728   5.906
 3824SOL    HW212372   0.561   2.707   6.065
 3825SOL     OW12373   0.733   6.192   6.111
 3825SOL    HW112374   0.707   6.159   6.201
 3825SOL    HW212375   0.792   6.273   6.121
 3826SOL     OW12376   6.344   1.838   1.716
 3826SOL    HW112377   6.354   1.835   1.816
 3826SOL    HW212378   6.412   1.901   1.678
 3827SOL     OW12379   5.100   1.897   1.967
 3827SOL    HW112380   5.169   1.826   1.980
 3827SOL    HW212381   5.127   1.979   2.018
 3828SOL     OW12382   3.736   1.119   1.351
 3828SOL    HW112383   3.716   1.211   1.384
 3828SOL    HW212384   3.662   1.057   1.379
 3829SOL     OW12385   0.997   4.934   3.494
 3829SOL    HW112386   0.982   5.027   3.459
 3829SOL    HW212387   1.079   4.895   3.452
 3830SOL     OW12388   2.145   0.288   5.483
 3830SOL    HW112389   2.201   0.371   5.486
 3830SOL    HW212390   2.143   0.247   5.574
 3831SOL     OW12391   4.818   1.757   1.999
 3831SOL    HW112392   4.918   1.754   1.998
 3831SOL    HW212393   4.785   1.814   1.924
 3832SOL     OW12394   5.914   0.080   2.084
 3832SOL    HW112395   5.980   0.068   2.010
 3832SOL    HW212396   5.927   0.169   2.126
 3833SOL     OW12397   1.437   6.575   2.785
 3833SOL    HW112398   1.420   6.517   2.705
 3833SOL    HW212399   1.350   6.611   2.818
 3834SOL     OW12400   3.399   2.749   0.433
 3834SOL    HW112401   3.339   2.725   0.356
 3834SOL    HW212402   3.436   2.841   0.419
 3835SOL     OW12403   3.185   4.879   2.891
 3835SOL    HW112404   3.214   4.895   2.797
 3835SOL    HW212405   3.093   4.916   2.904
 3836SOL     OW12406   1.320   2.647   6.482
 3836SOL    HW112407   1.221   2.641   6.474
 3836SOL    HW212408   1.347   2.742   6.497
 3837SOL     OW12409   3.090   4.258   6.331
 3837SOL    HW112410   3.089   4.193   6.256
 3837SOL    HW212411   3.119   4.348   6.297
 3838SOL     OW12412   7.001   3.163   4.845
 3838SOL    HW112413   6.984   3.109   4.928
 3838SOL    HW212414   0.037   3.109   4.782
 3839SOL     OW12415   0.796   5.933   0.220
 3839SOL    HW112416   0.764   6.028   0.231
 3839SOL    HW212417   0.836   5.921   0.129
 3840SOL     OW12418   3.225   2.088   3.185
 3840SOL    HW112419   3.312   2.051   3.155
 3840SOL    HW212420   3.168   2.108   3.105
 3841SOL     OW12421   1.064   3.202   3.618
 3841SOL    HW112422   1.144   3.227   3.563
 3841SOL    HW212423   0.983   3.243   3.578
 3842SOL     OW12424   1.104   5.092   6.663
 3842SOL    HW112425   1.089   5.114   6.760
 3842SOL    HW212426   1.095   4.993   6.650
 3843SOL     OW12427   7.002   4.833   6.687
 3843SOL    HW112428   0.024   4.815   6.598
 3843SOL    HW212429   0.008   4.760   6.751
 3844SOL     OW12430   2.842   4.237   5.665
 3844SOL    HW112431   2.936   4.248   5.633
 3844SOL    HW212432   2.781   4.230   5.586
 3845SOL     OW12433   3.228   3.481   4.289
 3845SOL    HW112434   3.174   3.448   4.212
 3845SOL    HW212435   3.326   3.476   4.266
 3846SOL     OW12436   6.674   4.207   4.996
 3846SOL    HW112437   6.704   4.218   5.091
 3846SOL    HW212438   6.712   4.281   4.941
 3847SOL     OW12439   1.469   6.860   1.083
 3847SOL    HW112440   1.378   6.827   1.061
 3847SOL    HW212441   1.482   6.952   1.047
 3848SOL     OW12442   2.810   6.298   2.287
 3848SOL    HW112443   2.862   6.382   2.296
 3848SOL    HW212444   2.759   6.299   2.201
 3849SOL     OW12445   2.649   1.403   5.151
 3849SOL    HW112446   2.644   1.305   5.169
 3849SOL    HW212447   2.739   1.437   5.179
 3850SOL     OW12448   1.580   3.209   1.545
 3850SOL    HW112449   1.649   3.281   1.546
 3850SOL    HW212450   1.612   3.135   1.485
 3851SOL     OW12451   2.892   2.785   0.492
 3851SOL    HW112452   2.795   2.801   0.512
 3851SOL    HW212453   2.947   2.808   0.573
 3852SOL     OW12454   4.599   0.875   5.550
 3852SOL    HW112455   4.602   0.927   5.635
 3852SOL    HW212456   4.530   0.914   5.489
 3853SOL     OW12457   0.430   3.422   2.169
 3853SOL    HW112458   0.494   3.498   2.152
 3853SOL    HW212459   0.367   3.448   2.242
 3854SOL     OW12460   1.340   3.718   4.114
 3854SOL    HW112461   1.294   3.783   4.174
 3854SOL    HW212462   1.339   3.627   4.157
 3855SOL     OW12463   6.998   1.778   4.875
 3855SOL    HW112464   0.015   1.687   4.895
 3855SOL    HW212465   0.053   1.837   4.843
 3856SOL     OW12466   1.089   6.148   6.290
 3856SOL    HW112467   1.127   6.102   6.370
 3856SOL    HW212468   1.010   6.202   6.318
 3857SOL     OW12469   6.749   0.109   6.839
 3857SOL    HW112470   6.790   0.046   6.905
 3857SOL    HW212471   6.802   0.193   6.835
 3858SOL     OW12472   4.233   5.010   6.755
 3858SOL    HW112473   4.326   5.035   6.729
 3858SOL    HW212474   4.209   4.923   6.712
 3859SOL     OW12475   6.583   2.658   2.515
 3859SOL    HW112476   6.584   2.743   2.462
 3859SOL    HW212477   6.676   2.638   2.547
 3860SOL     OW12478   2.278   6.131   4.725
 3860SOL    HW112479   2.291   6.219   4.771
 3860SOL    HW212480   2.219   6.072   4.780
 3861SOL     OW12481   2.975   3.793   0.330
 3861SOL    HW112482   3.004   3.887   0.349
 3861SOL    HW212483   3.050   3.743   0.288
 3862SOL     OW12484   1.045   6.303   5.309
 3862SOL    HW112485   1.122   6.360   5.282
 3862SOL    HW212486   0.968   6.320   5.247
 3863SOL     OW12487   2.469   2.996   0.600
 3863SOL    HW112488   2.486   3.090   0.630
 3863SOL    HW212489   2.535   2.934   0.644
 3864SOL     OW12490   3.577   1.988   1.348
 3864SOL    HW112491   3.606   1.896   1.373
 3864SOL    HW212492   3.557   2.041   1.430
 3865SOL     OW12493   4.249   1.012   2.139
 3865SOL    HW112494   4.222   1.007   2.043
 3865SOL    HW212495   4.312   0.937   2.159
 3866SOL     OW12496   4.421   6.183   0.010
 3866SOL    HW112497   4.389   6.269   0.048
 3866SOL    HW212498   4.417   6.112   0.081
 3867SOL     OW12499   1.563   4.956   3.058
 3867SOL    HW112500   1.523   5.028   3.002
 3867SOL    HW212501   1.650   4.926   3.017
 3868SOL     OW12502   1.857   5.212   3.080
 3868SOL    HW112503   1.905   5.229   3.166
 3868SOL    HW212504   1.801   5.130   3.089
 3869SOL     OW12505   0.841   1.138   3.543
 3869SOL    HW112506   0.782   1.168   3.619
 3869SOL    HW212507   0.930   1.111   3.580
 3870SOL     OW12508   4.118   3.750   0.092
 3870SOL    HW112509   4.094   3.757   7.015
 3870SOL    HW212510   4.049   3.697   0.140
 3871SOL     OW12511   3.050   0.640   4.271
 3871SOL    HW112512   2.970   0.671   4.322
 3871SOL    HW212513   3.112   0.591   4.333
 3872SOL     OW12514   4.762   4.117   0.514
 3872SOL    HW112515   4.690   4.076   0.458
 3872SOL    HW212516   4.741   4.105   0.611
 3873SOL     OW12517   6.354   4.802   1.750
 3873SOL    HW112518   6.414   4.878   1.772
 3873SOL    HW212519   6.318   4.812   1.657
 3874SOL     OW12520   5.603   6.527   5.865
 3874SOL    HW112521   5.661   6.478   5.929
 3874SOL    HW212522   5.520   6.557   5.911
 3875SOL     OW12523   2.930   3.466   0.350
 3875SOL    HW112524   2.902   3.421   0.265
 3875SOL    HW212525   3.008   3.527   0.331
 3876SOL     OW12526   5.554   3.850   2.826
 3876SOL    HW112527   5.611   3.801   2.761
 3876SOL    HW212528   5.460   3.852   2.793
 3877SOL     OW12529   4.627   1.670   1.774
 3877SOL    HW112530   4.659   1.765   1.771
 3877SOL    HW212531   4.611   1.644   1.869
 3878SOL     OW12532   5.854   5.991   5.039
 3878SOL    HW112533   5.795   5.968   5.116
 3878SOL    HW212534   5.882   6.087   5.045
 3879SOL     OW12535   2.264   6.084   0.706
 3879SOL    HW112536   2.251   6.161   0.769
 3879SOL    HW212537   2.361   6.060   0.701
 3880SOL     OW12538   5.971   1.551   4.487
 3880SOL    HW112539   6.013   1.593   4.567
 3880SOL    HW212540   5.923   1.467   4.515
 3881SOL     OW12541   0.099   6.332   5.629
 3881SOL    HW112542   0.088   6.429   5.608
 3881SOL    HW212543   0.163   6.290   5.564
 3882SOL     OW12544   0.213   6.105   0.055
 3882SOL    HW112545   0.160   6.022   0.072
 3882SOL    HW212546   0.269   6.093   6.993
 3883SOL     OW12547   4.086   1.872   0.174
 3883SOL    HW112548   4.001   1.822   0.154
 3883SOL    HW212549   4.150   1.860   0.098
 3884SOL     OW12550   3.019   5.855   5.939
 3884SOL    HW112551   3.086   5.871   6.011
 3884SOL    HW212552   2.981   5.763   5.949
 3885SOL     OW12553   0.212   1.222   3.887
 3885SOL    HW112554   0.216   1.301   3.948
 3885SOL    HW212555   0.163   1.246   3.804
 3886SOL     OW12556   6.950   6.208   4.716
 3886SOL    HW112557   6.958   6.231   4.813
 3886SOL    HW212558   6.858   6.228   4.684
 3887SOL     OW12559   7.016   3.012   5.325
 3887SOL    HW112560   0.092   2.990   5.342
 3887SOL    HW212561   6.981   3.071   5.399
 3888SOL     OW12562   4.861   2.098   3.224
 3888SOL    HW112563   4.811   2.014   3.202
 3888SOL    HW212564   4.916   2.126   3.145
 3889SOL     OW12565   6.513   5.595   0.579
 3889SOL    HW112566   6.489   5.627   0.670
 3889SOL    HW212567   6.603   5.553   0.581
 3890SOL     OW12568   5.859   3.236   3.525
 3890SOL    HW112569   5.939   3.177   3.531
 3890SOL    HW212570   5.793   3.197   3.460
 3891SOL     OW12571   3.739   4.328   6.139
 3891SOL    HW112572   3.646   4.293   6.139
 3891SOL    HW212573   3.800   4.263   6.184
 3892SOL     OW12574   5.107   6.036   3.920
 3892SOL    HW112575   5.019   6.075   3.890
 3892SOL    HW212576   5.091   5.947   3.962
 3893SOL     OW12577   2.601   6.049   4.742
 3893SOL    HW112578   2.565   6.042   4.835
 3893SOL    HW212579   2.700   6.056   4.744
 3894SOL     OW12580   5.522   5.810   5.959
 3894SOL    HW112581   5.474   5.861   5.888
 3894SOL    HW212582   5.620   5.829   5.954
 3895SOL     OW12583   1.287   1.656   5.055
 3895SOL    HW112584   1.336   1.714   4.990
 3895SOL    HW212585   1.320   1.675   5.147
 3896SOL     OW12586   6.664   2.489   0.599
 3896SOL    HW112587   6.743   2.525   0.649
 3896SOL    HW212588   6.681   2.394   0.573
 3897SOL     OW12589   2.716   0.572   3.394
 3897SOL    HW112590   2.685   0.574   3.299
 3897SOL    HW212591   2.638   0.555   3.454
 3898SOL     OW12592   3.685   4.093   2.992
 3898SOL    HW112593   3.667   4.148   3.073
 3898SOL    HW212594   3.777   4.054   2.998
 3899SOL     OW12595   4.677   1.594   6.173
 3899SOL    HW112596   4.646   1.502   6.149
 3899SOL    HW212597   4.625   1.627   6.251
 3900SOL     OW12598   0.964   2.438   4.208
 3900SOL    HW112599   0.983   2.383   4.289
 3900SOL    HW212600   0.887   2.499   4.226
 3901SOL     OW12601   3.854   6.282   4.335
 3901SOL    HW112602   3.887   6.370   4.368
 3901SOL    HW212603   3.869   6.275   4.236
 3902SOL     OW12604   2.702   5.036   3.160
 3902SOL    HW112605   2.704   5.050   3.259
 3902SOL    HW212606   2.634   4.966   3.138
 3903SOL     OW12607   2.734   3.968   6.069
 3903SOL    HW112608   2.820   3.918   6.082
 3903SOL    HW212609   2.751   4.047   6.011
 3904SOL     OW12610   2.910   6.366   1.064
 3904SOL    HW112611   2.883   6.366   1.160
 3904SOL    HW212612   2.887   6.454   1.023
 3905SOL     OW12613   4.135   6.416   5.576
 3905SOL    HW112614   4.176   6.399   5.487
 3905SOL    HW212615   4.084   6.336   5.606
 3906SOL     OW12616   6.759   5.958   4.170
 3906SOL    HW112617   6.783   5.869   4.209
 3906SOL    HW212618   6.675   5.950   4.117
 3907SOL     OW12619   1.412   1.007   5.047
 3907SOL    HW112620   1.314   0.998   5.064
 3907SOL    HW212621   1.427   1.057   4.962
 3908SOL     OW12622   2.345   1.986   4.911
 3908SOL    HW112623   2.421   2.040   4.875
 3908SOL    HW212624   2.284   2.045   4.963
 3909SOL     OW12625   6.474   3.449   2.311
 3909SOL    HW112626   6.550   3.510   2.287
 3909SOL    HW212627   6.478   3.430   2.409
 3910SOL     OW12628   1.858   2.333   0.276
 3910SOL    HW112629   1.806   2.346   0.360
 3910SOL    HW212630   1.834   2.246   0.235
 3911SOL     OW12631   6.225   0.824   2.308
 3911SOL    HW112632   6.231   0.822   2.408
 3911SOL    HW212633   6.147   0.769   2.278
 3912SOL     OW12634   4.797   4.905   0.709
 3912SOL    HW112635   4.805   4.831   0.642
 3912SOL    HW212636   4.853   4.883   0.788
 3913SOL     OW12637   4.138   4.650   1.320
 3913SOL    HW112638   4.159   4.714   1.246
 3913SOL    HW212639   4.220   4.633   1.374
 3914SOL     OW12640   0.325   0.998   0.489
 3914SOL    HW112641   0.308   0.986   0.587
 3914SOL    HW212642   0.260   0.942   0.437
 3915SOL     OW12643   5.246   0.244   4.672
 3915SOL    HW112644   5.190   0.252   4.755
 3915SOL    HW212645   5.329   0.192   4.693
 3916SOL     OW12646   2.201   2.869   2.129
 3916SOL    HW112647   2.218   2.925   2.210
 3916SOL    HW212648   2.168   2.779   2.157
 3917SOL     OW12649   3.873   5.655   2.320
 3917SOL    HW112650   3.793   5.628   2.267
 3917SOL    HW212651   3.866   5.617   2.412
 3918SOL     OW12652   3.754   6.451   0.130
 3918SOL    HW112653   3.851   6.465   0.149
 3918SOL    HW212654   3.740   6.445   0.032
 3919SOL     OW12655   4.953   4.387   3.412
 3919SOL    HW112656   4.922   4.457   3.348
 3919SOL    HW212657   4.960   4.426   3.504
 3920SOL     OW12658   4.262   0.889   5.814
 3920SOL    HW112659   4.284   0.885   5.911
 3920SOL    HW212660   4.179   0.836   5.796
 3921SOL     OW12661   1.022   3.847   5.699
 3921SOL    HW112662   1.042   3.751   5.718
 3921SOL    HW212663   0.942   3.853   5.639
 3922SOL     OW12664   5.359   1.908   4.101
 3922SOL    HW112665   5.369   1.996   4.054
 3922SOL    HW212666   5.338   1.924   4.197
 3923SOL     OW12667   5.933   0.683   1.648
 3923SOL    HW112668   5.974   0.617   1.586
 3923SOL    HW212669   5.833   0.676   1.643
 3924SOL     OW12670   5.424   5.146   3.712
 3924SOL    HW112671   5.497   5.087   3.676
 3924SOL    HW212672   5.464   5.214   3.773
 3925SOL     OW12673   3.764   4.163   1.813
 3925SOL    HW112674   3.699   4.094   1.845
 3925SOL    HW212675   3.714   4.241   1.777
 3926SOL     OW12676   0.673   6.048   5.252
 3926SOL    HW112677   0.587   6.032   5.300
 3926SOL    HW212678   0.749   6.019   5.310
 3927SOL     OW12679   6.109   6.235   4.890
 3927SOL    HW112680   6.086   6.251   4.794
 3927SOL    HW212681   6.026   6.240   4.945
 3928SOL     OW12682   4.488   5.336   2.588
 3928SOL    HW112683   4.525   5.292   2.670
 3928SOL    HW212684   4.480   5.268   2.515
 3929SOL     OW12685   1.832   1.214   5.030
 3929SOL    HW112686   1.754   1.241   5.088
 3929SOL    HW212687   1.909   1.187   5.088
 3930SOL     OW12688   1.837   5.612   4.342
 3930SOL    HW112689   1.773   5.670   4.292
 3930SOL    HW212690   1.860   5.531   4.286
 3931SOL     OW12691   0.356   2.003   0.290
 3931SOL    HW112692   0.438   2.049   0.256
 3931SOL    HW212693   0.280   2.068   0.293
 3932SOL     OW12694   1.524   4.675   2.132
 3932SOL    HW112695   1.617   4.685   2.097
 3932SOL    HW212696   1.470   4.754   2.105
 3933SOL     OW12697   1.375   6.815   1.617
 3933SOL    HW112698   1.473   6.800   1.610
 3933SOL    HW212699   1.328   6.759   1.548
 3934SOL     OW12700   1.621   0.006   2.071
 3934SOL    HW112701   1.543   0.027   2.129
 3934SOL    HW212702   1.606   0.042   1.979
 3935SOL     OW12703   0.135   1.018   4.903
 3935SOL    HW112704   0.051   0.985   4.947
 3935SOL    HW212705   0.150   0.968   4.818
 3936SOL     OW12706   6.379   5.033   3.889
 3936SOL    HW112707   6.325   4.963   3.843
 3936SOL    HW212708   6.473   5.001   3.899
 3937SOL     OW12709   1.653   6.585   0.187
 3937SOL    HW112710   1.611   6.510   0.238
 3937SOL    HW212711   1.583   6.637   0.139
 3938SOL     OW12712   0.923   4.815   6.405
 3938SOL    HW112713   0.900   4.720   6.385
 3938SOL    HW212714   1.019   4.831   6.385
 3939SOL     OW12715   2.173   6.248   4.223
 3939SOL    HW112716   2.093   6.190   4.238
 3939SOL    HW212717   2.256   6.192   4.229
 3940SOL     OW12718   2.711   6.093   6.789
 3940SOL    HW112719   2.774   6.095   6.712
 3940SOL    HW212720   2.642   6.166   6.778
 3941SOL     OW12721   5.456   5.474   2.627
 3941SOL    HW112722   5.411   5.385   2.633
 3941SOL    HW212723   5.476   5.507   2.720
 3942SOL     OW12724   0.753   6.570   0.243
 3942SOL    HW112725   0.718   6.577   0.150
 3942SOL    HW212726   0.848   6.539   0.240
 3943SOL     OW12727   0.331   5.115   0.490
 3943SOL    HW112728   0.250   5.159   0.451
 3943SOL    HW212729   0.362   5.042   0.428
 3944SOL     OW12730   5.449   3.240   0.516
 3944SOL    HW112731   5.462   3.142   0.527
 3944SOL    HW212732   5.422   3.280   0.604
 3945SOL     OW12733   0.276   0.692   3.080
 3945SOL    HW112734   0.199   0.628   3.072
 3945SOL    HW212735   0.252   0.765   3.144
 3946SOL     OW12736   5.009   1.037   0.780
 3946SOL    HW112737   5.049   1.096   0.850
 3946SOL    HW212738   5.081   0.993   0.728
 3947SOL     OW12739   5.463   0.069   0.997
 3947SOL    HW112740   5.543   0.027   0.953
 3947SOL    HW212741   5.485   0.090   1.092
 3948SOL     OW12742   1.804   1.697   4.028
 3948SOL    HW112743   1.719   1.646   4.011
 3948SOL    HW212744   1.840   1.731   3.941
 3949SOL     OW12745   5.981   6.750   2.482
 3949SOL    HW112746   6.060   6.732   2.423
 3949SOL    HW212747   5.967   6.849   2.490
 3950SOL     OW12748   2.500   4.694   1.527
 3950SOL    HW112749   2.402   4.675   1.530
 3950SOL    HW212750   2.545   4.650   1.605
 3951SOL     OW12751   0.065   2.407   3.045
 3951SOL    HW112752   0.162   2.430   3.049
 3951SOL    HW212753   0.011   2.485   3.074
 3952SOL     OW12754   6.055   5.297   6.940
 3952SOL    HW112755   6.107   5.371   6.897
 3952SOL    HW212756   6.048   5.220   6.875
 3953SOL     OW12757   3.543   2.854   4.554
 3953SOL    HW112758   3.590   2.869   4.467
 3953SOL    HW212759   3.494   2.937   4.580
 3954SOL     OW12760   1.096   4.625   5.567
 3954SOL    HW112761   1.191   4.646   5.547
 3954SOL    HW212762   1.063   4.555   5.504
 3955SOL     OW12763   6.039   3.342   6.923
 3955SOL    HW112764   6.049   3.395   6.839
 3955SOL    HW212765   5.981   3.392   6.987
 3956SOL     OW12766   7.001   2.776   4.714
 3956SOL    HW112767   0.050   2.849   4.707
 3956SOL    HW212768   6.911   2.812   4.688
 3957SOL     OW12769   1.843   2.761   1.450
 3957SOL    HW112770   1.790   2.687   1.492
 3957SOL    HW212771   1.940   2.742   1.462
 3958SOL     OW12772   5.309   5.431   0.862
 3958SOL    HW112773   5.272   5.374   0.788
 3958SOL    HW212774   5.243   5.435   0.937
 3959SOL     OW12775   3.189   5.133   0.515
 3959SOL    HW112776   3.207   5.174   0.605
 3959SOL    HW212777   3.153   5.040   0.528
 3960SOL     OW12778   5.786   3.316   1.265
 3960SOL    HW112779   5.879   3.286   1.287
 3960SOL    HW212780   5.721   3.267   1.323
 3961SOL     OW12781   6.722   1.110   1.477
 3961SOL    HW112782   6.738   1.117   1.378
 3961SOL    HW212783   6.627   1.133   1.498
 3962SOL     OW12784   0.324   6.678   6.421
 3962SOL    HW112785   0.410   6.634   6.448
 3962SOL    HW212786   0.309   6.665   6.323
 3963SOL     OW12787   5.955   3.025   4.796
 3963SOL    HW112788   5.948   3.070   4.885
 3963SOL    HW212789   5.872   2.971   4.779
 3964SOL     OW12790   5.946   4.596   6.726
 3964SOL    HW112791   6.045   4.594   6.743
 3964SOL    HW212792   5.918   4.512   6.680
 3965SOL     OW12793   2.919   4.953   1.493
 3965SOL    HW112794   2.876   4.878   1.442
 3965SOL    HW212795   2.984   5.001   1.435
 3966SOL     OW12796   6.950   3.857   5.951
 3966SOL    HW112797   6.868   3.800   5.947
 3966SOL    HW212798   6.930   3.948   5.914
 3967SOL     OW12799   2.497   0.358   0.690
 3967SOL    HW112800   2.405   0.394   0.700
 3967SOL    HW212801   2.544   0.406   0.616
 3968SOL     OW12802   4.762   2.911   0.883
 3968SOL    HW112803   4.774   2.874   0.791
 3968SOL    HW212804   4.746   2.836   0.948
 3969SOL     OW12805   6.253   6.490   1.393
 3969SOL    HW112806   6.223   6.511   1.301
 3969SOL    HW212807   6.209   6.406   1.425
 3970SOL     OW12808   6.210   4.281   3.953
 3970SOL    HW112809   6.245   4.345   4.021
 3970SOL    HW212810   6.110   4.291   3.947
 3971SOL     OW12811   0.027   5.545   4.113
 3971SOL    HW112812   0.044   5.631   4.065
 3971SOL    HW212813   0.050   5.556   4.209
 3972SOL     OW12814   1.076   0.926   6.705
 3972SOL    HW112815   1.062   0.831   6.734
 3972SOL    HW212816   1.135   0.973   6.771
 3973SOL     OW12817   4.132   3.049   1.763
 3973SOL    HW112818   4.053   3.039   1.822
 3973SOL    HW212819   4.115   3.001   1.676
 3974SOL     OW12820   5.582   0.747   0.095
 3974SOL    HW112821   5.506   0.787   0.145
 3974SOL    HW212822   5.561   0.744   7.017
 3975SOL     OW12823   0.296   6.578   3.973
 3975SOL    HW112824   0.222   6.519   4.005
 3975SOL    HW212825   0.275   6.612   3.882
 3976SOL     OW12826   0.659   3.010   5.098
 3976SOL    HW112827   0.746   2.998   5.145
 3976SOL    HW212828   0.674   3.014   4.999
 3977SOL     OW12829   2.273   4.771   5.963
 3977SOL    HW112830   2.346   4.791   5.898
 3977SOL    HW212831   2.285   4.828   6.044
 3978SOL     OW12832   4.421   3.147   6.201
 3978SOL    HW112833   4.403   3.089   6.121
 3978SOL    HW212834   4.343   3.144   6.263
 3979SOL     OW12835   0.084   5.426   2.624
 3979SOL    HW112836   0.030   5.450   2.704
 3979SOL    HW212837   0.168   5.480   2.623
 3980SOL     OW12838   5.547   4.144   3.919
 3980SOL    HW112839   5.630   4.142   3.974
 3980SOL    HW212840   5.565   4.105   3.828
 3981SOL     OW12841   0.193   0.781   6.484
 3981SOL    HW112842   0.126   0.760   6.413
 3981SOL    HW212843   0.151   0.775   6.574
 3982SOL     OW12844   1.938   3.255   4.146
 3982SOL    HW112845   1.850   3.232   4.105
 3982SOL    HW212846   2.006   3.184   4.123
 3983SOL     OW12847   2.544   1.280   2.901
 3983SOL    HW112848   2.464   1.291   2.961
 3983SOL    HW212849   2.624   1.259   2.957
 3984SOL     OW12850   1.495   5.929   2.520
 3984SOL    HW112851   1.461   6.012   2.562
 3984SOL    HW212852   1.537   5.871   2.589
 3985SOL     OW12853   1.779   2.526   1.175
 3985SOL    HW112854   1.800   2.621   1.153
 3985SOL    HW212855   1.728   2.522   1.261
 3986SOL     OW12856   0.705   1.413   3.023
 3986SOL    HW112857   0.798   1.406   2.986
 3986SOL    HW212858   0.657   1.328   3.008
 3987SOL     OW12859   1.339   4.403   5.396
 3987SOL    HW112860   1.411   4.463   5.362
 3987SOL    HW212861   1.337   4.406   5.496
 3988SOL     OW12862   4.995   6.046   2.387
 3988SOL    HW112863   5.076   6.081   2.434
 3988SOL    HW212864   4.974   5.955   2.421
 3989SOL     OW12865   4.270   0.595   6.459
 3989SOL    HW112866   4.215   0.620   6.379
 3989SOL    HW212867   4.227   0.630   6.542
 3990SOL     OW12868   6.292   6.731   3.910
 3990SOL    HW112869   6.199   6.735   3.873
 3990SOL    HW212870   6.357   6.725   3.835
 3991SOL     OW12871   6.908   2.326   3.995
 3991SOL    HW112872   7.005   2.324   4.019
 3991SOL    HW212873   6.869   2.234   4.003
 3992SOL     OW12874   5.633   3.672   5.726
 3992SOL    HW112875   5.681   3.756   5.704
 3992SOL    HW212876   5.644   3.606   5.652
 3993SOL     OW12877   1.726   0.837   4.231
 3993SOL    HW112878   1.717   0.755   4.176
 3993SOL    HW212879   1.647   0.846   4.292
 3994SOL     OW12880   3.244   2.130   3.670
 3994SOL    HW112881   3.299   2.139   3.587
 3994SOL    HW212882   3.158   2.085   3.648
 3995SOL     OW12883   1.617   3.637   2.050
 3995SOL    HW112884   1.603   3.586   1.965
 3995SOL    HW212885   1.714   3.646   2.069
 3996SOL     OW12886   0.377   6.124   4.928
 3996SOL    HW112887   0.381   6.153   4.833
 3996SOL    HW212888   0.282   6.104   4.953
 3997SOL     OW12889   6.061   3.265   4.742
 3997SOL    HW112890   5.993   3.332   4.773
 3997SOL    HW212891   6.027   3.172   4.761
 3998SOL     OW12892   4.360   2.216   2.600
 3998SOL    HW112893   4.364   2.303   2.551
 3998SOL    HW212894   4.271   2.174   2.587
 3999SOL     OW12895   4.662   3.343   1.220
 3999SOL    HW112896   4.694   3.306   1.306
 3999SOL    HW212897   4.562   3.343   1.218
 4000SOL     OW12898   2.260   4.681   2.320
 4000SOL    HW112899   2.169   4.681   2.278
 4000SOL    HW212900   2.305   4.768   2.301
 4001SOL     OW12901   1.013   5.814   4.000
 4001SOL    HW112902   0.935   5.854   4.048
 4001SOL    HW212903   1.072   5.887   3.966
 4002SOL     OW12904   3.668   4.144   4.913
 4002SOL    HW112905   3.607   4.089   4.970
 4002SOL    HW212906   3.657   4.118   4.817
 4003SOL     OW12907   2.899   1.495   4.303
 4003SOL    HW112908   2.985   1.474   4.258
 4003SOL    HW212909   2.847   1.561   4.247
 4004SOL     OW12910   1.776   3.565   5.047
 4004SOL    HW112911   1.838   3.487   5.042
 4004SOL    HW212912   1.698   3.549   4.986
 4005SOL     OW12913   5.638   2.211   1.282
 4005SOL    HW112914   5.543   2.216   1.314
 4005SOL    HW212915   5.654   2.285   1.217
 4006SOL     OW12916   0.450   5.965   2.278
 4006SOL    HW112917   0.547   5.944   2.287
 4006SOL    HW212918   0.439   6.061   2.251
 4007SOL     OW12919   0.471   1.477   1.396
 4007SOL    HW112920   0.401   1.464   1.326
 4007SOL    HW212921   0.475   1.396   1.454
 4008SOL     OW12922   3.918   0.629   1.377
 4008SOL    HW112923   3.861   0.603   1.300
 4008SOL    HW212924   3.878   0.595   1.462
 4009SOL     OW12925   3.700   2.614   1.076
 4009SOL    HW112926   3.689   2.602   1.175
 4009SOL    HW212927   3.779   2.672   1.058
 4010SOL     OW12928   1.436   5.187   1.081
 4010SOL    HW112929   1.480   5.147   1.001
 4010SOL    HW212930   1.505   5.207   1.151
 4011SOL     OW12931   5.820   6.642   6.586
 4011SOL    HW112932   5.811   6.740   6.603
 4011SOL    HW212933   5.915   6.620   6.563
 4012SOL     OW12934   5.432   4.536   1.456
 4012SOL    HW112935   5.425   4.437   1.466
 4012SOL    HW212936   5.378   4.566   1.377
 4013SOL     OW12937   0.023   1.803   6.622
 4013SOL    HW112938   6.953   1.763   6.642
 4013SOL    HW212939   0.059   1.846   6.705
 4014SOL     OW12940   3.652   6.227   2.973
 4014SOL    HW112941   3.752   6.225   2.965
 4014SOL    HW212942   3.613   6.273   2.893
 4015SOL     OW12943   3.675   6.625   4.591
 4015SOL    HW112944   3.645   6.538   4.552
 4015SOL    HW212945   3.602   6.692   4.584
 4016SOL     OW12946   4.721   5.039   4.279
 4016SOL    HW112947   4.630   5.035   4.321
 4016SOL    HW212948   4.723   4.980   4.198
 4017SOL     OW12949   1.719   6.092   5.688
 4017SOL    HW112950   1.723   6.009   5.743
 4017SOL    HW212951   1.764   6.167   5.736
 4018SOL     OW12952   5.159   5.388   0.591
 4018SOL    HW112953   5.124   5.296   0.573
 4018SOL    HW212954   5.196   5.426   0.506
 4019SOL     OW12955   0.687   2.424   2.667
 4019SOL    HW112956   0.604   2.480   2.656
 4019SOL    HW212957   0.662   2.327   2.667
 4020SOL     OW12958   6.916   5.740   4.558
 4020SOL    HW112959   6.862   5.811   4.513
 4020SOL    HW212960   6.987   5.782   4.614
 4021SOL     OW12961   4.575   5.225   5.972
 4021SOL    HW112962   4.515   5.243   6.050
 4021SOL    HW212963   4.593   5.311   5.923
 4022SOL     OW12964   3.648   0.257   1.433
 4022SOL    HW112965   3.616   0.295   1.346
 4022SOL    HW212966   3.601   0.171   1.451
 4023SOL     OW12967   0.681   1.798   4.104
 4023SOL    HW112968   0.733   1.811   4.188
 4023SOL    HW212969   0.737   1.747   4.038
 4024SOL     OW12970   0.813   6.466   6.181
 4024SOL    HW112971   0.885   6.522   6.222
 4024SOL    HW212972   0.724   6.493   6.219
 4025SOL     OW12973   0.946   4.372   4.609
 4025SOL    HW112974   0.891   4.310   4.552
 4025SOL    HW212975   0.903   4.382   4.699
 4026SOL     OW12976   0.624   6.956   4.515
 4026SOL    HW112977   0.617   6.899   4.434
 4026SOL    HW212978   0.653   0.029   4.489
 4027SOL     OW12979   3.266   5.729   5.192
 4027SOL    HW112980   3.267   5.659   5.121
 4027SOL    HW212981   3.234   5.689   5.278
 4028SOL     OW12982   4.386   1.485   4.777
 4028SOL    HW112983   4.344   1.520   4.694
 4028SOL    HW212984   4.350   1.534   4.856
 4029SOL     OW12985   1.929   6.718   0.890
 4029SOL    HW112986   1.890   6.781   0.822
 4029SOL    HW212987   1.943   6.767   0.976
 4030SOL     OW12988   0.721   1.468   1.992
 4030SOL    HW112989   0.790   1.525   1.948
 4030SOL    HW212990   0.754   1.438   2.081
 4031SOL     OW12991   6.070   5.589   0.675
 4031SOL    HW112992   5.974   5.591   0.645
 4031SOL    HW212993   6.075   5.618   0.771
 4032SOL     OW12994   4.865   2.221   1.899
 4032SOL    HW112995   4.846   2.218   1.997
 4032SOL    HW212996   4.894   2.130   1.868
 4033SOL     OW12997   1.464   3.819   2.847
 4033SOL    HW112998   1.418   3.759   2.913
 4033SOL    HW212999   1.396   3.864   2.789
 4034SOL     OW13000   2.377   2.214   4.520
 4034SOL    HW113001   2.331   2.277   4.457
 4034SOL    HW213002   2.340   2.122   4.509
 4035SOL     OW13003   3.595   2.582   1.619
 4035SOL    HW113004   3.646   2.513   1.671
 4035SOL    HW213005   3.516   2.612   1.672
 4036SOL     OW13006   4.197   6.761   3.579
 4036SOL    HW113007   4.284   6.802   3.608
 4036SOL    HW213008   4.186   6.774   3.481
 4037SOL     OW13009   1.769   1.499   5.412
 4037SOL    HW113010   1.762   1.592   5.448
 4037SOL    HW213011   1.857   1.487   5.367
 4038SOL     OW13012   3.952   4.891   5.650
 4038SOL    HW113013   4.024   4.959   5.670
 4038SOL    HW213014   3.863   4.932   5.666
 4039SOL     OW13015   5.946   4.549   1.612
 4039SOL    HW113016   5.954   4.450   1.601
 4039SOL    HW213017   5.940   4.571   1.709
 4040SOL     OW13018   2.078   6.668   5.202
 4040SOL    HW113019   2.144   6.681   5.275
 4040SOL    HW213020   2.028   6.582   5.217
 4041SOL     OW13021   1.620   6.063   1.579
 4041SOL    HW113022   1.644   5.968   1.596
 4041SOL    HW213023   1.679   6.123   1.633
 4042SOL     OW13024   1.254   1.567   3.974
 4042SOL    HW113025   1.164   1.570   4.017
 4042SOL    HW213026   1.324   1.555   4.044
 4043SOL     OW13027   3.438   2.628   5.728
 4043SOL    HW113028   3.378   2.697   5.687
 4043SOL    HW213029   3.526   2.669   5.751
 4044SOL     OW13030   4.721   4.189   3.138
 4044SOL    HW113031   4.664   4.266   3.111
 4044SOL    HW213032   4.718   4.179   3.238
 4045SOL     OW13033   4.306   1.243   5.202
 4045SOL    HW113034   4.256   1.233   5.116
 4045SOL    HW213035   4.269   1.321   5.254
 4046SOL     OW13036   5.126   1.119   3.829
 4046SOL    HW113037   5.152   1.215   3.834
 4046SOL    HW213038   5.124   1.090   3.734
 4047SOL     OW13039   2.781   2.176   6.177
 4047SOL    HW113040   2.731   2.261   6.162
 4047SOL    HW213041   2.718   2.106   6.212
 4048SOL     OW13042   4.841   2.273   3.420
 4048SOL    HW113043   4.839   2.203   3.350
 4048SOL    HW213044   4.877   2.235   3.505
 4049SOL     OW13045   4.005   3.836   2.786
 4049SOL    HW113046   4.095   3.814   2.749
 4049SOL    HW213047   3.940   3.764   2.762
 4050SOL     OW13048   6.907   4.782   3.102
 4050SOL    HW113049   6.876   4.834   3.182
 4050SOL    HW213050   6.851   4.700   3.093
 4051SOL     OW13051   5.962   0.854   4.082
 4051SOL    HW113052   5.873   0.849   4.036
 4051SOL    HW213053   5.963   0.931   4.146
 4052SOL     OW13054   4.724   1.465   4.182
 4052SOL    HW113055   4.769   1.457   4.271
 4052SOL    HW213056   4.632   1.428   4.187
 4053SOL     OW13057   0.812   4.090   2.995
 4053SOL    HW113058   0.789   3.993   3.000
 4053SOL    HW213059   0.867   4.115   3.075
 4054SOL     OW13060   5.304   3.697   1.850
 4054SOL    HW113061   5.334   3.735   1.937
 4054SOL    HW213062   5.232   3.630   1.865
 4055SOL     OW13063   0.464   4.546   6.930
 4055SOL    HW113064   0.478   4.488   7.010
 4055SOL    HW213065   0.393   4.506   6.872
 4056SOL     OW13066   4.762   3.947   7.013
 4056SOL    HW113067   4.750   3.954   0.093
 4056SOL    HW213068   4.776   4.038   6.975
 4057SOL     OW13069   6.847   4.513   5.880
 4057SOL    HW113070   6.892   4.551   5.799
 4057SOL    HW213071   6.824   4.588   5.943
 4058SOL     OW13072   3.577   0.758   4.325
 4058SOL    HW113073   3.515   0.681   4.310
 4058SOL    HW213074   3.665   0.724   4.360
 4059SOL     OW13075   1.241   1.209   3.646
 4059SOL    HW113076   1.191   1.123   3.644
 4059SOL    HW213077   1.318   1.202   3.709
 4060SOL     OW13078   0.298   6.777   4.143
 4060SOL    HW113079   0.367   6.749   4.209
 4060SOL    HW213080   0.280   6.701   4.080
 4061SOL     OW13081   1.583   4.253   2.200
 4061SOL    HW113082   1.624   4.201   2.125
 4061SOL    HW213083   1.582   4.198   2.283
 4062SOL     OW13084   2.589   4.113   0.219
 4062SOL    HW113085   2.502   4.159   0.202
 4062SOL    HW213086   2.598   4.096   0.318
 4063SOL     OW13087   3.640   1.003   0.758
 4063SOL    HW113088   3.723   0.983   0.810
 4063SOL    HW213089   3.610   1.096   0.778
 4064SOL     OW13090   2.420   0.096   4.755
 4064SOL    HW113091   2.406   7.017   4.747
 4064SOL    HW213092   2.377   0.130   4.838
 4065SOL     OW13093   2.287   1.489   0.983
 4065SOL    HW113094   2.290   1.521   1.078
 4065SOL    HW213095   2.244   1.559   0.925
 4066SOL     OW13096   0.592   3.729   4.764
 4066SOL    HW113097   0.657   3.788   4.812
 4066SOL    HW213098   0.586   3.756   4.669
 4067SOL     OW13099   6.175   4.459   1.240
 4067SOL    HW113100   6.243   4.469   1.313
 4067SOL    HW213101   6.140   4.549   1.214
 4068SOL     OW13102   2.016   2.747   5.834
 4068SOL    HW113103   2.044   2.661   5.791
 4068SOL    HW213104   1.973   2.806   5.767
 4069SOL     OW13105   4.202   6.962   5.830
 4069SOL    HW113106   4.291   6.926   5.802
 4069SOL    HW213107   4.214   7.018   5.913
 4070SOL     OW13108   1.930   4.179   4.240
 4070SOL    HW113109   1.897   4.171   4.146
 4070SOL    HW213110   1.867   4.237   4.292
 4071SOL     OW13111   1.418   0.448   5.357
 4071SOL    HW113112   1.495   0.471   5.417
 4071SOL    HW213113   1.375   0.363   5.390
 4072SOL     OW13114   2.894   6.669   2.862
 4072SOL    HW113115   2.873   6.600   2.793
 4072SOL    HW213116   2.974   6.722   2.834
 4073SOL     OW13117   4.551   5.138   6.788
 4073SOL    HW113118   4.537   5.143   6.690
 4073SOL    HW213119   4.637   5.091   6.808
 4074SOL     OW13120   1.689   5.649   2.277
 4074SOL    HW113121   1.622   5.636   2.350
 4074SOL    HW213122   1.715   5.745   2.272
 4075SOL     OW13123   6.086   0.578   6.797
 4075SOL    HW113124   6.109   0.497   6.743
 4075SOL    HW213125   6.052   0.549   6.887
 4076SOL     OW13126   2.217   6.199   3.483
 4076SOL    HW113127   2.227   6.217   3.385
 4076SOL    HW213128   2.267   6.116   3.507
 4077SOL     OW13129   2.228   2.055   1.761
 4077SOL    HW113130   2.283   2.095   1.688
 4077SOL    HW213131   2.207   2.124   1.830
 4078SOL     OW13132   4.371   5.111   1.981
 4078SOL    HW113133   4.436   5.074   1.915
 4078SOL    HW213134   4.384   5.210   1.988
 4079SOL     OW13135   0.805   2.154   3.834
 4079SOL    HW113136   0.818   2.246   3.795
 4079SOL    HW213137   0.865   2.144   3.914
 4080SOL     OW13138   5.785   2.019   4.500
 4080SOL    HW113139   5.797   2.042   4.403
 4080SOL    HW213140   5.719   1.944   4.508
 4081SOL     OW13141   6.708   3.263   2.487
 4081SOL    HW113142   6.709   3.357   2.520
 4081SOL    HW213143   6.787   3.214   2.523
 4082SOL     OW13144   0.250   3.301   0.378
 4082SOL    HW113145   0.209   3.331   0.464
 4082SOL    HW213146   0.340   3.261   0.397
 4083SOL     OW13147   6.773   3.333   5.280
 4083SOL    HW113148   6.870   3.316   5.263
 4083SOL    HW213149   6.752   3.429   5.259
 4084SOL     OW13150   5.160   0.787   4.078
 4084SOL    HW113151   5.227   0.861   4.070
 4084SOL    HW213152   5.206   0.705   4.112
 4085SOL     OW13153   3.232   5.069   6.922
 4085SOL    HW113154   3.142   5.099   6.887
 4085SOL    HW213155   3.266   5.136   6.987
 4086SOL     OW13156   0.436   2.270   1.459
 4086SOL    HW113157   0.393   2.359   1.475
 4086SOL    HW213158   0.530   2.283   1.428
 4087SOL     OW13159   2.094   1.592   3.225
 4087SOL    HW113160   2.002   1.624   3.202
 4087SOL    HW213161   2.152   1.596   3.144
 4088SOL     OW13162   6.940   2.324   6.504
 4088SOL    HW113163   6.873   2.332   6.431
 4088SOL    HW213164   6.933   2.403   6.564
 4089SOL     OW13165   0.279   1.560   5.648
 4089SOL    HW113166   0.354   1.512   5.694
 4089SOL    HW213167   0.194   1.509   5.660
 4090SOL     OW13168   3.045   5.184   6.484
 4090SOL    HW113169   2.974   5.245   6.519
 4090SOL    HW213170   3.134   5.211   6.522
 4091SOL     OW13171   4.538   6.598   1.399
 4091SOL    HW113172   4.443   6.630   1.393
 4091SOL    HW213173   4.600   6.674   1.378
 4092SOL     OW13174   0.900   1.303   4.111
 4092SOL    HW113175   0.824   1.247   4.143
 4092SOL    HW213176   0.878   1.343   4.022
 4093SOL     OW13177   4.829   6.339   4.054
 4093SOL    HW113178   4.832   6.273   4.128
 4093SOL    HW213179   4.845   6.431   4.090
 4094SOL     OW13180   3.327   3.357   6.418
 4094SOL    HW113181   3.322   3.408   6.333
 4094SOL    HW213182   3.417   3.314   6.427
 4095SOL     OW13183   1.553   3.713   5.890
 4095SOL    HW113184   1.467   3.753   5.919
 4095SOL    HW213185   1.629   3.763   5.932
 4096SOL     OW13186   4.672   4.659   1.832
 4096SOL    HW113187   4.693   4.561   1.837
 4096SOL    HW213188   4.580   4.675   1.866
 4097SOL     OW13189   3.844   3.978   3.392
 4097SOL    HW113190   3.935   3.939   3.380
 4097SOL    HW213191   3.814   3.965   3.486
 4098SOL     OW13192   1.425   3.183   2.385
 4098SOL    HW113193   1.401   3.147   2.475
 4098SOL    HW213194   1.469   3.112   2.331
 4099SOL     OW13195   2.439   6.164   1.646
 4099SOL    HW113196   2.347   6.135   1.619
 4099SOL    HW213197   2.458   6.133   1.739
 4100SOL     OW13198   3.607   0.123   2.812
 4100SOL    HW113199   3.688   0.121   2.871
 4100SOL    HW213200   3.525   0.130   2.869
 4101SOL     OW13201   4.434   1.662   6.987
 4101SOL    HW113202   4.381   1.744   6.965
 4101SOL    HW213203   4.454   1.612   6.903
 4102SOL     OW13204   4.317   1.193   6.206
 4102SOL    HW113205   4.403   1.234   6.176
 4102SOL    HW213206   4.315   1.188   6.305
 4103SOL     OW13207   0.064   0.487   1.729
 4103SOL    HW113208   0.109   0.496   1.818
 4103SOL    HW213209   7.018   0.412   1.732
 4104SOL     OW13210   2.252   4.155   2.178
 4104SOL    HW113211   2.164   4.170   2.224
 4104SOL    HW213212   2.321   4.217   2.216
 4105SOL     OW13213   6.385   5.347   0.490
 4105SOL    HW113214   6.341   5.429   0.452
 4105SOL    HW213215   6.357   5.337   0.586
 4106SOL     OW13216   0.365   3.853   4.419
 4106SOL    HW113217   0.447   3.873   4.473
 4106SOL    HW213218   0.321   3.771   4.455
 4107SOL     OW13219   0.082   0.862   0.948
 4107SOL    HW113220   0.095   0.826   0.856
 4107SOL    HW213221   0.041   0.953   0.944
 4108SOL     OW13222   6.176   2.452   5.082
 4108SOL    HW113223   6.124   2.394   5.145
 4108SOL    HW213224   6.273   2.431   5.090
 4109SOL     OW13225   2.144   6.681   3.872
 4109SOL    HW113226   2.239   6.700   3.849
 4109SOL    HW213227   2.138   6.595   3.923
 4110SOL     OW13228   4.787   3.304   5.172
 4110SOL    HW113229   4.885   3.298   5.153
 4110SOL    HW213230   4.754   3.396   5.148
 4111SOL     OW13231   3.775   3.211   6.307
 4111SOL    HW113232   3.792   3.236   6.402
 4111SOL    HW213233   3.808   3.285   6.248
 4112SOL     OW13234   4.225   0.532   5.630
 4112SOL    HW113235   4.193   0.598   5.562
 4112SOL    HW213236   4.308   0.567   5.673
 4113SOL     OW13237   3.717   5.413   4.415
 4113SOL    HW113238   3.670   5.469   4.346
 4113SOL    HW213239   3.675   5.429   4.504
 4114SOL     OW13240   3.575   1.844   3.546
 4114SOL    HW113241   3.672   1.834   3.527
 4114SOL    HW213242   3.536   1.915   3.487
 4115SOL     OW13243   4.823   3.940   3.185
 4115SOL    HW113244   4.805   3.927   3.282
 4115SOL    HW213245   4.776   4.023   3.153
 4116SOL     OW13246   3.012   1.294   2.051
 4116SOL    HW113247   3.107   1.282   2.079
 4116SOL    HW213248   2.954   1.232   2.103
 4117SOL     OW13249   1.279   6.129   1.935
 4117SOL    HW113250   1.371   6.166   1.950
 4117SOL    HW213251   1.247   6.154   1.844
 4118SOL     OW13252   1.625   0.564   6.497
 4118SOL    HW113253   1.564   0.582   6.420
 4118SOL    HW213254   1.657   0.650   6.536
 4119SOL     OW13255   5.509   1.796   3.438
 4119SOL    HW113256   5.504   1.794   3.538
 4119SOL    HW213257   5.577   1.731   3.407
 4120SOL     OW13258   5.491   1.181   2.188
 4120SOL    HW113259   5.561   1.245   2.157
 4120SOL    HW213260   5.531   1.117   2.253
 4121SOL     OW13261   5.836   2.315   4.070
 4121SOL    HW113262   5.833   2.413   4.088
 4121SOL    HW213263   5.765   2.292   4.003
 4122SOL     OW13264   2.393   5.142   6.969
 4122SOL    HW113265   2.324   5.167   0.018
 4122SOL    HW213266   2.443   5.224   6.941
 4123SOL     OW13267   4.250   3.974   5.369
 4123SOL    HW113268   4.338   4.017   5.355
 4123SOL    HW213269   4.256   3.910   5.446
 4124SOL     OW13270   4.667   6.510   3.073
 4124SOL    HW113271   4.679   6.427   3.018
 4124SOL    HW213272   4.630   6.583   3.015
 4125SOL     OW13273   4.676   1.336   1.497
 4125SOL    HW113274   4.674   1.255   1.556
 4125SOL    HW213275   4.680   1.418   1.553
 4126SOL     OW13276   2.097   3.622   4.912
 4126SOL    HW113277   2.002   3.594   4.929
 4126SOL    HW213278   2.144   3.638   4.999
 4127SOL     OW13279   5.346   4.715   4.288
 4127SOL    HW113280   5.253   4.697   4.322
 4127SOL    HW213281   5.348   4.705   4.189
 4128SOL     OW13282   0.071   1.764   1.821
 4128SOL    HW113283   0.001   1.694   1.806
 4128SOL    HW213284   0.154   1.739   1.771
 4129SOL     OW13285   6.934   2.844   6.963
 4129SOL    HW113286   7.007   2.847   0.011
 4129SOL    HW213287   6.972   2.857   6.871
 4130SOL     OW13288   6.237   1.695   1.453
 4130SOL    HW113289   6.279   1.698   1.544
 4130SOL    HW213290   6.273   1.770   1.398
 4131SOL     OW13291   0.171   3.243   3.045
 4131SOL    HW113292   0.237   3.242   3.121
 4131SOL    HW213293   0.157   3.150   3.012
 4132SOL     OW13294   4.527   1.773   4.540
 4132SOL    HW113295   4.560   1.706   4.607
 4132SOL    HW213296   4.440   1.741   4.502
 4133SOL     OW13297   2.517   2.426   1.100
 4133SOL    HW113298   2.513   2.352   1.168
 4133SOL    HW213299   2.565   2.504   1.140
 4134SOL     OW13300   2.268   1.125   0.147
 4134SOL    HW113301   2.320   1.177   0.215
 4134SOL    HW213302   2.289   1.027   0.157
 4135SOL     OW13303   1.882   0.275   0.904
 4135SOL    HW113304   1.871   0.179   0.877
 4135SOL    HW213305   1.806   0.329   0.867
 4136SOL     OW13306   0.946   1.815   3.489
 4136SOL    HW113307   1.046   1.819   3.480
 4136SOL    HW213308   0.915   1.722   3.475
 4137SOL     OW13309   3.979   3.127   5.268
 4137SOL    HW113310   4.028   3.072   5.335
 4137SOL    HW213311   4.044   3.180   5.214
 4138SOL     OW13312   4.850   5.648   1.699
 4138SOL    HW113313   4.888   5.737   1.671
 4138SOL    HW213314   4.910   5.575   1.667
 4139SOL     OW13315   2.909   1.924   0.250
 4139SOL    HW113316   2.951   2.015   0.252
 4139SOL    HW213317   2.958   1.866   0.184
 4140SOL     OW13318   4.919   2.452   5.106
 4140SOL    HW113319   4.867   2.367   5.106
 4140SOL    HW213320   4.964   2.463   5.195
 4141SOL     OW13321   5.183   6.154   1.319
 4141SOL    HW113322   5.145   6.062   1.326
 4141SOL    HW213323   5.281   6.148   1.297
 4142SOL     OW13324   5.946   3.102   1.700
 4142SOL    HW113325   6.039   3.066   1.695
 4142SOL    HW213326   5.946   3.187   1.753
 4143SOL     OW13327   1.683   2.514   1.475
 4143SOL    HW113328   1.607   2.483   1.533
 4143SOL    HW213329   1.767   2.467   1.501
 4144SOL     OW13330   4.060   0.774   2.138
 4144SOL    HW113331   4.084   0.833   2.061
 4144SOL    HW213332   4.084   0.680   2.117
 4145SOL     OW13333   2.759   0.137   3.737
 4145SOL    HW113334   2.672   0.111   3.694
 4145SOL    HW213335   2.768   0.236   3.736
 4146SOL     OW13336   5.181   4.393   0.342
 4146SOL    HW113337   5.111   4.330   0.377
 4146SOL    HW213338   5.202   4.369   0.247
 4147SOL     OW13339   2.574   2.043   5.795
 4147SOL    HW113340   2.481   2.028   5.829
 4147SOL    HW213341   2.570   2.075   5.700
 4148SOL     OW13342   6.907   6.960   2.417
 4148SOL    HW113343   6.859   0.025   2.393
 4148SOL    HW213344   6.851   6.907   2.481
 4149SOL     OW13345   4.784   4.233   2.133
 4149SOL    HW113346   4.705   4.286   2.105
 4149SOL    HW213347   4.762   4.182   2.216
 4150SOL     OW13348   3.731   0.521   4.992
 4150SOL    HW113349   3.826   0.499   4.969
 4150SOL    HW213350   3.724   0.538   5.090
 4151SOL     OW13351   0.670   5.583   0.360
 4151SOL    HW113352   0.644   5.676   0.387
 4151SOL    HW213353   0.687   5.528   0.441
 4152SOL     OW13354   3.341   3.883   0.802
 4152SOL    HW113355   3.314   3.952   0.869
 4152SOL    HW213356   3.440   3.885   0.791
 4153SOL     OW13357   6.288   5.971   5.759
 4153SOL    HW113358   6.275   5.899   5.691
 4153SOL    HW213359   6.237   5.949   5.841
 4154SOL     OW13360   4.581   2.595   4.812
 4154SOL    HW113361   4.633   2.664   4.862
 4154SOL    HW213362   4.609   2.593   4.717
 4155SOL     OW13363   1.845   2.939   0.272
 4155SOL    HW113364   1.803   2.862   0.224
 4155SOL    HW213365   1.934   2.910   0.309
 4156SOL     OW13366   5.886   0.895   5.152
 4156SOL    HW113367   5.966   0.900   5.213
 4156SOL    HW213368   5.811   0.851   5.201
 4157SOL     OW13369   3.523   0.932   3.628
 4157SOL    HW113370   3.548   0.839   3.653
 4157SOL    HW213371   3.540   0.993   3.706
 4158SOL     OW13372   0.803   0.721   3.499
 4158SOL    HW113373   0.733   0.661   3.458
 4158SOL    HW213374   0.809   0.806   3.447
 4159SOL     OW13375   0.254   4.624   5.464
 4159SOL    HW113376   0.233   4.663   5.554
 4159SOL    HW213377   0.353   4.616   5.454
 4160SOL     OW13378   0.062   0.548   1.139
 4160SOL    HW113379   0.061   0.638   1.095
 4160SOL    HW213380   0.068   0.559   1.238
 4161SOL     OW13381   6.297   1.456   1.254
 4161SOL    HW113382   6.201   1.428   1.258
 4161SOL    HW213383   6.355   1.375   1.253
 4162SOL     OW13384   1.051   6.850   5.401
 4162SOL    HW113385   1.088   6.942   5.390
 4162SOL    HW213386   1.072   6.816   5.493
 4163SOL     OW13387   6.882   1.768   5.571
 4163SOL    HW113388   6.884   1.830   5.650
 4163SOL    HW213389   6.846   1.679   5.599
 4164SOL     OW13390   2.679   6.410   5.788
 4164SOL    HW113391   2.619   6.490   5.776
 4164SOL    HW213392   2.632   6.328   5.754
 4165SOL     OW13393   1.849   6.361   1.746
 4165SOL    HW113394   1.863   6.440   1.806
 4165SOL    HW213395   1.792   6.388   1.669
 4166SOL     OW13396   6.005   2.090   2.427
 4166SOL    HW113397   5.986   2.114   2.522
 4166SOL    HW213398   6.038   2.171   2.378
 4167SOL     OW13399   1.826   2.346   0.942
 4167SOL    HW113400   1.790   2.403   1.016
 4167SOL    HW213401   1.918   2.376   0.919
 4168SOL     OW13402   2.282   6.067   1.220
 4168SOL    HW113403   2.382   6.065   1.216
 4168SOL    HW213404   2.250   6.162   1.223
 4169SOL     OW13405   6.497   3.627   6.639
 4169SOL    HW113406   6.580   3.643   6.585
 4169SOL    HW213407   6.429   3.696   6.616
 4170SOL     OW13408   3.054   0.794   5.731
 4170SOL    HW113409   3.003   0.817   5.648
 4170SOL    HW213410   3.120   0.723   5.711
 4171SOL     OW13411   6.205   3.053   1.725
 4171SOL    HW113412   6.284   2.995   1.743
 4171SOL    HW213413   6.213   3.138   1.778
 4172SOL     OW13414   3.083   0.733   1.298
 4172SOL    HW113415   3.086   0.658   1.363
 4172SOL    HW213416   3.044   0.701   1.211
 4173SOL     OW13417   4.338   3.827   5.599
 4173SOL    HW113418   4.409   3.776   5.550
 4173SOL    HW213419   4.374   3.858   5.687
 4174SOL     OW13420   4.692   0.874   3.549
 4174SOL    HW113421   4.616   0.932   3.580
 4174SOL    HW213422   4.761   0.931   3.505
 4175SOL     OW13423   2.535   1.216   2.422
 4175SOL    HW113424   2.623   1.178   2.454
 4175SOL    HW213425   2.469   1.214   2.498
 4176SOL     OW13426   5.899   4.750   2.998
 4176SOL    HW113427   5.805   4.715   3.002
 4176SOL    HW213428   5.904   4.835   3.052
 4177SOL     OW13429   6.858   5.480   2.973
 4177SOL    HW113430   6.823   5.532   2.895
 4177SOL    HW213431   6.883   5.543   3.047
 4178SOL     OW13432   4.399   2.472   5.328
 4178SOL    HW113433   4.311   2.510   5.297
 4178SOL    HW213434   4.395   2.456   5.426
 4179SOL     OW13435   6.837   1.586   7.002
 4179SOL    HW113436   6.744   1.619   7.012
 4179SOL    HW213437   6.843   1.491   0.013
 4180SOL     OW13438   5.570   3.838   1.567
 4180SOL    HW113439   5.600   3.908   1.633
 4180SOL    HW213440   5.557   3.751   1.615
 4181SOL     OW13441   6.101   1.153   0.667
 4181SOL    HW113442   6.045   1.230   0.636
 4181SOL    HW213443   6.192   1.160   0.627
 4182SOL     OW13444   6.024   0.709   3.724
 4182SOL    HW113445   5.933   0.745   3.747
 4182SOL    HW213446   6.086   0.724   3.801
 4183SOL     OW13447   1.311   0.513   1.843
 4183SOL    HW113448   1.360   0.591   1.882
 4183SOL    HW213449   1.305   0.440   1.910
 4184SOL     OW13450   4.321   4.577   6.254
 4184SOL    HW113451   4.419   4.584   6.235
 4184SOL    HW213452   4.273   4.551   6.171
 4185SOL     OW13453   0.033   0.502   4.071
 4185SOL    HW113454   6.961   0.534   4.047
 4185SOL    HW213455   0.047   0.515   4.170
 4186SOL     OW13456   3.311   4.011   1.545
 4186SOL    HW113457   3.232   3.993   1.604
 4186SOL    HW213458   3.359   4.092   1.579
 4187SOL     OW13459   4.182   5.089   5.618
 4187SOL    HW113460   4.137   5.106   5.530
 4187SOL    HW213461   4.157   5.161   5.683
 4188SOL     OW13462   4.920   5.571   3.263
 4188SOL    HW113463   4.915   5.649   3.201
 4188SOL    HW213464   4.926   5.487   3.209
 4189SOL     OW13465   1.069   3.222   3.163
 4189SOL    HW113466   1.138   3.174   3.108
 4189SOL    HW213467   1.058   3.315   3.127
 4190SOL     OW13468   2.501   6.701   1.775
 4190SOL    HW113469   2.461   6.679   1.685
 4190SOL    HW213470   2.565   6.629   1.801
 4191SOL     OW13471   0.424   2.089   3.805
 4191SOL    HW113472   0.324   2.103   3.805
 4191SOL    HW213473   0.458   2.095   3.899
 4192SOL     OW13474   5.934   6.367   3.880
 4192SOL    HW113475   6.007   6.314   3.923
 4192SOL    HW213476   5.957   6.383   3.784
 4193SOL     OW13477   1.543   6.883   3.979
 4193SOL    HW113478   1.509   6.835   3.898
 4193SOL    HW213479   1.626   6.933   3.955
 4194SOL     OW13480   5.262   0.136   3.086
 4194SOL    HW113481   5.357   0.110   3.108
 4194SOL    HW213482   5.262   0.223   3.037
 4195SOL     OW13483   4.548   0.197   3.572
 4195SOL    HW113484   4.533   0.290   3.605
 4195SOL    HW213485   4.483   0.177   3.498
 4196SOL     OW13486   4.844   2.528   3.053
 4196SOL    HW113487   4.850   2.433   3.022
 4196SOL    HW213488   4.752   2.563   3.036
 4197SOL     OW13489   5.179   4.191   4.396
 4197SOL    HW113490   5.189   4.265   4.330
 4197SOL    HW213491   5.219   4.107   4.359
 4198SOL     OW13492   6.027   3.391   5.766
 4198SOL    HW113493   5.927   3.397   5.761
 4198SOL    HW213494   6.066   3.482   5.775
 4199SOL     OW13495   3.130   4.230   5.669
 4199SOL    HW113496   3.181   4.316   5.661
 4199SOL    HW213497   3.182   4.166   5.725
 4200SOL     OW13498   3.054   0.356   6.190
 4200SOL    HW113499   3.031   0.431   6.129
 4200SOL    HW213500   3.012   0.373   6.280
 4201SOL     OW13501   6.561   0.258   4.952
 4201SOL    HW113502   6.586   0.194   5.025
 4201SOL    HW213503   6.463   0.251   4.933
 4202SOL     OW13504   5.894   3.097   5.049
 4202SOL    HW113505   5.965   3.085   5.118
 4202SOL    HW213506   5.805   3.104   5.093
 4203SOL     OW13507   3.673   5.619   4.615
 4203SOL    HW113508   3.634   5.691   4.558
 4203SOL    HW213509   3.600   5.559   4.648
 4204SOL     OW13510   1.735   4.045   0.455
 4204SOL    HW113511   1.835   4.046   0.457
 4204SOL    HW213512   1.700   4.130   0.495
 4205SOL     OW13513   2.530   6.537   3.568
 4205SOL    HW113514   2.439   6.497   3.579
 4205SOL    HW213515   2.599   6.464   3.569
 4206SOL     OW13516   4.764   6.510   3.746
 4206SOL    HW113517   4.760   6.471   3.654
 4206SOL    HW213518   4.857   6.500   3.783
 4207SOL     OW13519   1.186   6.379   0.078
 4207SOL    HW113520   1.257   6.445   0.050
 4207SOL    HW213521   1.184   6.303   0.014
 4208SOL     OW13522   0.911   2.257   1.557
 4208SOL    HW113523   0.904   2.162   1.526
 4208SOL    HW213524   0.862   2.267   1.644
 4209SOL     OW13525   2.639   0.168   5.682
 4209SOL    HW113526   2.598   0.086   5.642
 4209SOL    HW213527   2.590   0.192   5.766
 4210SOL     OW13528   3.362   3.326   0.290
 4210SOL    HW113529   3.335   3.348   0.383
 4210SOL    HW213530   3.385   3.229   0.283
 4211SOL     OW13531   5.929   3.441   4.009
 4211SOL    HW113532   5.899   3.359   3.960
 4211SOL    HW213533   5.932   3.422   4.107
 4212SOL     OW13534   6.078   0.007   1.872
 4212SOL    HW113535   6.000   6.966   1.854
 4212SOL    HW213536   6.163   6.975   1.864
 4213SOL     OW13537   0.799   6.848   1.317
 4213SOL    HW113538   0.879   6.858   1.376
 4213SOL    HW213539   0.804   6.914   1.242
 4214SOL     OW13540   2.676   5.867   3.312
 4214SOL    HW113541   2.626   5.824   3.238
 4214SOL    HW213542   2.641   5.834   3.400
 4215SOL     OW13543   1.422   5.824   6.751
 4215SOL    HW113544   1.368   5.765   6.692
 4215SOL    HW213545   1.516   5.830   6.715
 4216SOL     OW13546   2.514   2.739   5.286
 4216SOL    HW113547   2.517   2.832   5.249
 4216SOL    HW213548   2.515   2.673   5.211
 4217SOL     OW13549   6.154   0.891   4.432
 4217SOL    HW113550   6.142   0.814   4.495
 4217SOL    HW213551   6.218   0.957   4.472
 4218SOL     OW13552   3.084   5.337   3.029
 4218SOL    HW113553   2.990   5.347   3.062
 4218SOL    HW213554   3.137   5.283   3.094
 4219SOL     OW13555   5.072   0.034   2.810
 4219SOL    HW113556   5.041   0.108   2.751
 4219SOL    HW213557   5.164   0.006   2.784
 4220SOL     OW13558   0.407   4.570   2.916
 4220SOL    HW113559   0.492   4.618   2.893
 4220SOL    HW213560   0.374   4.519   2.837
 4221SOL     OW13561   5.283   6.326   6.198
 4221SOL    HW113562   5.348   6.364   6.132
 4221SOL    HW213563   5.283   6.226   6.192
 4222SOL     OW13564   2.412   2.820   0.179
 4222SOL    HW113565   2.393   2.855   0.271
 4222SOL    HW213566   2.508   2.838   0.156
 4223SOL     OW13567   4.089   3.584   3.092
 4223SOL    HW113568   4.025   3.559   3.020
 4223SOL    HW213569   4.180   3.550   3.069
 4224SOL     OW13570   3.487   2.182   5.683
 4224SOL    HW113571   3.521   2.088   5.683
 4224SOL    HW213572   3.561   2.244   5.706
 4225SOL     OW13573   5.280   6.917   4.649
 4225SOL    HW113574   5.331   6.954   4.571
 4225SOL    HW213575   5.195   6.876   4.616
 4226SOL     OW13576   2.667   1.804   2.086
 4226SOL    HW113577   2.629   1.767   2.001
 4226SOL    HW213578   2.733   1.739   2.124
 4227SOL     OW13579   5.474   4.256   0.477
 4227SOL    HW113580   5.376   4.240   0.463
 4227SOL    HW213581   5.495   4.253   0.574
 4228SOL     OW13582   4.310   5.437   3.209
 4228SOL    HW113583   4.304   5.518   3.151
 4228SOL    HW213584   4.306   5.465   3.305
 4229SOL     OW13585   4.035   4.863   4.808
 4229SOL    HW113586   4.051   4.845   4.905
 4229SOL    HW213587   4.088   4.798   4.754
 4230SOL     OW13588   1.896   1.428   5.924
 4230SOL    HW113589   1.996   1.430   5.911
 4230SOL    HW213590   1.852   1.402   5.839
 4231SOL     OW13591   3.819   6.497   6.288
 4231SOL    HW113592   3.800   6.595   6.294
 4231SOL    HW213593   3.909   6.479   6.329
 4232SOL     OW13594   1.221   4.299   1.566
 4232SOL    HW113595   1.207   4.320   1.469
 4232SOL    HW213596   1.312   4.259   1.578
 4233SOL     OW13597   5.002   5.401   1.343
 4233SOL    HW113598   4.952   5.331   1.394
 4233SOL    HW213599   5.100   5.386   1.354
 4234SOL     OW13600   3.866   3.657   6.012
 4234SOL    HW113601   3.874   3.565   6.051
 4234SOL    HW213602   3.817   3.716   6.076
 4235SOL     OW13603   0.721   4.075   4.670
 4235SOL    HW113604   0.669   4.150   4.710
 4235SOL    HW213605   0.763   4.021   4.742
 4236SOL     OW13606   0.918   3.747   4.547
 4236SOL    HW113607   0.992   3.716   4.487
 4236SOL    HW213608   0.887   3.837   4.516
 4237SOL     OW13609   5.251   3.717   5.529
 4237SOL    HW113610   5.337   3.711   5.477
 4237SOL    HW213611   5.174   3.705   5.466
 4238SOL     OW13612   4.804   4.763   5.158
 4238SOL    HW113613   4.890   4.814   5.156
 4238SOL    HW213614   4.744   4.800   5.229
 4239SOL     OW13615   5.129   5.351   5.439
 4239SOL    HW113616   5.222   5.358   5.475
 4239SOL    HW213617   5.080   5.436   5.455
 4240SOL     OW13618   2.705   4.455   6.114
 4240SOL    HW113619   2.730   4.366   6.076
 4240SOL    HW213620   2.758   4.527   6.069
 4241SOL     OW13621   3.112   2.254   1.240
 4241SOL    HW113622   3.148   2.161   1.252
 4241SOL    HW213623   3.169   2.302   1.173
 4242SOL     OW13624   2.900   0.524   1.935
 4242SOL    HW113625   2.985   0.515   1.884
 4242SOL    HW213626   2.919   0.516   2.033
 4243SOL     OW13627   1.752   1.882   2.350
 4243SOL    HW113628   1.724   1.841   2.263
 4243SOL    HW213629   1.727   1.820   2.425
 4244SOL     OW13630   3.014   6.908   1.089
 4244SOL    HW113631   2.939   6.876   1.030
 4244SOL    HW213632   3.064   6.981   1.043
 4245SOL     OW13633   0.282   1.461   1.197
 4245SOL    HW113634   0.232   1.547   1.204
 4245SOL    HW213635   0.234   1.400   1.135
 4246SOL     OW13636   3.884   2.166   3.545
 4246SOL    HW113637   3.953   2.216   3.493
 4246SOL    HW213638   3.873   2.208   3.635
 4247SOL     OW13639   2.309   5.623   6.864
 4247SOL    HW113640   2.231   5.561   6.875
 4247SOL    HW213641   2.368   5.617   6.943
 4248SOL     OW13642   2.920   6.963   2.565
 4248SOL    HW113643   2.983   0.021   2.559
 4248SOL    HW213644   2.831   6.995   2.598
 4249SOL     OW13645   6.137   0.941   5.308
 4249SOL    HW113646   6.230   0.951   5.341
 4249SOL    HW213647   6.083   1.021   5.337
 4250SOL     OW13648   0.813   5.426   4.688
 4250SOL    HW113649   0.780   5.490   4.757
 4250SOL    HW213650   0.754   5.345   4.686
 4251SOL     OW13651   4.747   1.959   5.220
 4251SOL    HW113652   4.784   1.928   5.307
 4251SOL    HW213653   4.748   1.883   5.154
 4252SOL     OW13654   0.759   6.714   6.299
 4252SOL    HW113655   0.834   6.764   6.342
 4252SOL    HW213656   0.703   6.672   6.370
 4253SOL     OW13657   3.916   6.871   2.845
 4253SOL    HW113658   3.972   6.789   2.833
 4253SOL    HW213659   3.894   6.910   2.756
 4254SOL     OW13660   0.922   0.641   5.315
 4254SOL    HW113661   0.831   0.634   5.275
 4254SOL    HW213662   0.976   0.561   5.288
 4255SOL     OW13663   1.292   2.921   3.908
 4255SOL    HW113664   1.195   2.942   3.894
 4255SOL    HW213665   1.313   2.924   4.005
 4256SOL     OW13666   5.786   6.057   0.795
 4256SOL    HW113667   5.838   6.110   0.728
 4256SOL    HW213668   5.792   5.960   0.772
 4257SOL     OW13669   0.338   1.116   2.447
 4257SOL    HW113670   0.402   1.107   2.371
 4257SOL    HW213671   0.356   1.201   2.496
 4258SOL     OW13672   2.544   6.302   0.993
 4258SOL    HW113673   2.586   6.352   0.918
 4258SOL    HW213674   2.612   6.242   1.036
 4259SOL     OW13675   0.871   6.823   0.270
 4259SOL    HW113676   0.806   6.748   0.283
 4259SOL    HW213677   0.846   6.899   0.330
 4260SOL     OW13678   0.015   0.596   5.332
 4260SOL    HW113679   0.113   0.597   5.348
 4260SOL    HW213680   6.987   0.564   5.415
 4261SOL     OW13681   2.409   6.869   3.468
 4261SOL    HW113682   2.331   6.924   3.439
 4261SOL    HW213683   2.375   6.781   3.504
 4262SOL     OW13684   1.550   3.806   4.993
 4262SOL    HW113685   1.474   3.842   4.939
 4262SOL    HW213686   1.573   3.871   5.065
 4263SOL     OW13687   3.356   0.782   2.669
 4263SOL    HW113688   3.390   0.859   2.723
 4263SOL    HW213689   3.260   0.765   2.692
 4264SOL     OW13690   4.195   2.021   6.781
 4264SOL    HW113691   4.139   2.055   6.705
 4264SOL    HW213692   4.263   2.090   6.805
 4265SOL     OW13693   3.212   6.410   6.691
 4265SOL    HW113694   3.135   6.351   6.668
 4265SOL    HW213695   3.271   6.363   6.757
 4266SOL     OW13696   1.308   4.190   2.619
 4266SOL    HW113697   1.219   4.217   2.583
 4266SOL    HW213698   1.376   4.259   2.594
 4267SOL     OW13699   1.826   3.883   3.512
 4267SOL    HW113700   1.925   3.895   3.516
 4267SOL    HW213701   1.799   3.858   3.419
 4268SOL     OW13702   1.378   4.112   6.130
 4268SOL    HW113703   1.464   4.092   6.084
 4268SOL    HW213704   1.332   4.027   6.154
 4269SOL     OW13705   1.848   1.720   4.313
 4269SOL    HW113706   1.849   1.696   4.216
 4269SOL    HW213707   1.940   1.745   4.342
 4270SOL     OW13708   4.041   4.228   1.168
 4270SOL    HW113709   3.963   4.168   1.185
 4270SOL    HW213710   4.073   4.267   1.254
 4271SOL     OW13711   6.175   0.355   0.300
 4271SOL    HW113712   6.253   0.380   0.358
 4271SOL    HW213713   6.091   0.390   0.341
 4272SOL     OW13714   6.390   1.804   5.547
 4272SOL    HW113715   6.403   1.709   5.577
 4272SOL    HW213716   6.320   1.847   5.603
 4273SOL     OW13717   3.239   5.887   3.713
 4273SOL    HW113718   3.164   5.822   3.721
 4273SOL    HW213719   3.301   5.858   3.639
 4274SOL     OW13720   6.763   0.477   1.924
 4274SOL    HW113721   6.855   0.482   1.963
 4274SOL    HW213722   6.736   0.568   1.891
 4275SOL     OW13723   5.800   1.380   4.629
 4275SOL    HW113724   5.724   1.327   4.592
 4275SOL    HW213725   5.765   1.450   4.691
 4276SOL     OW13726   1.687   0.640   2.677
 4276SOL    HW113727   1.779   0.674   2.655
 4276SOL    HW213728   1.695   0.554   2.728
 4277SOL     OW13729   6.456   5.150   3.197
 4277SOL    HW113730   6.372   5.202   3.180
 4277SOL    HW213731   6.531   5.189   3.145
 4278SOL     OW13732   0.409   0.024   1.835
 4278SOL    HW113733   0.366   0.095   1.780
 4278SOL    HW213734   0.342   6.973   1.857
 4279SOL     OW13735   1.228   3.618   3.274
 4279SOL    HW113736   1.146   3.642   3.222
 4279SOL    HW213737   1.205   3.603   3.370
 4280SOL     OW13738   2.581   6.380   6.407
 4280SOL    HW113739   2.532   6.384   6.319
 4280SOL    HW213740   2.561   6.463   6.459
 4281SOL     OW13741   6.665   6.699   2.824
 4281SOL    HW113742   6.756   6.665   2.850
 4281SOL    HW213743   6.601   6.623   2.819
 4282SOL     OW13744   5.250   4.772   2.057
 4282SOL    HW113745   5.219   4.678   2.073
 4282SOL    HW213746   5.223   4.830   2.134
 4283SOL     OW13747   6.255   1.638   5.192
 4283SOL    HW113748   6.303   1.550   5.192
 4283SOL    HW213749   6.304   1.702   5.133
 4284SOL     OW13750   4.973   6.203   0.001
 4284SOL    HW113751   5.047   6.258   0.040
 4284SOL    HW213752   4.953   6.127   0.063
 4285SOL     OW13753   2.833   1.474   6.459
 4285SOL    HW113754   2.750   1.465   6.514
 4285SOL    HW213755   2.849   1.389   6.409
 4286SOL     OW13756   5.538   6.338   6.886
 4286SOL    HW113757   5.452   6.365   6.842
 4286SOL    HW213758   5.614   6.386   6.842
 4287SOL     OW13759   4.510   0.165   0.847
 4287SOL    HW113760   4.526   0.080   0.898
 4287SOL    HW213761   4.570   0.168   0.768
 4288SOL     OW13762   6.666   6.744   2.319
 4288SOL    HW113763   6.610   6.662   2.314
 4288SOL    HW213764   6.645   6.794   2.403
 4289SOL     OW13765   0.384   4.257   5.894
 4289SOL    HW113766   0.429   4.265   5.983
 4289SOL    HW213767   0.286   4.241   5.908
 4290SOL     OW13768   6.994   1.043   2.837
 4290SOL    HW113769   0.013   0.951   2.836
 4290SOL    HW213770   6.954   1.062   2.927
 4291SOL     OW13771   4.698   4.778   5.757
 4291SOL    HW113772   4.781   4.810   5.711
 4291SOL    HW213773   4.718   4.693   5.805
 4292SOL     OW13774   6.419   6.840   0.525
 4292SOL    HW113775   6.366   6.757   0.538
 4292SOL    HW213776   6.371   6.901   0.461
 4293SOL     OW13777   4.107   2.212   5.803
 4293SOL    HW113778   4.065   2.284   5.858
 4293SOL    HW213779   4.198   2.192   5.839
 4294SOL     OW13780   3.262   2.194   0.067
 4294SOL    HW113781   3.202   2.212   0.146
 4294SOL    HW213782   3.357   2.202   0.095
 4295SOL     OW13783   4.193   6.571   2.580
 4295SOL    HW113784   4.290   6.594   2.574
 4295SOL    HW213785   4.181   6.473   2.563
 4296SOL     OW13786   2.205   5.366   1.688
 4296SOL    HW113787   2.106   5.369   1.695
 4296SOL    HW213788   2.237   5.273   1.706
 4297SOL     OW13789   5.023   4.587   6.939
 4297SOL    HW113790   4.962   4.566   7.015
 4297SOL    HW213791   5.078   4.668   6.961
 4298SOL     OW13792   2.177   6.402   0.723
 4298SOL    HW113793   2.213   6.349   0.800
 4298SOL    HW213794   2.085   6.435   0.745
 4299SOL     OW13795   6.871   3.416   6.909
 4299SOL    HW113796   6.894   3.373   6.997
 4299SOL    HW213797   6.834   3.347   6.847
 4300SOL     OW13798   3.865   0.448   1.819
 4300SOL    HW113799   3.856   0.547   1.809
 4300SOL    HW213800   3.902   0.427   1.910
 4301SOL     OW13801   1.855   6.138   4.733
 4301SOL    HW113802   1.847   6.062   4.668
 4301SOL    HW213803   1.780   6.134   4.799
 4302SOL     OW13804   4.287   5.130   0.255
 4302SOL    HW113805   4.263   5.227   0.245
 4302SOL    HW213806   4.305   5.091   0.164
 4303SOL     OW13807   4.685   4.802   3.303
 4303SOL    HW113808   4.589   4.780   3.318
 4303SOL    HW213809   4.734   4.719   3.274
 4304SOL     OW13810   3.185   4.362   1.509
 4304SOL    HW113811   3.154   4.417   1.432
 4304SOL    HW213812   3.270   4.316   1.485
 4305SOL     OW13813   1.147   6.832   5.671
 4305SOL    HW113814   1.131   6.916   5.722
 4305SOL    HW213815   1.120   6.754   5.727
 4306SOL     OW13816   6.379   3.769   5.327
 4306SOL    HW113817   6.302   3.716   5.291
 4306SOL    HW213818   6.374   3.863   5.292
 4307SOL     OW13819   6.817   1.709   4.418
 4307SOL    HW113820   6.807   1.625   4.472
 4307SOL    HW213821   6.827   1.787   4.481
 4308SOL     OW13822   4.405   5.407   5.753
 4308SOL    HW113823   4.422   5.497   5.712
 4308SOL    HW213824   4.464   5.395   5.833
 4309SOL     OW13825   2.683   2.371   0.869
 4309SOL    HW113826   2.754   2.372   0.939
 4309SOL    HW213827   2.598   2.408   0.908
 4310SOL     OW13828   6.370   1.065   4.574
 4310SOL    HW113829   6.411   1.077   4.484
 4310SOL    HW213830   6.301   1.136   4.590
 4311SOL     OW13831   0.998   6.701   1.619
 4311SOL    HW113832   0.906   6.706   1.658
 4311SOL    HW213833   1.028   6.792   1.592
 4312SOL     OW13834   0.686   2.877   2.508
 4312SOL    HW113835   0.768   2.930   2.488
 4312SOL    HW213836   0.652   2.901   2.599
 4313SOL     OW13837   0.760   3.245   0.536
 4313SOL    HW113838   0.834   3.179   0.527
 4313SOL    HW213839   0.767   3.313   0.463
 4314SOL     OW13840   2.311   1.948   5.516
 4314SOL    HW113841   2.271   1.859   5.536
 4314SOL    HW213842   2.328   1.956   5.418
 4315SOL     OW13843   2.670   2.428   5.362
 4315SOL    HW113844   2.653   2.493   5.288
 4315SOL    HW213845   2.749   2.371   5.340
 4316SOL     OW13846   4.353   4.295   1.387
 4316SOL    HW113847   4.257   4.324   1.388
 4316SOL    HW213848   4.395   4.326   1.301
 4317SOL     OW13849   5.133   0.275   3.749
 4317SOL    HW113850   5.161   0.249   3.842
 4317SOL    HW213851   5.072   0.205   3.712
 4318SOL     OW13852   2.215   5.626   4.330
 4318SOL    HW113853   2.189   5.535   4.297
 4318SOL    HW213854   2.132   5.677   4.354
 4319SOL     OW13855   2.306   4.783   1.248
 4319SOL    HW113856   2.387   4.813   1.298
 4319SOL    HW213857   2.224   4.812   1.297
 4320SOL     OW13858   4.145   1.505   1.890
 4320SOL    HW113859   4.203   1.460   1.957
 4320SOL    HW213860   4.077   1.440   1.855
 4321SOL     OW13861   6.657   5.932   3.332
 4321SOL    HW113862   6.584   6.000   3.336
 4321SOL    HW213863   6.622   5.843   3.360
 4322SOL     OW13864   2.830   2.119   4.305
 4322SOL    HW113865   2.787   2.065   4.378
 4322SOL    HW213866   2.858   2.058   4.231
 4323SOL     OW13867   5.692   4.029   2.038
 4323SOL    HW113868   5.714   4.047   1.942
 4323SOL    HW213869   5.595   4.047   2.054
 4324SOL     OW13870   6.674   3.811   5.767
 4324SOL    HW113871   6.675   3.860   5.854
 4324SOL    HW213872   6.586   3.828   5.721
 4325SOL     OW13873   1.383   0.762   1.150
 4325SOL    HW113874   1.451   0.778   1.221
 4325SOL    HW213875   1.293   0.751   1.192
 4326SOL     OW13876   5.250   2.913   2.322
 4326SOL    HW113877   5.233   2.918   2.421
 4326SOL    HW213878   5.340   2.953   2.302
 4327SOL     OW13879   3.196   6.705   4.006
 4327SOL    HW113880   3.099   6.683   4.022
 4327SOL    HW213881   3.221   6.676   3.913
 4328SOL     OW13882   5.660   0.033   1.994
 4328SOL    HW113883   5.663   6.997   1.911
 4328SOL    HW213884   5.752   0.036   2.034
 4329SOL     OW13885   6.009   3.866   0.350
 4329SOL    HW113886   5.929   3.922   0.374
 4329SOL    HW213887   6.070   3.860   0.429
 4330SOL     OW13888   2.888   5.835   5.472
 4330SOL    HW113889   2.948   5.868   5.545
 4330SOL    HW213890   2.896   5.894   5.392
 4331SOL     OW13891   5.954   1.363   2.765
 4331SOL    HW113892   6.031   1.419   2.734
 4331SOL    HW213893   5.868   1.406   2.739
 4332SOL     OW13894   6.834   5.832   1.284
 4332SOL    HW113895   6.899   5.779   1.230
 4332SOL    HW213896   6.811   5.917   1.235
 4333SOL     OW13897   4.020   3.250   5.727
 4333SOL    HW113898   3.951   3.275   5.659
 4333SOL    HW213899   4.098   3.206   5.682
 4334SOL     OW13900   0.827   1.855   3.796
 4334SOL    HW113901   0.779   1.935   3.831
 4334SOL    HW213902   0.905   1.885   3.740
 4335SOL     OW13903   2.078   2.662   1.493
 4335SOL    HW113904   2.096   2.589   1.559
 4335SOL    HW213905   2.162   2.713   1.475
 4336SOL     OW13906   2.504   5.602   4.802
 4336SOL    HW113907   2.497   5.681   4.741
 4336SOL    HW213908   2.480   5.519   4.753
 4337SOL     OW13909   0.440   4.777   4.220
 4337SOL    HW113910   0.429   4.683   4.187
 4337SOL    HW213911   0.392   4.788   4.306
 4338SOL     OW13912   3.409   3.136   5.285
 4338SOL    HW113913   3.481   3.205   5.277
 4338SOL    HW213914   3.447   3.051   5.319
 4339SOL     OW13915   3.638   3.840   5.383
 4339SOL    HW113916   3.697   3.919   5.401
 4339SOL    HW213917   3.619   3.835   5.284
 4340SOL     OW13918   6.874   4.427   0.246
 4340SOL    HW113919   6.882   4.346   0.303
 4340SOL    HW213920   6.837   4.503   0.300
 4341SOL     OW13921   6.090   6.264   1.571
 4341SOL    HW113922   6.067   6.338   1.633
 4341SOL    HW213923   6.173   6.218   1.603
 4342SOL     OW13924   4.926   3.228   2.142
 4342SOL    HW113925   4.836   3.202   2.178
 4342SOL    HW213926   4.927   3.216   2.043
 4343SOL     OW13927   4.690   6.572   5.960
 4343SOL    HW113928   4.761   6.541   5.897
 4343SOL    HW213929   4.731   6.622   6.036
 4344SOL     OW13930   1.557   4.021   1.841
 4344SOL    HW113931   1.569   4.120   1.850
 4344SOL    HW213932   1.643   3.975   1.865
 4345SOL     OW13933   4.156   3.575   2.312
 4345SOL    HW113934   4.233   3.550   2.254
 4345SOL    HW213935   4.178   3.659   2.362
 4346SOL     OW13936   0.962   3.376   2.333
 4346SOL    HW113937   1.052   3.347   2.299
 4346SOL    HW213938   0.952   3.475   2.318
 4347SOL     OW13939   5.906   6.255   1.029
 4347SOL    HW113940   5.877   6.195   0.954
 4347SOL    HW213941   5.984   6.309   1.000
 4348SOL     OW13942   6.210   4.094   6.413
 4348SOL    HW113943   6.300   4.049   6.415
 4348SOL    HW213944   6.221   4.191   6.430
 4349SOL     OW13945   0.623   3.787   3.668
 4349SOL    HW113946   0.579   3.734   3.740
 4349SOL    HW213947   0.606   3.884   3.682
 4350SOL     OW13948   5.230   6.993   3.971
 4350SOL    HW113949   5.205   0.069   3.989
 4350SOL    HW213950   5.154   6.933   3.996
 4351SOL     OW13951   0.421   6.262   1.287
 4351SOL    HW113952   0.471   6.321   1.352
 4351SOL    HW213953   0.418   6.306   1.198
 4352SOL     OW13954   3.564   4.527   1.414
 4352SOL    HW113955   3.621   4.489   1.341
 4352SOL    HW213956   3.607   4.510   1.503
 4353SOL     OW13957   2.015   4.053   0.429
 4353SOL    HW113958   2.080   4.035   0.355
 4353SOL    HW213959   2.057   4.113   0.496
 4354SOL     OW13960   5.817   4.761   2.385
 4354SOL    HW113961   5.848   4.853   2.361
 4354SOL    HW213962   5.722   4.749   2.354
 4355SOL     OW13963   1.748   4.959   3.975
 4355SOL    HW113964   1.738   5.018   3.895
 4355SOL    HW213965   1.842   4.962   4.008
 4356SOL     OW13966   5.887   1.774   5.955
 4356SOL    HW113967   5.955   1.735   5.893
 4356SOL    HW213968   5.805   1.717   5.956
 4357SOL     OW13969   4.981   5.913   2.735
 4357SOL    HW113970   5.044   5.991   2.732
 4357SOL    HW213971   4.985   5.864   2.648
 4358SOL     OW13972   3.108   0.276   1.205
 4358SOL    HW113973   3.044   0.352   1.191
 4358SOL    HW213974   3.160   0.293   1.289
 4359SOL     OW13975   2.827   3.556   1.456
 4359SOL    HW113976   2.731   3.564   1.430
 4359SOL    HW213977   2.834   3.542   1.555
 4360SOL     OW13978   2.646   6.435   3.877
 4360SOL    HW113979   2.739   6.425   3.843
 4360SOL    HW213980   2.582   6.387   3.817
 4361SOL     OW13981   1.881   0.940   6.612
 4361SOL    HW113982   1.785   0.956   6.588
 4361SOL    HW213983   1.928   0.900   6.533
 4362SOL     OW13984   6.176   5.576   1.988
 4362SOL    HW113985   6.273   5.553   1.980
 4362SOL    HW213986   6.160   5.667   1.950
 4363SOL     OW13987   3.986   0.228   2.463
 4363SOL    HW113988   3.920   0.297   2.493
 4363SOL    HW213989   3.937   0.146   2.433
 4364SOL     OW13990   3.317   4.146   2.708
 4364SOL    HW113991   3.265   4.148   2.794
 4364SOL    HW213992   3.415   4.151   2.729
 4365SOL     OW13993   2.364   1.388   0.723
 4365SOL    HW113994   2.349   1.410   0.820
 4365SOL    HW213995   2.296   1.321   0.693
 4366SOL     OW13996   4.733   5.668   5.035
 4366SOL    HW113997   4.792   5.701   4.961
 4366SOL    HW213998   4.639   5.662   5.002
 4367SOL     OW13999   2.033   6.972   1.819
 4367SOL    HW114000   2.112   0.010   1.840
 4367SOL    HW214001   1.998   6.930   1.903
 4368SOL     OW14002   5.204   5.412   4.496
 4368SOL    HW114003   5.106   5.413   4.516
 4368SOL    HW214004   5.220   5.440   4.401
 4369SOL     OW14005   7.001   4.136   4.702
 4369SOL    HW114006   0.041   4.190   4.762
 4369SOL    HW214007   6.956   4.065   4.755
 4370SOL     OW14008   5.242   4.121   1.414
 4370SOL    HW114009   5.302   4.115   1.495
 4370SOL    HW214010   5.147   4.110   1.443
 4371SOL     OW14011   3.465   0.550   3.488
 4371SOL    HW114012   3.411   0.466   3.479
 4371SOL    HW214013   3.465   0.580   3.583
 4372SOL     OW14014   1.839   4.408   5.260
 4372SOL    HW114015   1.830   4.345   5.183
 4372SOL    HW214016   1.847   4.356   5.345
 4373SOL     OW14017   4.632   0.638   0.213
 4373SOL    HW114018   4.705   0.591   0.162
 4373SOL    HW214019   4.608   0.584   0.293
 4374SOL     OW14020   2.097   6.289   0.480
 4374SOL    HW114021   2.126   6.316   0.572
 4374SOL    HW214022   2.177   6.274   0.422
 4375SOL     OW14023   4.432   0.642   5.769
 4375SOL    HW114024   4.518   0.650   5.819
 4375SOL    HW214025   4.388   0.732   5.764
 4376SOL     OW14026   3.049   5.041   0.157
 4376SOL    HW114027   3.017   4.981   0.084
 4376SOL    HW214028   3.145   5.066   0.140
 4377SOL     OW14029   5.599   6.358   0.460
 4377SOL    HW114030   5.600   6.291   0.535
 4377SOL    HW214031   5.691   6.394   0.446
 4378SOL     OW14032   3.328   4.829   1.524
 4378SOL    HW114033   3.276   4.809   1.607
 4378SOL    HW214034   3.426   4.832   1.545
 4379SOL     OW14035   6.237   6.108   0.829
 4379SOL    HW114036   6.138   6.104   0.836
 4379SOL    HW214037   6.271   6.188   0.879
 4380SOL     OW14038   1.710   6.116   4.980
 4380SOL    HW114039   1.787   6.102   5.043
 4380SOL    HW214040   1.687   6.214   4.977
 4381SOL     OW14041   3.387   6.394   4.281
 4381SOL    HW114042   3.467   6.364   4.332
 4381SOL    HW214043   3.380   6.493   4.285
 4382SOL     OW14044   5.778   3.623   3.817
 4382SOL    HW114045   5.825   3.551   3.767
 4382SOL    HW214046   5.795   3.612   3.915
 4383SOL     OW14047   1.432   0.325   6.868
 4383SOL    HW114048   1.369   0.250   6.889
 4383SOL    HW214049   1.471   0.311   6.777
 4384SOL     OW14050   3.649   6.516   1.827
 4384SOL    HW114051   3.634   6.469   1.740
 4384SOL    HW214052   3.645   6.614   1.814
 4385SOL     OW14053   5.825   2.086   4.231
 4385SOL    HW114054   5.798   2.170   4.183
 4385SOL    HW214055   5.851   2.017   4.165
 4386SOL     OW14056   1.879   5.601   7.002
 4386SOL    HW114057   1.888   5.700   6.987
 4386SOL    HW214058   1.901   5.553   6.917
 4387SOL     OW14059   6.112   1.977   1.051
 4387SOL    HW114060   6.177   1.952   1.123
 4387SOL    HW214061   6.032   2.021   1.093
 4388SOL     OW14062   4.432   1.118   5.853
 4388SOL    HW114063   4.358   1.050   5.851
 4388SOL    HW214064   4.394   1.209   5.840
 4389SOL     OW14065   1.324   2.756   2.562
 4389SOL    HW114066   1.319   2.784   2.466
 4389SOL    HW214067   1.235   2.720   2.591
 4390SOL     OW14068   4.891   4.059   1.022
 4390SOL    HW114069   4.934   4.041   1.110
 4390SOL    HW214070   4.889   3.975   0.968
 4391SOL     OW14071   0.587   5.643   1.174
 4391SOL    HW114072   0.617   5.592   1.094
 4391SOL    HW214073   0.507   5.697   1.151
 4392SOL     OW14074   5.065   5.101   4.989
 4392SOL    HW114075   5.103   5.189   5.017
 4392SOL    HW214076   5.110   5.070   4.905
 4393SOL     OW14077   4.795   6.998   2.510
 4393SOL    HW114078   4.697   6.990   2.528
 4393SOL    HW214079   4.831   0.058   2.559
 4394SOL     OW14080   4.780   1.046   2.508
 4394SOL    HW114081   4.834   1.102   2.445
 4394SOL    HW214082   4.733   0.974   2.457
 4395SOL     OW14083   4.835   2.694   0.685
 4395SOL    HW114084   4.794   2.635   0.754
 4395SOL    HW214085   4.807   2.664   0.594
 4396SOL     OW14086   1.575   1.208   2.242
 4396SOL    HW114087   1.565   1.302   2.212
 4396SOL    HW214088   1.502   1.152   2.202
 4397SOL     OW14089   3.890   1.740   6.857
 4397SOL    HW114090   3.837   1.664   6.820
 4397SOL    HW214091   3.948   1.779   6.786
 4398SOL     OW14092   0.685   4.875   4.825
 4398SOL    HW114093   0.713   4.961   4.868
 4398SOL    HW214094   0.766   4.818   4.809
 4399SOL     OW14095   2.964   0.452   1.562
 4399SOL    HW114096   3.030   0.395   1.512
 4399SOL    HW214097   3.011   0.497   1.638
 4400SOL     OW14098   3.457   4.888   3.032
 4400SOL    HW114099   3.376   4.839   3.001
 4400SOL    HW214100   3.480   4.860   3.125
 4401SOL     OW14101   4.859   6.589   4.486
 4401SOL    HW114102   4.808   6.611   4.569
 4401SOL    HW214103   4.841   6.495   4.459
 4402SOL     OW14104   0.000   6.499   1.766
 4402SOL    HW114105   0.056   6.526   1.687
 4402SOL    HW214106   0.050   6.519   1.850
 4403SOL     OW14107   6.498   1.589   3.501
 4403SOL    HW114108   6.535   1.498   3.484
 4403SOL    HW214109   6.515   1.648   3.423
 4404SOL     OW14110   1.641   3.724   2.657
 4404SOL    HW114111   1.582   3.737   2.578
 4404SOL    HW214112   1.591   3.750   2.740
 4405SOL     OW14113   2.842   4.190   6.424
 4405SOL    HW114114   2.857   4.091   6.418
 4405SOL    HW214115   2.914   4.238   6.375
 4406SOL     OW14116   5.882   2.730   2.449
 4406SOL    HW114117   5.784   2.710   2.453
 4406SOL    HW214118   5.909   2.749   2.355
 4407SOL     OW14119   0.879   0.566   0.355
 4407SOL    HW114120   0.928   0.513   0.425
 4407SOL    HW214121   0.840   0.648   0.397
 4408SOL     OW14122   4.609   6.020   1.521
 4408SOL    HW114123   4.523   6.064   1.544
 4408SOL    HW214124   4.652   6.069   1.444
 4409SOL     OW14125   3.691   1.787   3.259
 4409SOL    HW114126   3.766   1.810   3.321
 4409SOL    HW214127   3.632   1.868   3.247
 4410SOL     OW14128   2.087   5.929   0.841
 4410SOL    HW114129   2.145   6.004   0.810
 4410SOL    HW214130   2.009   5.966   0.893
 4411SOL     OW14131   3.647   3.230   2.390
 4411SOL    HW114132   3.659   3.324   2.420
 4411SOL    HW214133   3.703   3.169   2.447
 4412SOL     OW14134   3.851   1.538   6.291
 4412SOL    HW114135   3.900   1.451   6.300
 4412SOL    HW214136   3.804   1.558   6.376
 4413SOL     OW14137   3.600   5.458   3.756
 4413SOL    HW114138   3.567   5.367   3.783
 4413SOL    HW214139   3.696   5.467   3.781
 4414SOL     OW14140   3.549   4.890   1.734
 4414SOL    HW114141   3.551   4.799   1.774
 4414SOL    HW214142   3.520   4.956   1.803
 4415SOL     OW14143   4.597   0.931   1.540
 4415SOL    HW114144   4.617   1.007   1.602
 4415SOL    HW214145   4.562   0.854   1.593
 4416SOL     OW14146   3.071   2.159   4.706
 4416SOL    HW114147   3.120   2.084   4.751
 4416SOL    HW214148   3.093   2.245   4.750
 4417SOL     OW14149   5.615   6.901   1.305
 4417SOL    HW114150   5.707   6.887   1.268
 4417SOL    HW214151   5.583   6.993   1.280
 4418SOL     OW14152   4.540   0.124   2.998
 4418SOL    HW114153   4.573   0.206   2.950
 4418SOL    HW214154   4.474   0.151   3.068
 4419SOL     OW14155   6.341   5.494   6.059
 4419SOL    HW114156   6.255   5.449   6.035
 4419SOL    HW214157   6.414   5.461   5.999
 4420SOL     OW14158   5.211   0.907   0.648
 4420SOL    HW114159   5.220   0.857   0.562
 4420SOL    HW214160   5.302   0.929   0.684
 4421SOL     OW14161   0.631   1.990   3.088
 4421SOL    HW114162   0.650   1.969   3.184
 4421SOL    HW214163   0.694   1.939   3.029
 4422SOL     OW14164   1.403   4.026   5.813
 4422SOL    HW114165   1.357   3.945   5.849
 4422SOL    HW214166   1.342   4.072   5.749
 4423SOL     OW14167   6.836   1.939   5.781
 4423SOL    HW114168   6.766   1.985   5.726
 4423SOL    HW214169   6.792   1.876   5.845
 4424SOL     OW14170   1.603   5.417   3.622
 4424SOL    HW114171   1.688   5.443   3.578
 4424SOL    HW214172   1.557   5.346   3.569
 4425SOL     OW14173   5.146   4.022   2.021
 4425SOL    HW114174   5.153   4.080   2.102
 4425SOL    HW214175   5.074   3.953   2.036
 4426SOL     OW14176   0.558   6.568   6.450
 4426SOL    HW114177   0.539   6.495   6.384
 4426SOL    HW214178   0.592   6.528   6.535
 4427SOL     OW14179   0.563   5.166   3.652
 4427SOL    HW114180   0.607   5.203   3.571
 4427SOL    HW214181   0.539   5.241   3.714
 4428SOL     OW14182   1.533   0.228   2.588
 4428SOL    HW114183   1.478   0.298   2.633
 4428SOL    HW214184   1.505   0.137   2.621
 4429SOL     OW14185   2.929   0.128   2.037
 4429SOL    HW114186   2.848   0.166   2.080
 4429SOL    HW214187   3.000   0.115   2.107
 4430SOL     OW14188   2.046   0.093   2.179
 4430SOL    HW114189   1.985   0.022   2.144
 4430SOL    HW214190   1.994   0.157   2.237
 4431SOL     OW14191   2.031   1.842   2.506
 4431SOL    HW114192   2.027   1.744   2.488
 4431SOL    HW214193   1.969   1.889   2.444
 4432SOL     OW14194   3.528   4.078   4.616
 4432SOL    HW114195   3.626   4.074   4.600
 4432SOL    HW214196   3.479   4.060   4.530
 4433SOL     OW14197   6.551   0.311   1.820
 4433SOL    HW114198   6.645   0.282   1.837
 4433SOL    HW214199   6.551   0.402   1.778
 4434SOL     OW14200   5.469   1.846   5.883
 4434SOL    HW114201   5.419   1.926   5.851
 4434SOL    HW214202   5.516   1.803   5.805
 4435SOL     OW14203   3.659   2.870   1.987
 4435SOL    HW114204   3.609   2.954   1.964
 4435SOL    HW214205   3.608   2.791   1.955
 4436SOL     OW14206   5.876   0.022   0.410
 4436SOL    HW114207   5.780   0.051   0.409
 4436SOL    HW214208   5.923   0.068   0.485
 4437SOL     OW14209   3.203   6.769   5.582
 4437SOL    HW114210   3.142   6.790   5.657
 4437SOL    HW214211   3.230   6.853   5.535
 4438SOL     OW14212   3.658   2.684   6.791
 4438SOL    HW114213   3.561   2.702   6.775
 4438SOL    HW214214   3.709   2.703   6.708
 4439SOL     OW14215   1.194   4.788   3.400
 4439SOL    HW114216   1.272   4.842   3.431
 4439SOL    HW214217   1.196   4.698   3.445
 4440SOL     OW14218   6.387   1.280   0.190
 4440SOL    HW114219   6.435   1.212   0.246
 4440SOL    HW214220   6.288   1.271   0.205
 4441SOL     OW14221   6.398   0.748   4.177
 4441SOL    HW114222   6.411   0.739   4.275
 4441SOL    HW214223   6.311   0.707   4.150
 4442SOL     OW14224   2.141   5.792   2.418
 4442SOL    HW114225   2.111   5.701   2.390
 4442SOL    HW214226   2.065   5.856   2.410
 4443SOL     OW14227   1.725   1.042   1.282
 4443SOL    HW114228   1.667   0.964   1.306
 4443SOL    HW214229   1.694   1.122   1.333
 4444SOL     OW14230   4.786   1.852   3.075
 4444SOL    HW114231   4.759   1.805   3.159
 4444SOL    HW214232   4.810   1.784   3.005
 4445SOL     OW14233   1.104   2.288   6.174
 4445SOL    HW114234   1.148   2.252   6.256
 4445SOL    HW214235   1.109   2.220   6.101
 4446SOL     OW14236   6.828   5.002   4.452
 4446SOL    HW114237   6.833   5.018   4.354
 4446SOL    HW214238   6.877   4.918   4.475
 4447SOL     OW14239   4.909   3.683   4.758
 4447SOL    HW114240   4.941   3.609   4.699
 4447SOL    HW214241   4.842   3.647   4.824
 4448SOL     OW14242   2.482   3.386   6.506
 4448SOL    HW114243   2.544   3.403   6.429
 4448SOL    HW214244   2.387   3.391   6.474
 4449SOL     OW14245   6.762   1.542   5.662
 4449SOL    HW114246   6.710   1.581   5.738
 4449SOL    HW214247   6.756   1.442   5.666
 4450SOL     OW14248   3.514   3.229   3.202
 4450SOL    HW114249   3.570   3.197   3.126
 4450SOL    HW214250   3.564   3.298   3.254
 4451SOL     OW14251   0.700   5.079   1.242
 4451SOL    HW114252   0.727   5.175   1.252
 4451SOL    HW214253   0.768   5.020   1.284
 4452SOL     OW14254   0.714   3.755   6.931
 4452SOL    HW114255   0.791   3.694   6.947
 4452SOL    HW214256   0.684   3.745   6.836
 4453SOL     OW14257   5.939   0.416   1.248
 4453SOL    HW114258   5.917   0.451   1.157
 4453SOL    HW214259   5.939   0.316   1.246
 4454SOL     OW14260   6.280   3.302   1.833
 4454SOL    HW114261   6.297   3.298   1.932
 4454SOL    HW214262   6.198   3.356   1.815
 4455SOL     OW14263   4.474   2.405   2.432
 4455SOL    HW114264   4.521   2.480   2.386
 4455SOL    HW214265   4.445   2.337   2.365
 4456SOL     OW14266   0.129   5.776   2.558
 4456SOL    HW114267   0.193   5.699   2.562
 4456SOL    HW214268   0.126   5.812   2.465
 4457SOL     OW14269   4.693   2.507   6.181
 4457SOL    HW114270   4.627   2.435   6.198
 4457SOL    HW214271   4.692   2.572   6.257
 4458SOL     OW14272   4.784   1.782   1.159
 4458SOL    HW114273   4.751   1.747   1.071
 4458SOL    HW214274   4.718   1.758   1.230
 4459SOL     OW14275   6.084   5.414   5.994
 4459SOL    HW114276   6.055   5.510   6.006
 4459SOL    HW214277   6.084   5.393   5.896
 4460SOL     OW14278   1.489   0.867   0.785
 4460SOL    HW114279   1.414   0.842   0.846
 4460SOL    HW214280   1.480   0.963   0.757
 4461SOL     OW14281   1.973   0.561   2.906
 4461SOL    HW114282   2.004   0.580   2.999
 4461SOL    HW214283   2.038   0.498   2.862
 4462SOL     OW14284   6.983   3.440   0.769
 4462SOL    HW114285   0.049   3.415   0.814
 4462SOL    HW214286   6.906   3.403   0.820
 4463SOL     OW14287   0.464   4.068   6.812
 4463SOL    HW114288   0.548   4.054   6.760
 4463SOL    HW214289   0.387   4.079   6.749
 4464SOL     OW14290   6.747   2.607   7.007
 4464SOL    HW114291   6.657   2.628   6.970
 4464SOL    HW214292   6.796   2.693   0.006
 4465SOL     OW14293   5.989   5.205   1.158
 4465SOL    HW114294   6.037   5.118   1.148
 4465SOL    HW214295   5.986   5.232   1.254
 4466SOL     OW14296   6.539   3.436   4.014
 4466SOL    HW114297   6.461   3.490   3.982
 4466SOL    HW214298   6.509   3.343   4.034
 4467SOL     OW14299   1.190   0.576   4.612
 4467SOL    HW114300   1.236   0.514   4.548
 4467SOL    HW214301   1.180   0.531   4.701
 4468SOL     OW14302   1.176   1.133   0.604
 4468SOL    HW114303   1.106   1.163   0.669
 4468SOL    HW214304   1.144   1.150   0.510
 4469SOL     OW14305   4.638   6.689   0.330
 4469SOL    HW114306   4.594   6.713   0.243
 4469SOL    HW214307   4.734   6.718   0.327
 4470SOL     OW14308   5.006   4.530   1.354
 4470SOL    HW114309   5.023   4.607   1.416
 4470SOL    HW214310   4.972   4.452   1.406
 4471SOL     OW14311   5.559   2.435   1.549
 4471SOL    HW114312   5.617   2.452   1.628
 4471SOL    HW214313   5.592   2.355   1.500
 4472SOL     OW14314   2.440   5.221   1.462
 4472SOL    HW114315   2.365   5.171   1.419
 4472SOL    HW214316   2.491   5.161   1.523
 4473SOL     OW14317   6.186   0.602   0.726
 4473SOL    HW114318   6.236   0.605   0.639
 4473SOL    HW214319   6.100   0.651   0.717
 4474SOL     OW14320   6.181   1.190   5.041
 4474SOL    HW114321   6.246   1.259   5.073
 4474SOL    HW214322   6.222   1.099   5.050
 4475SOL     OW14323   1.775   3.406   0.138
 4475SOL    HW114324   1.701   3.421   0.072
 4475SOL    HW214325   1.775   3.480   0.206
 4476SOL     OW14326   4.087   6.660   2.830
 4476SOL    HW114327   4.091   6.604   2.747
 4476SOL    HW214328   4.063   6.602   2.908
 4477SOL     OW14329   2.133   2.132   0.858
 4477SOL    HW114330   2.060   2.073   0.891
 4477SOL    HW214331   2.095   2.204   0.800
 4478SOL     OW14332   1.130   4.831   1.055
 4478SOL    HW114333   1.181   4.860   1.136
 4478SOL    HW214334   1.163   4.742   1.025
 4479SOL     OW14335   1.648   6.129   6.095
 4479SOL    HW114336   1.633   6.050   6.154
 4479SOL    HW214337   1.561   6.156   6.053
 4480SOL     OW14338   6.696   3.509   2.857
 4480SOL    HW114339   6.747   3.440   2.909
 4480SOL    HW214340   6.727   3.600   2.884
 4481SOL     OW14341   1.027   0.980   4.409
 4481SOL    HW114342   1.004   0.905   4.472
 4481SOL    HW214343   0.970   1.060   4.431
 4482SOL     OW14344   0.261   4.094   2.911
 4482SOL    HW114345   0.239   4.182   2.953
 4482SOL    HW214346   0.356   4.071   2.930
 4483SOL     OW14347   5.785   3.893   1.283
 4483SOL    HW114348   5.779   3.920   1.186
 4483SOL    HW214349   5.788   3.975   1.340
 4484SOL     OW14350   2.884   3.733   6.575
 4484SOL    HW114351   2.840   3.712   6.662
 4484SOL    HW214352   2.832   3.690   6.501
 4485SOL     OW14353   4.419   0.263   5.916
 4485SOL    HW114354   4.430   0.303   5.825
 4485SOL    HW214355   4.322   0.262   5.941
 4486SOL     OW14356   6.212   3.374   4.240
 4486SOL    HW114357   6.160   3.375   4.325
 4486SOL    HW214358   6.187   3.454   4.185
 4487SOL     OW14359   3.228   2.651   5.974
 4487SOL    HW114360   3.270   2.600   5.899
 4487SOL    HW214361   3.129   2.654   5.962
 4488SOL     OW14362   0.059   2.093   6.425
 4488SOL    HW114363   0.020   2.165   6.482
 4488SOL    HW214364   7.011   2.020   6.413
 4489SOL     OW14365   0.364   1.224   3.202
 4489SOL    HW114366   0.359   1.187   3.109
 4489SOL    HW214367   0.317   1.311   3.206
 4490SOL     OW14368   0.155   2.314   4.121
 4490SOL    HW114369   0.173   2.252   4.198
 4490SOL    HW214370   0.212   2.395   4.130
 4491SOL     OW14371   1.932   4.630   2.335
 4491SOL    HW114372   1.985   4.582   2.265
 4491SOL    HW214373   1.875   4.564   2.384
 4492SOL     OW14374   5.384   3.811   5.758
 4492SOL    HW114375   5.328   3.776   5.683
 4492SOL    HW214376   5.471   3.762   5.761
 4493SOL     OW14377   5.820   4.476   3.292
 4493SOL    HW114378   5.831   4.394   3.349
 4493SOL    HW214379   5.906   4.498   3.247
 4494SOL     OW14380   4.952   2.667   1.679
 4494SOL    HW114381   4.922   2.718   1.760
 4494SOL    HW214382   4.909   2.576   1.680
 4495SOL     OW14383   5.835   5.059   2.065
 4495SOL    HW114384   5.906   5.046   2.135
 4495SOL    HW214385   5.876   5.098   1.983
 4496SOL     OW14386   5.784   3.325   6.047
 4496SOL    HW114387   5.884   3.325   6.049
 4496SOL    HW214388   5.750   3.405   6.098
 4497SOL     OW14389   6.834   6.523   1.071
 4497SOL    HW114390   6.879   6.443   1.031
 4497SOL    HW214391   6.877   6.544   1.159
 4498SOL     OW14392   1.191   4.319   5.997
 4498SOL    HW114393   1.226   4.230   6.026
 4498SOL    HW214394   1.251   4.357   5.927
 4499SOL     OW14395   5.838   3.997   0.508
 4499SOL    HW114396   5.769   4.045   0.454
 4499SOL    HW214397   5.802   3.908   0.537
 4500SOL     OW14398   3.429   4.051   2.008
 4500SOL    HW114399   3.470   4.138   2.035
 4500SOL    HW214400   3.335   4.066   1.979
 4501SOL     OW14401   1.744   5.462   4.987
 4501SOL    HW114402   1.708   5.528   5.053
 4501SOL    HW214403   1.820   5.411   5.027
 4502SOL     OW14404   5.738   2.711   0.480
 4502SOL    HW114405   5.673   2.661   0.536
 4502SOL    HW214406   5.692   2.788   0.436
 4503SOL     OW14407   1.071   3.473   3.080
 4503SOL    HW114408   1.163   3.499   3.050
 4503SOL    HW214409   1.005   3.498   3.010
 4504SOL     OW14410   4.123   1.940   4.251
 4504SOL    HW114411   4.121   2.011   4.180
 4504SOL    HW214412   4.101   1.982   4.339
 4505SOL     OW14413   2.289   5.768   0.166
 4505SOL    HW114414   2.349   5.701   0.210
 4505SOL    HW214415   2.205   5.778   0.220
 4506SOL     OW14416   3.495   6.788   5.744
 4506SOL    HW114417   3.547   6.733   5.810
 4506SOL    HW214418   3.425   6.730   5.701
 4507SOL     OW14419   6.345   3.734   2.671
 4507SOL    HW114420   6.379   3.751   2.579
 4507SOL    HW214421   6.249   3.761   2.677
 4508SOL     OW14422   1.944   3.996   0.972
 4508SOL    HW114423   1.913   3.910   1.014
 4508SOL    HW214424   2.039   4.013   0.998
 4509SOL     OW14425   1.077   2.591   3.672
 4509SOL    HW114426   1.108   2.686   3.662
 4509SOL    HW214427   1.118   2.535   3.601
 4510SOL     OW14428   2.608   6.811   6.439
 4510SOL    HW114429   2.519   6.799   6.394
 4510SOL    HW214430   2.638   6.905   6.428
 4511SOL     OW14431   0.398   2.546   6.988
 4511SOL    HW114432   0.367   2.555   0.064
 4511SOL    HW214433   0.472   2.610   6.971
 4512SOL     OW14434   2.199   4.036   0.225
 4512SOL    HW114435   2.262   4.111   0.244
 4512SOL    HW214436   2.250   3.954   0.200
 4513SOL     OW14437   6.221   1.450   2.648
 4513SOL    HW114438   6.269   1.376   2.695
 4513SOL    HW214439   6.262   1.464   2.557
 4514SOL     OW14440   1.884   0.532   4.698
 4514SOL    HW114441   1.958   0.465   4.700
 4514SOL    HW214442   1.873   0.566   4.604
 4515SOL     OW14443   6.994   4.701   0.387
 4515SOL    HW114444   7.015   4.605   0.373
 4515SOL    HW214445   0.008   4.730   0.476
 4516SOL     OW14446   0.710   7.013   3.761
 4516SOL    HW114447   0.700   0.054   3.840
 4516SOL    HW214448   0.700   6.918   3.790
 4517SOL     OW14449   2.602   0.726   0.135
 4517SOL    HW114450   2.598   0.714   0.036
 4517SOL    HW214451   2.676   0.669   0.171
 4518SOL     OW14452   1.426   0.728   3.585
 4518SOL    HW114453   1.444   0.752   3.490
 4518SOL    HW214454   1.343   0.672   3.590
 4519SOL     OW14455   6.709   2.214   4.460
 4519SOL    HW114456   6.673   2.259   4.542
 4519SOL    HW214457   6.656   2.243   4.380
 4520SOL     OW14458   6.998   3.541   2.505
 4520SOL    HW114459   6.900   3.541   2.523
 4520SOL    HW214460   0.010   3.447   2.489
 4521SOL     OW14461   5.175   1.542   6.375
 4521SOL    HW114462   5.141   1.613   6.437
 4521SOL    HW214463   5.264   1.510   6.407
 4522SOL     OW14464   5.314   6.842   3.314
 4522SOL    HW114465   5.409   6.812   3.314
 4522SOL    HW214466   5.291   6.878   3.405
 4523SOL     OW14467   4.800   2.047   5.642
 4523SOL    HW114468   4.734   1.993   5.694
 4523SOL    HW214469   4.867   2.087   5.705
 4524SOL     OW14470   5.469   1.463   5.528
 4524SOL    HW114471   5.548   1.419   5.485
 4524SOL    HW214472   5.399   1.395   5.546
 4525SOL     OW14473   6.744   1.462   3.835
 4525SOL    HW114474   6.805   1.409   3.894
 4525SOL    HW214475   6.700   1.534   3.888
 4526SOL     OW14476   2.631   1.614   1.277
 4526SOL    HW114477   2.612   1.529   1.229
 4526SOL    HW214478   2.701   1.666   1.228
 4527SOL     OW14479   4.580   6.581   3.517
 4527SOL    HW114480   4.603   6.667   3.471
 4527SOL    HW214481   4.664   6.533   3.542
 4528SOL     OW14482   4.655   0.346   6.525
 4528SOL    HW114483   4.717   0.388   6.459
 4528SOL    HW214484   4.627   0.415   6.592
 4529SOL     OW14485   3.018   0.307   4.398
 4529SOL    HW114486   3.052   0.217   4.425
 4529SOL    HW214487   3.089   0.376   4.415
 4530SOL     OW14488   6.760   2.484   4.165
 4530SOL    HW114489   6.745   2.525   4.075
 4530SOL    HW214490   6.828   2.411   4.158
 4531SOL     OW14491   0.091   4.235   3.793
 4531SOL    HW114492   0.137   4.167   3.851
 4531SOL    HW214493   0.149   4.316   3.785
 4532SOL     OW14494   0.450   2.417   0.671
 4532SOL    HW114495   0.355   2.406   0.700
 4532SOL    HW214496   0.452   2.462   0.581
 4533SOL     OW14497   3.609   6.534   2.087
 4533SOL    HW114498   3.676   6.603   2.118
 4533SOL    HW214499   3.623   6.516   1.990
 4534SOL     OW14500   6.884   4.105   6.145
 4534SOL    HW114501   6.836   4.149   6.221
 4534SOL    HW214502   6.909   4.174   6.077
 4535SOL     OW14503   4.923   1.970   2.624
 4535SOL    HW114504   4.868   2.053   2.611
 4535SOL    HW214505   4.977   1.953   2.542
 4536SOL     OW14506   6.872   0.224   3.685
 4536SOL    HW114507   6.949   0.234   3.749
 4536SOL    HW214508   6.796   0.180   3.732
 4537SOL     OW14509   5.103   3.003   5.435
 4537SOL    HW114510   5.013   3.009   5.480
 4537SOL    HW214511   5.131   3.093   5.403
 4538SOL     OW14512   3.714   2.164   1.582
 4538SOL    HW114513   3.760   2.226   1.646
 4538SOL    HW214514   3.741   2.188   1.489
 4539SOL     OW14515   2.560   3.551   1.330
 4539SOL    HW114516   2.584   3.645   1.306
 4539SOL    HW214517   2.468   3.549   1.369
 4540SOL     OW14518   3.927   3.076   4.599
 4540SOL    HW114519   3.868   3.147   4.636
 4540SOL    HW214520   3.907   2.989   4.644
 4541SOL     OW14521   6.273   1.289   1.750
 4541SOL    HW114522   6.239   1.319   1.839
 4541SOL    HW214523   6.206   1.226   1.709
 4542SOL     OW14524   5.281   6.628   3.493
 4542SOL    HW114525   5.297   6.674   3.581
 4542SOL    HW214526   5.293   6.693   3.418
 4543SOL     OW14527   5.096   2.245   2.637
 4543SOL    HW114528   5.193   2.225   2.623
 4543SOL    HW214529   5.041   2.168   2.603
 4544SOL     OW14530   5.888   4.837   6.607
 4544SOL    HW114531   5.843   4.887   6.681
 4544SOL    HW214532   5.917   4.748   6.640
 4545SOL     OW14533   4.363   3.639   0.046
 4545SOL    HW114534   4.371   3.603   6.973
 4545SOL    HW214535   4.273   3.679   0.059
 4546SOL     OW14536   0.616   5.806   0.513
 4546SOL    HW114537   0.705   5.840   0.542
 4546SOL    HW214538   0.569   5.875   0.459
 4547SOL     OW14539   4.430   1.411   2.380
 4547SOL    HW114540   4.390   1.401   2.471
 4547SOL    HW214541   4.400   1.336   2.322
 4548SOL     OW14542   0.865   3.379   4.324
 4548SOL    HW114543   0.893   3.409   4.233
 4548SOL    HW214544   0.881   3.452   4.391
 4549SOL     OW14545   5.707   1.350   2.208
 4549SOL    HW114546   5.749   1.388   2.291
 4549SOL    HW214547   5.773   1.291   2.162
 4550SOL     OW14548   2.162   5.170   5.066
 4550SOL    HW114549   2.230   5.226   5.019
 4550SOL    HW214550   2.198   5.143   5.156
 4551SOL     OW14551   6.622   3.694   0.796
 4551SOL    HW114552   6.592   3.610   0.751
 4551SOL    HW214553   6.718   3.712   0.774
 4552SOL     OW14554   0.064   3.456   4.988
 4552SOL    HW114555   0.055   3.555   4.987
 4552SOL    HW214556   7.016   3.416   4.925
 4553SOL     OW14557   5.470   4.999   6.783
 4553SOL    HW114558   5.553   4.953   6.751
 4553SOL    HW214559   5.390   4.952   6.746
 4554SOL     OW14560   6.554   6.736   4.118
 4554SOL    HW114561   6.586   6.831   4.125
 4554SOL    HW214562   6.571   6.701   4.026
 4555SOL     OW14563   3.874   2.964   0.278
 4555SOL    HW114564   3.900   3.042   0.335
 4555SOL    HW214565   3.834   2.998   0.192
 4556SOL     OW14566   4.291   0.234   5.284
 4556SOL    HW114567   4.205   0.278   5.311
 4556SOL    HW214568   4.336   0.291   5.215
 4557SOL     OW14569   5.333   1.005   3.987
 4557SOL    HW114570   5.405   1.067   4.018
 4557SOL    HW214571   5.265   1.057   3.936
 4558SOL     OW14572   0.372   3.333   6.601
 4558SOL    HW114573   0.309   3.265   6.561
 4558SOL    HW214574   0.356   3.339   6.700
 4559SOL     OW14575   1.633   6.727   1.578
 4559SOL    HW114576   1.627   6.764   1.485
 4559SOL    HW214577   1.674   6.635   1.575
 4560SOL     OW14578   6.109   2.497   3.322
 4560SOL    HW114579   6.089   2.589   3.287
 4560SOL    HW214580   6.175   2.503   3.396
 4561SOL     OW14581   3.087   6.042   6.328
 4561SOL    HW114582   3.038   6.120   6.289
 4561SOL    HW214583   3.026   5.963   6.332
 4562SOL     OW14584   2.959   3.940   5.659
 4562SOL    HW114585   2.968   3.964   5.562
 4562SOL    HW214586   2.930   4.020   5.711
 4563SOL     OW14587   5.808   2.787   6.970
 4563SOL    HW114588   5.783   2.877   6.935
 4563SOL    HW214589   5.884   2.796   0.016
 4564SOL     OW14590   6.919   5.183   0.031
 4564SOL    HW114591   6.866   5.152   0.110
 4564SOL    HW214592   6.927   5.108   6.984
 4565SOL     OW14593   3.464   0.768   4.029
 4565SOL    HW114594   3.385   0.803   4.079
 4565SOL    HW214595   3.542   0.762   4.090
 4566SOL     OW14596   1.962   0.659   0.961
 4566SOL    HW114597   2.042   0.605   0.987
 4566SOL    HW214598   1.879   0.615   0.996
 4567SOL     OW14599   5.656   2.395   0.714
 4567SOL    HW114600   5.605   2.444   0.643
 4567SOL    HW214601   5.698   2.461   0.777
 4568SOL     OW14602   4.284   4.635   3.938
 4568SOL    HW114603   4.268   4.681   4.026
 4568SOL    HW214604   4.260   4.696   3.863
 4569SOL     OW14605   1.580   1.647   3.871
 4569SOL    HW114606   1.570   1.674   3.776
 4569SOL    HW214607   1.489   1.641   3.914
 4570SOL     OW14608   5.316   5.817   4.973
 4570SOL    HW114609   5.293   5.797   5.069
 4570SOL    HW214610   5.235   5.805   4.916
 4571SOL     OW14611   3.848   3.050   3.814
 4571SOL    HW114612   3.781   3.125   3.809
 4571SOL    HW214613   3.804   2.969   3.853
 4572SOL     OW14614   2.705   5.248   0.906
 4572SOL    HW114615   2.632   5.288   0.851
 4572SOL    HW214616   2.697   5.280   1.000
 4573SOL     OW14617   4.940   0.245   1.424
 4573SOL    HW114618   5.034   0.273   1.403
 4573SOL    HW214619   4.876   0.315   1.394
 4574SOL     OW14620   0.092   4.854   2.062
 4574SOL    HW114621   0.138   4.819   1.980
 4574SOL    HW214622   0.099   4.954   2.063
 4575SOL     OW14623   6.685   5.926   1.878
 4575SOL    HW114624   6.610   5.903   1.939
 4575SOL    HW214625   6.761   5.862   1.892
 4576SOL     OW14626   3.307   6.665   4.255
 4576SOL    HW114627   3.251   6.682   4.175
 4576SOL    HW214628   3.385   6.729   4.255
 4577SOL     OW14629   2.366   4.290   3.734
 4577SOL    HW114630   2.284   4.268   3.786
 4577SOL    HW214631   2.429   4.343   3.791
 4578SOL     OW14632   6.091   5.800   3.646
 4578SOL    HW114633   6.172   5.852   3.620
 4578SOL    HW214634   6.101   5.705   3.617
 4579SOL     OW14635   4.540   2.033   3.364
 4579SOL    HW114636   4.504   2.103   3.426
 4579SOL    HW214637   4.506   2.049   3.272
 4580SOL     OW14638   0.324   5.382   0.085
 4580SOL    HW114639   0.277   5.312   0.140
 4580SOL    HW214640   0.324   5.354   7.009
 4581SOL     OW14641   3.556   5.704   4.979
 4581SOL    HW114642   3.623   5.765   4.935
 4581SOL    HW214643   3.465   5.728   4.946
 4582SOL     OW14644   4.844   6.634   3.268
 4582SOL    HW114645   4.778   6.583   3.213
 4582SOL    HW214646   4.918   6.573   3.296
 4583SOL     OW14647   3.577   6.902   5.490
 4583SOL    HW114648   3.553   6.871   5.582
 4583SOL    HW214649   3.552   6.832   5.423
 4584SOL     OW14650   6.763   5.069   5.755
 4584SOL    HW114651   6.825   5.043   5.829
 4584SOL    HW214652   6.669   5.042   5.779
 4585SOL     OW14653   2.868   6.577   2.290
 4585SOL    HW114654   2.843   6.649   2.354
 4585SOL    HW214655   2.807   6.578   2.211
 4586SOL     OW14656   2.165   6.084   1.617
 4586SOL    HW114657   2.139   6.023   1.542
 4586SOL    HW214658   2.083   6.113   1.666
 4587SOL     OW14659   2.757   5.022   0.771
 4587SOL    HW114660   2.744   5.106   0.824
 4587SOL    HW214661   2.853   5.012   0.746
 4588SOL     OW14662   3.481   4.057   5.066
 4588SOL    HW114663   3.484   3.969   5.113
 4588SOL    HW214664   3.387   4.080   5.043
 4589SOL     OW14665   2.200   2.345   3.351
 4589SOL    HW114666   2.153   2.287   3.417
 4589SOL    HW214667   2.225   2.432   3.394
 4590SOL     OW14668   4.378   6.215   2.859
 4590SOL    HW114669   4.426   6.169   2.785
 4590SOL    HW214670   4.411   6.181   2.947
 4591SOL     OW14671   4.750   6.116   5.073
 4591SOL    HW114672   4.720   6.100   5.167
 4591SOL    HW214673   4.850   6.114   5.070
 4592SOL     OW14674   3.289   1.944   5.921
 4592SOL    HW114675   3.379   1.936   5.879
 4592SOL    HW214676   3.229   1.998   5.862
 4593SOL     OW14677   4.277   5.782   1.784
 4593SOL    HW114678   4.193   5.768   1.732
 4593SOL    HW214679   4.269   5.866   1.838
 4594SOL     OW14680   3.759   2.065   2.270
 4594SOL    HW114681   3.722   2.042   2.360
 4594SOL    HW214682   3.701   2.026   2.199
 4595SOL     OW14683   4.209   3.163   5.560
 4595SOL    HW114684   4.223   3.225   5.483
 4595SOL    HW214685   4.202   3.069   5.527
 4596SOL     OW14686   4.877   0.648   2.618
 4596SOL    HW114687   4.897   0.742   2.648
 4596SOL    HW214688   4.853   0.649   2.521
 4597SOL     OW14689   6.689   3.769   6.447
 4597SOL    HW114690   6.740   3.684   6.436
 4597SOL    HW214691   6.669   3.808   6.357
 4598SOL     OW14692   2.432   3.867   6.520
 4598SOL    HW114693   2.493   3.828   6.451
 4598SOL    HW214694   2.422   3.965   6.505
 4599SOL     OW14695   3.354   4.996   0.353
 4599SOL    HW114696   3.293   5.032   0.424
 4599SOL    HW214697   3.323   4.906   0.324
 4600SOL     OW14698   2.367   3.694   0.770
 4600SOL    HW114699   2.343   3.640   0.850
 4600SOL    HW214700   2.290   3.753   0.745
 4601SOL     OW14701   1.901   5.288   3.346
 4601SOL    HW114702   1.923   5.204   3.395
 4601SOL    HW214703   1.893   5.364   3.410
 4602SOL     OW14704   1.684   0.056   1.773
 4602SOL    HW114705   1.667   0.052   1.675
 4602SOL    HW214706   1.689   0.151   1.802
 4603SOL     OW14707   3.046   1.569   1.713
 4603SOL    HW114708   3.004   1.482   1.738
 4603SOL    HW214709   3.049   1.629   1.793
 4604SOL     OW14710   1.308   6.963   3.204
 4604SOL    HW114711   1.338   0.006   3.277
 4604SOL    HW214712   1.383   6.949   3.140
 4605SOL     OW14713   5.534   6.718   5.478
 4605SOL    HW114714   5.621   6.715   5.427
 4605SOL    HW214715   5.465   6.762   5.421
 4606SOL     OW14716   6.194   6.329   4.395
 4606SOL    HW114717   6.256   6.394   4.352
 4606SOL    HW214718   6.245   6.270   4.457
 4607SOL     OW14719   3.041   3.472   0.735
 4607SOL    HW114720   3.085   3.384   0.720
 4607SOL    HW214721   2.975   3.465   0.810
 4608SOL     OW14722   1.547   3.289   6.084
 4608SOL    HW114723   1.593   3.373   6.113
 4608SOL    HW214724   1.583   3.211   6.136
 4609SOL     OW14725   3.188   0.176   0.426
 4609SOL    HW114726   3.280   0.206   0.399
 4609SOL    HW214727   3.147   0.244   0.487
 4610SOL     OW14728   6.755   3.730   0.474
 4610SOL    HW114729   6.809   3.734   0.558
 4610SOL    HW214730   6.750   3.635   0.442
 4611SOL     OW14731   1.803   5.120   6.464
 4611SOL    HW114732   1.850   5.054   6.405
 4611SOL    HW214733   1.834   5.109   6.558
 4612SOL     OW14734   1.474   0.947   6.711
 4612SOL    HW114735   1.431   0.857   6.722
 4612SOL    HW214736   1.494   0.962   6.614
 4613SOL     OW14737   3.973   4.809   1.445
 4613SOL    HW114738   3.950   4.882   1.381
 4613SOL    HW214739   4.010   4.731   1.395
 4614SOL     OW14740   2.022   4.279   0.206
 4614SOL    HW114741   2.059   4.300   0.115
 4614SOL    HW214742   2.069   4.198   0.243
 4615SOL     OW14743   5.867   3.109   6.345
 4615SOL    HW114744   5.860   3.188   6.406
 4615SOL    HW214745   5.923   3.038   6.388
 4616SOL     OW14746   5.513   0.658   6.854
 4616SOL    HW114747   5.416   0.681   6.848
 4616SOL    HW214748   5.563   0.706   6.782
 4617SOL     OW14749   0.326   4.034   1.439
 4617SOL    HW114750   0.319   3.986   1.526
 4617SOL    HW214751   0.423   4.053   1.419
 4618SOL     OW14752   1.177   3.377   6.372
 4618SOL    HW114753   1.221   3.353   6.458
 4618SOL    HW214754   1.169   3.296   6.314
 4619SOL     OW14755   4.130   1.077   3.959
 4619SOL    HW114756   4.145   0.981   3.981
 4619SOL    HW214757   4.056   1.084   3.892
 4620SOL     OW14758   1.835   6.077   0.387
 4620SOL    HW114759   1.879   6.130   0.460
 4620SOL    HW214760   1.772   6.011   0.428
 4621SOL     OW14761   6.707   0.695   6.668
 4621SOL    HW114762   6.608   0.689   6.656
 4621SOL    HW214763   6.752   0.683   6.580
 4622SOL     OW14764   1.629   4.597   0.294
 4622SOL    HW114765   1.601   4.502   0.291
 4622SOL    HW214766   1.726   4.603   0.318
 4623SOL     OW14767   5.451   3.251   3.831
 4623SOL    HW114768   5.370   3.197   3.852
 4623SOL    HW214769   5.450   3.276   3.734
 4624SOL     OW14770   4.430   6.328   5.952
 4624SOL    HW114771   4.399   6.385   5.876
 4624SOL    HW214772   4.525   6.350   5.973
 4625SOL     OW14773   1.319   4.338   6.301
 4625SOL    HW114774   1.332   4.343   6.202
 4625SOL    HW214775   1.316   4.242   6.329
 4626SOL     OW14776   6.133   4.382   2.140
 4626SOL    HW114777   6.141   4.330   2.055
 4626SOL    HW214778   6.038   4.377   2.172
 4627SOL     OW14779   2.026   0.074   4.710
 4627SOL    HW114780   2.074   7.014   4.671
 4627SOL    HW214781   1.985   0.048   4.797
 4628SOL     OW14782   6.474   2.693   2.158
 4628SOL    HW114783   6.508   2.667   2.067
 4628SOL    HW214784   6.547   2.681   2.226
 4629SOL     OW14785   4.236   5.135   3.976
 4629SOL    HW114786   4.321   5.098   3.938
 4629SOL    HW214787   4.179   5.059   4.010
 4630SOL     OW14788   2.836   6.210   2.576
 4630SOL    HW114789   2.745   6.172   2.596
 4630SOL    HW214790   2.839   6.240   2.480
 4631SOL     OW14791   1.826   1.184   2.403
 4631SOL    HW114792   1.909   1.226   2.366
 4631SOL    HW214793   1.749   1.204   2.343
 4632SOL     OW14794   5.699   6.010   3.833
 4632SOL    HW114795   5.640   5.938   3.797
 4632SOL    HW214796   5.794   5.992   3.808
 4633SOL     OW14797   4.917   2.761   6.519
 4633SOL    HW114798   4.884   2.852   6.542
 4633SOL    HW214799   4.989   2.734   6.583
 4634SOL     OW14800   2.640   3.810   0.869
 4634SOL    HW114801   2.551   3.775   0.839
 4634SOL    HW214802   2.706   3.803   0.795
 4635SOL     OW14803   4.902   3.354   1.625
 4635SOL    HW114804   4.918   3.303   1.710
 4635SOL    HW214805   4.931   3.298   1.547
 4636SOL     OW14806   1.250   5.097   2.313
 4636SOL    HW114807   1.258   5.135   2.221
 4636SOL    HW214808   1.155   5.072   2.331
 4637SOL     OW14809   0.594   1.006   5.672
 4637SOL    HW114810   0.689   1.011   5.704
 4637SOL    HW214811   0.591   1.023   5.574
 4638SOL     OW14812   4.407   4.784   5.549
 4638SOL    HW114813   4.423   4.685   5.558
 4638SOL    HW214814   4.311   4.799   5.525
 4639SOL     OW14815   6.850   2.298   5.593
 4639SOL    HW114816   6.793   2.256   5.522
 4639SOL    HW214817   6.804   2.380   5.628
 4640SOL     OW14818   6.559   5.290   3.001
 4640SOL    HW114819   6.647   5.336   3.013
 4640SOL    HW214820   6.502   5.345   2.940
 4641SOL     OW14821   2.388   3.896   5.418
 4641SOL    HW114822   2.289   3.890   5.405
 4641SOL    HW214823   2.428   3.947   5.342
 4642SOL     OW14824   5.631   5.518   4.705
 4642SOL    HW114825   5.663   5.590   4.643
 4642SOL    HW214826   5.545   5.547   4.747
 4643SOL     OW14827   4.655   3.836   1.386
 4643SOL    HW114828   4.675   3.744   1.419
 4643SOL    HW214829   4.560   3.859   1.408
 4644SOL     OW14830   3.284   4.998   5.553
 4644SOL    HW114831   3.348   5.068   5.585
 4644SOL    HW214832   3.238   5.030   5.470
 4645SOL     OW14833   1.687   6.304   4.571
 4645SOL    HW114834   1.738   6.240   4.628
 4645SOL    HW214835   1.606   6.259   4.534
 4646SOL     OW14836   3.401   1.208   0.987
 4646SOL    HW114837   3.317   1.251   1.022
 4646SOL    HW214838   3.408   1.224   0.889
 4647SOL     OW14839   6.454   0.668   5.242
 4647SOL    HW114840   6.386   0.601   5.211
 4647SOL    HW214841   6.546   0.628   5.236
 4648SOL     OW14842   2.662   6.240   3.489
 4648SOL    HW114843   2.737   6.301   3.462
 4648SOL    HW214844   2.613   6.209   3.407
 4649SOL     OW14845   5.794   5.516   5.606
 4649SOL    HW114846   5.857   5.586   5.639
 4649SOL    HW214847   5.754   5.546   5.519
 4650SOL     OW14848   6.300   4.642   1.466
 4650SOL    HW114849   6.294   4.568   1.533
 4650SOL    HW214850   6.395   4.655   1.438
 4651SOL     OW14851   5.772   2.169   2.015
 4651SOL    HW114852   5.676   2.152   1.993
 4651SOL    HW214853   5.821   2.082   2.022
 4652SOL     OW14854   0.158   5.900   5.456
 4652SOL    HW114855   0.064   5.869   5.444
 4652SOL    HW214856   0.215   5.863   5.382
 4653SOL     OW14857   1.681   4.875   0.189
 4653SOL    HW114858   1.724   4.792   0.226
 4653SOL    HW214859   1.592   4.852   0.149
 4654SOL     OW14860   1.541   1.994   0.691
 4654SOL    HW114861   1.456   1.969   0.737
 4654SOL    HW214862   1.577   1.915   0.642
 4655SOL     OW14863   0.566   4.985   4.278
 4655SOL    HW114864   0.516   4.912   4.232
 4655SOL    HW214865   0.658   4.992   4.238
 4656SOL     OW14866   2.851   0.845   3.096
 4656SOL    HW114867   2.752   0.827   3.097
 4656SOL    HW214868   2.868   0.933   3.051
 4657SOL     OW14869   6.515   0.655   5.905
 4657SOL    HW114870   6.482   0.632   5.996
 4657SOL    HW214871   6.601   0.606   5.887
 4658SOL     OW14872   5.440   0.312   3.278
 4658SOL    HW114873   5.460   0.403   3.244
 4658SOL    HW214874   5.375   0.267   3.217
 4659SOL     OW14875   2.140   3.502   4.299
 4659SOL    HW114876   2.050   3.523   4.337
 4659SOL    HW214877   2.190   3.443   4.362
 4660SOL     OW14878   6.544   1.320   4.962
 4660SOL    HW114879   6.631   1.366   4.942
 4660SOL    HW214880   6.539   1.235   4.911
 4661SOL     OW14881   3.512   2.927   3.916
 4661SOL    HW114882   3.561   3.013   3.902
 4661SOL    HW214883   3.508   2.876   3.830
 4662SOL     OW14884   6.258   6.719   4.685
 4662SOL    HW114885   6.326   6.663   4.636
 4662SOL    HW214886   6.275   6.816   4.665
 4663SOL     OW14887   0.817   2.178   2.402
 4663SOL    HW114888   0.873   2.102   2.433
 4663SOL    HW214889   0.874   2.243   2.352
 4664SOL     OW14890   3.754   4.517   0.109
 4664SOL    HW114891   3.753   4.421   0.079
 4664SOL    HW214892   3.671   4.535   0.162
 4665SOL     OW14893   5.883   0.455   5.813
 4665SOL    HW114894   5.892   0.553   5.830
 4665SOL    HW214895   5.956   0.406   5.862
 4666SOL     OW14896   1.792   1.308   0.553
 4666SOL    HW114897   1.760   1.213   0.564
 4666SOL    HW214898   1.882   1.318   0.594
 4667SOL     OW14899   0.392   6.461   4.266
 4667SOL    HW114900   0.400   6.503   4.356
 4667SOL    HW214901   0.295   6.447   4.245
 4668SOL     OW14902   5.731   0.791   4.910
 4668SOL    HW114903   5.794   0.717   4.936
 4668SOL    HW214904   5.780   0.878   4.908
 4669SOL     OW14905   2.418   1.754   2.685
 4669SOL    HW114906   2.403   1.848   2.718
 4669SOL    HW214907   2.503   1.751   2.632
 4670SOL     OW14908   2.482   1.771   4.645
 4670SOL    HW114909   2.553   1.702   4.635
 4670SOL    HW214910   2.397   1.728   4.676
 4671SOL     OW14911   6.072   1.847   2.545
 4671SOL    HW114912   6.171   1.839   2.549
 4671SOL    HW214913   6.046   1.931   2.497
 4672SOL     OW14914   2.883   2.199   5.132
 4672SOL    HW114915   2.832   2.264   5.077
 4672SOL    HW214916   2.974   2.236   5.152
 4673SOL     OW14917   5.271   0.436   2.173
 4673SOL    HW114918   5.177   0.404   2.186
 4673SOL    HW214919   5.306   0.402   2.086
 4674SOL     OW14920   4.437   6.424   5.502
 4674SOL    HW114921   4.526   6.470   5.504
 4674SOL    HW214922   4.364   6.492   5.509
 4675SOL     OW14923   0.930   4.222   6.697
 4675SOL    HW114924   0.885   4.308   6.719
 4675SOL    HW214925   1.008   4.208   6.758
 4676SOL     OW14926   1.246   4.744   3.777
 4676SOL    HW114927   1.310   4.675   3.743
 4676SOL    HW214928   1.203   4.790   3.699
 4677SOL     OW14929   1.110   3.740   0.677
 4677SOL    HW114930   1.207   3.717   0.686
 4677SOL    HW214931   1.089   3.759   0.581
 4678SOL     OW14932   1.384   2.383   1.385
 4678SOL    HW114933   1.290   2.411   1.363
 4678SOL    HW214934   1.389   2.357   1.481
 4679SOL     OW14935   4.804   0.495   2.187
 4679SOL    HW114936   4.714   0.457   2.210
 4679SOL    HW214937   4.874   0.427   2.207
 4680SOL     OW14938   2.707   0.743   6.850
 4680SOL    HW114939   2.785   0.685   6.876
 4680SOL    HW214940   2.736   0.838   6.845
 4681SOL     OW14941   4.824   5.683   2.354
 4681SOL    HW114942   4.759   5.636   2.414
 4681SOL    HW214943   4.782   5.697   2.264
 4682SOL     OW14944   3.672   2.801   6.101
 4682SOL    HW114945   3.725   2.862   6.160
 4682SOL    HW214946   3.599   2.853   6.057
 4683SOL     OW14947   6.779   4.179   4.515
 4683SOL    HW114948   6.827   4.170   4.603
 4683SOL    HW214949   6.814   4.110   4.451
 4684SOL     OW14950   5.413   0.344   5.746
 4684SOL    HW114951   5.354   0.295   5.682
 4684SOL    HW214952   5.493   0.380   5.698
 4685SOL     OW14953   3.151   4.095   3.942
 4685SOL    HW114954   3.081   4.065   3.876
 4685SOL    HW214955   3.141   4.044   4.027
 4686SOL     OW14956   1.223   6.920   6.753
 4686SOL    HW114957   1.176   6.837   6.724
 4686SOL    HW214958   1.314   6.924   6.710
 4687SOL     OW14959   1.129   0.532   2.576
 4687SOL    HW114960   1.073   0.474   2.516
 4687SOL    HW214961   1.074   0.564   2.653
 4688SOL     OW14962   4.780   2.934   4.839
 4688SOL    HW114963   4.797   3.016   4.894
 4688SOL    HW214964   4.749   2.860   4.899
 4689SOL     OW14965   6.910   0.912   1.247
 4689SOL    HW114966   6.987   0.921   1.310
 4689SOL    HW214967   6.911   0.989   1.182
 4690SOL     OW14968   3.668   2.357   1.313
 4690SOL    HW114969   3.641   2.451   1.333
 4690SOL    HW214970   3.766   2.355   1.292
 4691SOL     OW14971   6.381   3.567   1.916
 4691SOL    HW114972   6.299   3.600   1.963
 4691SOL    HW214973   6.365   3.474   1.883
 4692SOL     OW14974   5.734   2.724   3.125
 4692SOL    HW114975   5.699   2.659   3.058
 4692SOL    HW214976   5.698   2.701   3.216
 4693SOL     OW14977   6.759   0.280   4.179
 4693SOL    HW114978   6.686   0.299   4.244
 4693SOL    HW214979   6.803   0.193   4.202
 4694SOL     OW14980   2.150   6.627   5.852
 4694SOL    HW114981   2.055   6.596   5.850
 4694SOL    HW214982   2.209   6.555   5.815
 4695SOL     OW14983   2.024   4.851   1.888
 4695SOL    HW114984   2.114   4.807   1.898
 4695SOL    HW214985   2.028   4.943   1.925
 4696SOL     OW14986   2.167   6.261   6.234
 4696SOL    HW114987   2.095   6.323   6.205
 4696SOL    HW214988   2.238   6.256   6.163
 4697SOL     OW14989   4.580   5.760   1.168
 4697SOL    HW114990   4.581   5.853   1.203
 4697SOL    HW214991   4.523   5.703   1.227
 4698SOL     OW14992   5.181   1.526   4.590
 4698SOL    HW114993   5.186   1.611   4.539
 4698SOL    HW214994   5.090   1.485   4.578
 4699SOL     OW14995   0.925   1.600   2.777
 4699SOL    HW114996   0.961   1.526   2.834
 4699SOL    HW214997   0.830   1.580   2.753
 4700SOL     OW14998   6.977   1.954   3.750
 4700SOL    HW114999   6.941   1.972   3.658
 4700SOL    HW215000   0.034   2.015   3.769
 4701SOL     OW15001   3.073   2.511   1.619
 4701SOL    HW115002   3.042   2.488   1.711
 4701SOL    HW215003   3.012   2.580   1.579
 4702SOL     OW15004   6.216   5.018   1.236
 4702SOL    HW115005   6.237   5.002   1.332
 4702SOL    HW215006   6.204   4.930   1.189
 4703SOL     OW15007   0.089   4.740   3.936
 4703SOL    HW115008   0.011   4.760   3.995
 4703SOL    HW215009   0.138   4.660   3.972
 4704SOL     OW15010   1.675   4.789   4.716
 4704SOL    HW115011   1.753   4.839   4.678
 4704SOL    HW215012   1.602   4.853   4.738
 4705SOL     OW15013   3.301   2.085   1.526
 4705SOL    HW115014   3.219   2.142   1.517
 4705SOL    HW215015   3.294   2.007   1.464
 4706SOL     OW15016   1.691   1.885   0.927
 4706SOL    HW115017   1.633   1.932   0.861
 4706SOL    HW215018   1.762   1.833   0.878
 4707SOL     OW15019   1.826   5.361   2.406
 4707SOL    HW115020   1.885   5.420   2.351
 4707SOL    HW215021   1.779   5.416   2.475
 4708SOL     OW15022   2.029   2.804   6.500
 4708SOL    HW115023   1.966   2.780   6.574
 4708SOL    HW215024   2.086   2.882   6.528
 4709SOL     OW15025   5.618   3.685   4.915
 4709SOL    HW115026   5.526   3.657   4.942
 4709SOL    HW215027   5.667   3.717   4.996
 4710SOL     OW15028   5.799   5.147   5.369
 4710SOL    HW115029   5.724   5.208   5.396
 4710SOL    HW215030   5.762   5.068   5.320
 4711SOL     OW15031   4.850   4.403   2.865
 4711SOL    HW115032   4.943   4.400   2.902
 4711SOL    HW215033   4.821   4.310   2.842
 4712SOL     OW15034   3.974   4.880   6.129
 4712SOL    HW115035   3.995   4.978   6.136
 4712SOL    HW215036   3.972   4.853   6.033
 4713SOL     OW15037   5.080   4.814   1.124
 4713SOL    HW115038   5.104   4.717   1.118
 4713SOL    HW215039   5.133   4.857   1.197
 4714SOL     OW15040   4.594   1.907   6.148
 4714SOL    HW115041   4.553   1.818   6.165
 4714SOL    HW215042   4.687   1.896   6.114
 4715SOL     OW15043   6.721   1.730   2.050
 4715SOL    HW115044   6.627   1.742   2.018
 4715SOL    HW215045   6.764   1.653   2.003
 4716SOL     OW15046   3.789   4.544   5.851
 4716SOL    HW115047   3.706   4.599   5.859
 4716SOL    HW215048   3.777   4.458   5.900
 4717SOL     OW15049   1.960   4.928   6.315
 4717SOL    HW115050   1.920   4.838   6.304
 4717SOL    HW215051   1.983   4.965   6.225
 4718SOL     OW15052   4.846   3.672   2.742
 4718SOL    HW115053   4.862   3.739   2.670
 4718SOL    HW215054   4.802   3.591   2.703
 4719SOL     OW15055   6.120   3.997   4.252
 4719SOL    HW115056   6.041   3.957   4.207
 4719SOL    HW215057   6.200   3.991   4.192
 4720SOL     OW15058   0.750   1.813   6.204
 4720SOL    HW115059   0.740   1.902   6.248
 4720SOL    HW215060   0.663   1.785   6.165
 4721SOL     OW15061   0.604   2.959   2.753
 4721SOL    HW115062   0.578   2.902   2.831
 4721SOL    HW215063   0.526   3.015   2.725
 4722SOL     OW15064   1.801   5.230   5.856
 4722SOL    HW115065   1.798   5.330   5.848
 4722SOL    HW215066   1.767   5.203   5.947
 4723SOL     OW15067   3.068   4.375   5.993
 4723SOL    HW115068   3.081   4.431   6.075
 4723SOL    HW215069   3.078   4.432   5.912
 4724SOL     OW15070   0.342   0.387   4.276
 4724SOL    HW115071   0.303   0.471   4.237
 4724SOL    HW215072   0.390   0.408   4.361
 4725SOL     OW15073   6.211   5.380   1.462
 4725SOL    HW115074   6.186   5.439   1.385
 4725SOL    HW215075   6.135   5.376   1.527
 4726SOL     OW15076   1.758   2.800   6.081
 4726SOL    HW115077   1.788   2.748   6.161
 4726SOL    HW215078   1.816   2.778   6.003
 4727SOL     OW15079   6.076   5.802   1.575
 4727SOL    HW115080   5.978   5.786   1.563
 4727SOL    HW215081   6.105   5.878   1.516
 4728SOL     OW15082   4.303   0.835   3.476
 4728SOL    HW115083   4.370   0.908   3.468
 4728SOL    HW215084   4.298   0.805   3.571
 4729SOL     OW15085   0.351   1.456   2.837
 4729SOL    HW115086   0.350   1.432   2.934
 4729SOL    HW215087   0.269   1.508   2.814
 4730SOL     OW15088   2.909   0.769   3.675
 4730SOL    HW115089   2.820   0.796   3.711
 4730SOL    HW215090   2.901   0.750   3.577
 4731SOL     OW15091   3.374   6.814   2.447
 4731SOL    HW115092   3.303   6.745   2.436
 4731SOL    HW215093   3.437   6.810   2.369
 4732SOL     OW15094   0.114   4.922   4.742
 4732SOL    HW115095   0.196   4.866   4.750
 4732SOL    HW215096   0.036   4.874   4.782
 4733SOL     OW15097   2.195   3.948   3.195
 4733SOL    HW115098   2.220   3.854   3.175
 4733SOL    HW215099   2.102   3.965   3.164
 4734SOL     OW15100   4.793   4.338   6.367
 4734SOL    HW115101   4.700   4.341   6.404
 4734SOL    HW215102   4.789   4.336   6.267
 4735SOL     OW15103   6.891   0.871   5.449
 4735SOL    HW115104   6.890   0.789   5.507
 4735SOL    HW215105   6.974   0.872   5.394
 4736SOL     OW15106   6.301   0.319   4.956
 4736SOL    HW115107   6.302   0.304   5.055
 4736SOL    HW215108   6.321   0.415   4.936
 4737SOL     OW15109   2.256   5.328   0.117
 4737SOL    HW115110   2.206   5.387   0.180
 4737SOL    HW215111   2.353   5.327   0.143
 4738SOL     OW15112   0.120   5.742   3.340
 4738SOL    HW115113   0.169   5.662   3.304
 4738SOL    HW215114   0.182   5.793   3.400
 4739SOL     OW15115   6.027   3.603   3.071
 4739SOL    HW115116   6.101   3.567   3.015
 4739SOL    HW215117   5.966   3.529   3.099
 4740SOL     OW15118   1.898   6.433   0.821
 4740SOL    HW115119   1.819   6.392   0.867
 4740SOL    HW215120   1.909   6.528   0.851
 4741SOL     OW15121   5.741   4.815   1.649
 4741SOL    HW115122   5.648   4.779   1.654
 4741SOL    HW215123   5.774   4.836   1.741
 4742SOL     OW15124   2.091   5.549   2.270
 4742SOL    HW115125   2.017   5.558   2.202
 4742SOL    HW215126   2.177   5.529   2.223
 4743SOL     OW15127   2.541   3.813   0.557
 4743SOL    HW115128   2.637   3.785   0.552
 4743SOL    HW215129   2.492   3.753   0.620
 4744SOL     OW15130   2.889   1.446   5.957
 4744SOL    HW115131   2.939   1.514   6.010
 4744SOL    HW215132   2.817   1.492   5.904
 4745SOL     OW15133   4.505   5.814   4.269
 4745SOL    HW115134   4.499   5.798   4.170
 4745SOL    HW215135   4.429   5.768   4.315
 4746SOL     OW15136   5.676   1.462   0.887
 4746SOL    HW115137   5.678   1.561   0.902
 4746SOL    HW215138   5.706   1.415   0.969
 4747SOL     OW15139   1.102   2.570   2.186
 4747SOL    HW115140   1.126   2.663   2.211
 4747SOL    HW215141   1.026   2.572   2.120
 4748SOL     OW15142   2.317   6.360   0.309
 4748SOL    HW115143   2.363   6.448   0.303
 4748SOL    HW215144   2.377   6.289   0.271
 4749SOL     OW15145   3.452   1.157   7.013
 4749SOL    HW115146   3.486   1.178   6.921
 4749SOL    HW215147   3.352   1.159   7.012
 4750SOL     OW15148   0.614   2.003   4.892
 4750SOL    HW115149   0.545   2.066   4.856
 4750SOL    HW215150   0.603   1.996   4.991
 4751SOL     OW15151   1.237   4.261   6.788
 4751SOL    HW115152   1.275   4.312   6.711
 4751SOL    HW215153   1.223   4.323   6.865
 4752SOL     OW15154   1.872   6.115   1.261
 4752SOL    HW115155   1.874   6.213   1.279
 4752SOL    HW215156   1.781   6.079   1.282
 4753SOL     OW15157   0.316   0.684   6.216
 4753SOL    HW115158   0.328   0.631   6.132
 4753SOL    HW215159   0.295   0.622   6.292
 4754SOL     OW15160   1.396   1.132   6.321
 4754SOL    HW115161   1.327   1.068   6.355
 4754SOL    HW215162   1.381   1.222   6.361
 4755SOL     OW15163   2.916   0.147   2.942
 4755SOL    HW115164   2.905   0.165   3.040
 4755SOL    HW215165   2.994   0.086   2.928
 4756SOL     OW15166   5.799   2.167   0.829
 4756SOL    HW115167   5.733   2.093   0.844
 4756SOL    HW215168   5.765   2.229   0.759
 4757SOL     OW15169   2.652   2.807   0.685
 4757SOL    HW115170   2.651   2.718   0.640
 4757SOL    HW215171   2.682   2.796   0.780
 4758SOL     OW15172   6.352   3.849   6.585
 4758SOL    HW115173   6.303   3.902   6.654
 4758SOL    HW215174   6.402   3.911   6.524
 4759SOL     OW15175   0.053   4.190   6.511
 4759SOL    HW115176   0.045   4.147   6.421
 4759SOL    HW215177   0.044   4.289   6.502
 4760SOL     OW15178   0.755   2.707   0.200
 4760SOL    HW115179   0.702   2.682   0.282
 4760SOL    HW215180   0.843   2.745   0.228
 4761SOL     OW15181   3.035   6.226   6.602
 4761SOL    HW115182   3.029   6.128   6.586
 4761SOL    HW215183   2.954   6.271   6.565
 4762SOL     OW15184   3.699   0.133   2.545
 4762SOL    HW115185   3.660   0.155   2.634
 4762SOL    HW215186   3.775   0.069   2.557
 4763SOL     OW15187   4.887   4.975   4.805
 4763SOL    HW115188   4.913   4.880   4.822
 4763SOL    HW215189   4.934   5.035   4.869
 4764SOL     OW15190   3.474   3.445   3.924
 4764SOL    HW115191   3.486   3.538   3.888
 4764SOL    HW215192   3.486   3.446   4.023
 4765SOL     OW15193   6.037   5.702   6.149
 4765SOL    HW115194   5.942   5.682   6.173
 4765SOL    HW215195   6.098   5.651   6.210
 4766SOL     OW15196   2.950   1.482   3.377
 4766SOL    HW115197   2.857   1.451   3.397
 4766SOL    HW215198   3.003   1.485   3.462
 4767SOL     OW15199   4.569   0.680   6.939
 4767SOL    HW115200   4.538   0.660   0.013
 4767SOL    HW215201   4.532   0.768   6.910
 4768SOL     OW15202   1.739   0.815   5.811
 4768SOL    HW115203   1.798   0.895   5.800
 4768SOL    HW215204   1.736   0.764   5.726
 4769SOL     OW15205   4.715   0.604   1.683
 4769SOL    HW115206   4.783   0.677   1.683
 4769SOL    HW215207   4.761   0.515   1.689
 4770SOL     OW15208   2.414   1.358   3.864
 4770SOL    HW115209   2.474   1.428   3.904
 4770SOL    HW215210   2.334   1.345   3.924
 4771SOL     OW15211   4.139   4.567   6.055
 4771SOL    HW115212   4.067   4.541   6.120
 4771SOL    HW215213   4.098   4.614   5.977
 4772SOL     OW15214   3.713   2.774   0.005
 4772SOL    HW115215   3.694   2.731   6.936
 4772SOL    HW215216   3.785   2.723   0.052
 4773SOL     OW15217   6.846   4.948   5.049
 4773SOL    HW115218   6.840   5.047   5.064
 4773SOL    HW215219   6.756   4.907   5.062
 4774SOL     OW15220   1.772   4.441   6.872
 4774SOL    HW115221   1.761   4.346   6.843
 4774SOL    HW215222   1.738   4.451   6.966
 4775SOL     OW15223   1.930   2.977   2.195
 4775SOL    HW115224   1.915   2.960   2.292
 4775SOL    HW215225   2.025   3.006   2.181
 4776SOL     OW15226   4.171   5.310   1.837
 4776SOL    HW115227   4.243   5.331   1.903
 4776SOL    HW215228   4.206   5.247   1.767
 4777SOL     OW15229   1.859   4.412   1.220
 4777SOL    HW115230   1.836   4.355   1.141
 4777SOL    HW215231   1.802   4.385   1.298
 4778SOL     OW15232   5.147   3.388   2.592
 4778SOL    HW115233   5.209   3.406   2.516
 4778SOL    HW215234   5.095   3.305   2.574
 4779SOL     OW15235   5.533   1.427   2.839
 4779SOL    HW115236   5.607   1.463   2.782
 4779SOL    HW215237   5.453   1.486   2.830
 4780SOL     OW15238   1.750   1.762   5.459
 4780SOL    HW115239   1.737   1.752   5.360
 4780SOL    HW215240   1.719   1.853   5.488
 4781SOL     OW15241   2.653   5.386   2.800
 4781SOL    HW115242   2.553   5.385   2.800
 4781SOL    HW215243   2.686   5.429   2.884
 4782SOL     OW15244   6.092   6.248   7.016
 4782SOL    HW115245   6.104   6.227   0.094
 4782SOL    HW215246   6.096   6.164   6.963
 4783SOL     OW15247   5.858   4.163   3.156
 4783SOL    HW115248   5.849   4.088   3.091
 4783SOL    HW215249   5.789   4.154   3.228
 4784SOL     OW15250   5.247   4.554   4.697
 4784SOL    HW115251   5.265   4.642   4.741
 4784SOL    HW215252   5.306   4.544   4.617
 4785SOL     OW15253   5.599   6.251   0.730
 4785SOL    HW115254   5.513   6.211   0.700
 4785SOL    HW215255   5.665   6.179   0.751
 4786SOL     OW15256   1.568   4.099   2.428
 4786SOL    HW115257   1.505   4.022   2.440
 4786SOL    HW215258   1.659   4.074   2.462
 4787SOL     OW15259   3.861   2.175   2.684
 4787SOL    HW115260   3.888   2.214   2.772
 4787SOL    HW215261   3.943   2.156   2.630
 4788SOL     OW15262   2.296   0.499   4.543
 4788SOL    HW115263   2.249   0.533   4.462
 4788SOL    HW215264   2.233   0.440   4.595
 4789SOL     OW15265   5.296   5.973   0.146
 4789SOL    HW115266   5.345   5.887   0.162
 4789SOL    HW215267   5.240   5.995   0.226
 4790SOL     OW15268   5.271   6.800   6.606
 4790SOL    HW115269   5.327   6.853   6.542
 4790SOL    HW215270   5.176   6.797   6.573
 4791SOL     OW15271   4.304   2.358   3.217
 4791SOL    HW115272   4.369   2.318   3.151
 4791SOL    HW215273   4.311   2.458   3.214
 4792SOL     OW15274   3.224   3.228   0.763
 4792SOL    HW115275   3.262   3.161   0.827
 4792SOL    HW215276   3.199   3.182   0.678
 4793SOL     OW15277   0.536   0.662   0.204
 4793SOL    HW115278   0.571   0.755   0.191
 4793SOL    HW215279   0.469   0.661   0.278
 4794SOL     OW15280   5.610   0.959   1.942
 4794SOL    HW115281   5.667   0.915   2.012
 4794SOL    HW215282   5.666   1.021   1.888
 4795SOL     OW15283   5.838   2.703   4.333
 4795SOL    HW115284   5.843   2.801   4.355
 4795SOL    HW215285   5.876   2.688   4.242
 4796SOL     OW15286   4.957   3.713   0.184
 4796SOL    HW115287   5.020   3.670   0.119
 4796SOL    HW215288   4.960   3.813   0.171
 4797SOL     OW15289   1.416   5.694   4.784
 4797SOL    HW115290   1.473   5.615   4.756
 4797SOL    HW215291   1.372   5.733   4.703
 4798SOL     OW15292   6.871   5.309   6.059
 4798SOL    HW115293   6.947   5.252   6.091
 4798SOL    HW215294   6.790   5.252   6.046
 4799SOL     OW15295   5.027   1.972   3.779
 4799SOL    HW115296   5.124   1.951   3.770
 4799SOL    HW215297   4.984   1.906   3.840
 4800SOL     OW15298   1.623   2.941   3.579
 4800SOL    HW115299   1.552   2.896   3.525
 4800SOL    HW215300   1.682   2.995   3.519
 4801SOL     OW15301   0.229   1.649   0.772
 4801SOL    HW115302   0.206   1.668   0.676
 4801SOL    HW215303   0.323   1.676   0.790
 4802SOL     OW15304   1.818   0.213   1.978
 4802SOL    HW115305   1.825   0.210   2.078
 4802SOL    HW215306   1.814   0.120   1.942
 4803SOL     OW15307   1.198   6.845   1.059
 4803SOL    HW115308   1.166   6.856   1.153
 4803SOL    HW215309   1.136   6.785   1.009
 4804SOL     OW15310   4.480   5.778   0.381
 4804SOL    HW115311   4.470   5.685   0.418
 4804SOL    HW215312   4.505   5.773   0.284
 4805SOL     OW15313   0.247   0.017   2.143
 4805SOL    HW115314   0.196   0.011   2.057
 4805SOL    HW215315   0.313   6.961   2.147
 4806SOL     OW15316   0.157   2.171   3.777
 4806SOL    HW115317   0.158   2.203   3.872
 4806SOL    HW215318   0.112   2.238   3.720
 4807SOL     OW15319   0.860   0.370   2.941
 4807SOL    HW115320   0.766   0.359   2.908
 4807SOL    HW215321   0.859   0.382   3.041
 4808SOL     OW15322   6.892   1.854   0.289
 4808SOL    HW115323   6.832   1.788   0.333
 4808SOL    HW215324   6.928   1.917   0.358
 4809SOL     OW15325   4.987   6.910   0.239
 4809SOL    HW115326   5.002   6.991   0.182
 4809SOL    HW215327   5.070   6.891   0.291
 4810SOL     OW15328   2.008   6.471   6.834
 4810SOL    HW115329   2.004   6.372   6.820
 4810SOL    HW215330   1.935   6.499   6.896
 4811SOL     OW15331   5.117   4.023   4.080
 4811SOL    HW115332   5.175   4.066   4.011
 4811SOL    HW215333   5.172   3.998   4.160
 4812SOL     OW15334   6.482   5.277   3.918
 4812SOL    HW115335   6.451   5.340   3.989
 4812SOL    HW215336   6.417   5.201   3.910
 4813SOL     OW15337   5.636   3.333   2.613
 4813SOL    HW115338   5.700   3.363   2.684
 4813SOL    HW215339   5.543   3.360   2.638
 4814SOL     OW15340   0.420   2.833   1.572
 4814SOL    HW115341   0.479   2.795   1.501
 4814SOL    HW215342   0.345   2.770   1.591
 4815SOL     OW15343   4.658   0.507   3.729
 4815SOL    HW115344   4.688   0.503   3.825
 4815SOL    HW215345   4.715   0.572   3.679
 4816SOL     OW15346   5.893   4.461   4.288
 4816SOL    HW115347   5.956   4.384   4.276
 4816SOL    HW215348   5.809   4.443   4.237
 4817SOL     OW15349   6.261   1.649   6.701
 4817SOL    HW115350   6.208   1.710   6.641
 4817SOL    HW215351   6.355   1.644   6.668
 4818SOL     OW15352   7.009   6.146   3.515
 4818SOL    HW115353   0.074   6.129   3.567
 4818SOL    HW215354   6.984   6.063   3.465
 4819SOL     OW15355   1.651   3.233   0.581
 4819SOL    HW115356   1.557   3.202   0.568
 4819SOL    HW215357   1.698   3.233   0.493
 4820SOL     OW15358   6.724   3.586   2.026
 4820SOL    HW115359   6.777   3.622   2.103
 4820SOL    HW215360   6.758   3.624   1.940
 4821SOL     OW15361   0.650   5.584   3.848
 4821SOL    HW115362   0.598   5.668   3.861
 4821SOL    HW215363   0.724   5.578   3.916
 4822SOL     OW15364   2.753   4.775   4.280
 4822SOL    HW115365   2.835   4.757   4.226
 4822SOL    HW215366   2.673   4.743   4.229
 4823SOL     OW15367   1.305   2.189   0.620
 4823SOL    HW115368   1.373   2.232   0.679
 4823SOL    HW215369   1.224   2.247   0.615
 4824SOL     OW15370   6.657   2.307   6.745
 4824SOL    HW115371   6.616   2.310   6.836
 4824SOL    HW215372   6.716   2.387   6.733
 4825SOL     OW15373   1.360   6.115   3.661
 4825SOL    HW115374   1.335   6.063   3.579
 4825SOL    HW215375   1.383   6.209   3.634
 4826SOL     OW15376   4.128   6.853   0.372
 4826SOL    HW115377   4.138   6.950   0.395
 4826SOL    HW215378   4.090   6.845   0.280
 4827SOL     OW15379   5.786   1.123   1.793
 4827SOL    HW115380   5.717   1.186   1.756
 4827SOL    HW215381   5.844   1.172   1.858
 4828SOL     OW15382   5.268   0.987   6.351
 4828SOL    HW115383   5.250   1.010   6.447
 4828SOL    HW215384   5.182   0.977   6.302
 4829SOL     OW15385   4.445   5.550   5.092
 4829SOL    HW115386   4.429   5.647   5.078
 4829SOL    HW215387   4.536   5.537   5.132
 4830SOL     OW15388   1.965   6.896   3.410
 4830SOL    HW115389   2.044   6.949   3.380
 4830SOL    HW215390   1.981   6.799   3.391
 4831SOL     OW15391   2.978   4.721   5.606
 4831SOL    HW115392   3.008   4.713   5.511
 4831SOL    HW215393   3.016   4.804   5.646
 4832SOL     OW15394   4.057   3.190   3.966
 4832SOL    HW115395   3.960   3.206   3.952
 4832SOL    HW215396   4.076   3.177   4.064
 4833SOL     OW15397   6.087   2.151   4.924
 4833SOL    HW115398   6.073   2.225   4.858
 4833SOL    HW215399   6.000   2.105   4.942
 4834SOL     OW15400   0.877   5.289   1.214
 4834SOL    HW115401   0.944   5.222   1.182
 4834SOL    HW215402   0.866   5.361   1.145
 4835SOL     OW15403   6.992   3.305   6.509
 4835SOL    HW115404   0.006   3.380   6.451
 4835SOL    HW215405   0.037   3.289   6.583
 4836SOL     OW15406   4.279   0.952   5.516
 4836SOL    HW115407   4.287   0.939   5.615
 4836SOL    HW215408   4.199   0.901   5.483
 4837SOL     OW15409   1.517   3.531   4.938
 4837SOL    HW115410   1.515   3.625   4.974
 4837SOL    HW215411   1.443   3.478   4.978
 4838SOL     OW15412   2.408   4.141   5.973
 4838SOL    HW115413   2.352   4.076   5.922
 4838SOL    HW215414   2.445   4.210   5.911
 4839SOL     OW15415   2.769   0.793   1.947
 4839SOL    HW115416   2.716   0.802   2.031
 4839SOL    HW215417   2.793   0.697   1.933
 4840SOL     OW15418   4.853   2.530   3.315
 4840SOL    HW115419   4.851   2.558   3.219
 4840SOL    HW215420   4.834   2.432   3.321
 4841SOL     OW15421   2.620   5.263   3.066
 4841SOL    HW115422   2.696   5.316   3.029
 4841SOL    HW215423   2.650   5.169   3.082
 4842SOL     OW15424   4.448   4.899   3.613
 4842SOL    HW115425   4.477   4.988   3.580
 4842SOL    HW215426   4.421   4.842   3.536
 4843SOL     OW15427   5.611   2.426   0.084
 4843SOL    HW115428   5.690   2.402   0.027
 4843SOL    HW215429   5.591   2.523   0.072
 4844SOL     OW15430   0.689   4.856   6.771
 4844SOL    HW115431   0.705   4.769   6.725
 4844SOL    HW215432   0.746   4.862   6.853
 4845SOL     OW15433   5.465   4.381   4.954
 4845SOL    HW115434   5.424   4.470   4.975
 4845SOL    HW215435   5.490   4.378   4.858
 4846SOL     OW15436   6.673   3.901   4.663
 4846SOL    HW115437   6.719   3.947   4.739
 4846SOL    HW215438   6.706   3.938   4.576
 4847SOL     OW15439   2.914   0.040   6.774
 4847SOL    HW115440   2.835   0.101   6.770
 4847SOL    HW215441   2.905   6.999   6.853
 4848SOL     OW15442   4.500   1.585   3.411
 4848SOL    HW115443   4.533   1.563   3.503
 4848SOL    HW215444   4.418   1.531   3.391
 4849SOL     OW15445   1.609   5.703   1.873
 4849SOL    HW115446   1.536   5.736   1.813
 4849SOL    HW215447   1.579   5.708   1.968
 4850SOL     OW15448   3.564   0.202   2.270
 4850SOL    HW115449   3.533   0.293   2.298
 4850SOL    HW215450   3.587   0.149   2.352
 4851SOL     OW15451   4.816   4.581   6.601
 4851SOL    HW115452   4.916   4.579   6.606
 4851SOL    HW215453   4.782   4.487   6.596
 4852SOL     OW15454   5.051   3.742   5.344
 4852SOL    HW115455   4.953   3.754   5.363
 4852SOL    HW215456   5.062   3.692   5.258
 4853SOL     OW15457   4.184   0.601   2.963
 4853SOL    HW115458   4.101   0.656   2.974
 4853SOL    HW215459   4.225   0.620   2.874
 4854SOL     OW15460   4.226   6.648   2.233
 4854SOL    HW115461   4.257   6.649   2.138
 4854SOL    HW215462   4.147   6.709   2.243
 4855SOL     OW15463   4.101   4.843   5.425
 4855SOL    HW115464   4.056   4.842   5.514
 4855SOL    HW215465   4.098   4.752   5.384
 4856SOL     OW15466   0.961   2.325   2.146
 4856SOL    HW115467   0.942   2.397   2.079
 4856SOL    HW215468   0.982   2.366   2.234
 4857SOL     OW15469   2.662   1.824   5.998
 4857SOL    HW115470   2.608   1.902   5.965
 4857SOL    HW215471   2.756   1.832   5.966
 4858SOL     OW15472   2.306   5.369   4.946
 4858SOL    HW115473   2.378   5.406   5.005
 4858SOL    HW215474   2.340   5.364   4.852
 4859SOL     OW15475   6.511   5.369   3.369
 4859SOL    HW115476   6.455   5.427   3.427
 4859SOL    HW215477   6.454   5.300   3.324
 4860SOL     OW15478   4.202   5.130   1.259
 4860SOL    HW115479   4.218   5.208   1.320
 4860SOL    HW215480   4.194   5.164   1.165
 4861SOL     OW15481   5.814   4.823   4.700
 4861SOL    HW115482   5.767   4.910   4.686
 4861SOL    HW215483   5.885   4.813   4.630
 4862SOL     OW15484   1.488   5.230   4.416
 4862SOL    HW115485   1.563   5.225   4.350
 4862SOL    HW215486   1.461   5.325   4.429
 4863SOL     OW15487   5.682   1.528   1.442
 4863SOL    HW115488   5.748   1.598   1.415
 4863SOL    HW215489   5.615   1.568   1.504
 4864SOL     OW15490   2.365   2.791   1.510
 4864SOL    HW115491   2.341   2.878   1.553
 4864SOL    HW215492   2.442   2.750   1.559
 4865SOL     OW15493   4.039   6.950   5.096
 4865SOL    HW115494   3.968   7.019   5.106
 4865SOL    HW215495   3.999   6.864   5.064
 4866SOL     OW15496   0.727   5.074   1.921
 4866SOL    HW115497   0.701   5.031   1.835
 4866SOL    HW215498   0.801   5.139   1.905
 4867SOL     OW15499   5.815   4.790   5.814
 4867SOL    HW115500   5.914   4.804   5.820
 4867SOL    HW215501   5.795   4.728   5.738
 4868SOL     OW15502   2.106   5.727   1.960
 4868SOL    HW115503   2.176   5.798   1.952
 4868SOL    HW215504   2.149   5.642   1.990
 4869SOL     OW15505   0.490   2.094   1.679
 4869SOL    HW115506   0.407   2.056   1.720
 4869SOL    HW215507   0.467   2.144   1.596
 4870SOL     OW15508   5.902   1.147   1.158
 4870SOL    HW115509   5.958   1.115   1.082
 4870SOL    HW215510   5.851   1.229   1.129
 4871SOL     OW15511   1.725   2.716   5.056
 4871SOL    HW115512   1.731   2.784   4.984
 4871SOL    HW215513   1.797   2.733   5.124
 4872SOL     OW15514   2.320   2.676   2.491
 4872SOL    HW115515   2.396   2.655   2.431
 4872SOL    HW215516   2.330   2.626   2.577
 4873SOL     OW15517   1.027   6.633   5.804
 4873SOL    HW115518   1.053   6.549   5.755
 4873SOL    HW215519   0.932   6.624   5.835
 4874SOL     OW15520   5.731   1.552   4.124
 4874SOL    HW115521   5.654   1.594   4.077
 4874SOL    HW215522   5.785   1.623   4.170
 4875SOL     OW15523   6.731   3.133   0.639
 4875SOL    HW115524   6.744   3.061   0.707
 4875SOL    HW215525   6.638   3.128   0.602
 4876SOL     OW15526   6.739   1.184   6.807
 4876SOL    HW115527   6.812   1.246   6.833
 4876SOL    HW215528   6.712   1.203   6.712
 4877SOL     OW15529   4.252   1.929   1.625
 4877SOL    HW115530   4.186   1.866   1.667
 4877SOL    HW215531   4.269   1.901   1.531
 4878SOL     OW15532   1.311   2.806   2.284
 4878SOL    HW115533   1.225   2.855   2.271
 4878SOL    HW215534   1.387   2.863   2.252
 4879SOL     OW15535   3.615   6.387   3.389
 4879SOL    HW115536   3.539   6.323   3.395
 4879SOL    HW215537   3.691   6.355   3.445
 4880SOL     OW15538   6.759   2.276   5.929
 4880SOL    HW115539   6.793   2.218   6.003
 4880SOL    HW215540   6.721   2.219   5.857
 4881SOL     OW15541   2.769   6.364   6.039
 4881SOL    HW115542   2.841   6.429   6.066
 4881SOL    HW215543   2.731   6.393   5.951
 4882SOL     OW15544   5.454   6.031   6.709
 4882SOL    HW115545   5.518   5.965   6.669
 4882SOL    HW215546   5.455   6.115   6.656
 4883SOL     OW15547   5.995   5.747   0.143
 4883SOL    HW115548   6.082   5.791   0.118
 4883SOL    HW215549   6.007   5.648   0.143
 4884SOL     OW15550   4.351   6.077   1.565
 4884SOL    HW115551   4.328   6.101   1.660
 4884SOL    HW215552   4.327   6.153   1.505
 4885SOL     OW15553   1.426   0.600   2.458
 4885SOL    HW115554   1.331   0.571   2.455
 4885SOL    HW215555   1.463   0.581   2.549
 4886SOL     OW15556   6.174   1.259   5.858
 4886SOL    HW115557   6.174   1.238   5.760
 4886SOL    HW215558   6.132   1.348   5.874
 4887SOL     OW15559   0.027   2.333   5.226
 4887SOL    HW115560   7.004   2.242   5.228
 4887SOL    HW215561   0.117   2.327   5.183
 4888SOL     OW15562   4.582   6.172   1.264
 4888SOL    HW115563   4.632   6.245   1.218
 4888SOL    HW215564   4.522   6.125   1.200
 4889SOL     OW15565   1.341   3.666   6.371
 4889SOL    HW115566   1.294   3.578   6.370
 4889SOL    HW215567   1.440   3.652   6.382
 4890SOL     OW15568   6.574   0.583   4.463
 4890SOL    HW115569   6.542   0.659   4.519
 4890SOL    HW215570   6.635   0.617   4.392
 4891SOL     OW15571   1.225   5.002   0.683
 4891SOL    HW115572   1.165   4.990   0.604
 4891SOL    HW215573   1.229   4.916   0.735
 4892SOL     OW15574   1.878   5.544   2.113
 4892SOL    HW115575   1.859   5.548   2.015
 4892SOL    HW215576   1.792   5.546   2.164
 4893SOL     OW15577   0.120   4.495   6.373
 4893SOL    HW115578   0.044   4.510   6.436
 4893SOL    HW215579   0.207   4.515   6.420
 4894SOL     OW15580   0.576   6.753   3.643
 4894SOL    HW115581   0.631   6.823   3.598
 4894SOL    HW215582   0.479   6.775   3.633
 4895SOL     OW15583   6.572   4.229   6.602
 4895SOL    HW115584   6.530   4.189   6.684
 4895SOL    HW215585   6.671   4.216   6.606
 4896SOL     OW15586   4.127   0.640   4.717
 4896SOL    HW115587   4.173   0.552   4.722
 4896SOL    HW215588   4.072   0.644   4.634
 4897SOL     OW15589   2.556   5.684   7.003
 4897SOL    HW115590   2.609   5.769   7.012
 4897SOL    HW215591   2.499   5.672   0.064
 4898SOL     OW15592   4.910   2.740   4.472
 4898SOL    HW115593   4.939   2.726   4.567
 4898SOL    HW215594   4.987   2.726   4.411
 4899SOL     OW15595   0.186   3.256   4.459
 4899SOL    HW115596   0.278   3.264   4.495
 4899SOL    HW215597   0.119   3.272   4.532
 4900SOL     OW15598   0.519   6.620   5.892
 4900SOL    HW115599   0.530   6.674   5.976
 4900SOL    HW215600   0.511   6.682   5.814
 4901SOL     OW15601   5.893   6.442   3.246
 4901SOL    HW115602   5.795   6.434   3.229
 4901SOL    HW215603   5.944   6.423   3.162
 4902SOL     OW15604   3.485   5.468   0.505
 4902SOL    HW115605   3.480   5.400   0.432
 4902SOL    HW215606   3.581   5.483   0.529
 4903SOL     OW15607   5.935   4.372   6.551
 4903SOL    HW115608   6.034   4.357   6.551
 4903SOL    HW215609   5.908   4.419   6.467
 4904SOL     OW15610   3.216   1.024   3.917
 4904SOL    HW115611   3.225   0.984   3.825
 4904SOL    HW215612   3.218   0.950   3.985
 4905SOL     OW15613   6.100   3.695   3.298
 4905SOL    HW115614   6.074   3.650   3.213
 4905SOL    HW215615   6.068   3.790   3.298
 4906SOL     OW15616   4.707   0.072   1.685
 4906SOL    HW115617   4.693   0.051   1.588
 4906SOL    HW215618   4.704   7.007   1.738
 4907SOL     OW15619   2.736   2.596   1.185
 4907SOL    HW115620   2.688   2.669   1.234
 4907SOL    HW215621   2.824   2.577   1.229
 4908SOL     OW15622   5.583   4.620   6.125
 4908SOL    HW115623   5.622   4.707   6.095
 4908SOL    HW215624   5.528   4.580   6.051
 4909SOL     OW15625   6.274   6.748   5.758
 4909SOL    HW115626   6.303   6.827   5.705
 4909SOL    HW215627   6.184   6.718   5.726
 4910SOL     OW15628   5.512   6.919   5.631
 4910SOL    HW115629   5.530   6.830   5.588
 4910SOL    HW215630   5.431   6.960   5.589
 4911SOL     OW15631   0.288   4.162   6.616
 4911SOL    HW115632   0.197   4.156   6.574
 4911SOL    HW215633   0.358   4.150   6.547
 4912SOL     OW15634   2.024   3.012   1.778
 4912SOL    HW115635   2.008   3.073   1.856
 4912SOL    HW215636   2.095   2.946   1.801
 4913SOL     OW15637   2.867   3.290   1.874
 4913SOL    HW115638   2.776   3.331   1.885
 4913SOL    HW215639   2.884   3.274   1.777
 4914SOL     OW15640   1.267   0.136   2.819
 4914SOL    HW115641   1.244   0.048   2.777
 4914SOL    HW215642   1.197   0.160   2.887
 4915SOL     OW15643   3.953   6.406   3.972
 4915SOL    HW115644   3.868   6.434   3.928
 4915SOL    HW215645   4.025   6.473   3.952
 4916SOL     OW15646   1.282   1.472   2.068
 4916SOL    HW115647   1.307   1.478   2.165
 4916SOL    HW215648   1.332   1.542   2.017
 4917SOL     OW15649   0.825   5.091   6.197
 4917SOL    HW115650   0.788   5.155   6.264
 4917SOL    HW215651   0.789   5.113   6.107
 4918SOL     OW15652   2.371   6.745   4.267
 4918SOL    HW115653   2.425   6.694   4.200
 4918SOL    HW215654   2.373   6.696   4.355
 4919SOL     OW15655   2.222   3.045   1.103
 4919SOL    HW115656   2.147   3.052   1.037
 4919SOL    HW215657   2.202   2.974   1.170
 4920SOL     OW15658   3.199   1.796   6.604
 4920SOL    HW115659   3.192   1.804   6.504
 4920SOL    HW215660   3.278   1.849   6.635
 4921SOL     OW15661   6.469   4.720   2.429
 4921SOL    HW115662   6.569   4.717   2.419
 4921SOL    HW215663   6.428   4.666   2.355
 4922SOL     OW15664   0.970   3.307   6.092
 4922SOL    HW115665   0.961   3.404   6.118
 4922SOL    HW215666   1.050   3.268   6.138
 4923SOL     OW15667   3.128   2.340   6.841
 4923SOL    HW115668   3.188   2.397   6.785
 4923SOL    HW215669   3.166   2.248   6.848
 4924SOL     OW15670   0.073   2.903   4.281
 4924SOL    HW115671   0.124   2.961   4.217
 4924SOL    HW215672   0.015   2.961   4.339
 4925SOL     OW15673   4.605   5.221   5.115
 4925SOL    HW115674   4.541   5.144   5.123
 4925SOL    HW215675   4.681   5.208   5.178
 4926SOL     OW15676   4.259   3.465   0.317
 4926SOL    HW115677   4.309   3.548   0.342
 4926SOL    HW215678   4.167   3.468   0.357
 4927SOL     OW15679   3.034   3.556   1.764
 4927SOL    HW115680   3.032   3.630   1.832
 4927SOL    HW215681   3.033   3.468   1.810
 4928SOL     OW15682   6.992   1.465   6.397
 4928SOL    HW115683   6.909   1.506   6.359
 4928SOL    HW215684   0.033   1.537   6.433
 4929SOL     OW15685   1.197   4.306   4.466
 4929SOL    HW115686   1.262   4.245   4.511
 4929SOL    HW215687   1.124   4.330   4.530
 4930SOL     OW15688   0.109   3.648   7.012
 4930SOL    HW115689   0.183   3.695   6.965
 4930SOL    HW215690   0.146   3.587   0.063
 4931SOL     OW15691   5.286   6.497   0.951
 4931SOL    HW115692   5.372   6.449   0.971
 4931SOL    HW215693   5.214   6.463   1.012
 4932SOL     OW15694   3.418   1.702   0.644
 4932SOL    HW115695   3.353   1.691   0.720
 4932SOL    HW215696   3.458   1.794   0.648
 4933SOL     OW15697   2.514   6.920   5.021
 4933SOL    HW115698   2.580   6.991   4.995
 4933SOL    HW215699   2.460   6.951   5.098
 4934SOL     OW15700   2.190   6.076   5.461
 4934SOL    HW115701   2.135   5.993   5.473
 4934SOL    HW215702   2.201   6.094   5.363
 4935SOL     OW15703   2.008   2.365   0.700
 4935SOL    HW115704   2.104   2.383   0.677
 4935SOL    HW215705   1.964   2.450   0.730
 4936SOL     OW15706   6.903   4.157   1.107
 4936SOL    HW115707   6.809   4.156   1.073
 4936SOL    HW215708   6.922   4.072   1.155
 4937SOL     OW15709   0.348   3.899   5.412
 4937SOL    HW115710   0.330   3.890   5.510
 4937SOL    HW215711   0.336   3.811   5.367
 4938SOL     OW15712   3.473   4.335   0.760
 4938SOL    HW115713   3.512   4.386   0.684
 4938SOL    HW215714   3.379   4.309   0.739
 4939SOL     OW15715   0.769   1.617   1.241
 4939SOL    HW115716   0.789   1.553   1.315
 4939SOL    HW215717   0.762   1.709   1.278
 4940SOL     OW15718   1.683   1.480   4.989
 4940SOL    HW115719   1.696   1.560   5.048
 4940SOL    HW215720   1.750   1.410   5.013
 4941SOL     OW15721   3.446   2.106   6.340
 4941SOL    HW115722   3.419   2.202   6.342
 4941SOL    HW215723   3.368   2.050   6.311
 4942SOL     OW15724   0.032   1.357   2.556
 4942SOL    HW115725   0.108   1.296   2.532
 4942SOL    HW215726   0.051   1.400   2.644
 4943SOL     OW15727   4.681   2.800   6.811
 4943SOL    HW115728   4.647   2.874   6.754
 4943SOL    HW215729   4.774   2.821   6.841
 4944SOL     OW15730   0.792   5.043   0.718
 4944SOL    HW115731   0.815   4.993   0.802
 4944SOL    HW215732   0.696   5.071   0.722
 4945SOL     OW15733   2.320   0.476   6.530
 4945SOL    HW115734   2.371   0.432   6.604
 4945SOL    HW215735   2.354   0.443   6.442
 4946SOL     OW15736   2.686   5.945   0.048
 4946SOL    HW115737   2.613   6.012   0.032
 4946SOL    HW215738   2.764   5.966   7.008
 4947SOL     OW15739   1.391   0.177   1.301
 4947SOL    HW115740   1.400   0.149   1.396
 4947SOL    HW215741   1.389   0.277   1.296
 4948SOL     OW15742   1.553   3.307   2.075
 4948SOL    HW115743   1.533   3.286   1.980
 4948SOL    HW215744   1.573   3.222   2.124
 4949SOL     OW15745   6.569   5.023   6.905
 4949SOL    HW115746   6.510   4.948   6.875
 4949SOL    HW215747   6.628   5.052   6.830
 4950SOL     OW15748   3.896   4.047   5.665
 4950SOL    HW115749   3.914   3.954   5.696
 4950SOL    HW215750   3.854   4.044   5.574
 4951SOL     OW15751   4.771   5.115   3.738
 4951SOL    HW115752   4.718   5.191   3.775
 4951SOL    HW215753   4.754   5.108   3.639
 4952SOL     OW15754   0.877   0.916   6.938
 4952SOL    HW115755   0.955   0.935   6.998
 4952SOL    HW215756   0.880   0.821   6.908
 4953SOL     OW15757   1.269   1.098   6.019
 4953SOL    HW115758   1.263   1.192   6.052
 4953SOL    HW215759   1.320   1.096   5.933
 4954SOL     OW15760   3.569   3.931   5.658
 4954SOL    HW115761   3.568   3.925   5.558
 4954SOL    HW215762   3.631   3.862   5.695
 4955SOL     OW15763   3.567   6.079   0.129
 4955SOL    HW115764   3.576   6.025   0.213
 4955SOL    HW215765   3.470   6.100   0.115
 4956SOL     OW15766   2.420   0.405   4.191
 4956SOL    HW115767   2.516   0.420   4.213
 4956SOL    HW215768   2.398   0.308   4.200
 4957SOL     OW15769   5.973   5.484   0.132
 4957SOL    HW115770   5.979   5.420   0.209
 4957SOL    HW215771   6.000   5.437   0.048
 4958SOL     OW15772   3.153   5.334   0.315
 4958SOL    HW115773   3.054   5.332   0.326
 4958SOL    HW215774   3.195   5.269   0.379
 4959SOL     OW15775   1.386   1.785   3.395
 4959SOL    HW115776   1.362   1.695   3.360
 4959SOL    HW215777   1.409   1.846   3.319
 4960SOL     OW15778   4.839   3.833   4.469
 4960SOL    HW115779   4.858   3.804   4.563
 4960SOL    HW215780   4.923   3.867   4.427
 4961SOL     OW15781   3.559   2.851   2.275
 4961SOL    HW115782   3.541   2.754   2.263
 4961SOL    HW215783   3.580   2.892   2.186
 4962SOL     OW15784   1.926   2.156   0.538
 4962SOL    HW115785   1.922   2.211   0.621
 4962SOL    HW215786   1.835   2.148   0.499
 4963SOL     OW15787   0.825   3.482   6.633
 4963SOL    HW115788   0.837   3.382   6.630
 4963SOL    HW215789   0.746   3.508   6.578
 4964SOL     OW15790   1.063   5.355   3.894
 4964SOL    HW115791   0.985   5.352   3.832
 4964SOL    HW215792   1.033   5.328   3.986
 4965SOL     OW15793   2.297   0.699   2.876
 4965SOL    HW115794   2.364   0.744   2.817
 4965SOL    HW215795   2.307   0.600   2.867
 4966SOL     OW15796   4.308   6.934   5.452
 4966SOL    HW115797   4.395   6.980   5.471
 4966SOL    HW215798   4.272   6.966   5.365
 4967SOL     OW15799   4.564   4.407   3.117
 4967SOL    HW115800   4.474   4.440   3.087
 4967SOL    HW215801   4.559   4.380   3.213
 4968SOL     OW15802   6.500   3.044   3.461
 4968SOL    HW115803   6.475   2.964   3.407
 4968SOL    HW215804   6.450   3.043   3.547
 4969SOL     OW15805   1.294   5.864   4.349
 4969SOL    HW115806   1.290   5.845   4.447
 4969SOL    HW215807   1.275   5.780   4.298
 4970SOL     OW15808   2.372   1.210   1.177
 4970SOL    HW115809   2.419   1.132   1.136
 4970SOL    HW215810   2.387   1.291   1.122
 4971SOL     OW15811   0.394   6.238   2.228
 4971SOL    HW115812   0.331   6.303   2.186
 4971SOL    HW215813   0.405   6.260   2.325
 4972SOL     OW15814   0.325   3.619   0.378
 4972SOL    HW115815   0.350   3.563   0.456
 4972SOL    HW215816   0.297   3.561   0.302
 4973SOL     OW15817   5.452   2.428   0.322
 4973SOL    HW115818   5.354   2.409   0.313
 4973SOL    HW215819   5.498   2.411   0.235
 4974SOL     OW15820   3.186   0.480   5.495
 4974SOL    HW115821   3.221   0.542   5.565
 4974SOL    HW215822   3.125   0.530   5.433
 4975SOL     OW15823   5.532   4.225   1.210
 4975SOL    HW115824   5.614   4.255   1.162
 4975SOL    HW215825   5.482   4.158   1.155
 4976SOL     OW15826   1.011   0.114   3.854
 4976SOL    HW115827   0.967   0.197   3.819
 4976SOL    HW215828   0.941   0.056   3.898
 4977SOL     OW15829   0.891   3.629   4.937
 4977SOL    HW115830   0.866   3.533   4.944
 4977SOL    HW215831   0.985   3.638   4.904
 4978SOL     OW15832   6.233   5.370   4.541
 4978SOL    HW115833   6.227   5.349   4.444
 4978SOL    HW215834   6.267   5.463   4.553
 4979SOL     OW15835   3.774   6.223   6.278
 4979SOL    HW115836   3.782   6.185   6.371
 4979SOL    HW215837   3.793   6.321   6.281
 4980SOL     OW15838   5.754   2.805   3.722
 4980SOL    HW115839   5.717   2.852   3.802
 4980SOL    HW215840   5.853   2.794   3.733
 4981SOL     OW15841   3.329   6.487   2.937
 4981SOL    HW115842   3.357   6.448   3.025
 4981SOL    HW215843   3.241   6.448   2.910
 4982SOL     OW15844   4.046   1.787   5.042
 4982SOL    HW115845   3.953   1.819   5.023
 4982SOL    HW215846   4.111   1.858   5.019
 4983SOL     OW15847   5.234   3.837   3.082
 4983SOL    HW115848   5.241   3.820   2.984
 4983SOL    HW215849   5.248   3.934   3.100
 4984SOL     OW15850   5.026   3.544   5.135
 4984SOL    HW115851   5.047   3.449   5.160
 4984SOL    HW215852   4.945   3.546   5.076
 4985SOL     OW15853   4.957   0.199   2.592
 4985SOL    HW115854   4.983   0.145   2.512
 4985SOL    HW215855   4.988   0.293   2.581
 4986SOL     OW15856   1.561   5.448   1.011
 4986SOL    HW115857   1.495   5.383   0.975
 4986SOL    HW215858   1.526   5.487   1.097
 4987SOL     OW15859   2.130   4.072   1.845
 4987SOL    HW115860   2.115   4.114   1.934
 4987SOL    HW215861   2.178   4.137   1.785
 4988SOL     OW15862   6.401   5.526   4.124
 4988SOL    HW115863   6.462   5.601   4.099
 4988SOL    HW215864   6.409   5.506   4.221
 4989SOL     OW15865   6.869   0.025   3.905
 4989SOL    HW115866   6.903   6.951   3.915
 4989SOL    HW215867   6.939   0.090   3.936
 4990SOL     OW15868   5.088   1.936   5.684
 4990SOL    HW115869   5.090   1.920   5.586
 4990SOL    HW215870   5.042   2.023   5.703
 4991SOL     OW15871   2.317   5.749   5.016
 4991SOL    HW115872   2.376   5.708   4.946
 4991SOL    HW215873   2.276   5.676   5.070
 4992SOL     OW15874   2.632   2.797   5.524
 4992SOL    HW115875   2.573   2.797   5.443
 4992SOL    HW215876   2.579   2.766   5.603
 4993SOL     OW15877   2.195   5.293   3.564
 4993SOL    HW115878   2.144   5.258   3.642
 4993SOL    HW215879   2.131   5.315   3.490
 4994SOL     OW15880   2.674   5.013   5.508
 4994SOL    HW115881   2.731   5.040   5.586
 4994SOL    HW215882   2.723   4.944   5.455
 4995SOL     OW15883   0.567   1.829   5.795
 4995SOL    HW115884   0.534   1.923   5.788
 4995SOL    HW215885   0.589   1.794   5.704
 4996SOL     OW15886   0.167   0.667   4.787
 4996SOL    HW115887   0.183   0.756   4.744
 4996SOL    HW215888   0.200   0.669   4.881
 4997SOL     OW15889   4.025   1.440   0.550
 4997SOL    HW115890   4.109   1.396   0.582
 4997SOL    HW215891   3.963   1.370   0.515
 4998SOL     OW15892   0.879   3.747   3.603
 4998SOL    HW115893   0.789   3.763   3.642
 4998SOL    HW215894   0.871   3.689   3.522
 4999SOL     OW15895   6.926   2.560   3.243
 4999SOL    HW115896   6.943   2.659   3.241
 4999SOL    HW215897   6.913   2.530   3.337
 5000SOL     OW15898   2.940   6.579   3.114
 5000SOL    HW115899   2.917   6.629   3.031
 5000SOL    HW215900   2.863   6.520   3.140
 5001SOL     OW15901   6.885   6.075   3.161
 5001SOL    HW115902   6.821   6.152   3.164
 5001SOL    HW215903   6.839   5.995   3.124
 5002SOL     OW15904   0.958   5.083   3.924
 5002SOL    HW115905   0.942   5.077   4.022
 5002SOL    HW215906   0.884   5.134   3.881
 5003SOL     OW15907   3.737   1.369   0.820
 5003SOL    HW115908   3.660   1.395   0.878
 5003SOL    HW215909   3.729   1.414   0.731
 5004SOL     OW15910   4.307   6.373   0.163
 5004SOL    HW115911   4.278   6.336   0.252
 5004SOL    HW215912   4.376   6.444   0.177
 5005SOL     OW15913   4.404   3.030   0.838
 5005SOL    HW115914   4.422   2.934   0.860
 5005SOL    HW215915   4.484   3.086   0.862
 5006SOL     OW15916   4.927   0.868   2.889
 5006SOL    HW115917   5.012   0.820   2.868
 5006SOL    HW215918   4.937   0.965   2.869
 5007SOL     OW15919   6.388   5.236   2.507
 5007SOL    HW115920   6.443   5.152   2.507
 5007SOL    HW215921   6.332   5.240   2.424
 5008SOL     OW15922   4.814   6.803   3.850
 5008SOL    HW115923   4.815   6.704   3.836
 5008SOL    HW215924   4.720   6.837   3.840
 5009SOL     OW15925   0.926   1.531   6.418
 5009SOL    HW115926   0.860   1.455   6.412
 5009SOL    HW215927   0.956   1.556   6.326
 5010SOL     OW15928   4.932   4.339   1.102
 5010SOL    HW115929   4.952   4.319   1.198
 5010SOL    HW215930   4.915   4.254   1.053
 5011SOL     OW15931   1.562   2.384   5.931
 5011SOL    HW115932   1.511   2.298   5.932
 5011SOL    HW215933   1.652   2.369   5.890
 5012SOL     OW15934   5.698   2.722   5.809
 5012SOL    HW115935   5.794   2.723   5.836
 5012SOL    HW215936   5.645   2.779   5.872
 5013SOL     OW15937   5.674   6.160   5.190
 5013SOL    HW115938   5.642   6.091   5.255
 5013SOL    HW215939   5.613   6.240   5.194
 5014SOL     OW15940   6.378   3.676   0.911
 5014SOL    HW115941   6.464   3.683   0.862
 5014SOL    HW215942   6.380   3.597   0.973
 5015SOL     OW15943   6.318   5.073   4.142
 5015SOL    HW115944   6.230   5.062   4.187
 5015SOL    HW215945   6.304   5.074   4.043
 5016SOL     OW15946   1.092   1.825   6.323
 5016SOL    HW115947   1.180   1.821   6.276
 5016SOL    HW215948   1.038   1.744   6.300
 5017SOL     OW15949   1.355   2.896   1.927
 5017SOL    HW115950   1.419   2.840   1.876
 5017SOL    HW215951   1.263   2.859   1.918
 5018SOL     OW15952   0.688   0.443   0.090
 5018SOL    HW115953   0.637   0.519   0.130
 5018SOL    HW215954   0.763   0.417   0.150
 5019SOL     OW15955   2.094   4.314   3.881
 5019SOL    HW115956   2.084   4.348   3.788
 5019SOL    HW215957   2.017   4.254   3.904
 5020SOL     OW15958   1.995   0.209   3.360
 5020SOL    HW115959   2.014   0.178   3.453
 5020SOL    HW215960   1.896   0.207   3.345
 5021SOL     OW15961   2.751   0.492   1.711
 5021SOL    HW115962   2.780   0.502   1.806
 5021SOL    HW215963   2.829   0.465   1.655
 5022SOL     OW15964   0.100   3.444   1.264
 5022SOL    HW115965   0.163   3.376   1.300
 5022SOL    HW215966   0.146   3.533   1.258
 5023SOL     OW15967   0.960   2.422   2.654
 5023SOL    HW115968   1.004   2.332   2.662
 5023SOL    HW215969   0.866   2.410   2.625
 5024SOL     OW15970   4.412   4.343   6.788
 5024SOL    HW115971   4.373   4.355   6.879
 5024SOL    HW215972   4.508   4.317   6.797
 5025SOL     OW15973   5.237   2.159   4.898
 5025SOL    HW115974   5.227   2.215   4.817
 5025SOL    HW215975   5.181   2.076   4.888
 5026SOL     OW15976   4.872   5.669   4.753
 5026SOL    HW115977   4.792   5.728   4.739
 5026SOL    HW215978   4.843   5.573   4.753
 5027SOL     OW15979   5.304   6.152   0.981
 5027SOL    HW115980   5.337   6.148   1.075
 5027SOL    HW215981   5.330   6.239   0.940
 5028SOL     OW15982   6.437   1.884   2.250
 5028SOL    HW115983   6.530   1.919   2.236
 5028SOL    HW215984   6.421   1.868   2.347
 5029SOL     OW15985   5.548   2.578   2.952
 5029SOL    HW115986   5.453   2.565   2.925
 5029SOL    HW215987   5.606   2.513   2.902
 5030SOL     OW15988   0.734   3.221   0.955
 5030SOL    HW115989   0.763   3.316   0.946
 5030SOL    HW215990   0.800   3.171   1.012
 5031SOL     OW15991   6.653   0.022   6.083
 5031SOL    HW115992   6.681   7.012   5.991
 5031SOL    HW215993   6.709   0.100   6.112
 5032SOL     OW15994   2.466   4.712   6.209
 5032SOL    HW115995   2.386   4.657   6.235
 5032SOL    HW215996   2.497   4.685   6.118
 5033SOL     OW15997   1.768   6.756   4.447
 5033SOL    HW115998   1.692   6.771   4.383
 5033SOL    HW215999   1.853   6.742   4.396
 5034SOL     OW16000   4.437   5.639   3.830
 5034SOL    HW116001   4.444   5.542   3.856
 5034SOL    HW216002   4.480   5.695   3.900
 5035SOL     OW16003   1.643   3.517   3.679
 5035SOL    HW116004   1.583   3.588   3.642
 5035SOL    HW216005   1.734   3.526   3.639
 5036SOL     OW16006   1.453   3.229   4.583
 5036SOL    HW116007   1.409   3.232   4.493
 5036SOL    HW216008   1.383   3.217   4.654
 5037SOL     OW16009   5.389   4.718   1.090
 5037SOL    HW116010   5.362   4.647   1.155
 5037SOL    HW216011   5.486   4.708   1.068
 5038SOL     OW16012   3.012   3.830   4.622
 5038SOL    HW116013   3.087   3.766   4.606
 5038SOL    HW216014   2.981   3.823   4.717
 5039SOL     OW16015   0.562   3.127   6.650
 5039SOL    HW116016   0.500   3.201   6.625
 5039SOL    HW216017   0.548   3.049   6.590
 5040SOL     OW16018   0.604   2.031   5.147
 5040SOL    HW116019   0.560   1.974   5.216
 5040SOL    HW216020   0.585   2.127   5.165
 5041SOL     OW16021   6.612   2.813   1.068
 5041SOL    HW116022   6.673   2.873   1.015
 5041SOL    HW216023   6.592   2.856   1.156
 5042SOL     OW16024   0.930   1.744   5.691
 5042SOL    HW116025   0.903   1.729   5.596
 5042SOL    HW216026   0.905   1.836   5.719
 5043SOL     OW16027   3.143   6.738   2.083
 5043SOL    HW116028   3.184   6.697   2.164
 5043SOL    HW216029   3.057   6.782   2.108
 5044SOL     OW16030   0.616   6.103   0.970
 5044SOL    HW116031   0.554   6.036   1.012
 5044SOL    HW216032   0.632   6.078   0.874
 5045SOL     OW16033   5.825   2.847   1.667
 5045SOL    HW116034   5.863   2.928   1.621
 5045SOL    HW216035   5.897   2.801   1.718
 5046SOL     OW16036   4.066   3.244   2.144
 5046SOL    HW116037   4.111   3.318   2.095
 5046SOL    HW216038   4.133   3.173   2.167
 5047SOL     OW16039   1.867   4.165   3.964
 5047SOL    HW116040   1.787   4.224   3.975
 5047SOL    HW216041   1.839   4.076   3.927
 5048SOL     OW16042   1.989   0.096   5.775
 5048SOL    HW116043   2.081   0.136   5.781
 5048SOL    HW216044   1.982   0.021   5.840
 5049SOL     OW16045   3.695   1.530   6.779
 5049SOL    HW116046   3.773   1.482   6.820
 5049SOL    HW216047   3.611   1.479   6.797
 5050SOL     OW16048   0.964   0.415   0.968
 5050SOL    HW116049   1.055   0.433   1.007
 5050SOL    HW216050   0.949   0.475   0.889
 5051SOL     OW16051   4.310   4.509   0.915
 5051SOL    HW116052   4.223   4.525   0.869
 5051SOL    HW216053   4.323   4.411   0.928
 5052SOL     OW16054   1.802   3.519   4.289
 5052SOL    HW116055   1.828   3.533   4.194
 5052SOL    HW216056   1.849   3.438   4.325
 5053SOL     OW16057   6.694   0.672   0.833
 5053SOL    HW116058   6.677   0.578   0.861
 5053SOL    HW216059   6.698   0.731   0.914
 5054SOL     OW16060   4.049   5.252   3.255
 5054SOL    HW116061   3.983   5.308   3.306
 5054SOL    HW216062   4.120   5.310   3.216
 5055SOL     OW16063   6.845   4.373   5.499
 5055SOL    HW116064   6.928   4.429   5.507
 5055SOL    HW216065   6.871   4.279   5.477
 5056SOL     OW16066   6.722   4.535   3.133
 5056SOL    HW116067   6.720   4.480   3.050
 5056SOL    HW216068   6.635   4.527   3.181
 5057SOL     OW16069   6.985   6.200   2.347
 5057SOL    HW116070   0.059   6.168   2.332
 5057SOL    HW216071   6.966   6.276   2.285
 5058SOL     OW16072   2.671   5.443   5.513
 5058SOL    HW116073   2.674   5.520   5.450
 5058SOL    HW216074   2.621   5.367   5.471
 5059SOL     OW16075   6.939   0.131   2.115
 5059SOL    HW116076   6.854   0.178   2.140
 5059SOL    HW216077   6.988   0.104   2.198
 5060SOL     OW16078   0.072   2.840   6.344
 5060SOL    HW116079   0.167   2.813   6.332
 5060SOL    HW216080   0.016   2.759   6.364
 5061SOL     OW16081   5.866   3.259   0.829
 5061SOL    HW116082   5.841   3.232   0.736
 5061SOL    HW216083   5.793   3.231   0.892
 5062SOL     OW16084   6.294   6.858   6.957
 5062SOL    HW116085   6.319   6.836   0.031
 5062SOL    HW216086   6.205   6.816   6.935
 5063SOL     OW16087   0.925   6.599   2.945
 5063SOL    HW116088   0.970   6.558   2.866
 5063SOL    HW216089   0.834   6.631   2.920
 5064SOL     OW16090   5.395   3.924   0.125
 5064SOL    HW116091   5.446   3.876   0.054
 5064SOL    HW216092   5.354   4.007   0.087
 5065SOL     OW16093   2.595   6.637   6.153
 5065SOL    HW116094   2.500   6.642   6.182
 5065SOL    HW216095   2.622   6.541   6.145
 5066SOL     OW16096   5.062   4.593   0.551
 5066SOL    HW116097   5.126   4.563   0.481
 5066SOL    HW216098   5.041   4.515   0.612
 5067SOL     OW16099   5.769   0.913   6.454
 5067SOL    HW116100   5.733   1.007   6.452
 5067SOL    HW216101   5.723   0.859   6.383
 5068SOL     OW16102   3.419   4.852   1.073
 5068SOL    HW116103   3.422   4.785   1.147
 5068SOL    HW216104   3.442   4.942   1.109
 5069SOL     OW16105   6.797   5.464   3.318
 5069SOL    HW116106   6.846   5.532   3.264
 5069SOL    HW216107   6.698   5.475   3.304
 5070SOL     OW16108   5.144   2.476   3.655
 5070SOL    HW116109   5.145   2.383   3.618
 5070SOL    HW216110   5.050   2.509   3.662
 5071SOL     OW16111   5.412   0.850   1.360
 5071SOL    HW116112   5.477   0.918   1.325
 5071SOL    HW216113   5.439   0.759   1.327
 5072SOL     OW16114   0.557   3.991   1.956
 5072SOL    HW116115   0.586   3.945   1.872
 5072SOL    HW216116   0.637   4.025   2.005
 5073SOL     OW16117   3.944   2.165   3.174
 5073SOL    HW116118   3.983   2.137   3.086
 5073SOL    HW216119   3.845   2.170   3.167
 5074SOL     OW16120   4.058   4.239   5.266
 5074SOL    HW116121   4.083   4.185   5.346
 5074SOL    HW216122   4.138   4.290   5.234
 5075SOL     OW16123   6.621   0.324   4.418
 5075SOL    HW116124   6.615   0.420   4.444
 5075SOL    HW216125   6.536   0.277   4.444
 5076SOL     OW16126   5.513   0.412   1.088
 5076SOL    HW116127   5.470   0.322   1.085
 5076SOL    HW216128   5.568   0.425   1.005
 5077SOL     OW16129   6.800   1.725   2.630
 5077SOL    HW116130   6.720   1.686   2.585
 5077SOL    HW216131   6.883   1.680   2.594
 5078SOL     OW16132   0.346   1.663   4.694
 5078SOL    HW116133   0.316   1.676   4.789
 5078SOL    HW216134   0.293   1.589   4.653
 5079SOL     OW16135   4.651   5.086   4.776
 5079SOL    HW116136   4.665   5.184   4.791
 5079SOL    HW216137   4.738   5.038   4.785
 5080SOL     OW16138   5.617   0.468   6.103
 5080SOL    HW116139   5.631   0.561   6.071
 5080SOL    HW216140   5.650   0.403   6.034
 5081SOL     OW16141   3.138   3.708   3.161
 5081SOL    HW116142   3.057   3.655   3.187
 5081SOL    HW216143   3.117   3.806   3.168
 5082SOL     OW16144   0.875   1.933   5.198
 5082SOL    HW116145   0.804   1.976   5.143
 5082SOL    HW216146   0.965   1.957   5.161
 5083SOL     OW16147   1.019   3.960   2.250
 5083SOL    HW116148   1.117   3.977   2.241
 5083SOL    HW216149   0.982   4.013   2.326
 5084SOL     OW16150   1.239   5.904   2.370
 5084SOL    HW116151   1.317   5.941   2.421
 5084SOL    HW216152   1.251   5.924   2.272
 5085SOL     OW16153   6.166   3.837   0.593
 5085SOL    HW116154   6.216   3.778   0.529
 5085SOL    HW216155   6.146   3.786   0.677
 5086SOL     OW16156   6.345   5.578   4.692
 5086SOL    HW116157   6.436   5.611   4.719
 5086SOL    HW216158   6.336   5.482   4.715
 5087SOL     OW16159   5.301   5.153   5.737
 5087SOL    HW116160   5.202   5.141   5.726
 5087SOL    HW216161   5.322   5.169   5.833
 5088SOL     OW16162   6.270   0.975   6.560
 5088SOL    HW116163   6.210   1.055   6.557
 5088SOL    HW216164   6.222   0.898   6.601
 5089SOL     OW16165   5.301   2.828   3.860
 5089SOL    HW116166   5.371   2.844   3.930
 5089SOL    HW216167   5.262   2.916   3.831
 5090SOL     OW16168   1.136   4.805   0.251
 5090SOL    HW116169   1.054   4.764   0.290
 5090SOL    HW216170   1.218   4.759   0.286
 5091SOL     OW16171   0.564   5.892   3.821
 5091SOL    HW116172   0.575   5.945   3.906
 5091SOL    HW216173   0.582   5.952   3.743
 5092SOL     OW16174   3.363   3.030   0.899
 5092SOL    HW116175   3.317   2.941   0.906
 5092SOL    HW216176   3.461   3.019   0.915
 5093SOL     OW16177   0.542   1.152   2.285
 5093SOL    HW116178   0.544   1.249   2.312
 5093SOL    HW216179   0.635   1.123   2.261
 5094SOL     OW16180   0.340   0.084   6.727
 5094SOL    HW116181   0.416   0.127   6.776
 5094SOL    HW216182   0.374   0.011   6.669
 5095SOL     OW16183   3.223   6.991   5.383
 5095SOL    HW116184   3.127   6.966   5.391
 5095SOL    HW216185   3.231   0.066   5.351
 5096SOL     OW16186   3.543   6.376   2.337
 5096SOL    HW116187   3.452   6.342   2.314
 5096SOL    HW216188   3.578   6.430   2.261
 5097SOL     OW16189   1.109   2.153   6.879
 5097SOL    HW116190   1.134   2.236   6.929
 5097SOL    HW216191   1.092   2.078   6.944
 5098SOL     OW16192   1.048   2.391   2.996
 5098SOL    HW116193   1.059   2.363   3.091
 5098SOL    HW216194   1.130   2.441   2.967
 5099SOL     OW16195   0.573   1.362   4.059
 5099SOL    HW116196   0.649   1.394   4.002
 5099SOL    HW216197   0.546   1.270   4.030
 5100SOL     OW16198   4.874   4.872   5.571
 5100SOL    HW116199   4.776   4.873   5.554
 5100SOL    HW216200   4.909   4.778   5.560
 5101SOL     OW16201   5.494   6.077   0.548
 5101SOL    HW116202   5.401   6.093   0.513
 5101SOL    HW216203   5.550   6.038   0.475
 5102SOL     OW16204   3.339   6.184   3.794
 5102SOL    HW116205   3.308   6.090   3.807
 5102SOL    HW216206   3.334   6.233   3.881
 5103SOL     OW16207   1.388   2.591   3.693
 5103SOL    HW116208   1.332   2.509   3.678
 5103SOL    HW216209   1.485   2.567   3.680
 5104SOL     OW16210   0.683   0.432   0.548
 5104SOL    HW116211   0.761   0.373   0.525
 5104SOL    HW216212   0.606   0.375   0.577
 5105SOL     OW16213   1.592   3.061   0.071
 5105SOL    HW116214   1.570   3.121   7.013
 5105SOL    HW216215   1.685   3.025   0.060
 5106SOL     OW16216   2.205   6.893   2.171
 5106SOL    HW116217   2.137   6.964   2.152
 5106SOL    HW216218   2.263   6.881   2.091
 5107SOL     OW16219   1.626   0.031   6.267
 5107SOL    HW116220   1.694   0.105   6.271
 5107SOL    HW216221   1.537   0.069   6.243
 5108SOL     OW16222   3.758   3.541   4.681
 5108SOL    HW116223   3.774   3.538   4.582
 5108SOL    HW216224   3.668   3.504   4.701
 5109SOL     OW16225   0.356   2.139   2.261
 5109SOL    HW116226   0.329   2.117   2.354
 5109SOL    HW216227   0.447   2.180   2.261
 5110SOL     OW16228   2.008   5.506   5.628
 5110SOL    HW116229   2.074   5.514   5.703
 5110SOL    HW216230   2.038   5.562   5.551
 5111SOL     OW16231   1.166   0.199   6.365
 5111SOL    HW116232   1.168   0.222   6.462
 5111SOL    HW216233   1.086   0.243   6.323
 5112SOL     OW16234   0.312   6.851   3.460
 5112SOL    HW116235   0.405   6.890   3.458
 5112SOL    HW216236   0.293   6.805   3.374
 5113SOL     OW16237   0.739   1.139   6.926
 5113SOL    HW116238   0.677   1.147   6.848
 5113SOL    HW216239   0.796   1.058   6.914
 5114SOL     OW16240   5.031   5.348   6.571
 5114SOL    HW116241   5.127   5.351   6.599
 5114SOL    HW216242   5.021   5.390   6.481
 5115SOL     OW16243   2.741   3.971   5.261
 5115SOL    HW116244   2.745   3.875   5.287
 5115SOL    HW216245   2.647   3.994   5.233
 5116SOL     OW16246   6.991   3.920   1.217
 5116SOL    HW116247   0.026   3.903   1.299
 5116SOL    HW216248   6.927   3.845   1.203
 5117SOL     OW16249   2.397   5.398   2.929
 5117SOL    HW116250   2.315   5.398   2.985
 5117SOL    HW216251   2.466   5.339   2.971
 5118SOL     OW16252   3.832   0.204   1.189
 5118SOL    HW116253   3.864   0.177   1.280
 5118SOL    HW216254   3.842   0.128   1.125
 5119SOL     OW16255   5.916   0.734   2.550
 5119SOL    HW116256   5.851   0.662   2.525
 5119SOL    HW216257   5.993   0.693   2.600
 5120SOL     OW16258   3.574   1.460   1.015
 5120SOL    HW116259   3.479   1.461   1.046
 5120SOL    HW216260   3.635   1.458   1.094
 5121SOL     OW16261   0.834   4.203   4.456
 5121SOL    HW116262   0.804   4.126   4.512
 5121SOL    HW216263   0.881   4.169   4.375
 5122SOL     OW16264   2.342   5.623   2.798
 5122SOL    HW116265   2.424   5.679   2.786
 5122SOL    HW216266   2.363   5.544   2.855
 5123SOL     OW16267   6.281   2.901   2.369
 5123SOL    HW116268   6.315   2.813   2.337
 5123SOL    HW216269   6.272   2.899   2.469
 5124SOL     OW16270   3.375   6.828   0.371
 5124SOL    HW116271   3.291   6.780   0.395
 5124SOL    HW216272   3.450   6.796   0.428
 5125SOL     OW16273   0.490   1.973   6.281
 5125SOL    HW116274   0.423   2.044   6.257
 5125SOL    HW216275   0.581   2.013   6.284
 5126SOL     OW16276   4.801   1.857   0.584
 5126SOL    HW116277   4.861   1.821   0.655
 5126SOL    HW216278   4.707   1.862   0.619
 5127SOL     OW16279   4.981   3.625   5.992
 5127SOL    HW116280   5.039   3.560   6.042
 5127SOL    HW216281   4.892   3.583   5.974
 5128SOL     OW16282   7.004   0.253   6.871
 5128SOL    HW116283   0.042   0.247   6.952
 5128SOL    HW216284   0.013   0.183   6.805
 5129SOL     OW16285   4.605   2.593   3.854
 5129SOL    HW116286   4.589   2.521   3.921
 5129SOL    HW216287   4.669   2.660   3.891
 5130SOL     OW16288   2.117   6.828   4.978
 5130SOL    HW116289   2.144   6.924   4.988
 5130SOL    HW216290   2.111   6.785   5.068
 5131SOL     OW16291   2.972   4.963   3.035
 5131SOL    HW116292   3.051   5.015   3.068
 5131SOL    HW216293   2.899   4.967   3.104
 5132SOL     OW16294   3.114   1.861   6.338
 5132SOL    HW116295   3.102   1.924   6.262
 5132SOL    HW216296   3.028   1.815   6.359
 5133SOL     OW16297   4.156   4.568   6.475
 5133SOL    HW116298   4.213   4.586   6.395
 5133SOL    HW216299   4.129   4.471   6.474
 5134SOL     OW16300   5.964   5.824   0.865
 5134SOL    HW116301   6.023   5.805   0.943
 5134SOL    HW216302   5.873   5.785   0.880
 5135SOL     OW16303   0.924   2.849   2.038
 5135SOL    HW116304   0.995   2.896   2.091
 5135SOL    HW216305   0.840   2.903   2.040
 5136SOL     OW16306   6.811   0.144   4.537
 5136SOL    HW116307   6.761   0.122   4.620
 5136SOL    HW216308   6.754   0.202   4.478
 5137SOL     OW16309   5.196   0.660   3.091
 5137SOL    HW116310   5.126   0.727   3.116
 5137SOL    HW216311   5.187   0.636   2.994
 5138SOL     OW16312   3.436   3.640   2.691
 5138SOL    HW116313   3.395   3.568   2.747
 5138SOL    HW216314   3.449   3.722   2.747
 5139SOL     OW16315   4.730   0.865   4.840
 5139SOL    HW116316   4.809   0.917   4.872
 5139SOL    HW216317   4.649   0.923   4.842
 5140SOL     OW16318   2.615   3.882   5.802
 5140SOL    HW116319   2.660   3.796   5.777
 5140SOL    HW216320   2.627   3.899   5.900
 5141SOL     OW16321   1.030   2.949   1.343
 5141SOL    HW116322   1.102   2.923   1.279
 5141SOL    HW216323   1.002   3.043   1.327
 5142SOL     OW16324   6.854   6.502   2.906
 5142SOL    HW116325   6.757   6.486   2.927
 5142SOL    HW216326   6.908   6.490   2.989
 5143SOL     OW16327   6.465   6.283   2.459
 5143SOL    HW116328   6.474   6.204   2.399
 5143SOL    HW216329   6.369   6.308   2.466
 5144SOL     OW16330   1.724   2.947   4.879
 5144SOL    HW116331   1.750   3.042   4.898
 5144SOL    HW216332   1.795   2.904   4.823
 5145SOL     OW16333   1.177   5.157   5.969
 5145SOL    HW116334   1.097   5.201   5.927
 5145SOL    HW216335   1.154   5.131   6.063
 5146SOL     OW16336   5.235   5.975   6.878
 5146SOL    HW116337   5.327   5.999   6.847
 5146SOL    HW216338   5.234   5.968   6.977
 5147SOL     OW16339   4.528   1.502   2.736
 5147SOL    HW116340   4.458   1.446   2.692
 5147SOL    HW216341   4.579   1.448   2.803
 5148SOL     OW16342   6.108   1.419   0.507
 5148SOL    HW116343   6.129   1.513   0.534
 5148SOL    HW216344   6.186   1.360   0.528
 5149SOL     OW16345   2.976   6.582   3.760
 5149SOL    HW116346   2.976   6.484   3.742
 5149SOL    HW216347   2.986   6.632   3.674
 5150SOL     OW16348   6.686   0.726   4.239
 5150SOL    HW116349   6.599   0.751   4.197
 5150SOL    HW216350   6.738   0.668   4.177
 5151SOL     OW16351   5.200   4.512   2.130
 5151SOL    HW116352   5.134   4.444   2.098
 5151SOL    HW216353   5.252   4.474   2.207
 5152SOL     OW16354   2.296   1.406   0.360
 5152SOL    HW116355   2.383   1.428   0.405
 5152SOL    HW216356   2.229   1.478   0.380
 5153SOL     OW16357   2.170   2.155   0.384
 5153SOL    HW116358   2.093   2.158   0.448
 5153SOL    HW216359   2.209   2.246   0.375
 5154SOL     OW16360   0.731   2.993   6.866
 5154SOL    HW116361   0.676   3.031   6.792
 5154SOL    HW216362   0.709   3.040   6.951
 5155SOL     OW16363   1.226   0.733   0.377
 5155SOL    HW116364   1.171   0.683   0.310
 5155SOL    HW216365   1.308   0.680   0.398
 5156SOL     OW16366   5.407   4.536   5.929
 5156SOL    HW116367   5.366   4.462   5.983
 5156SOL    HW216368   5.447   4.498   5.846
 5157SOL     OW16369   3.733   1.187   1.749
 5157SOL    HW116370   3.654   1.146   1.795
 5157SOL    HW216371   3.719   1.286   1.741
 5158SOL     OW16372   1.918   3.241   2.719
 5158SOL    HW116373   1.841   3.280   2.669
 5158SOL    HW216374   1.962   3.170   2.664
 5159SOL     OW16375   6.634   2.908   5.652
 5159SOL    HW116376   6.539   2.905   5.680
 5159SOL    HW216377   6.643   2.874   5.559
 5160SOL     OW16378   6.555   0.247   2.822
 5160SOL    HW116379   6.516   0.224   2.733
 5160SOL    HW216380   6.551   0.346   2.836
 5161SOL     OW16381   1.083   1.839   6.605
 5161SOL    HW116382   1.100   1.818   6.508
 5161SOL    HW216383   1.171   1.844   6.653
 5162SOL     OW16384   0.491   6.893   5.779
 5162SOL    HW116385   0.476   6.926   5.872
 5162SOL    HW216386   0.404   6.868   5.738
 5163SOL     OW16387   3.255   0.902   1.437
 5163SOL    HW116388   3.195   0.849   1.378
 5163SOL    HW216389   3.200   0.958   1.500
 5164SOL     OW16390   2.686   2.908   0.184
 5164SOL    HW116391   2.707   2.983   0.247
 5164SOL    HW216392   2.745   2.830   0.205
 5165SOL     OW16393   0.881   5.176   5.472
 5165SOL    HW116394   0.968   5.190   5.520
 5165SOL    HW216395   0.899   5.132   5.384
 5166SOL     OW16396   6.783   6.177   5.438
 5166SOL    HW116397   6.873   6.149   5.404
 5166SOL    HW216398   6.712   6.133   5.383
 5167SOL     OW16399   6.646   3.568   6.134
 5167SOL    HW116400   6.703   3.592   6.055
 5167SOL    HW216401   6.701   3.520   6.202
 5168SOL     OW16402   5.198   1.664   3.389
 5168SOL    HW116403   5.223   1.648   3.485
 5168SOL    HW216404   5.281   1.676   3.335
 5169SOL     OW16405   5.281   5.958   4.566
 5169SOL    HW116406   5.231   5.898   4.503
 5169SOL    HW216407   5.334   6.025   4.513
 5170SOL     OW16408   2.398   3.556   6.237
 5170SOL    HW116409   2.437   3.640   6.276
 5170SOL    HW216410   2.422   3.550   6.140
 5171SOL     OW16411   1.881   6.560   5.810
 5171SOL    HW116412   1.792   6.532   5.846
 5171SOL    HW216413   1.871   6.644   5.757
 5172SOL     OW16414   4.836   5.326   5.733
 5172SOL    HW116415   4.874   5.272   5.658
 5172SOL    HW216416   4.843   5.274   5.818
 5173SOL     OW16417   4.162   6.237   4.124
 5173SOL    HW116418   4.170   6.336   4.135
 5173SOL    HW216419   4.066   6.210   4.124
 5174SOL     OW16420   0.361   5.886   3.181
 5174SOL    HW116421   0.338   5.902   3.277
 5174SOL    HW216422   0.452   5.846   3.175
 5175SOL     OW16423   2.882   1.706   6.328
 5175SOL    HW116424   2.791   1.745   6.314
 5175SOL    HW216425   2.873   1.616   6.372
 5176SOL     OW16426   5.554   6.304   6.537
 5176SOL    HW116427   5.569   6.343   6.446
 5176SOL    HW216428   5.597   6.362   6.606
 5177SOL     OW16429   5.424   5.456   1.169
 5177SOL    HW116430   5.514   5.443   1.210
 5177SOL    HW216431   5.434   5.501   1.080
 5178SOL     OW16432   0.921   4.214   0.678
 5178SOL    HW116433   0.946   4.121   0.707
 5178SOL    HW216434   0.821   4.223   0.680
 5179SOL     OW16435   3.886   5.368   2.807
 5179SOL    HW116436   3.959   5.302   2.823
 5179SOL    HW216437   3.812   5.353   2.873
 5180SOL     OW16438   2.976   5.473   1.997
 5180SOL    HW116439   2.983   5.568   1.969
 5180SOL    HW216440   3.067   5.438   2.020
 5181SOL     OW16441   6.514   1.350   5.788
 5181SOL    HW116442   6.597   1.315   5.746
 5181SOL    HW216443   6.472   1.418   5.727
 5182SOL     OW16444   2.196   6.231   2.493
 5182SOL    HW116445   2.192   6.207   2.590
 5182SOL    HW216446   2.260   6.170   2.446
 5183SOL     OW16447   5.562   1.703   3.706
 5183SOL    HW116448   5.645   1.664   3.665
 5183SOL    HW216449   5.576   1.712   3.805
 5184SOL     OW16450   3.225   1.453   1.960
 5184SOL    HW116451   3.154   1.385   1.944
 5184SOL    HW216452   3.183   1.544   1.963
 5185SOL     OW16453   6.321   0.432   1.465
 5185SOL    HW116454   6.411   0.429   1.421
 5185SOL    HW216455   6.312   0.354   1.526
 5186SOL     OW16456   5.587   2.314   6.501
 5186SOL    HW116457   5.529   2.381   6.455
 5186SOL    HW216458   5.642   2.265   6.433
 5187SOL     OW16459   1.240   4.753   4.902
 5187SOL    HW116460   1.260   4.657   4.881
 5187SOL    HW216461   1.249   4.768   5.000
 5188SOL     OW16462   0.295   0.418   1.987
 5188SOL    HW116463   0.373   0.365   2.022
 5188SOL    HW216464   0.283   0.500   2.042
 5189SOL     OW16465   5.491   6.048   6.411
 5189SOL    HW116466   5.511   6.129   6.466
 5189SOL    HW216467   5.400   6.013   6.433
 5190SOL     OW16468   1.407   5.369   0.493
 5190SOL    HW116469   1.398   5.334   0.586
 5190SOL    HW216470   1.325   5.344   0.441
 5191SOL     OW16471   2.927   4.168   1.470
 5191SOL    HW116472   2.958   4.193   1.562
 5191SOL    HW216473   2.999   4.188   1.404
 5192SOL     OW16474   0.602   4.203   2.633
 5192SOL    HW116475   0.700   4.186   2.644
 5192SOL    HW216476   0.554   4.116   2.621
 5193SOL     OW16477   3.533   0.184   4.519
 5193SOL    HW116478   3.550   0.101   4.572
 5193SOL    HW216479   3.608   0.249   4.532
 5194SOL     OW16480   4.302   1.290   5.605
 5194SOL    HW116481   4.273   1.328   5.517
 5194SOL    HW216482   4.283   1.192   5.607
 5195SOL     OW16483   1.609   1.143   5.214
 5195SOL    HW116484   1.614   1.075   5.287
 5195SOL    HW216485   1.528   1.125   5.157
 5196SOL     OW16486   5.940   6.382   2.990
 5196SOL    HW116487   6.013   6.423   2.935
 5196SOL    HW216488   5.861   6.364   2.932
 5197SOL     OW16489   2.135   3.838   5.664
 5197SOL    HW116490   2.120   3.905   5.591
 5197SOL    HW216491   2.063   3.768   5.660
 5198SOL     OW16492   6.116   5.833   4.232
 5198SOL    HW116493   6.114   5.832   4.132
 5198SOL    HW216494   6.210   5.822   4.264
 5199SOL     OW16495   1.010   5.732   1.537
 5199SOL    HW116496   0.941   5.718   1.608
 5199SOL    HW216497   0.984   5.682   1.454
 5200SOL     OW16498   6.701   3.659   4.948
 5200SOL    HW116499   6.647   3.603   4.885
 5200SOL    HW216500   6.694   3.622   5.040
 5201SOL     OW16501   0.955   5.782   4.381
 5201SOL    HW116502   1.029   5.717   4.364
 5201SOL    HW216503   0.902   5.751   4.460
 5202SOL     OW16504   0.207   4.757   1.478
 5202SOL    HW116505   0.255   4.671   1.463
 5202SOL    HW216506   0.118   4.739   1.520
 5203SOL     OW16507   6.790   3.240   6.710
 5203SOL    HW116508   6.828   3.149   6.701
 5203SOL    HW216509   6.789   3.285   6.620
 5204SOL     OW16510   5.735   5.233   6.269
 5204SOL    HW116511   5.683   5.291   6.206
 5204SOL    HW216512   5.830   5.226   6.238
 5205SOL     OW16513   2.524   5.937   0.448
 5205SOL    HW116514   2.463   5.864   0.478
 5205SOL    HW216515   2.534   6.004   0.522
 5206SOL     OW16516   0.362   4.147   5.062
 5206SOL    HW116517   0.338   4.208   5.138
 5206SOL    HW216518   0.447   4.099   5.085
 5207SOL     OW16519   1.425   6.146   2.669
 5207SOL    HW116520   1.335   6.112   2.697
 5207SOL    HW216521   1.465   6.201   2.742
 5208SOL     OW16522   4.498   1.885   0.277
 5208SOL    HW116523   4.555   1.806   0.256
 5208SOL    HW216524   4.483   1.938   0.194
 5209SOL     OW16525   6.301   5.583   3.483
 5209SOL    HW116526   6.312   5.560   3.386
 5209SOL    HW216527   6.387   5.621   3.518
 5210SOL     OW16528   5.229   3.653   3.345
 5210SOL    HW116529   5.224   3.666   3.246
 5210SOL    HW216530   5.248   3.741   3.389
 5211SOL     OW16531   3.206   4.105   1.908
 5211SOL    HW116532   3.151   4.079   1.987
 5211SOL    HW216533   3.147   4.144   1.838
 5212SOL     OW16534   0.778   0.086   6.625
 5212SOL    HW116535   0.849   0.071   6.694
 5212SOL    HW216536   0.814   0.060   6.535
 5213SOL     OW16537   4.675   1.763   6.594
 5213SOL    HW116538   4.749   1.754   6.661
 5213SOL    HW216539   4.697   1.837   6.530
 5214SOL     OW16540   4.692   2.247   0.181
 5214SOL    HW116541   4.623   2.183   0.147
 5214SOL    HW216542   4.698   2.238   0.281
 5215SOL     OW16543   5.939   5.413   4.026
 5215SOL    HW116544   5.996   5.331   4.036
 5215SOL    HW216545   5.870   5.397   3.955
 5216SOL     OW16546   3.907   5.608   1.162
 5216SOL    HW116547   3.912   5.601   1.262
 5216SOL    HW216548   3.907   5.516   1.122
 5217SOL     OW16549   3.108   5.409   3.892
 5217SOL    HW116550   3.018   5.407   3.847
 5217SOL    HW216551   3.174   5.358   3.837
 5218SOL     OW16552   1.171   0.715   3.257
 5218SOL    HW116553   1.267   0.720   3.228
 5218SOL    HW216554   1.153   0.787   3.324
 5219SOL     OW16555   3.175   0.035   0.923
 5219SOL    HW116556   3.142   0.056   0.831
 5219SOL    HW216557   3.230   0.112   0.957
 5220SOL     OW16558   0.860   6.334   2.589
 5220SOL    HW116559   0.824   6.256   2.641
 5220SOL    HW216560   0.860   6.311   2.492
 5221SOL     OW16561   4.608   0.712   0.531
 5221SOL    HW116562   4.666   0.713   0.612
 5221SOL    HW216563   4.586   0.617   0.506
 5222SOL     OW16564   0.350   6.287   2.729
 5222SOL    HW116565   0.402   6.203   2.712
 5222SOL    HW216566   0.272   6.266   2.788
 5223SOL     OW16567   4.264   6.606   1.393
 5223SOL    HW116568   4.283   6.523   1.341
 5223SOL    HW216569   4.203   6.666   1.341
 5224SOL     OW16570   5.746   0.736   3.682
 5224SOL    HW116571   5.744   0.835   3.666
 5224SOL    HW216572   5.671   0.693   3.631
 5225SOL     OW16573   0.088   6.592   5.548
 5225SOL    HW116574   0.186   6.612   5.538
 5225SOL    HW216575   0.041   6.675   5.578
 5226SOL     OW16576   2.267   0.872   3.817
 5226SOL    HW116577   2.347   0.932   3.831
 5226SOL    HW216578   2.190   0.907   3.871
 5227SOL     OW16579   5.445   3.507   4.773
 5227SOL    HW116580   5.524   3.564   4.794
 5227SOL    HW216581   5.475   3.420   4.734
 5228SOL     OW16582   4.732   6.862   1.833
 5228SOL    HW116583   4.679   6.817   1.762
 5228SOL    HW216584   4.754   6.797   1.905
 5229SOL     OW16585   0.516   4.300   3.965
 5229SOL    HW116586   0.449   4.225   3.967
 5229SOL    HW216587   0.607   4.264   3.983
 5230SOL     OW16588   0.473   1.591   6.803
 5230SOL    HW116589   0.556   1.537   6.787
 5230SOL    HW216590   0.419   1.597   6.719
 5231SOL     OW16591   3.222   4.114   3.420
 5231SOL    HW116592   3.307   4.113   3.473
 5231SOL    HW216593   3.195   4.209   3.402
 5232SOL     OW16594   5.317   2.983   4.687
 5232SOL    HW116595   5.299   2.899   4.738
 5232SOL    HW216596   5.242   3.048   4.701
 5233SOL     OW16597   1.011   0.126   2.989
 5233SOL    HW116598   0.994   0.105   3.085
 5233SOL    HW216599   0.960   0.208   2.963
 5234SOL     OW16600   3.689   4.415   1.211
 5234SOL    HW116601   3.652   4.326   1.234
 5234SOL    HW216602   3.699   4.422   1.111
 5235SOL     OW16603   1.242   1.977   1.861
 5235SOL    HW116604   1.157   2.023   1.886
 5235SOL    HW216605   1.222   1.907   1.792
 5236SOL     OW16606   6.389   3.233   0.376
 5236SOL    HW116607   6.420   3.171   0.449
 5236SOL    HW216608   6.445   3.316   0.377
 5237SOL     OW16609   2.187   2.047   2.458
 5237SOL    HW116610   2.160   1.956   2.488
 5237SOL    HW216611   2.109   2.093   2.415
 5238SOL     OW16612   1.918   3.302   1.118
 5238SOL    HW116613   1.875   3.359   1.189
 5238SOL    HW216614   1.857   3.226   1.096
 5239SOL     OW16615   2.753   3.338   5.383
 5239SOL    HW116616   2.731   3.380   5.295
 5239SOL    HW216617   2.745   3.239   5.376
 5240SOL     OW16618   3.853   1.788   4.169
 5240SOL    HW116619   3.918   1.716   4.194
 5240SOL    HW216620   3.825   1.777   4.074
 5241SOL     OW16621   4.051   5.688   5.655
 5241SOL    HW116622   4.085   5.693   5.749
 5241SOL    HW216623   3.980   5.618   5.649
 5242SOL     OW16624   3.858   0.444   5.856
 5242SOL    HW116625   3.955   0.444   5.833
 5242SOL    HW216626   3.827   0.349   5.871
 5243SOL     OW16627   1.343   3.908   0.538
 5243SOL    HW116628   1.441   3.924   0.524
 5243SOL    HW216629   1.300   3.991   0.573
 5244SOL     OW16630   6.142   3.217   6.522
 5244SOL    HW116631   6.090   3.203   6.438
 5244SOL    HW216632   6.234   3.250   6.500
 5245SOL     OW16633   4.787   4.328   6.087
 5245SOL    HW116634   4.706   4.276   6.058
 5245SOL    HW216635   4.857   4.323   6.015
 5246SOL     OW16636   1.367   3.708   3.676
 5246SOL    HW116637   1.292   3.762   3.638
 5246SOL    HW216638   1.453   3.757   3.664
 5247SOL     OW16639   0.548   4.727   0.149
 5247SOL    HW116640   0.492   4.680   0.080
 5247SOL    HW216641   0.528   4.689   0.239
 5248SOL     OW16642   5.374   1.410   0.583
 5248SOL    HW116643   5.399   1.477   0.514
 5248SOL    HW216644   5.294   1.441   0.634
 5249SOL     OW16645   1.016   5.185   6.915
 5249SOL    HW116646   0.918   5.167   6.905
 5249SOL    HW216647   1.053   5.128   6.988
 5250SOL     OW16648   1.376   1.644   5.730
 5250SOL    HW116649   1.335   1.638   5.639
 5250SOL    HW216650   1.374   1.553   5.773
 5251SOL     OW16651   0.762   2.681   1.520
 5251SOL    HW116652   0.783   2.778   1.529
 5251SOL    HW216653   0.672   2.669   1.479
 5252SOL     OW16654   5.239   5.882   1.047
 5252SOL    HW116655   5.139   5.873   1.040
 5252SOL    HW216656   5.271   5.948   0.978
 5253SOL     OW16657   5.918   2.950   4.069
 5253SOL    HW116658   5.871   3.005   4.001
 5253SOL    HW216659   5.940   3.008   4.148
 5254SOL     OW16660   5.338   0.572   4.451
 5254SOL    HW116661   5.279   0.576   4.531
 5254SOL    HW216662   5.387   0.485   4.449
 5255SOL     OW16663   2.299   5.937   2.830
 5255SOL    HW116664   2.367   5.884   2.778
 5255SOL    HW216665   2.341   5.971   2.914
 5256SOL     OW16666   4.886   6.151   2.179
 5256SOL    HW116667   4.868   6.084   2.107
 5256SOL    HW216668   4.891   6.105   2.268
 5257SOL     OW16669   3.035   1.357   2.740
 5257SOL    HW116670   2.962   1.289   2.742
 5257SOL    HW216671   3.072   1.369   2.832
 5258SOL     OW16672   5.737   2.196   1.538
 5258SOL    HW116673   5.708   2.178   1.444
 5258SOL    HW216674   5.745   2.110   1.588
 5259SOL     OW16675   6.224   4.915   1.494
 5259SOL    HW116676   6.271   4.835   1.458
 5259SOL    HW216677   6.126   4.896   1.502
 5260SOL     OW16678   4.878   2.818   1.878
 5260SOL    HW116679   4.943   2.806   1.954
 5260SOL    HW216680   4.809   2.886   1.904
 5261SOL     OW16681   2.398   2.671   4.967
 5261SOL    HW116682   2.384   2.767   4.993
 5261SOL    HW216683   2.345   2.612   5.028
 5262SOL     OW16684   1.081   0.200   1.430
 5262SOL    HW116685   1.064   0.296   1.411
 5262SOL    HW216686   1.177   0.187   1.456
 5263SOL     OW16687   1.306   0.092   6.956
 5263SOL    HW116688   1.380   0.076   0.002
 5263SOL    HW216689   1.305   0.019   6.888
 5264SOL     OW16690   0.979   0.446   0.570
 5264SOL    HW116691   0.937   0.364   0.609
 5264SOL    HW216692   0.960   0.525   0.628
 5265SOL     OW16693   5.293   4.744   4.018
 5265SOL    HW116694   5.276   4.842   4.027
 5265SOL    HW216695   5.218   4.702   3.967
 5266SOL     OW16696   1.642   7.015   1.506
 5266SOL    HW116697   1.547   0.027   1.506
 5266SOL    HW216698   1.649   6.931   1.452
 5267SOL     OW16699   3.936   4.129   5.002
 5267SOL    HW116700   3.966   4.221   5.026
 5267SOL    HW216701   3.847   4.134   4.956
 5268SOL     OW16702   5.601   5.134   5.892
 5268SOL    HW116703   5.549   5.122   5.976
 5268SOL    HW216704   5.583   5.225   5.854
 5269SOL     OW16705   2.587   5.627   5.235
 5269SOL    HW116706   2.538   5.546   5.204
 5269SOL    HW216707   2.528   5.707   5.230
 5270SOL     OW16708   0.004   1.903   2.972
 5270SOL    HW116709   0.043   1.991   2.996
 5270SOL    HW216710   6.976   1.864   3.051
 5271SOL     OW16711   5.468   3.674   5.369
 5271SOL    HW116712   5.413   3.672   5.285
 5271SOL    HW216713   5.547   3.733   5.355
 5272SOL     OW16714   2.525   2.012   3.521
 5272SOL    HW116715   2.525   1.936   3.587
 5272SOL    HW216716   2.431   2.029   3.490
 5273SOL     OW16717   6.552   0.839   5.699
 5273SOL    HW116718   6.493   0.797   5.630
 5273SOL    HW216719   6.511   0.827   5.789
 5274SOL     OW16720   0.687   5.165   4.686
 5274SOL    HW116721   0.750   5.146   4.761
 5274SOL    HW216722   0.661   5.078   4.642
 5275SOL     OW16723   2.376   6.617   0.217
 5275SOL    HW116724   2.314   6.584   0.145
 5275SOL    HW216725   2.327   6.683   0.275
 5276SOL     OW16726   0.018   0.304   0.413
 5276SOL    HW116727   0.092   0.353   0.367
 5276SOL    HW216728   0.052   0.265   0.499
 5277SOL     OW16729   0.382   1.104   1.756
 5277SOL    HW116730   0.385   1.031   1.688
 5277SOL    HW216731   0.404   1.191   1.712
 5278SOL     OW16732   0.140   4.763   6.160
 5278SOL    HW116733   0.137   4.823   6.081
 5278SOL    HW216734   0.200   4.685   6.141
 5279SOL     OW16735   2.625   6.563   0.125
 5279SOL    HW116736   2.602   6.534   0.033
 5279SOL    HW216737   2.541   6.575   0.179
 5280SOL     OW16738   4.705   5.943   6.045
 5280SOL    HW116739   4.741   6.018   5.988
 5280SOL    HW216740   4.641   5.980   6.112
 5281SOL     OW16741   2.185   6.584   4.786
 5281SOL    HW116742   2.117   6.525   4.828
 5281SOL    HW216743   2.178   6.676   4.825
 5282SOL     OW16744   6.588   5.675   1.088
 5282SOL    HW116745   6.597   5.616   1.008
 5282SOL    HW216746   6.604   5.770   1.061
 5283SOL     OW16747   1.489   0.513   4.283
 5283SOL    HW116748   1.464   0.609   4.294
 5283SOL    HW216749   1.498   0.491   4.186
 5284SOL     OW16750   4.791   2.823   2.176
 5284SOL    HW116751   4.884   2.799   2.149
 5284SOL    HW216752   4.756   2.895   2.116
 5285SOL     OW16753   2.176   1.583   3.927
 5285SOL    HW116754   2.229   1.608   3.846
 5285SOL    HW216755   2.092   1.537   3.899
 5286SOL     OW16756   0.329   3.308   1.376
 5286SOL    HW116757   0.394   3.333   1.304
 5286SOL    HW216758   0.351   3.357   1.460
 5287SOL     OW16759   0.633   5.017   2.389
 5287SOL    HW116760   0.554   4.963   2.361
 5287SOL    HW216761   0.710   4.956   2.406
 5288SOL     OW16762   4.140   0.804   1.397
 5288SOL    HW116763   4.230   0.761   1.406
 5288SOL    HW216764   4.069   0.736   1.413
 5289SOL     OW16765   1.776   5.371   6.338
 5289SOL    HW116766   1.871   5.401   6.335
 5289SOL    HW216767   1.771   5.282   6.383
 5290SOL     OW16768   1.608   3.150   5.435
 5290SOL    HW116769   1.646   3.236   5.468
 5290SOL    HW216770   1.673   3.076   5.451
 5291SOL     OW16771   3.019   6.096   4.698
 5291SOL    HW116772   3.032   6.172   4.762
 5291SOL    HW216773   2.985   6.016   4.747
 5292SOL     OW16774   0.946   4.097   4.858
 5292SOL    HW116775   1.043   4.093   4.831
 5292SOL    HW216776   0.911   4.189   4.841
 5293SOL     OW16777   2.454   0.533   3.497
 5293SOL    HW116778   2.380   0.600   3.500
 5293SOL    HW216779   2.416   0.441   3.507
 5294SOL     OW16780   4.895   0.076   4.146
 5294SOL    HW116781   4.847   0.141   4.087
 5294SOL    HW216782   4.889   0.107   4.241
 5295SOL     OW16783   2.144   0.422   1.251
 5295SOL    HW116784   2.182   0.505   1.292
 5295SOL    HW216785   2.057   0.400   1.295
 5296SOL     OW16786   4.599   5.042   2.132
 5296SOL    HW116787   4.641   5.132   2.144
 5296SOL    HW216788   4.510   5.052   2.088
 5297SOL     OW16789   3.444   4.996   5.880
 5297SOL    HW116790   3.418   5.089   5.906
 5297SOL    HW216791   3.532   4.973   5.920
 5298SOL     OW16792   3.154   1.155   7.004
 5298SOL    HW116793   3.073   1.179   0.038
 5298SOL    HW216794   3.143   1.188   6.910
 5299SOL     OW16795   1.736   0.311   1.339
 5299SOL    HW116796   1.693   0.329   1.427
 5299SOL    HW216797   1.700   0.225   1.301
 5300SOL     OW16798   3.051   4.768   6.668
 5300SOL    HW116799   2.988   4.716   6.726
 5300SOL    HW216800   3.145   4.756   6.701
 5301SOL     OW16801   6.667   6.827   5.784
 5301SOL    HW116802   6.652   6.729   5.771
 5301SOL    HW216803   6.662   6.874   5.696
 5302SOL     OW16804   5.228   4.894   3.108
 5302SOL    HW116805   5.324   4.866   3.104
 5302SOL    HW216806   5.181   4.865   3.024
 5303SOL     OW16807   1.658   6.377   5.043
 5303SOL    HW116808   1.723   6.425   5.101
 5303SOL    HW216809   1.577   6.351   5.096
 5304SOL     OW16810   0.089   0.247   3.291
 5304SOL    HW116811   0.019   0.177   3.278
 5304SOL    HW216812   0.045   0.333   3.318
 5305SOL     OW16813   6.599   5.267   4.908
 5305SOL    HW116814   6.592   5.190   4.845
 5305SOL    HW216815   6.507   5.294   4.938
 5306SOL     OW16816   0.762   2.048   6.334
 5306SOL    HW116817   0.754   2.022   6.430
 5306SOL    HW216818   0.851   2.091   6.318
 5307SOL     OW16819   0.840   1.421   1.416
 5307SOL    HW116820   0.911   1.378   1.361
 5307SOL    HW216821   0.829   1.370   1.502
 5308SOL     OW16822   1.907   4.250   2.684
 5308SOL    HW116823   1.924   4.192   2.604
 5308SOL    HW216824   1.987   4.250   2.743
 5309SOL     OW16825   5.430   6.378   3.527
 5309SOL    HW116826   5.339   6.418   3.519
 5309SOL    HW216827   5.497   6.449   3.548
 5310SOL     OW16828   6.344   1.692   3.011
 5310SOL    HW116829   6.284   1.758   2.966
 5310SOL    HW216830   6.429   1.737   3.037
 5311SOL     OW16831   5.974   6.848   0.236
 5311SOL    HW116832   5.902   6.781   0.218
 5311SOL    HW216833   5.938   6.920   0.296
 5312SOL     OW16834   5.778   6.722   1.133
 5312SOL    HW116835   5.838   6.706   1.055
 5312SOL    HW216836   5.684   6.696   1.109
 5313SOL     OW16837   1.670   6.391   5.910
 5313SOL    HW116838   1.642   6.325   5.979
 5313SOL    HW216839   1.592   6.450   5.887
 5314SOL     OW16840   5.900   2.270   1.789
 5314SOL    HW116841   5.856   2.255   1.700
 5314SOL    HW216842   5.837   2.246   1.862
 5315SOL     OW16843   4.141   2.200   3.367
 5315SOL    HW116844   4.202   2.273   3.337
 5315SOL    HW216845   4.068   2.188   3.300
 5316SOL     OW16846   0.093   2.737   4.960
 5316SOL    HW116847   0.183   2.693   4.963
 5316SOL    HW216848   0.055   2.729   4.868
 5317SOL     OW16849   5.546   3.216   0.918
 5317SOL    HW116850   5.469   3.258   0.871
 5317SOL    HW216851   5.601   3.286   0.963
 5318SOL     OW16852   6.874   4.092   5.804
 5318SOL    HW116853   6.922   4.048   5.728
 5318SOL    HW216854   6.926   4.173   5.834
 5319SOL     OW16855   4.025   6.081   2.522
 5319SOL    HW116856   4.007   6.060   2.425
 5319SOL    HW216857   3.987   6.007   2.579
 5320SOL     OW16858   4.527   5.915   0.613
 5320SOL    HW116859   4.574   5.998   0.584
 5320SOL    HW216860   4.503   5.860   0.533
 5321SOL     OW16861   1.627   4.150   5.990
 5321SOL    HW116862   1.575   4.136   5.906
 5321SOL    HW216863   1.640   4.062   6.037
 5322SOL     OW16864   3.991   6.339   1.708
 5322SOL    HW116865   3.936   6.258   1.692
 5322SOL    HW216866   3.965   6.411   1.643
 5323SOL     OW16867   4.058   0.337   6.684
 5323SOL    HW116868   4.141   0.290   6.654
 5323SOL    HW216869   4.080   0.405   6.753
 5324SOL     OW16870   1.347   1.719   1.633
 5324SOL    HW116871   1.251   1.738   1.655
 5324SOL    HW216872   1.353   1.682   1.540
 5325SOL     OW16873   2.174   2.625   4.741
 5325SOL    HW116874   2.263   2.586   4.764
 5325SOL    HW216875   2.155   2.704   4.799
 5326SOL     OW16876   6.192   6.942   1.443
 5326SOL    HW116877   6.259   6.996   1.392
 5326SOL    HW216878   6.234   6.857   1.475
 5327SOL     OW16879   0.755   2.604   5.421
 5327SOL    HW116880   0.795   2.646   5.503
 5327SOL    HW216881   0.785   2.653   5.340
 5328SOL     OW16882   4.391   5.330   0.591
 5328SOL    HW116883   4.418   5.425   0.575
 5328SOL    HW216884   4.323   5.302   0.523
 5329SOL     OW16885   2.575   6.140   6.018
 5329SOL    HW116886   2.593   6.049   5.980
 5329SOL    HW216887   2.659   6.193   6.019
 5330SOL     OW16888   2.614   5.324   1.170
 5330SOL    HW116889   2.554   5.245   1.175
 5330SOL    HW216890   2.562   5.407   1.190
 5331SOL     OW16891   6.371   1.410   6.499
 5331SOL    HW116892   6.275   1.411   6.527
 5331SOL    HW216893   6.381   1.351   6.419
 5332SOL     OW16894   0.761   4.518   1.704
 5332SOL    HW116895   0.806   4.607   1.716
 5332SOL    HW216896   0.719   4.490   1.790
 5333SOL     OW16897   0.876   6.408   4.451
 5333SOL    HW116898   0.816   6.488   4.446
 5333SOL    HW216899   0.955   6.422   4.391
 5334SOL     OW16900   3.678   0.144   5.371
 5334SOL    HW116901   3.725   0.161   5.457
 5334SOL    HW216902   3.617   0.065   5.380
 5335SOL     OW16903   6.692   5.963   0.869
 5335SOL    HW116904   6.678   6.059   0.890
 5335SOL    HW216905   6.789   5.941   0.877
 5336SOL     OW16906   1.053   3.963   1.205
 5336SOL    HW116907   0.987   3.992   1.135
 5336SOL    HW216908   1.014   3.887   1.257
 5337SOL     OW16909   5.214   4.654   1.764
 5337SOL    HW116910   5.289   4.607   1.717
 5337SOL    HW216911   5.235   4.659   1.862
 5338SOL     OW16912   5.472   2.978   0.521
 5338SOL    HW116913   5.411   2.898   0.520
 5338SOL    HW216914   5.519   2.983   0.610
 5339SOL     OW16915   6.730   0.324   2.147
 5339SOL    HW116916   6.663   0.368   2.208
 5339SOL    HW216917   6.742   0.380   2.066
 5340SOL     OW16918   4.953   2.813   6.900
 5340SOL    HW116919   4.989   2.875   6.969
 5340SOL    HW216920   5.022   2.800   6.828
 5341SOL     OW16921   4.728   0.456   1.051
 5341SOL    HW116922   4.763   0.469   0.958
 5341SOL    HW216923   4.728   0.358   1.073
 5342SOL     OW16924   2.301   0.442   5.892
 5342SOL    HW116925   2.209   0.429   5.929
 5342SOL    HW216926   2.336   0.532   5.920
 5343SOL     OW16927   3.156   4.185   1.271
 5343SOL    HW116928   3.190   4.098   1.305
 5343SOL    HW216929   3.232   4.242   1.242
 5344SOL     OW16930   2.104   2.397   2.460
 5344SOL    HW116931   2.050   2.356   2.533
 5344SOL    HW216932   2.125   2.328   2.391
 5345SOL     OW16933   4.790   0.118   3.397
 5345SOL    HW116934   4.805   0.143   3.493
 5345SOL    HW216935   4.710   0.058   3.391
 5346SOL     OW16936   3.090   0.733   4.009
 5346SOL    HW116937   2.995   0.766   4.011
 5346SOL    HW216938   3.113   0.693   4.098
 5347SOL     OW16939   6.691   1.337   1.713
 5347SOL    HW116940   6.679   1.435   1.726
 5347SOL    HW216941   6.650   1.288   1.790
 5348SOL     OW16942   6.553   1.439   6.943
 5348SOL    HW116943   6.590   1.518   6.992
 5348SOL    HW216944   6.578   1.355   6.991
 5349SOL     OW16945   6.026   0.153   1.261
 5349SOL    HW116946   6.027   0.054   1.247
 5349SOL    HW216947   6.119   0.184   1.283
 5350SOL     OW16948   2.594   0.572   6.654
 5350SOL    HW116949   2.637   0.648   6.702
 5350SOL    HW216950   2.624   0.571   6.558
 5351SOL     OW16951   4.404   1.227   2.164
 5351SOL    HW116952   4.331   1.160   2.152
 5351SOL    HW216953   4.491   1.180   2.174
 5352SOL     OW16954   3.465   0.306   3.197
 5352SOL    HW116955   3.505   0.251   3.270
 5352SOL    HW216956   3.513   0.393   3.189
 5353SOL     OW16957   5.969   0.291   6.006
 5353SOL    HW116958   6.004   0.336   6.089
 5353SOL    HW216959   6.042   0.287   5.938
 5354SOL     OW16960   1.557   3.314   1.037
 5354SOL    HW116961   1.592   3.230   1.078
 5354SOL    HW216962   1.599   3.327   0.947
 5355SOL     OW16963   4.683   1.449   5.885
 5355SOL    HW116964   4.727   1.399   5.811
 5355SOL    HW216965   4.652   1.538   5.851
 5356SOL     OW16966   6.567   3.215   1.311
 5356SOL    HW116967   6.604   3.124   1.289
 5356SOL    HW216968   6.474   3.206   1.345
 5357SOL     OW16969   3.854   5.963   0.369
 5357SOL    HW116970   3.756   5.956   0.386
 5357SOL    HW216971   3.869   5.988   0.274
 5358SOL     OW16972   5.398   4.296   1.906
 5358SOL    HW116973   5.453   4.365   1.953
 5358SOL    HW216974   5.388   4.216   1.965
 5359SOL     OW16975   3.479   0.380   5.678
 5359SOL    HW116976   3.401   0.348   5.624
 5359SOL    HW216977   3.446   0.433   5.756
 5360SOL     OW16978   4.666   1.620   0.247
 5360SOL    HW116979   4.652   1.557   0.170
 5360SOL    HW216980   4.670   1.568   0.332
 5361SOL     OW16981   1.183   0.953   6.413
 5361SOL    HW116982   1.171   0.856   6.396
 5361SOL    HW216983   1.216   0.967   6.507
 5362SOL     OW16984   4.023   5.602   3.567
 5362SOL    HW116985   3.926   5.626   3.573
 5362SOL    HW216986   4.061   5.592   3.659
 5363SOL     OW16987   0.995   5.826   4.745
 5363SOL    HW116988   0.989   5.812   4.844
 5363SOL    HW216989   0.942   5.755   4.699
 5364SOL     OW16990   1.173   6.157   6.900
 5364SOL    HW116991   1.242   6.084   6.905
 5364SOL    HW216992   1.195   6.218   6.823
 5365SOL     OW16993   3.914   2.156   6.245
 5365SOL    HW116994   3.851   2.079   6.252
 5365SOL    HW216995   4.006   2.122   6.230
 5366SOL     OW16996   3.480   3.737   6.043
 5366SOL    HW116997   3.503   3.825   6.001
 5366SOL    HW216998   3.439   3.678   5.974
 5367SOL     OW16999   0.351   4.955   0.848
 5367SOL    HW117000   0.416   4.953   0.924
 5367SOL    HW217001   0.355   4.869   0.798
 5368SOL     OW17002   0.837   0.266   3.731
 5368SOL    HW117003   0.827   0.357   3.690
 5368SOL    HW217004   0.830   0.197   3.658
 5369SOL     OW17005   2.022   3.692   2.380
 5369SOL    HW117006   1.965   3.739   2.313
 5369SOL    HW217007   2.117   3.723   2.371
 5370SOL     OW17008   3.715   2.881   1.417
 5370SOL    HW117009   3.768   2.929   1.488
 5370SOL    HW217010   3.620   2.911   1.421
 5371SOL     OW17011   1.882   4.154   5.082
 5371SOL    HW117012   1.879   4.144   4.983
 5371SOL    HW217013   1.975   4.173   5.112
 5372SOL     OW17014   3.303   6.188   2.724
 5372SOL    HW117015   3.223   6.225   2.771
 5372SOL    HW217016   3.285   6.184   2.625
 5373SOL     OW17017   2.056   5.173   3.779
 5373SOL    HW117018   1.962   5.173   3.815
 5373SOL    HW217019   2.061   5.113   3.699
 5374SOL     OW17020   3.102   2.478   0.484
 5374SOL    HW117021   3.007   2.450   0.468
 5374SOL    HW217022   3.114   2.498   0.581
 5375SOL     OW17023   1.182   3.918   5.220
 5375SOL    HW117024   1.150   3.966   5.138
 5375SOL    HW217025   1.251   3.851   5.195
 5376SOL     OW17026   2.845   4.621   5.944
 5376SOL    HW117027   2.937   4.591   5.919
 5376SOL    HW217028   2.837   4.719   5.928
 5377SOL     OW17029   0.701   2.257   1.768
 5377SOL    HW117030   0.623   2.200   1.743
 5377SOL    HW217031   0.702   2.272   1.866
 5378SOL     OW17032   5.054   0.442   6.725
 5378SOL    HW117033   5.054   0.342   6.729
 5378SOL    HW217034   5.021   0.473   6.636
 5379SOL     OW17035   6.939   6.735   0.464
 5379SOL    HW117036   6.910   6.685   0.383
 5379SOL    HW217037   6.959   6.671   0.538
 5380SOL     OW17038   1.992   1.641   5.100
 5380SOL    HW117039   1.992   1.731   5.055
 5380SOL    HW217040   2.055   1.580   5.052
 5381SOL     OW17041   6.086   3.888   1.852
 5381SOL    HW117042   6.140   3.846   1.925
 5381SOL    HW217043   6.127   3.867   1.763
 5382SOL     OW17044   1.946   6.699   1.494
 5382SOL    HW117045   1.978   6.783   1.538
 5382SOL    HW217046   1.900   6.721   1.408
 5383SOL     OW17047   2.187   2.164   5.031
 5383SOL    HW117048   2.227   2.213   4.954
 5383SOL    HW217049   2.120   2.222   5.077
 5384SOL     OW17050   5.037   6.504   4.792
 5384SOL    HW117051   5.100   6.481   4.866
 5384SOL    HW217052   4.995   6.420   4.757
 5385SOL     OW17053   3.826   3.991   2.602
 5385SOL    HW117054   3.885   3.923   2.644
 5385SOL    HW217055   3.853   4.006   2.507
 5386SOL     OW17056   5.931   6.398   5.978
 5386SOL    HW117057   5.909   6.404   5.881
 5386SOL    HW217058   5.983   6.478   6.006
 5387SOL     OW17059   3.605   4.878   0.874
 5387SOL    HW117060   3.544   4.885   0.952
 5387SOL    HW217061   3.628   4.782   0.857
 5388SOL     OW17062   5.789   5.898   3.145
 5388SOL    HW117063   5.734   5.981   3.141
 5388SOL    HW217064   5.844   5.898   3.228
 5389SOL     OW17065   5.679   3.194   1.640
 5389SOL    HW117066   5.761   3.144   1.666
 5389SOL    HW217067   5.669   3.194   1.541
 5390SOL     OW17068   6.486   5.075   6.447
 5390SOL    HW117069   6.429   5.067   6.529
 5390SOL    HW217070   6.579   5.100   6.474
 5391SOL     OW17071   3.859   4.287   7.007
 5391SOL    HW117072   3.902   4.253   6.923
 5391SOL    HW217073   3.776   4.235   0.006
 5392SOL     OW17074   0.631   2.647   3.075
 5392SOL    HW117075   0.702   2.680   3.138
 5392SOL    HW217076   0.629   2.548   3.076
 5393SOL     OW17077   6.553   6.748   6.428
 5393SOL    HW117078   6.527   6.735   6.332
 5393SOL    HW217079   6.476   6.788   6.478
 5394SOL     OW17080   1.845   3.789   6.288
 5394SOL    HW117081   1.905   3.862   6.321
 5394SOL    HW217082   1.899   3.721   6.239
 5395SOL     OW17083   4.404   0.709   1.369
 5395SOL    HW117084   4.437   0.645   1.438
 5395SOL    HW217085   4.440   0.684   1.279
 5396SOL     OW17086   5.154   2.412   1.161
 5396SOL    HW117087   5.138   2.495   1.213
 5396SOL    HW217088   5.090   2.408   1.084
 5397SOL     OW17089   1.518   2.699   1.789
 5397SOL    HW117090   1.564   2.664   1.870
 5397SOL    HW217091   1.511   2.625   1.721
 5398SOL     OW17092   3.467   3.703   2.398
 5398SOL    HW117093   3.464   3.706   2.498
 5398SOL    HW217094   3.373   3.699   2.362
 5399SOL     OW17095   0.662   5.118   0.374
 5399SOL    HW117096   0.672   5.188   0.303
 5399SOL    HW217097   0.638   5.161   0.460
 5400SOL     OW17098   2.311   3.444   6.799
 5400SOL    HW117099   2.260   3.358   6.801
 5400SOL    HW217100   2.251   3.518   6.767
 5401SOL     OW17101   6.426   1.638   0.658
 5401SOL    HW117102   6.432   1.538   0.660
 5401SOL    HW217103   6.468   1.676   0.740
 5402SOL     OW17104   0.970   6.011   2.311
 5402SOL    HW117105   1.037   5.943   2.340
 5402SOL    HW217106   1.004   6.060   2.231
 5403SOL     OW17107   6.255   2.664   6.219
 5403SOL    HW117108   6.308   2.644   6.137
 5403SOL    HW217109   6.317   2.698   6.291
 5404SOL     OW17110   0.973   2.956   3.072
 5404SOL    HW117111   1.004   2.943   2.978
 5404SOL    HW217112   1.046   2.932   3.136
 5405SOL     OW17113   6.552   4.497   5.415
 5405SOL    HW117114   6.455   4.521   5.415
 5405SOL    HW217115   6.581   4.473   5.507
 5406SOL     OW17116   1.601   0.286   3.170
 5406SOL    HW117117   1.691   0.322   3.145
 5406SOL    HW217118   1.545   0.277   3.088
 5407SOL     OW17119   4.218   3.482   6.328
 5407SOL    HW117120   4.208   3.421   6.250
 5407SOL    HW217121   4.243   3.429   6.409
 5408SOL     OW17122   3.628   0.890   6.472
 5408SOL    HW117123   3.702   0.902   6.539
 5408SOL    HW217124   3.560   0.963   6.484
 5409SOL     OW17125   4.978   0.568   1.524
 5409SOL    HW117126   4.969   0.479   1.568
 5409SOL    HW217127   5.070   0.605   1.543
 5410SOL     OW17128   1.520   3.026   3.059
 5410SOL    HW117129   1.534   2.929   3.037
 5410SOL    HW217130   1.576   3.082   2.998
 5411SOL     OW17131   2.413   4.719   4.833
 5411SOL    HW117132   2.407   4.772   4.918
 5411SOL    HW217133   2.395   4.623   4.852
 5412SOL     OW17134   6.167   1.954   2.209
 5412SOL    HW117135   6.115   2.017   2.267
 5412SOL    HW217136   6.256   1.936   2.250
 5413SOL     OW17137   1.549   6.949   2.965
 5413SOL    HW117138   1.484   6.888   2.920
 5413SOL    HW217139   1.638   6.904   2.971
 5414SOL     OW17140   4.162   0.227   6.286
 5414SOL    HW117141   4.246   0.267   6.323
 5414SOL    HW217142   4.139   0.145   6.339
 5415SOL     OW17143   6.424   3.504   2.972
 5415SOL    HW117144   6.433   3.452   3.057
 5415SOL    HW217145   6.515   3.528   2.938
 5416SOL     OW17146   4.484   4.941   4.424
 5416SOL    HW117147   4.472   4.959   4.522
 5416SOL    HW217148   4.451   5.019   4.371
 5417SOL     OW17149   2.655   6.886   5.661
 5417SOL    HW117150   2.726   6.864   5.728
 5417SOL    HW217151   2.682   6.852   5.571
 5418SOL     OW17152   3.788   1.240   3.428
 5418SOL    HW117153   3.789   1.278   3.521
 5418SOL    HW217154   3.754   1.146   3.432
 5419SOL     OW17155   3.282   4.249   6.704
 5419SOL    HW117156   3.264   4.338   6.661
 5419SOL    HW217157   3.209   4.185   6.679
 5420SOL     OW17158   1.311   2.519   3.042
 5420SOL    HW117159   1.409   2.503   3.050
 5420SOL    HW217160   1.293   2.618   3.048
 5421SOL     OW17161   2.270   2.431   0.684
 5421SOL    HW117162   2.356   2.449   0.636
 5421SOL    HW217163   2.290   2.390   0.774
 5422SOL     OW17164   0.916   3.041   0.645
 5422SOL    HW117165   0.998   3.087   0.679
 5422SOL    HW217166   0.867   2.998   0.721
 5423SOL     OW17167   4.302   3.018   5.955
 5423SOL    HW117168   4.331   3.083   5.884
 5423SOL    HW217169   4.202   3.019   5.962
 5424SOL     OW17170   5.343   3.044   5.815
 5424SOL    HW117171   5.339   2.953   5.855
 5424SOL    HW217172   5.405   3.044   5.737
 5425SOL     OW17173   4.726   1.225   4.823
 5425SOL    HW117174   4.626   1.229   4.822
 5425SOL    HW217175   4.757   1.182   4.907
 5426SOL     OW17176   0.625   0.212   4.792
 5426SOL    HW117177   0.636   0.123   4.837
 5426SOL    HW217178   0.545   0.209   4.732
 5427SOL     OW17179   4.045   0.121   0.301
 5427SOL    HW117180   4.100   0.196   0.265
 5427SOL    HW217181   4.019   0.060   0.227
 5428SOL     OW17182   1.834   0.814   0.495
 5428SOL    HW117183   1.845   0.806   0.396
 5428SOL    HW217184   1.858   0.728   0.539
 5429SOL     OW17185   1.169   2.474   5.998
 5429SOL    HW117186   1.250   2.519   6.036
 5429SOL    HW217187   1.136   2.405   6.063
 5430SOL     OW17188   1.935   2.755   5.265
 5430SOL    HW117189   2.017   2.811   5.275
 5430SOL    HW217190   1.955   2.661   5.295
 5431SOL     OW17191   3.742   5.609   4.167
 5431SOL    HW117192   3.814   5.554   4.123
 5431SOL    HW217193   3.777   5.701   4.184
 5432SOL     OW17194   5.959   4.810   1.508
 5432SOL    HW117195   5.863   4.827   1.529
 5432SOL    HW217196   5.985   4.719   1.541
 5433SOL     OW17197   1.223   1.874   3.601
 5433SOL    HW117198   1.298   1.849   3.540
 5433SOL    HW217199   1.211   1.803   3.670
 5434SOL     OW17200   2.336   6.134   5.151
 5434SOL    HW117201   2.247   6.107   5.116
 5434SOL    HW217202   2.369   6.065   5.215
 5435SOL     OW17203   4.637   0.901   2.339
 5435SOL    HW117204   4.563   0.871   2.399
 5435SOL    HW217205   4.691   0.821   2.311
 5436SOL     OW17206   5.074   4.089   2.917
 5436SOL    HW117207   5.043   4.101   3.011
 5436SOL    HW217208   5.013   4.025   2.870
 5437SOL     OW17209   3.763   4.813   6.294
 5437SOL    HW117210   3.707   4.790   6.214
 5437SOL    HW217211   3.854   4.840   6.264
 5438SOL     OW17212   6.805   0.765   0.585
 5438SOL    HW117213   6.771   0.732   0.672
 5438SOL    HW217214   6.862   0.695   0.542
 5439SOL     OW17215   1.344   2.946   0.546
 5439SOL    HW117216   1.330   2.952   0.644
 5439SOL    HW217217   1.423   2.888   0.527
 5440SOL     OW17218   2.011   0.891   1.468
 5440SOL    HW117219   2.083   0.924   1.407
 5440SOL    HW217220   2.053   0.853   1.551
 5441SOL     OW17221   3.966   1.816   4.640
 5441SOL    HW117222   3.874   1.848   4.660
 5441SOL    HW217223   3.961   1.736   4.580
 5442SOL     OW17224   3.383   1.290   1.692
 5442SOL    HW117225   3.438   1.271   1.611
 5442SOL    HW217226   3.357   1.387   1.693
 5443SOL     OW17227   1.543   6.584   5.767
 5443SOL    HW117228   1.566   6.675   5.734
 5443SOL    HW217229   1.537   6.520   5.690
 5444SOL     OW17230   0.238   0.940   3.642
 5444SOL    HW117231   0.321   0.888   3.620
 5444SOL    HW217232   0.182   0.887   3.706
 5445SOL     OW17233   6.189   3.678   2.056
 5445SOL    HW117234   6.260   3.734   2.098
 5445SOL    HW217235   6.155   3.612   2.124
 5446SOL     OW17236   6.556   6.058   5.944
 5446SOL    HW117237   6.618   6.023   5.874
 5446SOL    HW217238   6.462   6.031   5.923
 5447SOL     OW17239   3.026   2.763   1.094
 5447SOL    HW117240   3.007   2.711   1.177
 5447SOL    HW217241   3.109   2.819   1.108
 5448SOL     OW17242   5.468   1.449   6.450
 5448SOL    HW117243   5.412   1.380   6.496
 5448SOL    HW217244   5.534   1.486   6.515
 5449SOL     OW17245   0.117   2.547   0.018
 5449SOL    HW117246   0.178   2.469   0.005
 5449SOL    HW217247   0.125   2.608   6.958
 5450SOL     OW17248   2.272   6.254   0.944
 5450SOL    HW117249   2.235   6.274   1.035
 5450SOL    HW217250   2.372   6.258   0.947
 5451SOL     OW17251   2.796   0.293   2.240
 5451SOL    HW117252   2.769   0.305   2.336
 5451SOL    HW217253   2.856   0.369   2.213
 5452SOL     OW17254   2.791   3.692   5.718
 5452SOL    HW117255   2.866   3.752   5.692
 5452SOL    HW217256   2.783   3.618   5.651
 5453SOL     OW17257   0.260   5.372   5.445
 5453SOL    HW117258   0.318   5.393   5.523
 5453SOL    HW217259   0.318   5.344   5.368
 5454SOL     OW17260   0.770   3.816   5.519
 5454SOL    HW117261   0.846   3.846   5.462
 5454SOL    HW217262   0.688   3.868   5.495
 5455SOL     OW17263   6.598   1.974   0.825
 5455SOL    HW117264   6.501   1.981   0.847
 5455SOL    HW217265   6.645   2.059   0.852
 5456SOL     OW17266   3.502   0.013   1.459
 5456SOL    HW117267   3.442   6.990   1.391
 5456SOL    HW217268   3.490   6.986   1.547
 5457SOL     OW17269   6.260   3.518   1.361
 5457SOL    HW117270   6.259   3.465   1.276
 5457SOL    HW217271   6.344   3.572   1.366
 5458SOL     OW17272   1.727   4.401   5.897
 5458SOL    HW117273   1.714   4.319   5.952
 5458SOL    HW217274   1.824   4.409   5.872
 5459SOL     OW17275   2.166   3.917   6.084
 5459SOL    HW117276   2.255   3.905   6.040
 5459SOL    HW217277   2.158   3.852   6.160
 5460SOL     OW17278   4.004   0.179   4.206
 5460SOL    HW117279   3.976   0.135   4.121
 5460SOL    HW217280   4.096   0.217   4.195
 5461SOL     OW17281   4.261   6.665   4.987
 5461SOL    HW117282   4.162   6.673   4.998
 5461SOL    HW217283   4.304   6.755   5.000
 5462SOL     OW17284   0.105   0.740   1.612
 5462SOL    HW117285   0.101   0.794   1.696
 5462SOL    HW217286   0.095   0.643   1.634
 5463SOL     OW17287   6.784   3.007   0.963
 5463SOL    HW117288   6.820   2.984   0.873
 5463SOL    HW217289   6.856   3.050   1.018
 5464SOL     OW17290   1.637   6.772   4.706
 5464SOL    HW117291   1.568   6.701   4.696
 5464SOL    HW217292   1.684   6.785   4.619
 5465SOL     OW17293   2.970   5.959   6.920
 5465SOL    HW117294   2.980   6.058   6.935
 5465SOL    HW217295   2.937   5.942   6.827
 5466SOL     OW17296   5.151   6.340   4.546
 5466SOL    HW117297   5.186   6.433   4.549
 5466SOL    HW217298   5.081   6.328   4.617
 5467SOL     OW17299   5.807   1.929   1.602
 5467SOL    HW117300   5.759   1.853   1.646
 5467SOL    HW217301   5.905   1.919   1.618
 5468SOL     OW17302   4.418   1.574   6.737
 5468SOL    HW117303   4.467   1.537   6.658
 5468SOL    HW217304   4.342   1.513   6.760
 5469SOL     OW17305   4.806   4.872   1.755
 5469SOL    HW117306   4.772   4.781   1.781
 5469SOL    HW217307   4.739   4.918   1.698
 5470SOL     OW17308   0.224   4.934   3.566
 5470SOL    HW117309   0.314   4.947   3.608
 5470SOL    HW217310   0.178   4.856   3.609
 5471SOL     OW17311   6.757   4.469   2.251
 5471SOL    HW117312   6.819   4.415   2.308
 5471SOL    HW217313   6.721   4.545   2.306
 5472SOL     OW17314   3.520   5.332   5.364
 5472SOL    HW117315   3.456   5.332   5.288
 5472SOL    HW217316   3.473   5.363   5.447
 5473SOL     OW17317   1.988   4.625   3.977
 5473SOL    HW117318   1.928   4.596   3.902
 5473SOL    HW217319   1.966   4.574   4.060
 5474SOL     OW17320   0.632   5.842   3.153
 5474SOL    HW117321   0.665   5.777   3.221
 5474SOL    HW217322   0.699   5.914   3.141
 5475SOL     OW17323   3.085   2.889   1.572
 5475SOL    HW117324   3.119   2.924   1.485
 5475SOL    HW217325   3.160   2.849   1.624
 5476SOL     OW17326   2.083   3.244   6.818
 5476SOL    HW117327   2.043   3.260   6.909
 5476SOL    HW217328   2.082   3.146   6.799
 5477SOL     OW17329   2.249   2.451   2.110
 5477SOL    HW117330   2.216   2.489   2.196
 5477SOL    HW217331   2.347   2.470   2.102
 5478SOL     OW17332   0.173   5.640   5.140
 5478SOL    HW117333   0.132   5.560   5.184
 5478SOL    HW217334   0.188   5.621   5.043
 5479SOL     OW17335   4.308   5.989   5.607
 5479SOL    HW117336   4.322   5.970   5.509
 5479SOL    HW217337   4.362   6.070   5.633
 5480SOL     OW17338   0.435   2.069   5.802
 5480SOL    HW117339   0.361   2.042   5.742
 5480SOL    HW217340   0.410   2.051   5.897
 5481SOL     OW17341   4.494   6.121   3.078
 5481SOL    HW117342   4.472   6.181   3.154
 5481SOL    HW217343   4.462   6.028   3.098
 5482SOL     OW17344   1.559   6.101   2.069
 5482SOL    HW117345   1.625   6.176   2.073
 5482SOL    HW217346   1.555   6.065   1.975
 5483SOL     OW17347   0.809   2.371   6.912
 5483SOL    HW117348   0.775   2.278   6.919
 5483SOL    HW217349   0.887   2.373   6.849
 5484SOL     OW17350   5.198   6.908   4.922
 5484SOL    HW117351   5.176   7.003   4.945
 5484SOL    HW217352   5.211   6.900   4.823
 5485SOL     OW17353   3.425   0.714   4.592
 5485SOL    HW117354   3.339   0.755   4.623
 5485SOL    HW217355   3.495   0.727   4.662
 5486SOL     OW17356   2.893   5.256   3.545
 5486SOL    HW117357   2.990   5.250   3.518
 5486SOL    HW217358   2.888   5.279   3.642
 5487SOL     OW17359   3.700   6.168   5.201
 5487SOL    HW117360   3.741   6.227   5.271
 5487SOL    HW217361   3.714   6.073   5.226
 5488SOL     OW17362   4.544   2.126   6.658
 5488SOL    HW117363   4.607   2.147   6.733
 5488SOL    HW217364   4.595   2.085   6.582
 5489SOL     OW17365   6.609   2.592   3.959
 5489SOL    HW117366   6.587   2.669   3.900
 5489SOL    HW217367   6.526   2.562   4.006
 5490SOL     OW17368   0.744   5.230   2.182
 5490SOL    HW117369   0.676   5.182   2.238
 5490SOL    HW217370   0.706   5.248   2.092
 5491SOL     OW17371   6.266   4.104   0.685
 5491SOL    HW117372   6.331   4.073   0.755
 5491SOL    HW217373   6.242   4.027   0.626
 5492SOL     OW17374   0.853   1.874   7.019
 5492SOL    HW117375   0.915   1.853   0.075
 5492SOL    HW217376   0.763   1.899   0.036
 5493SOL     OW17377   4.255   3.949   6.192
 5493SOL    HW117378   4.213   3.967   6.103
 5493SOL    HW217379   4.186   3.913   6.255
 5494SOL     OW17380   5.755   2.147   4.964
 5494SOL    HW117381   5.683   2.092   5.006
 5494SOL    HW217382   5.805   2.196   5.036
 5495SOL     OW17383   5.915   0.686   0.706
 5495SOL    HW117384   5.853   0.735   0.767
 5495SOL    HW217385   5.872   0.602   0.675
 5496SOL     OW17386   4.225   6.397   6.111
 5496SOL    HW117387   4.307   6.348   6.080
 5496SOL    HW217388   4.174   6.340   6.175
 5497SOL     OW17389   0.914   0.104   6.166
 5497SOL    HW117390   0.947   0.184   6.216
 5497SOL    HW217391   0.866   0.043   6.229
 5498SOL     OW17392   0.289   5.992   1.768
 5498SOL    HW117393   0.347   6.069   1.741
 5498SOL    HW217394   0.338   5.933   1.832
 5499SOL     OW17395   2.044   0.776   3.421
 5499SOL    HW117396   1.955   0.733   3.438
 5499SOL    HW217397   2.029   0.868   3.385
 5500SOL     OW17398   1.245   6.268   1.707
 5500SOL    HW117399   1.198   6.251   1.620
 5500SOL    HW217400   1.292   6.356   1.703
 5501SOL     OW17401   5.422   3.623   0.667
 5501SOL    HW117402   5.488   3.598   0.596
 5501SOL    HW217403   5.446   3.713   0.705
 5502SOL     OW17404   4.663   4.004   0.303
 5502SOL    HW117405   4.599   3.942   0.259
 5502SOL    HW217406   4.662   4.092   0.254
 5503SOL     OW17407   6.318   2.850   1.308
 5503SOL    HW117408   6.401   2.901   1.331
 5503SOL    HW217409   6.344   2.763   1.265
 5504SOL     OW17410   3.220   2.053   6.858
 5504SOL    HW117411   3.227   2.082   6.953
 5504SOL    HW217412   3.133   2.004   6.844
 5505SOL     OW17413   2.614   5.108   2.239
 5505SOL    HW117414   2.600   5.205   2.259
 5505SOL    HW217415   2.699   5.077   2.281
 5506SOL     OW17416   6.433   2.903   6.091
 5506SOL    HW117417   6.441   2.911   6.190
 5506SOL    HW217418   6.500   2.836   6.058
 5507SOL     OW17419   3.879   6.078   0.091
 5507SOL    HW117420   3.858   6.122   0.003
 5507SOL    HW217421   3.857   6.141   0.165
 5508SOL     OW17422   6.749   2.238   6.302
 5508SOL    HW117423   6.828   2.200   6.254
 5508SOL    HW217424   6.720   2.174   6.374
 5509SOL     OW17425   6.210   4.150   0.392
 5509SOL    HW117426   6.154   4.226   0.360
 5509SOL    HW217427   6.241   4.169   0.485
 5510SOL     OW17428   5.661   5.821   6.959
 5510SOL    HW117429   5.724   5.878   7.010
 5510SOL    HW217430   5.615   5.876   6.889
 5511SOL     OW17431   1.051   2.683   6.470
 5511SOL    HW117432   1.017   2.594   6.501
 5511SOL    HW217433   0.988   2.755   6.499
 5512SOL     OW17434   3.357   0.064   2.166
 5512SOL    HW117435   3.316   0.025   2.248
 5512SOL    HW217436   3.442   0.111   2.189
 5513SOL     OW17437   4.209   4.688   6.744
 5513SOL    HW117438   4.204   4.626   6.666
 5513SOL    HW217439   4.144   4.659   6.815
 5514SOL     OW17440   3.932   1.594   0.258
 5514SOL    HW117441   4.008   1.603   0.322
 5514SOL    HW217442   3.896   1.500   0.262
 5515SOL     OW17443   3.460   4.994   2.514
 5515SOL    HW117444   3.494   5.036   2.598
 5515SOL    HW217445   3.391   4.925   2.538
 5516SOL     OW17446   0.637   2.924   6.143
 5516SOL    HW117447   0.693   2.912   6.225
 5516SOL    HW217448   0.697   2.940   6.065
 5517SOL     OW17449   1.017   1.910   4.385
 5517SOL    HW117450   0.940   1.935   4.442
 5517SOL    HW217451   1.086   1.864   4.441
 5518SOL     OW17452   4.231   4.353   5.892
 5518SOL    HW117453   4.157   4.307   5.843
 5518SOL    HW217454   4.194   4.431   5.942
 5519SOL     OW17455   5.309   2.792   5.412
 5519SOL    HW117456   5.248   2.862   5.449
 5519SOL    HW217457   5.258   2.709   5.392
 5520SOL     OW17458   5.186   5.811   1.771
 5520SOL    HW117459   5.155   5.811   1.866
 5520SOL    HW217460   5.110   5.839   1.712
 5521SOL     OW17461   4.608   0.358   2.318
 5521SOL    HW117462   4.565   0.332   2.404
 5521SOL    HW217463   4.543   0.345   2.243
 5522SOL     OW17464   4.508   6.365   6.587
 5522SOL    HW117465   4.470   6.296   6.524
 5522SOL    HW217466   4.607   6.355   6.591
 5523SOL     OW17467   5.186   1.517   0.740
 5523SOL    HW117468   5.228   1.607   0.753
 5523SOL    HW217469   5.104   1.510   0.796
 5524SOL     OW17470   2.033   1.551   2.790
 5524SOL    HW117471   2.026   1.551   2.690
 5524SOL    HW217472   2.128   1.565   2.816
 5525SOL     OW17473   6.750   1.065   0.924
 5525SOL    HW117474   6.816   1.083   0.850
 5525SOL    HW217475   6.724   0.969   0.922
 5526SOL     OW17476   5.265   4.114   3.869
 5526SOL    HW117477   5.353   4.114   3.916
 5526SOL    HW217478   5.257   4.030   3.815
 5527SOL     OW17479   6.091   0.372   2.397
 5527SOL    HW117480   6.029   0.349   2.472
 5527SOL    HW217481   6.148   0.293   2.375
 5528SOL     OW17482   1.818   1.318   0.284
 5528SOL    HW117483   1.806   1.322   0.383
 5528SOL    HW217484   1.891   1.253   0.261
 5529SOL     OW17485   3.536   0.469   2.324
 5529SOL    HW117486   3.565   0.541   2.387
 5529SOL    HW217487   3.605   0.459   2.252
 5530SOL     OW17488   1.059   1.545   1.084
 5530SOL    HW117489   1.030   1.450   1.097
 5530SOL    HW217490   0.979   1.603   1.073
 5531SOL     OW17491   1.410   4.812   0.088
 5531SOL    HW117492   1.371   4.760   0.164
 5531SOL    HW217493   1.404   4.759   0.004
 5532SOL     OW17494   0.323   4.550   6.070
 5532SOL    HW117495   0.279   4.463   6.094
 5532SOL    HW217496   0.353   4.547   5.975
 5533SOL     OW17497   2.972   1.168   3.635
 5533SOL    HW117498   2.881   1.127   3.623
 5533SOL    HW217499   3.007   1.196   3.545
 5534SOL     OW17500   1.337   0.742   4.422
 5534SOL    HW117501   1.281   0.701   4.494
 5534SOL    HW217502   1.306   0.835   4.404
 5535SOL     OW17503   0.259   2.135   2.533
 5535SOL    HW117504   0.160   2.120   2.534
 5535SOL    HW217505   0.304   2.070   2.594
 5536SOL     OW17506   4.504   0.569   4.568
 5536SOL    HW117507   4.592   0.592   4.611
 5536SOL    HW217508   4.449   0.516   4.633
 5537SOL     OW17509   2.752   2.312   2.951
 5537SOL    HW117510   2.675   2.365   2.987
 5537SOL    HW217511   2.778   2.348   2.861
 5538SOL     OW17512   3.853   5.288   3.656
 5538SOL    HW117513   3.865   5.383   3.685
 5538SOL    HW217514   3.914   5.229   3.709
 5539SOL     OW17515   2.339   3.852   0.091
 5539SOL    HW117516   2.430   3.820   0.118
 5539SOL    HW217517   2.335   3.862   7.011
 5540SOL     OW17518   3.868   5.326   1.036
 5540SOL    HW117519   3.777   5.311   0.998
 5540SOL    HW217520   3.894   5.247   1.092
 5541SOL     OW17521   4.518   0.511   6.703
 5541SOL    HW117522   4.425   0.541   6.681
 5541SOL    HW217523   4.558   0.572   6.771
 5542SOL     OW17524   5.730   3.590   6.809
 5542SOL    HW117525   5.687   3.634   6.887
 5542SOL    HW217526   5.710   3.492   6.811
 5543SOL     OW17527   0.929   2.435   4.818
 5543SOL    HW117528   0.949   2.362   4.883
 5543SOL    HW217529   1.004   2.441   4.751
 5544SOL     OW17530   5.577   6.986   0.354
 5544SOL    HW117531   5.643   6.916   0.325
 5544SOL    HW217532   5.510   7.001   0.282
 5545SOL     OW17533   2.584   2.475   2.055
 5545SOL    HW117534   2.675   2.500   2.020
 5545SOL    HW217535   2.562   2.382   2.026
 5546SOL     OW17536   3.263   5.445   4.774
 5546SOL    HW117537   3.232   5.491   4.691
 5546SOL    HW217538   3.363   5.439   4.773
 5547SOL     OW17539   2.677   5.021   3.755
 5547SOL    HW117540   2.637   5.075   3.830
 5547SOL    HW217541   2.713   5.083   3.685
 5548SOL     OW17542   6.523   1.718   4.442
 5548SOL    HW117543   6.552   1.810   4.467
 5548SOL    HW217544   6.540   1.656   4.519
 5549SOL     OW17545   3.082   4.950   5.738
 5549SOL    HW117546   3.113   4.972   5.831
 5549SOL    HW217547   3.161   4.944   5.677
 5550SOL     OW17548   3.052   6.045   2.520
 5550SOL    HW117549   2.971   6.087   2.560
 5550SOL    HW217550   3.120   6.116   2.502
 5551SOL     OW17551   0.640   1.545   2.705
 5551SOL    HW117552   0.675   1.483   2.634
 5551SOL    HW217553   0.582   1.493   2.768
 5552SOL     OW17554   2.057   2.172   2.250
 5552SOL    HW117555   1.978   2.217   2.207
 5552SOL    HW217556   2.130   2.163   2.183
 5553SOL     OW17557   4.950   6.331   6.115
 5553SOL    HW117558   5.025   6.371   6.167
 5553SOL    HW217559   4.986   6.277   6.039
 5554SOL     OW17560   2.925   0.118   5.769
 5554SOL    HW117561   2.910   0.076   5.859
 5554SOL    HW217562   2.837   0.132   5.724
 5555SOL     OW17563   1.363   5.764   1.733
 5555SOL    HW117564   1.353   5.677   1.684
 5555SOL    HW217565   1.315   5.836   1.684
 5556SOL     OW17566   6.734   1.524   4.909
 5556SOL    HW117567   6.723   1.622   4.924
 5556SOL    HW217568   6.831   1.501   4.905
 5557SOL     OW17569   3.798   0.825   2.439
 5557SOL    HW117570   3.699   0.810   2.448
 5557SOL    HW217571   3.815   0.896   2.371
 5558SOL     OW17572   5.005   2.763   6.254
 5558SOL    HW117573   4.962   2.768   6.345
 5558SOL    HW217574   4.981   2.676   6.211
 5559SOL     OW17575   3.416   0.814   0.723
 5559SOL    HW117576   3.348   0.885   0.739
 5559SOL    HW217577   3.507   0.848   0.750
 5560SOL     OW17578   0.171   1.968   4.806
 5560SOL    HW117579   0.222   1.969   4.720
 5560SOL    HW217580   0.110   2.047   4.810
 5561SOL     OW17581   2.059   4.514   2.117
 5561SOL    HW117582   2.149   4.508   2.073
 5561SOL    HW217583   2.001   4.440   2.085
 5562SOL     OW17584   4.288   2.639   0.267
 5562SOL    HW117585   4.206   2.618   0.214
 5562SOL    HW217586   4.342   2.556   0.277
 5563SOL     OW17587   3.542   4.580   0.926
 5563SOL    HW117588   3.458   4.560   0.876
 5563SOL    HW217589   3.619   4.534   0.882
 5564SOL     OW17590   6.435   0.739   2.189
 5564SOL    HW117591   6.414   0.665   2.124
 5564SOL    HW217592   6.352   0.765   2.237
 5565SOL     OW17593   1.439   2.830   6.006
 5565SOL    HW117594   1.539   2.832   6.014
 5565SOL    HW217595   1.398   2.874   6.085
 5566SOL     OW17596   2.641   4.346   0.462
 5566SOL    HW117597   2.644   4.403   0.544
 5566SOL    HW217598   2.639   4.250   0.488
 5567SOL     OW17599   1.183   5.819   3.220
 5567SOL    HW117600   1.262   5.783   3.172
 5567SOL    HW217601   1.113   5.748   3.227
 5568SOL     OW17602   4.019   3.044   6.914
 5568SOL    HW117603   4.086   2.993   6.968
 5568SOL    HW217604   3.931   3.044   6.962
 5569SOL     OW17605   4.771   1.322   6.431
 5569SOL    HW117606   4.719   1.244   6.396
 5569SOL    HW217607   4.868   1.307   6.416
 5570SOL     OW17608   1.952   2.451   6.153
 5570SOL    HW117609   1.898   2.368   6.157
 5570SOL    HW217610   2.024   2.442   6.084
 5571SOL     OW17611   0.418   4.543   6.489
 5571SOL    HW117612   0.510   4.506   6.477
 5571SOL    HW217613   0.396   4.602   6.411
 5572SOL     OW17614   1.021   3.550   5.270
 5572SOL    HW117615   1.112   3.587   5.251
 5572SOL    HW217616   0.953   3.622   5.260
 5573SOL     OW17617   0.087   3.413   6.765
 5573SOL    HW117618   0.002   3.424   6.815
 5573SOL    HW217619   0.089   3.477   6.687
 5574SOL     OW17620   2.434   6.138   4.475
 5574SOL    HW117621   2.408   6.066   4.410
 5574SOL    HW217622   2.371   6.136   4.553
 5575SOL     OW17623   1.309   1.497   2.707
 5575SOL    HW117624   1.297   1.475   2.803
 5575SOL    HW217625   1.390   1.449   2.671
 5576SOL     OW17626   5.190   6.892   6.299
 5576SOL    HW117627   5.284   6.862   6.315
 5576SOL    HW217628   5.185   6.938   6.211
 5577SOL     OW17629   1.372   4.936   4.738
 5577SOL    HW117630   1.426   4.965   4.817
 5577SOL    HW217631   1.338   4.843   4.753
 5578SOL     OW17632   4.230   1.705   6.343
 5578SOL    HW117633   4.255   1.734   6.435
 5578SOL    HW217634   4.136   1.736   6.323
 5579SOL     OW17635   4.943   4.752   2.037
 5579SOL    HW117636   4.899   4.747   1.947
 5579SOL    HW217637   5.014   4.823   2.036
 5580SOL     OW17638   6.390   1.219   2.163
 5580SOL    HW117639   6.440   1.241   2.079
 5580SOL    HW217640   6.382   1.119   2.171
 5581SOL     OW17641   3.323   3.382   0.552
 5581SOL    HW117642   3.304   3.467   0.601
 5581SOL    HW217643   3.320   3.305   0.615
 5582SOL     OW17644   2.890   3.491   5.143
 5582SOL    HW117645   2.932   3.530   5.061
 5582SOL    HW217646   2.919   3.396   5.153
 5583SOL     OW17647   4.228   1.128   6.469
 5583SOL    HW117648   4.184   1.192   6.407
 5583SOL    HW217649   4.245   1.172   6.557
 5584SOL     OW17650   4.891   3.358   4.258
 5584SOL    HW117651   4.936   3.309   4.332
 5584SOL    HW217652   4.866   3.293   4.185
 5585SOL     OW17653   0.009   0.856   3.440
 5585SOL    HW117654   0.061   0.936   3.410
 5585SOL    HW217655   7.011   0.862   3.538
 5586SOL     OW17656   1.657   0.806   0.092
 5586SOL    HW117657   1.644   0.895   0.048
 5586SOL    HW217658   1.621   0.734   0.033
 5587SOL     OW17659   3.447   6.344   3.146
 5587SOL    HW117660   3.504   6.376   3.221
 5587SOL    HW217661   3.505   6.314   3.070
 5588SOL     OW17662   4.747   5.431   0.106
 5588SOL    HW117663   4.738   5.387   0.195
 5588SOL    HW217664   4.683   5.389   0.042
 5589SOL     OW17665   1.473   2.658   6.833
 5589SOL    HW117666   1.395   2.719   6.851
 5589SOL    HW217667   1.442   2.577   6.784
 5590SOL     OW17668   6.183   0.665   3.351
 5590SOL    HW117669   6.142   0.665   3.442
 5590SOL    HW217670   6.283   0.667   3.359
 5591SOL     OW17671   5.010   1.331   6.294
 5591SOL    HW117672   5.063   1.412   6.321
 5591SOL    HW217673   4.979   1.341   6.200
 5592SOL     OW17674   1.359   3.588   2.490
 5592SOL    HW117675   1.287   3.594   2.420
 5592SOL    HW217676   1.318   3.562   2.577
 5593SOL     OW17677   2.133   3.573   5.194
 5593SOL    HW117678   2.121   3.530   5.284
 5593SOL    HW217679   2.163   3.668   5.207
 5594SOL     OW17680   3.056   0.662   6.146
 5594SOL    HW117681   3.012   0.742   6.188
 5594SOL    HW217682   3.130   0.692   6.086
 5595SOL     OW17683   6.792   3.400   0.542
 5595SOL    HW117684   6.773   3.303   0.557
 5595SOL    HW217685   6.850   3.435   0.615
 5596SOL     OW17686   5.136   3.754   4.444
 5596SOL    HW117687   5.090   3.710   4.368
 5596SOL    HW217688   5.127   3.697   4.526
 5597SOL     OW17689   0.343   2.115   6.694
 5597SOL    HW117690   0.378   2.127   6.787
 5597SOL    HW217691   0.280   2.037   6.693
 5598SOL     OW17692   6.455   6.898   3.355
 5598SOL    HW117693   6.472   6.828   3.424
 5598SOL    HW217694   6.495   6.985   3.385
 5599SOL     OW17695   4.882   3.294   3.074
 5599SOL    HW117696   4.849   3.199   3.072
 5599SOL    HW217697   4.927   3.315   2.988
 5600SOL     OW17698   2.085   3.216   2.032
 5600SOL    HW117699   2.112   3.159   2.109
 5600SOL    HW217700   2.152   3.290   2.021
 5601SOL     OW17701   4.923   2.394   6.634
 5601SOL    HW117702   4.882   2.342   6.710
 5601SOL    HW217703   4.879   2.483   6.627
 5602SOL     OW17704   5.768   1.164   2.526
 5602SOL    HW117705   5.794   1.257   2.499
 5602SOL    HW217706   5.710   1.168   2.607
 5603SOL     OW17707   3.825   1.162   6.284
 5603SOL    HW117708   3.889   1.220   6.332
 5603SOL    HW217709   3.755   1.218   6.240
 5604SOL     OW17710   1.603   4.094   3.780
 5604SOL    HW117711   1.649   4.005   3.787
 5604SOL    HW217712   1.618   4.146   3.864
 5605SOL     OW17713   3.355   6.632   4.697
 5605SOL    HW117714   3.294   6.672   4.765
 5605SOL    HW217715   3.407   6.557   4.738
 5606SOL     OW17716   4.446   4.422   1.163
 5606SOL    HW117717   4.476   4.492   1.099
 5606SOL    HW217718   4.386   4.357   1.116
 5607SOL     OW17719   1.648   1.739   2.148
 5607SOL    HW117720   1.616   1.802   2.077
 5607SOL    HW217721   1.583   1.737   2.223
 5608SOL     OW17722   6.605   6.590   3.883
 5608SOL    HW117723   6.552   6.623   3.806
 5608SOL    HW217724   6.588   6.492   3.895
 5609SOL     OW17725   0.053   1.185   0.517
 5609SOL    HW117726   0.128   1.204   0.580
 5609SOL    HW217727   0.063   1.241   0.435
 5610SOL     OW17728   5.385   6.537   6.650
 5610SOL    HW117729   5.342   6.627   6.649
 5610SOL    HW217730   5.412   6.511   6.557
 5611SOL     OW17731   6.715   4.067   1.694
 5611SOL    HW117732   6.660   4.150   1.699
 5611SOL    HW217733   6.706   4.014   1.778
 5612SOL     OW17734   5.289   1.950   1.270
 5612SOL    HW117735   5.228   1.889   1.219
 5612SOL    HW217736   5.382   1.940   1.234
 5613SOL     OW17737   6.768   5.214   5.316
 5613SOL    HW117738   6.798   5.307   5.298
 5613SOL    HW217739   6.800   5.185   5.406
 5614SOL     OW17740   5.374   2.504   4.380
 5614SOL    HW117741   5.432   2.481   4.303
 5614SOL    HW217742   5.430   2.512   4.463
 5615SOL     OW17743   0.888   3.069   2.478
 5615SOL    HW117744   0.795   3.106   2.481
 5615SOL    HW217745   0.953   3.139   2.507
 5616SOL     OW17746   1.992   2.991   1.505
 5616SOL    HW117747   2.011   3.020   1.599
 5616SOL    HW217748   1.915   2.928   1.504
 5617SOL     OW17749   0.394   5.138   4.820
 5617SOL    HW117750   0.320   5.097   4.767
 5617SOL    HW217751   0.461   5.179   4.759
 5618SOL     OW17752   5.137   1.126   3.070
 5618SOL    HW117753   5.226   1.170   3.078
 5618SOL    HW217754   5.087   1.165   2.993
 5619SOL     OW17755   3.815   4.111   4.300
 5619SOL    HW117756   3.725   4.115   4.257
 5619SOL    HW217757   3.805   4.089   4.397
 5620SOL     OW17758   4.721   4.484   5.610
 5620SOL    HW117759   4.721   4.503   5.708
 5620SOL    HW217760   4.747   4.388   5.595
 5621SOL     OW17761   1.020   3.154   0.389
 5621SOL    HW117762   0.991   3.079   0.449
 5621SOL    HW217763   1.067   3.116   0.309
 5622SOL     OW17764   5.428   5.937   3.295
 5622SOL    HW117765   5.385   5.873   3.358
 5622SOL    HW217766   5.410   6.031   3.325
 5623SOL     OW17767   4.389   4.564   3.538
 5623SOL    HW117768   4.402   4.523   3.628
 5623SOL    HW217769   4.310   4.626   3.540
 5624SOL     OW17770   4.866   3.912   4.058
 5624SOL    HW117771   4.829   3.866   4.138
 5624SOL    HW217772   4.957   3.947   4.078
 5625SOL     OW17773   4.065   6.963   6.354
 5625SOL    HW117774   4.030   6.915   6.274
 5625SOL    HW217775   3.998   6.957   6.428
 5626SOL     OW17776   1.984   4.392   5.873
 5626SOL    HW117777   2.007   4.297   5.892
 5626SOL    HW217778   2.065   4.450   5.884
 5627SOL     OW17779   0.777   5.738   0.815
 5627SOL    HW117780   0.725   5.674   0.759
 5627SOL    HW217781   0.848   5.781   0.759
 5628SOL     OW17782   0.933   2.626   7.013
 5628SOL    HW117783   0.916   2.533   6.980
 5628SOL    HW217784   0.858   2.656   0.052
 5629SOL     OW17785   0.788   3.126   4.784
 5629SOL    HW117786   0.785   3.192   4.709
 5629SOL    HW217787   0.717   3.058   4.771
 5630SOL     OW17788   0.968   4.561   6.333
 5630SOL    HW117789   1.008   4.504   6.404
 5630SOL    HW217790   0.959   4.508   6.249
 5631SOL     OW17791   3.124   0.944   3.654
 5631SOL    HW117792   3.080   1.034   3.657
 5631SOL    HW217793   3.058   0.874   3.682
 5632SOL     OW17794   2.778   6.316   6.581
 5632SOL    HW117795   2.759   6.377   6.658
 5632SOL    HW217796   2.713   6.333   6.508
 5633SOL     OW17797   1.916   5.753   4.786
 5633SOL    HW117798   1.949   5.674   4.734
 5633SOL    HW217799   1.825   5.732   4.823
 5634SOL     OW17800   2.439   0.248   1.394
 5634SOL    HW117801   2.378   0.276   1.469
 5634SOL    HW217802   2.384   0.222   1.314
 5635SOL     OW17803   4.206   1.152   2.532
 5635SOL    HW117804   4.134   1.215   2.503
 5635SOL    HW217805   4.185   1.059   2.502
 5636SOL     OW17806   5.055   0.390   4.212
 5636SOL    HW117807   4.956   0.408   4.216
 5636SOL    HW217808   5.078   0.315   4.273
 5637SOL     OW17809   5.977   0.066   5.692
 5637SOL    HW117810   5.892   0.114   5.716
 5637SOL    HW217811   6.028   0.046   5.776
 5638SOL     OW17812   1.388   6.532   0.298
 5638SOL    HW117813   1.393   6.608   0.362
 5638SOL    HW217814   1.293   6.515   0.273
 5639SOL     OW17815   3.456   6.940   1.732
 5639SOL    HW117816   3.523   6.866   1.725
 5639SOL    HW217817   3.390   6.918   1.803
 5640SOL     OW17818   4.506   6.548   4.351
 5640SOL    HW117819   4.485   6.481   4.280
 5640SOL    HW217820   4.517   6.501   4.438
 5641SOL     OW17821   6.571   4.709   3.625
 5641SOL    HW117822   6.503   4.647   3.662
 5641SOL    HW217823   6.528   4.769   3.558
 5642SOL     OW17824   2.118   1.988   6.306
 5642SOL    HW117825   2.114   2.039   6.220
 5642SOL    HW217826   2.090   2.048   6.381
 5643SOL     OW17827   5.268   2.779   3.337
 5643SOL    HW117828   5.191   2.731   3.378
 5643SOL    HW217829   5.348   2.719   3.336
 5644SOL     OW17830   3.061   1.029   5.892
 5644SOL    HW117831   3.144   1.019   5.947
 5644SOL    HW217832   3.052   0.949   5.832
 5645SOL     OW17833   6.644   6.541   4.309
 5645SOL    HW117834   6.643   6.595   4.393
 5645SOL    HW217835   6.599   6.592   4.235
 5646SOL     OW17836   6.431   1.010   2.591
 5646SOL    HW117837   6.353   1.070   2.572
 5646SOL    HW217838   6.468   0.975   2.505
 5647SOL     OW17839   5.775   3.313   6.545
 5647SOL    HW117840   5.783   3.326   6.644
 5647SOL    HW217841   5.754   3.401   6.502
 5648SOL     OW17842   1.581   1.780   3.612
 5648SOL    HW117843   1.538   1.869   3.631
 5648SOL    HW217844   1.514   1.720   3.568
 5649SOL     OW17845   6.502   0.828   4.643
 5649SOL    HW117846   6.449   0.909   4.616
 5649SOL    HW217847   6.512   0.827   4.743
 5650SOL     OW17848   6.247   4.865   5.736
 5650SOL    HW117849   6.218   4.887   5.829
 5650SOL    HW217850   6.208   4.777   5.709
 5651SOL     OW17851   5.875   0.538   3.019
 5651SOL    HW117852   5.967   0.569   3.043
 5651SOL    HW217853   5.821   0.616   2.988
 5652SOL     OW17854   4.470   4.386   6.514
 5652SOL    HW117855   4.399   4.440   6.469
 5652SOL    HW217856   4.448   4.374   6.611
 5653SOL     OW17857   2.154   6.523   6.575
 5653SOL    HW117858   2.096   6.529   6.494
 5653SOL    HW217859   2.097   6.508   6.656
 5654SOL     OW17860   2.488   6.959   0.255
 5654SOL    HW117861   2.495   0.032   0.293
 5654SOL    HW217862   2.577   6.933   0.217
 5655SOL     OW17863   6.177   5.765   2.285
 5655SOL    HW117864   6.270   5.788   2.255
 5655SOL    HW217865   6.160   5.668   2.269
 5656SOL     OW17866   3.320   4.816   6.231
 5656SOL    HW117867   3.343   4.912   6.220
 5656SOL    HW217868   3.257   4.805   6.308
 5657SOL     OW17869   5.063   5.433   2.078
 5657SOL    HW117870   5.138   5.463   2.137
 5657SOL    HW217871   5.099   5.406   1.989
 5658SOL     OW17872   4.914   6.462   5.847
 5658SOL    HW117873   4.926   6.391   5.777
 5658SOL    HW217874   4.978   6.446   5.922
 5659SOL     OW17875   2.984   3.429   2.100
 5659SOL    HW117876   2.953   3.387   2.186
 5659SOL    HW217877   2.984   3.360   2.028
 5660SOL     OW17878   0.491   4.998   1.717
 5660SOL    HW117879   0.439   5.056   1.780
 5660SOL    HW217880   0.470   5.024   1.623
 5661SOL     OW17881   5.953   5.830   4.704
 5661SOL    HW117882   5.941   5.808   4.607
 5661SOL    HW217883   5.875   5.884   4.736
 5662SOL     OW17884   1.776   3.762   4.829
 5662SOL    HW117885   1.690   3.769   4.879
 5662SOL    HW217886   1.763   3.703   4.749
 5663SOL     OW17887   2.567   4.096   0.543
 5663SOL    HW117888   2.504   4.132   0.612
 5663SOL    HW217889   2.554   3.998   0.534
 5664SOL     OW17890   6.515   6.937   1.426
 5664SOL    HW117891   6.524   0.014   1.452
 5664SOL    HW217892   6.497   6.930   1.328
 5665SOL     OW17893   1.485   0.795   5.795
 5665SOL    HW117894   1.583   0.814   5.800
 5665SOL    HW217895   1.435   0.869   5.840
 5666SOL     OW17896   5.111   6.144   6.667
 5666SOL    HW117897   5.011   6.143   6.670
 5666SOL    HW217898   5.146   6.081   6.737
 5667SOL     OW17899   5.210   4.313   3.248
 5667SOL    HW117900   5.173   4.303   3.340
 5667SOL    HW217901   5.152   4.265   3.183
 5668SOL     OW17902   6.105   2.432   6.510
 5668SOL    HW117903   6.091   2.465   6.417
 5668SOL    HW217904   6.069   2.498   6.575
 5669SOL     OW17905   0.502   1.938   5.399
 5669SOL    HW117906   0.507   2.033   5.432
 5669SOL    HW217907   0.487   1.877   5.477
 5670SOL     OW17908   1.490   3.214   1.818
 5670SOL    HW117909   1.494   3.115   1.827
 5670SOL    HW217910   1.494   3.240   1.722
 5671SOL     OW17911   0.770   0.827   6.086
 5671SOL    HW117912   0.685   0.826   6.033
 5671SOL    HW217913   0.840   0.878   6.036
 5672SOL     OW17914   4.439   4.495   5.608
 5672SOL    HW117915   4.538   4.492   5.598
 5672SOL    HW217916   4.399   4.409   5.574
 5673SOL     OW17917   2.099   6.464   1.462
 5673SOL    HW117918   2.120   6.407   1.541
 5673SOL    HW217919   2.088   6.559   1.492
 5674SOL     OW17920   0.745   2.803   0.910
 5674SOL    HW117921   0.825   2.851   0.946
 5674SOL    HW217922   0.665   2.863   0.915
 5675SOL     OW17923   3.966   1.221   5.326
 5675SOL    HW117924   3.977   1.197   5.230
 5675SOL    HW217925   3.892   1.167   5.367
 5676SOL     OW17926   2.188   6.430   2.289
 5676SOL    HW117927   2.195   6.366   2.366
 5676SOL    HW217928   2.188   6.524   2.323
 5677SOL     OW17929   5.928   0.104   2.900
 5677SOL    HW117930   5.862   0.056   2.843
 5677SOL    HW217931   5.886   0.187   2.937
 5678SOL     OW17932   1.570   5.341   2.793
 5678SOL    HW117933   1.633   5.409   2.755
 5678SOL    HW217934   1.481   5.383   2.810
 5679SOL     OW17935   3.646   5.819   5.824
 5679SOL    HW117936   3.725   5.847   5.879
 5679SOL    HW217937   3.635   5.883   5.748
 5680SOL     OW17938   1.497   0.301   6.589
 5680SOL    HW117939   1.546   0.387   6.576
 5680SOL    HW217940   1.464   0.268   6.501
 5681SOL     OW17941   3.141   3.590   0.219
 5681SOL    HW117942   3.135   3.623   0.125
 5681SOL    HW217943   3.187   3.501   0.220
 5682SOL     OW17944   2.081   3.629   4.637
 5682SOL    HW117945   2.124   3.693   4.574
 5682SOL    HW217946   2.088   3.665   4.730
 5683SOL     OW17947   3.341   3.727   4.886
 5683SOL    HW117948   3.268   3.789   4.858
 5683SOL    HW217949   3.424   3.748   4.834
 5684SOL     OW17950   3.604   4.072   2.727
 5684SOL    HW117951   3.641   4.082   2.819
 5684SOL    HW217952   3.679   4.060   2.662
 5685SOL     OW17953   0.239   0.172   1.686
 5685SOL    HW117954   0.182   0.184   1.767
 5685SOL    HW217955   0.261   0.262   1.647
 5686SOL     OW17956   3.538   4.760   6.460
 5686SOL    HW117957   3.507   4.672   6.423
 5686SOL    HW217958   3.625   4.784   6.417
 5687SOL     OW17959   4.528   6.090   6.205
 5687SOL    HW117960   4.466   6.118   6.278
 5687SOL    HW217961   4.611   6.146   6.209
 5688SOL     OW17962   5.157   1.546   2.498
 5688SOL    HW117963   5.197   1.468   2.450
 5688SOL    HW217964   5.066   1.566   2.461
 5689SOL     OW17965   3.823   2.909   5.228
 5689SOL    HW117966   3.874   2.992   5.206
 5689SOL    HW217967   3.865   2.831   5.181
 5690SOL     OW17968   3.766   0.327   3.004
 5690SOL    HW117969   3.816   0.245   2.975
 5690SOL    HW217970   3.766   0.332   3.104
 5691SOL     OW17971   3.224   0.504   4.456
 5691SOL    HW117972   3.231   0.443   4.535
 5691SOL    HW217973   3.276   0.588   4.474
 5692SOL     OW17974   5.950   2.888   0.584
 5692SOL    HW117975   5.870   2.848   0.539
 5692SOL    HW217976   5.944   2.988   0.579
 5693SOL     OW17977   5.449   3.207   1.775
 5693SOL    HW117978   5.400   3.268   1.713
 5693SOL    HW217979   5.536   3.180   1.733
 5694SOL     OW17980   1.785   2.234   5.007
 5694SOL    HW117981   1.855   2.287   5.055
 5694SOL    HW217982   1.732   2.295   4.949
 5695SOL     OW17983   1.858   3.500   3.524
 5695SOL    HW117984   1.834   3.432   3.455
 5695SOL    HW217985   1.919   3.458   3.591
 5696SOL     OW17986   3.468   1.350   6.792
 5696SOL    HW117987   3.443   1.443   6.821
 5696SOL    HW217988   3.416   1.326   6.711
 5697SOL     OW17989   6.604   3.994   0.493
 5697SOL    HW117990   6.607   4.012   0.591
 5697SOL    HW217991   6.682   3.935   0.468
 5698SOL     OW17992   1.788   4.371   4.410
 5698SOL    HW117993   1.806   4.373   4.508
 5698SOL    HW217994   1.704   4.423   4.390
 5699SOL     OW17995   1.030   2.721   5.003
 5699SOL    HW117996   1.113   2.777   5.007
 5699SOL    HW217997   0.986   2.719   5.093
 5700SOL     OW17998   1.226   5.168   4.234
 5700SOL    HW117999   1.264   5.170   4.141
 5700SOL    HW218000   1.300   5.160   4.300
 5701SOL     OW18001   4.830   2.199   2.506
 5701SOL    HW118002   4.768   2.148   2.447
 5701SOL    HW218003   4.854   2.286   2.462
 5702SOL     OW18004   4.072   0.539   6.889
 5702SOL    HW118005   3.973   0.528   6.899
 5702SOL    HW218006   4.105   0.605   6.958
 5703SOL     OW18007   5.154   3.977   2.615
 5703SOL    HW118008   5.119   4.070   2.602
 5703SOL    HW218009   5.236   3.964   2.560
 5704SOL     OW18010   5.283   3.948   3.376
 5704SOL    HW118011   5.354   3.997   3.324
 5704SOL    HW218012   5.202   4.005   3.384
 5705SOL     OW18013   6.988   0.822   3.720
 5705SOL    HW118014   7.013   0.828   3.816
 5705SOL    HW218015   6.891   0.844   3.709
 5706SOL     OW18016   2.167   1.406   5.949
 5706SOL    HW118017   2.192   1.404   6.046
 5706SOL    HW218018   2.225   1.342   5.898
 5707SOL     OW18019   4.202   0.949   1.183
 5707SOL    HW118020   4.159   1.038   1.198
 5707SOL    HW218021   4.181   0.889   1.260
 5708SOL     OW18022   0.986   6.775   0.639
 5708SOL    HW118023   0.895   6.770   0.597
 5708SOL    HW218024   1.027   6.684   0.639
 5709SOL     OW18025   0.467   2.703   0.803
 5709SOL    HW118026   0.531   2.752   0.861
 5709SOL    HW218027   0.478   2.605   0.814
 5710SOL     OW18028   3.462   5.071   6.676
 5710SOL    HW118029   3.512   5.083   6.590
 5710SOL    HW218030   3.431   4.976   6.683
 5711SOL     OW18031   4.636   1.542   4.661
 5711SOL    HW118032   4.684   1.573   4.743
 5711SOL    HW218033   4.559   1.483   4.688
 5712SOL     OW18034   5.440   6.803   6.325
 5712SOL    HW118035   5.494   6.815   6.242
 5712SOL    HW218036   5.430   6.705   6.343
 5713SOL     OW18037   0.170   4.002   2.619
 5713SOL    HW118038   0.138   3.928   2.560
 5713SOL    HW218039   0.134   3.989   2.711
 5714SOL     OW18040   2.295   0.670   1.241
 5714SOL    HW118041   2.379   0.643   1.194
 5714SOL    HW218042   2.309   0.662   1.340
 5715SOL     OW18043   0.585   6.036   4.064
 5715SOL    HW118044   0.576   6.136   4.066
 5715SOL    HW218045   0.669   6.010   4.111
 5716SOL     OW18046   1.512   2.616   5.220
 5716SOL    HW118047   1.594   2.649   5.174
 5716SOL    HW218048   1.524   2.520   5.246
 5717SOL     OW18049   0.645   3.728   5.776
 5717SOL    HW118050   0.713   3.681   5.833
 5717SOL    HW218051   0.688   3.759   5.691
 5718SOL     OW18052   3.237   5.953   6.074
 5718SOL    HW118053   3.202   5.982   6.163
 5718SOL    HW218054   3.295   6.025   6.036
 5719SOL     OW18055   2.021   0.948   6.857
 5719SOL    HW118056   1.957   0.957   6.933
 5719SOL    HW218057   1.971   0.938   6.772
 5720SOL     OW18058   2.367   6.044   4.070
 5720SOL    HW118059   2.379   6.004   4.161
 5720SOL    HW218060   2.447   6.024   4.013
 5721SOL     OW18061   6.345   5.079   6.692
 5721SOL    HW118062   6.379   5.173   6.688
 5721SOL    HW218063   6.258   5.077   6.741
 5722SOL     OW18064   5.212   1.075   4.491
 5722SOL    HW118065   5.189   1.140   4.419
 5722SOL    HW218066   5.132   1.019   4.513
 5723SOL     OW18067   6.769   4.672   0.986
 5723SOL    HW118068   6.720   4.592   0.954
 5723SOL    HW218069   6.707   4.730   1.039
 5724SOL     OW18070   4.488   2.823   6.392
 5724SOL    HW118071   4.533   2.911   6.381
 5724SOL    HW218072   4.552   2.757   6.432
 5725SOL     OW18073   5.998   6.768   5.672
 5725SOL    HW118074   5.922   6.706   5.691
 5725SOL    HW218075   5.988   6.850   5.728
 5726SOL     OW18076   3.791   5.337   5.461
 5726SOL    HW118077   3.827   5.265   5.402
 5726SOL    HW218078   3.696   5.355   5.438
 5727SOL     OW18079   5.611   2.457   3.406
 5727SOL    HW118080   5.630   2.521   3.481
 5727SOL    HW218081   5.549   2.500   3.341
 5728SOL     OW18082   4.012   1.118   5.752
 5728SOL    HW118083   4.022   1.200   5.695
 5728SOL    HW218084   3.952   1.139   5.830
 5729SOL     OW18085   2.706   2.418   4.000
 5729SOL    HW118086   2.740   2.334   3.958
 5729SOL    HW218087   2.766   2.443   4.076
 5730SOL     OW18088   4.039   4.617   0.323
 5730SOL    HW118089   4.041   4.613   0.423
 5730SOL    HW218090   4.093   4.696   0.292
 5731SOL     OW18091   4.482   1.044   5.329
 5731SOL    HW118092   4.456   1.138   5.308
 5731SOL    HW218093   4.403   0.995   5.368
 5732SOL     OW18094   6.809   3.944   4.321
 5732SOL    HW118095   6.873   3.883   4.368
 5732SOL    HW218096   6.726   3.892   4.297
 5733SOL     OW18097   2.135   6.536   1.064
 5733SOL    HW118098   2.066   6.594   1.021
 5733SOL    HW218099   2.217   6.590   1.083
 5734SOL     OW18100   1.785   6.995   5.543
 5734SOL    HW118101   1.796   0.033   5.462
 5734SOL    HW218102   1.842   0.010   5.618
 5735SOL     OW18103   5.409   1.379   0.887
 5735SOL    HW118104   5.342   1.421   0.825
 5735SOL    HW218105   5.501   1.399   0.855
 5736SOL     OW18106   4.749   3.446   6.542
 5736SOL    HW118107   4.802   3.456   6.457
 5736SOL    HW218108   4.811   3.434   6.619
 5737SOL     OW18109   5.202   5.581   2.569
 5737SOL    HW118110   5.141   5.502   2.577
 5737SOL    HW218111   5.296   5.550   2.565
 5738SOL     OW18112   3.300   2.014   0.889
 5738SOL    HW118113   3.219   2.071   0.903
 5738SOL    HW218114   3.377   2.051   0.941
 5739SOL     OW18115   2.346   1.200   5.879
 5739SOL    HW118116   2.274   1.189   5.947
 5739SOL    HW218117   2.369   1.111   5.840
 5740SOL     OW18118   4.696   2.674   2.523
 5740SOL    HW118119   4.635   2.617   2.579
 5740SOL    HW218120   4.673   2.661   2.426
 5741SOL     OW18121   1.602   3.420   3.935
 5741SOL    HW118122   1.504   3.443   3.936
 5741SOL    HW218123   1.642   3.447   3.848
 5742SOL     OW18124   6.244   4.909   2.536
 5742SOL    HW118125   6.312   4.853   2.490
 5742SOL    HW218126   6.158   4.907   2.485
 5743SOL     OW18127   3.369   6.560   6.551
 5743SOL    HW118128   3.426   6.620   6.606
 5743SOL    HW218129   3.325   6.493   6.610
 5744SOL     OW18130   5.280   5.807   3.531
 5744SOL    HW118131   5.287   5.888   3.589
 5744SOL    HW218132   5.191   5.764   3.544
 5745SOL     OW18133   1.190   3.249   2.217
 5745SOL    HW118134   1.197   3.241   2.117
 5745SOL    HW218135   1.275   3.285   2.254
 5746SOL     OW18136   5.552   0.852   3.385
 5746SOL    HW118137   5.570   0.755   3.399
 5746SOL    HW218138   5.638   0.903   3.388
 5747SOL     OW18139   1.400   6.749   1.948
 5747SOL    HW118140   1.475   6.770   1.886
 5747SOL    HW218141   1.436   6.707   2.032
 5748SOL     OW18142   6.227   6.771   0.252
 5748SOL    HW118143   6.216   6.705   0.327
 5748SOL    HW218144   6.138   6.805   0.225
 5749SOL     OW18145   1.969   6.553   6.353
 5749SOL    HW118146   1.962   6.500   6.268
 5749SOL    HW218147   1.913   6.636   6.345
 5750SOL     OW18148   6.223   2.446   4.222
 5750SOL    HW118149   6.320   2.421   4.215
 5750SOL    HW218150   6.212   2.513   4.295
 5751SOL     OW18151   0.060   3.883   4.096
 5751SOL    HW118152   6.981   3.898   4.087
 5751SOL    HW218153   0.092   3.918   4.184
 5752SOL     OW18154   5.783   1.332   6.774
 5752SOL    HW118155   5.833   1.289   6.850
 5752SOL    HW218156   5.795   1.431   6.777
 5753SOL     OW18157   3.570   3.255   4.379
 5753SOL    HW118158   3.547   3.276   4.474
 5753SOL    HW218159   3.576   3.156   4.367
 5754SOL     OW18160   6.379   0.170   0.924
 5754SOL    HW118161   6.479   0.160   0.927
 5754SOL    HW218162   6.355   0.266   0.940
 5755SOL     OW18163   0.593   3.736   6.631
 5755SOL    HW118164   0.514   3.779   6.587
 5755SOL    HW218165   0.582   3.637   6.630
 5756SOL     OW18166   5.957   6.461   1.720
 5756SOL    HW118167   5.915   6.397   1.785
 5756SOL    HW218168   5.888   6.527   1.689
 5757SOL     OW18169   1.415   1.972   3.982
 5757SOL    HW118170   1.441   1.968   3.886
 5757SOL    HW218171   1.492   1.942   4.039
 5758SOL     OW18172   6.095   6.625   3.264
 5758SOL    HW118173   6.090   6.695   3.193
 5758SOL    HW218174   6.014   6.566   3.258
 5759SOL     OW18175   2.474   6.333   2.747
 5759SOL    HW118176   2.438   6.420   2.714
 5759SOL    HW218177   2.541   6.350   2.820
 5760SOL     OW18178   0.576   2.228   0.216
 5760SOL    HW118179   0.600   2.271   0.128
 5760SOL    HW218180   0.659   2.212   0.269
 5761SOL     OW18181   6.395   6.955   5.611
 5761SOL    HW118182   6.357   6.939   5.520
 5761SOL    HW218183   6.492   6.977   5.604
 5762SOL     OW18184   0.853   6.173   5.525
 5762SOL    HW118185   0.858   6.254   5.583
 5762SOL    HW218186   0.923   6.179   5.453
 5763SOL     OW18187   5.104   0.639   0.099
 5763SOL    HW118188   5.093   0.616   0.196
 5763SOL    HW218189   5.096   0.556   0.044
 5764SOL     OW18190   3.857   6.153   4.080
 5764SOL    HW118191   3.856   6.218   4.004
 5764SOL    HW218192   3.769   6.108   4.087
 5765SOL     OW18193   6.682   6.836   2.562
 5765SOL    HW118194   6.672   6.773   2.640
 5765SOL    HW218195   6.622   6.915   2.575
 5766SOL     OW18196   0.603   0.916   4.761
 5766SOL    HW118197   0.629   0.833   4.713
 5766SOL    HW218198   0.674   0.941   4.826
 5767SOL     OW18199   6.361   6.310   0.376
 5767SOL    HW118200   6.401   6.243   0.313
 5767SOL    HW218201   6.376   6.280   0.470
 5768SOL     OW18202   0.989   0.691   4.868
 5768SOL    HW118203   1.080   0.729   4.885
 5768SOL    HW218204   0.998   0.597   4.834
 5769SOL     OW18205   1.413   2.559   6.083
 5769SOL    HW118206   1.484   2.517   6.027
 5769SOL    HW218207   1.401   2.655   6.057
 5770SOL     OW18208   1.377   3.882   2.474
 5770SOL    HW118209   1.329   3.912   2.556
 5770SOL    HW218210   1.356   3.787   2.455
 5771SOL     OW18211   2.670   6.381   2.938
 5771SOL    HW118212   2.640   6.444   3.009
 5771SOL    HW218213   2.765   6.354   2.954
 5772SOL     OW18214   2.593   0.844   3.466
 5772SOL    HW118215   2.626   0.851   3.560
 5772SOL    HW218216   2.541   0.759   3.455
 5773SOL     OW18217   5.830   0.578   4.608
 5773SOL    HW118218   5.769   0.511   4.649
 5773SOL    HW218219   5.841   0.558   4.511
 5774SOL     OW18220   0.646   6.077   3.649
 5774SOL    HW118221   0.660   6.172   3.677
 5774SOL    HW218222   0.712   6.053   3.578
 5775SOL     OW18223   5.314   4.511   2.780
 5775SOL    HW118224   5.401   4.465   2.761
 5775SOL    HW218225   5.326   4.610   2.768
 5776SOL     OW18226   3.770   0.472   4.126
 5776SOL    HW118227   3.722   0.447   4.042
 5776SOL    HW218228   3.843   0.537   4.105
 5777SOL     OW18229   0.712   0.799   1.670
 5777SOL    HW118230   0.632   0.818   1.727
 5777SOL    HW218231   0.722   0.872   1.602
 5778SOL     OW18232   0.249   0.739   0.321
 5778SOL    HW118233   0.180   0.767   0.388
 5778SOL    HW218234   0.260   0.811   0.252
 5779SOL     OW18235   5.805   1.343   0.231
 5779SOL    HW118236   5.830   1.424   0.178
 5779SOL    HW218237   5.737   1.290   0.181
 5780SOL     OW18238   5.160   5.071   4.737
 5780SOL    HW118239   5.062   5.081   4.720
 5780SOL    HW218240   5.205   5.159   4.722
 5781SOL     OW18241   1.183   5.989   5.980
 5781SOL    HW118242   1.198   6.058   5.910
 5781SOL    HW218243   1.085   5.965   5.983
 5782SOL     OW18244   6.018   0.774   1.253
 5782SOL    HW118245   6.049   0.867   1.273
 5782SOL    HW218246   6.049   0.713   1.326
 5783SOL     OW18247   2.393   2.459   6.632
 5783SOL    HW118248   2.447   2.408   6.700
 5783SOL    HW218249   2.360   2.396   6.562
 5784SOL     OW18250   6.914   6.361   0.427
 5784SOL    HW118251   6.933   6.318   0.339
 5784SOL    HW218252   6.908   6.460   0.415
 5785SOL     OW18253   1.824   1.216   2.071
 5785SOL    HW118254   1.728   1.203   2.094
 5785SOL    HW218255   1.843   1.314   2.062
 5786SOL     OW18256   6.017   5.445   2.155
 5786SOL    HW118257   5.939   5.415   2.099
 5786SOL    HW218258   6.079   5.500   2.099
 5787SOL     OW18259   1.729   3.272   6.704
 5787SOL    HW118260   1.756   3.208   6.632
 5787SOL    HW218261   1.801   3.341   6.715
 5788SOL     OW18262   3.190   0.567   3.397
 5788SOL    HW118263   3.168   0.663   3.415
 5788SOL    HW218264   3.284   0.548   3.423
 5789SOL     OW18265   2.991   4.697   6.289
 5789SOL    HW118266   3.014   4.786   6.328
 5789SOL    HW218267   2.914   4.657   6.341
 5790SOL     OW18268   1.840   3.904   3.925
 5790SOL    HW118269   1.783   3.831   3.964
 5790SOL    HW218270   1.936   3.886   3.948
 5791SOL     OW18271   1.201   0.990   3.373
 5791SOL    HW118272   1.146   1.039   3.305
 5791SOL    HW218273   1.285   1.042   3.391
 5792SOL     OW18274   0.891   2.375   3.463
 5792SOL    HW118275   0.800   2.391   3.503
 5792SOL    HW218276   0.895   2.283   3.425
 5793SOL     OW18277   6.148   1.496   5.413
 5793SOL    HW118278   6.141   1.402   5.380
 5793SOL    HW218279   6.131   1.559   5.338
 5794SOL     OW18280   6.976   3.878   6.546
 5794SOL    HW118281   6.926   3.938   6.609
 5794SOL    HW218282   6.922   3.862   6.464
 5795SOL     OW18283   6.733   4.791   6.795
 5795SOL    HW118284   6.795   4.804   6.717
 5795SOL    HW218285   6.733   4.695   6.821
 5796SOL     OW18286   2.584   2.132   0.690
 5796SOL    HW118287   2.668   2.180   0.716
 5796SOL    HW218288   2.531   2.109   0.771
 5797SOL     OW18289   3.189   3.242   5.423
 5797SOL    HW118290   3.253   3.186   5.371
 5797SOL    HW218291   3.158   3.319   5.368
 5798SOL     OW18292   6.630   4.870   3.900
 5798SOL    HW118293   6.632   4.783   3.851
 5798SOL    HW218294   6.705   4.929   3.868
 5799SOL     OW18295   5.402   0.210   4.251
 5799SOL    HW118296   5.475   0.169   4.197
 5799SOL    HW218297   5.439   0.249   4.335
 5800SOL     OW18298   5.742   6.436   6.750
 5800SOL    HW118299   5.829   6.440   6.800
 5800SOL    HW218300   5.746   6.495   6.670
 5801SOL     OW18301   1.429   1.161   1.856
 5801SOL    HW118302   1.330   1.158   1.872
 5801SOL    HW218303   1.477   1.120   1.933
 5802SOL     OW18304   0.032   2.519   4.576
 5802SOL    HW118305   0.115   2.539   4.524
 5802SOL    HW218306   7.005   2.604   4.599
 5803SOL     OW18307   1.525   5.210   1.368
 5803SOL    HW118308   1.473   5.244   1.446
 5803SOL    HW218309   1.622   5.223   1.384
 5804SOL     OW18310   0.231   3.161   6.430
 5804SOL    HW118311   0.275   3.120   6.351
 5804SOL    HW218312   0.137   3.187   6.407
 5805SOL     OW18313   5.003   3.441   6.696
 5805SOL    HW118314   5.040   3.513   6.753
 5805SOL    HW218315   5.018   3.352   6.740
 5806SOL     OW18316   6.453   6.449   6.227
 5806SOL    HW118317   6.388   6.404   6.166
 5806SOL    HW218318   6.430   6.546   6.235
 5807SOL     OW18319   2.664   4.100   1.711
 5807SOL    HW118320   2.674   4.003   1.688
 5807SOL    HW218321   2.750   4.147   1.694
 5808SOL     OW18322   6.730   1.718   3.353
 5808SOL    HW118323   6.748   1.645   3.419
 5808SOL    HW218324   6.664   1.783   3.392
 5809SOL     OW18325   0.762   2.729   3.865
 5809SOL    HW118326   0.793   2.639   3.893
 5809SOL    HW218327   0.665   2.725   3.839
 5810SOL     OW18328   3.111   1.956   2.689
 5810SOL    HW118329   3.116   1.866   2.644
 5810SOL    HW218330   3.203   1.992   2.702
 5811SOL     OW18331   2.477   0.035   1.727
 5811SOL    HW118332   2.522   6.991   1.789
 5811SOL    HW218333   2.546   0.084   1.674
 5812SOL     OW18334   4.411   0.480   4.342
 5812SOL    HW118335   4.429   0.539   4.420
 5812SOL    HW218336   4.461   0.395   4.352
 5813SOL     OW18337   1.650   2.093   5.238
 5813SOL    HW118338   1.727   2.114   5.298
 5813SOL    HW218339   1.679   2.099   5.143
 5814SOL     OW18340   0.527   5.158   1.457
 5814SOL    HW118341   0.429   5.136   1.456
 5814SOL    HW218342   0.575   5.102   1.390
 5815SOL     OW18343   4.164   6.528   4.458
 5815SOL    HW118344   4.174   6.436   4.496
 5815SOL    HW218345   4.208   6.594   4.519
 5816SOL     OW18346   5.420   6.315   0.246
 5816SOL    HW118347   5.463   6.235   0.204
 5816SOL    HW218348   5.457   6.327   0.339
 5817SOL     OW18349   5.826   2.478   6.060
 5817SOL    HW118350   5.746   2.466   6.002
 5817SOL    HW218351   5.909   2.476   6.003
 5818SOL     OW18352   6.280   6.896   5.348
 5818SOL    HW118353   6.288   6.951   5.265
 5818SOL    HW218354   6.185   6.868   5.360
 5819SOL     OW18355   6.826   0.172   1.327
 5819SOL    HW118356   6.855   0.268   1.327
 5819SOL    HW218357   6.789   0.149   1.417
 5820SOL     OW18358   5.470   4.822   1.919
 5820SOL    HW118359   5.397   4.810   1.985
 5820SOL    HW218360   5.483   4.737   1.867
 5821SOL     OW18361   3.178   6.879   2.671
 5821SOL    HW118362   3.237   6.895   2.592
 5821SOL    HW218363   3.087   6.850   2.640
 5822SOL     OW18364   0.197   1.099   2.689
 5822SOL    HW118365   0.102   1.071   2.702
 5822SOL    HW218366   0.220   1.095   2.592
 5823SOL     OW18367   1.962   2.831   3.843
 5823SOL    HW118368   1.940   2.921   3.806
 5823SOL    HW218369   1.877   2.780   3.858
 5824SOL     OW18370   4.822   0.177   3.784
 5824SOL    HW118371   4.776   0.252   3.737
 5824SOL    HW218372   4.858   0.112   3.717
 5825SOL     OW18373   3.435   1.230   1.382
 5825SOL    HW118374   3.433   1.138   1.343
 5825SOL    HW218375   3.386   1.293   1.322
 5826SOL     OW18376   0.538   6.704   3.926
 5826SOL    HW118377   0.469   6.636   3.952
 5826SOL    HW218378   0.554   6.698   3.827
 5827SOL     OW18379   2.002   4.797   5.779
 5827SOL    HW118380   1.987   4.746   5.694
 5827SOL    HW218381   2.098   4.786   5.808
 5828SOL     OW18382   6.318   1.695   1.121
 5828SOL    HW118383   6.346   1.758   1.194
 5828SOL    HW218384   6.323   1.601   1.154
 5829SOL     OW18385   2.128   1.288   1.483
 5829SOL    HW118386   2.157   1.220   1.415
 5829SOL    HW218387   2.038   1.322   1.460
 5830SOL     OW18388   1.372   1.063   5.754
 5830SOL    HW118389   1.447   1.126   5.735
 5830SOL    HW218390   1.321   1.045   5.669
 5831SOL     OW18391   5.707   5.331   3.082
 5831SOL    HW118392   5.779   5.390   3.047
 5831SOL    HW218393   5.646   5.384   3.141
 5832SOL     OW18394   3.518   3.365   4.649
 5832SOL    HW118395   3.537   3.334   4.743
 5832SOL    HW218396   3.425   3.403   4.645
 5833SOL     OW18397   3.110   3.096   4.759
 5833SOL    HW118398   3.199   3.069   4.721
 5833SOL    HW218399   3.041   3.093   4.687
 5834SOL     OW18400   6.029   0.983   6.757
 5834SOL    HW118401   5.933   0.956   6.761
 5834SOL    HW218402   6.044   1.045   6.680
 5835SOL     OW18403   5.395   2.589   3.747
 5835SOL    HW118404   5.325   2.552   3.686
 5835SOL    HW218405   5.358   2.668   3.796
 5836SOL     OW18406   3.748   0.029   3.764
 5836SOL    HW118407   3.675   7.005   3.711
 5836SOL    HW218408   3.730   0.016   3.862
 5837SOL     OW18409   4.401   3.922   6.442
 5837SOL    HW118410   4.471   3.993   6.451
 5837SOL    HW218411   4.353   3.933   6.355
 5838SOL     OW18412   0.751   1.378   6.151
 5838SOL    HW118413   0.717   1.453   6.207
 5838SOL    HW218414   0.697   1.373   6.067
 5839SOL     OW18415   6.699   2.491   2.223
 5839SOL    HW118416   6.679   2.477   2.126
 5839SOL    HW218417   6.660   2.416   2.276
 5840SOL     OW18418   3.240   5.854   0.522
 5840SOL    HW118419   3.301   5.915   0.574
 5840SOL    HW218420   3.295   5.784   0.477
 5841SOL     OW18421   6.509   1.899   3.422
 5841SOL    HW118422   6.412   1.874   3.423
 5841SOL    HW218423   6.525   1.972   3.488
 5842SOL     OW18424   3.511   1.989   1.078
 5842SOL    HW118425   3.535   1.909   1.022
 5842SOL    HW218426   3.545   1.977   1.171
 5843SOL     OW18427   0.153   2.529   0.938
 5843SOL    HW118428   0.226   2.479   0.987
 5843SOL    HW218429   0.180   2.625   0.928
 5844SOL     OW18430   1.734   6.338   6.260
 5844SOL    HW118431   1.653   6.365   6.311
 5844SOL    HW218432   1.714   6.256   6.206
 5845SOL     OW18433   1.887   2.803   4.706
 5845SOL    HW118434   1.957   2.731   4.710
 5845SOL    HW218435   1.928   2.888   4.674
 5846SOL     OW18436   0.299   3.751   6.845
 5846SOL    HW118437   0.353   3.667   6.857
 5846SOL    HW218438   0.347   3.828   6.888
 5847SOL     OW18439   1.718   2.595   4.373
 5847SOL    HW118440   1.698   2.663   4.444
 5847SOL    HW218441   1.812   2.606   4.342
 5848SOL     OW18442   0.850   4.483   3.618
 5848SOL    HW118443   0.865   4.582   3.613
 5848SOL    HW218444   0.770   4.465   3.676
 5849SOL     OW18445   2.508   0.242   5.905
 5849SOL    HW118446   2.461   0.325   5.936
 5849SOL    HW218447   2.485   0.166   5.967
 5850SOL     OW18448   0.707   4.309   2.870
 5850SOL    HW118449   0.650   4.292   2.789
 5850SOL    HW218450   0.722   4.223   2.918
 5851SOL     OW18451   6.224   2.862   2.017
 5851SOL    HW118452   6.319   2.835   2.028
 5851SOL    HW218453   6.203   2.937   2.080
 5852SOL     OW18454   4.154   6.386   3.298
 5852SOL    HW118455   4.119   6.310   3.353
 5852SOL    HW218456   4.222   6.437   3.351
 5853SOL     OW18457   4.980   3.938   5.019
 5853SOL    HW118458   5.034   3.860   4.988
 5853SOL    HW218459   4.947   3.989   4.940
 5854SOL     OW18460   1.366   1.426   6.723
 5854SOL    HW118461   1.400   1.386   6.638
 5854SOL    HW218462   1.267   1.440   6.717
 5855SOL     OW18463   1.564   1.689   4.345
 5855SOL    HW118464   1.662   1.685   4.363
 5855SOL    HW218465   1.514   1.669   4.430
 5856SOL     OW18466   0.774   6.343   3.054
 5856SOL    HW118467   0.758   6.395   2.970
 5856SOL    HW218468   0.747   6.398   3.133
 5857SOL     OW18469   0.519   2.269   5.242
 5857SOL    HW118470   0.466   2.351   5.223
 5857SOL    HW218471   0.499   2.237   5.334
 5858SOL     OW18472   2.868   6.815   3.856
 5858SOL    HW118473   2.889   6.866   3.772
 5858SOL    HW218474   2.895   6.719   3.845
 5859SOL     OW18475   5.794   5.359   2.022
 5859SOL    HW118476   5.730   5.398   2.088
 5859SOL    HW218477   5.770   5.264   2.004
 5860SOL     OW18478   6.955   4.610   0.805
 5860SOL    HW118479   6.971   4.516   0.834
 5860SOL    HW218480   6.907   4.660   0.877
 5861SOL     OW18481   6.025   1.721   4.053
 5861SOL    HW118482   6.030   1.629   4.013
 5861SOL    HW218483   5.963   1.719   4.132
 5862SOL     OW18484   5.689   4.987   3.971
 5862SOL    HW118485   5.633   5.069   3.976
 5862SOL    HW218486   5.722   4.962   4.062
 5863SOL     OW18487   2.267   1.144   0.483
 5863SOL    HW118488   2.171   1.116   0.493
 5863SOL    HW218489   2.271   1.229   0.431
 5864SOL     OW18490   4.822   5.167   0.719
 5864SOL    HW118491   4.743   5.216   0.683
 5864SOL    HW218492   4.818   5.071   0.690
 5865SOL     OW18493   4.235   0.872   3.220
 5865SOL    HW118494   4.249   0.856   3.317
 5865SOL    HW218495   4.261   0.790   3.169
 5866SOL     OW18496   3.386   1.608   6.846
 5866SOL    HW118497   3.425   1.642   6.932
 5866SOL    HW218498   3.293   1.644   6.837
 5867SOL     OW18499   6.472   2.944   1.778
 5867SOL    HW118500   6.555   2.889   1.777
 5867SOL    HW218501   6.467   2.996   1.863
 5868SOL     OW18502   0.503   6.315   5.259
 5868SOL    HW118503   0.562   6.250   5.212
 5868SOL    HW218504   0.407   6.293   5.239
 5869SOL     OW18505   2.441   4.988   4.119
 5869SOL    HW118506   2.380   5.002   4.197
 5869SOL    HW218507   2.459   4.890   4.107
 5870SOL     OW18508   5.091   5.788   4.021
 5870SOL    HW118509   5.047   5.724   3.958
 5870SOL    HW218510   5.062   5.767   4.115
 5871SOL     OW18511   3.616   4.699   0.601
 5871SOL    HW118512   3.701   4.659   0.635
 5871SOL    HW218513   3.635   4.783   0.551
 5872SOL     OW18514   4.161   5.610   3.807
 5872SOL    HW118515   4.136   5.619   3.903
 5872SOL    HW218516   4.258   5.633   3.796
 5873SOL     OW18517   2.317   3.008   0.364
 5873SOL    HW118518   2.390   3.010   0.432
 5873SOL    HW218519   2.242   3.067   0.394
 5874SOL     OW18520   0.678   4.433   6.426
 5874SOL    HW118521   0.677   4.465   6.331
 5874SOL    HW218522   0.706   4.337   6.428
 5875SOL     OW18523   4.033   2.083   1.197
 5875SOL    HW118524   4.132   2.088   1.206
 5875SOL    HW218525   3.996   2.025   1.269
 5876SOL     OW18526   4.431   3.833   5.869
 5876SOL    HW118527   4.360   3.903   5.877
 5876SOL    HW218528   4.395   3.746   5.903
 5877SOL     OW18529   5.327   6.704   2.877
 5877SOL    HW118530   5.281   6.699   2.788
 5877SOL    HW218531   5.296   6.786   2.926
 5878SOL     OW18532   4.868   3.329   2.670
 5878SOL    HW118533   4.778   3.286   2.676
 5878SOL    HW218534   4.933   3.264   2.632
 5879SOL     OW18535   3.022   4.863   5.096
 5879SOL    HW118536   3.097   4.865   5.030
 5879SOL    HW218537   2.947   4.807   5.060
 5880SOL     OW18538   6.337   2.292   0.411
 5880SOL    HW118539   6.276   2.295   0.490
 5880SOL    HW218540   6.359   2.198   0.389
 5881SOL     OW18541   1.016   5.762   2.875
 5881SOL    HW118542   0.970   5.694   2.932
 5881SOL    HW218543   1.055   5.834   2.932
 5882SOL     OW18544   1.463   5.459   5.282
 5882SOL    HW118545   1.401   5.530   5.248
 5882SOL    HW218546   1.533   5.501   5.339
 5883SOL     OW18547   0.103   5.876   0.099
 5883SOL    HW118548   0.102   5.784   0.060
 5883SOL    HW218549   0.069   5.872   0.193
 5884SOL     OW18550   0.538   1.444   2.322
 5884SOL    HW118551   0.524   1.474   2.417
 5884SOL    HW218552   0.481   1.499   2.261
 5885SOL     OW18553   0.140   5.659   1.819
 5885SOL    HW118554   0.231   5.696   1.798
 5885SOL    HW218555   0.086   5.656   1.735
 5886SOL     OW18556   1.542   4.858   3.686
 5886SOL    HW118557   1.529   4.803   3.768
 5886SOL    HW218558   1.611   4.815   3.627
 5887SOL     OW18559   2.320   3.979   0.925
 5887SOL    HW118560   2.272   3.935   0.849
 5887SOL    HW218561   2.378   3.912   0.971
 5888SOL     OW18562   2.841   6.145   1.898
 5888SOL    HW118563   2.873   6.214   1.963
 5888SOL    HW218564   2.857   6.177   1.804
 5889SOL     OW18565   4.876   1.307   1.827
 5889SOL    HW118566   4.975   1.296   1.822
 5889SOL    HW218567   4.848   1.385   1.771
 5890SOL     OW18568   2.365   4.662   3.049
 5890SOL    HW118569   2.411   4.741   3.089
 5890SOL    HW218570   2.416   4.632   2.968
 5891SOL     OW18571   2.590   2.996   6.938
 5891SOL    HW118572   2.658   2.995   7.011
 5891SOL    HW218573   2.627   2.950   6.857
 5892SOL     OW18574   0.255   2.695   1.222
 5892SOL    HW118575   0.212   2.720   1.135
 5892SOL    HW218576   0.191   2.715   1.297
 5893SOL     OW18577   0.153   6.388   1.340
 5893SOL    HW118578   0.147   6.439   1.254
 5893SOL    HW218579   0.223   6.317   1.332
 5894SOL     OW18580   2.513   5.206   6.355
 5894SOL    HW118581   2.504   5.181   6.452
 5894SOL    HW218582   2.422   5.207   6.313
 5895SOL     OW18583   5.914   2.664   4.055
 5895SOL    HW118584   5.995   2.618   4.018
 5895SOL    HW218585   5.918   2.762   4.033
 5896SOL     OW18586   5.577   2.620   0.921
 5896SOL    HW118587   5.492   2.579   0.955
 5896SOL    HW218588   5.558   2.674   0.839
 5897SOL     OW18589   3.816   3.508   6.993
 5897SOL    HW118590   3.718   3.503   6.974
 5897SOL    HW218591   3.851   3.416   7.012
 5898SOL     OW18592   3.410   0.684   6.482
 5898SOL    HW118593   3.497   0.655   6.442
 5898SOL    HW218594   3.336   0.630   6.443
 5899SOL     OW18595   0.450   0.247   0.038
 5899SOL    HW118596   0.483   0.225   6.966
 5899SOL    HW218597   0.525   0.282   0.094
 5900SOL     OW18598   5.682   6.386   2.858
 5900SOL    HW118599   5.670   6.306   2.799
 5900SOL    HW218600   5.594   6.412   2.898
 5901SOL     OW18601   1.247   0.760   4.978
 5901SOL    HW118602   1.346   0.769   4.979
 5901SOL    HW218603   1.215   0.730   5.068
 5902SOL     OW18604   4.104   3.779   5.780
 5902SOL    HW118605   4.173   3.740   5.720
 5902SOL    HW218606   4.098   3.723   5.864
 5903SOL     OW18607   5.718   1.460   5.417
 5903SOL    HW118608   5.715   1.529   5.344
 5903SOL    HW218609   5.738   1.371   5.377
 5904SOL     OW18610   7.001   5.018   1.793
 5904SOL    HW118611   0.068   5.061   1.817
 5904SOL    HW218612   6.963   5.063   1.712
 5905SOL     OW18613   6.382   2.106   4.395
 5905SOL    HW118614   6.352   2.016   4.426
 5905SOL    HW218615   6.316   2.175   4.423
 5906SOL     OW18616   4.113   0.213   4.653
 5906SOL    HW118617   4.074   0.174   4.736
 5906SOL    HW218618   4.110   0.145   4.580
 5907SOL     OW18619   0.633   3.389   5.872
 5907SOL    HW118620   0.646   3.350   5.781
 5907SOL    HW218621   0.701   3.461   5.888
 5908SOL     OW18622   4.560   3.254   6.540
 5908SOL    HW118623   4.592   3.182   6.479
 5908SOL    HW218624   4.631   3.323   6.553
 5909SOL     OW18625   6.526   4.912   3.318
 5909SOL    HW118626   6.498   5.004   3.294
 5909SOL    HW218627   6.620   4.897   3.286
 5910SOL     OW18628   2.486   4.334   1.780
 5910SOL    HW118629   2.386   4.339   1.788
 5910SOL    HW218630   2.512   4.242   1.752
 5911SOL     OW18631   6.365   0.774   5.486
 5911SOL    HW118632   6.266   0.767   5.480
 5911SOL    HW218633   6.406   0.736   5.403
 5912SOL     OW18634   0.593   3.802   6.049
 5912SOL    HW118635   0.574   3.792   5.951
 5912SOL    HW218636   0.642   3.722   6.082
 5913SOL     OW18637   1.607   2.805   4.600
 5913SOL    HW118638   1.692   2.814   4.653
 5913SOL    HW218639   1.553   2.730   4.635
 5914SOL     OW18640   1.222   5.598   0.221
 5914SOL    HW118641   1.122   5.600   0.227
 5914SOL    HW218642   1.249   5.533   0.150
 5915SOL     OW18643   5.660   4.168   4.398
 5915SOL    HW118644   5.592   4.241   4.410
 5915SOL    HW218645   5.613   4.080   4.390
 5916SOL     OW18646   3.074   1.086   6.303
 5916SOL    HW118647   3.073   1.067   6.401
 5916SOL    HW218648   3.163   1.125   6.278
 5917SOL     OW18649   3.308   3.773   2.030
 5917SOL    HW118650   3.332   3.869   2.040
 5917SOL    HW218651   3.392   3.718   2.026
 5918SOL     OW18652   3.284   1.532   4.017
 5918SOL    HW118653   3.284   1.622   4.060
 5918SOL    HW218654   3.239   1.466   4.077
 5919SOL     OW18655   1.480   2.033   6.513
 5919SOL    HW118656   1.530   2.086   6.582
 5919SOL    HW218657   1.416   1.971   6.559
 5920SOL     OW18658   2.207   4.609   6.888
 5920SOL    HW118659   2.214   4.676   6.962
 5920SOL    HW218660   2.224   4.654   6.800
 5921SOL     OW18661   3.664   6.260   4.763
 5921SOL    HW118662   3.607   6.266   4.845
 5921SOL    HW218663   3.741   6.323   4.770
 5922SOL     OW18664   6.459   5.453   2.228
 5922SOL    HW118665   6.395   5.386   2.265
 5922SOL    HW218666   6.547   5.409   2.209
 5923SOL     OW18667   0.596   0.994   3.123
 5923SOL    HW118668   0.659   0.988   3.201
 5923SOL    HW218669   0.615   0.919   3.060
 5924SOL     OW18670   5.537   1.893   4.747
 5924SOL    HW118671   5.535   1.983   4.703
 5924SOL    HW218672   5.489   1.827   4.690
 5925SOL     OW18673   6.735   5.775   0.650
 5925SOL    HW118674   6.800   5.846   0.622
 5925SOL    HW218675   6.657   5.817   0.696
 5926SOL     OW18676   2.954   6.401   2.009
 5926SOL    HW118677   2.975   6.467   2.081
 5926SOL    HW218678   3.007   6.423   1.927
 5927SOL     OW18679   2.158   5.154   1.031
 5927SOL    HW118680   2.063   5.156   1.002
 5927SOL    HW218681   2.217   5.153   0.950
 5928SOL     OW18682   6.816   6.096   1.171
 5928SOL    HW118683   6.859   6.144   1.248
 5928SOL    HW218684   6.874   6.103   1.090
 5929SOL     OW18685   0.164   6.763   5.870
 5929SOL    HW118686   0.249   6.779   5.920
 5929SOL    HW218687   0.108   6.696   5.920
 5930SOL     OW18688   6.367   1.368   5.165
 5930SOL    HW118689   6.408   1.356   5.075
 5930SOL    HW218690   6.432   1.342   5.236
 5931SOL     OW18691   5.502   4.699   0.527
 5931SOL    HW118692   5.509   4.624   0.462
 5931SOL    HW218693   5.421   4.754   0.507
 5932SOL     OW18694   2.588   0.497   0.441
 5932SOL    HW118695   2.672   0.478   0.492
 5932SOL    HW218696   2.611   0.535   0.352
 5933SOL     OW18697   6.117   2.135   3.031
 5933SOL    HW118698   6.078   2.226   3.043
 5933SOL    HW218699   6.071   2.070   3.091
 5934SOL     OW18700   4.274   3.286   1.782
 5934SOL    HW118701   4.374   3.290   1.781
 5934SOL    HW218702   4.245   3.191   1.774
 5935SOL     OW18703   3.708   3.371   2.674
 5935SOL    HW118704   3.631   3.318   2.709
 5935SOL    HW218705   3.679   3.424   2.594
 5936SOL     OW18706   6.368   6.212   6.701
 5936SOL    HW118707   6.437   6.243   6.766
 5936SOL    HW218708   6.276   6.227   6.739
 5937SOL     OW18709   0.770   4.084   0.215
 5937SOL    HW118710   0.843   4.116   0.276
 5937SOL    HW218711   0.774   4.135   0.129
 5938SOL     OW18712   2.481   5.006   1.033
 5938SOL    HW118713   2.528   4.919   1.018
 5938SOL    HW218714   2.439   5.006   1.124
 5939SOL     OW18715   1.018   0.518   2.294
 5939SOL    HW118716   0.934   0.514   2.238
 5939SOL    HW218717   1.085   0.453   2.259
 5940SOL     OW18718   4.141   4.875   2.922
 5940SOL    HW118719   4.104   4.886   2.829
 5940SOL    HW218720   4.066   4.866   2.987
 5941SOL     OW18721   6.160   2.566   3.962
 5941SOL    HW118722   6.194   2.660   3.956
 5941SOL    HW218723   6.185   2.527   4.051
 5942SOL     OW18724   6.725   1.277   4.673
 5942SOL    HW118725   6.750   1.190   4.714
 5942SOL    HW218726   6.798   1.344   4.689
 5943SOL     OW18727   1.830   5.469   0.905
 5943SOL    HW118728   1.854   5.554   0.951
 5943SOL    HW218729   1.730   5.463   0.896
 5944SOL     OW18730   5.520   2.833   2.754
 5944SOL    HW118731   5.597   2.818   2.692
 5944SOL    HW218732   5.550   2.816   2.848
 5945SOL     OW18733   6.618   5.595   6.025
 5945SOL    HW118734   6.592   5.500   6.006
 5945SOL    HW218735   6.638   5.642   5.940
 5946SOL     OW18736   4.033   2.684   5.416
 5946SOL    HW118737   3.933   2.685   5.411
 5946SOL    HW218738   4.069   2.621   5.347
 5947SOL     OW18739   5.808   3.732   2.686
 5947SOL    HW118740   5.827   3.643   2.728
 5947SOL    HW218741   5.753   3.719   2.604
 5948SOL     OW18742   2.800   5.708   2.991
 5948SOL    HW118743   2.820   5.806   3.001
 5948SOL    HW218744   2.718   5.685   3.043
 5949SOL     OW18745   4.772   4.129   2.777
 5949SOL    HW118746   4.808   4.037   2.791
 5949SOL    HW218747   4.690   4.142   2.833
 5950SOL     OW18748   6.813   1.873   4.638
 5950SOL    HW118749   6.718   1.900   4.657
 5950SOL    HW218750   6.849   1.823   4.717
 5951SOL     OW18751   2.010   0.985   3.201
 5951SOL    HW118752   2.021   1.060   3.136
 5951SOL    HW218753   1.923   0.939   3.184
 5952SOL     OW18754   0.413   6.752   4.406
 5952SOL    HW118755   0.429   6.833   4.463
 5952SOL    HW218756   0.321   6.717   4.422
 5953SOL     OW18757   0.746   3.606   6.160
 5953SOL    HW118758   0.832   3.589   6.209
 5953SOL    HW218759   0.672   3.556   6.205
 5954SOL     OW18760   1.431   5.010   6.243
 5954SOL    HW118761   1.347   5.055   6.274
 5954SOL    HW218762   1.503   5.026   6.310
 5955SOL     OW18763   3.903   5.490   2.545
 5955SOL    HW118764   3.886   5.430   2.623
 5955SOL    HW218765   3.999   5.482   2.517
 5956SOL     OW18766   0.329   1.762   0.168
 5956SOL    HW118767   0.231   1.742   0.164
 5956SOL    HW218768   0.342   1.854   0.204
 5957SOL     OW18769   4.118   6.623   6.003
 5957SOL    HW118770   4.174   6.545   6.032
 5957SOL    HW218771   4.158   6.664   5.921
 5958SOL     OW18772   1.225   5.665   2.489
 5958SOL    HW118773   1.157   5.611   2.439
 5958SOL    HW218774   1.226   5.758   2.454
 5959SOL     OW18775   1.670   0.583   6.028
 5959SOL    HW118776   1.693   0.622   6.117
 5959SOL    HW218777   1.624   0.652   5.972
 5960SOL     OW18778   3.585   6.019   5.510
 5960SOL    HW118779   3.663   5.996   5.452
 5960SOL    HW218780   3.542   6.103   5.476
 5961SOL     OW18781   2.696   1.035   5.601
 5961SOL    HW118782   2.754   1.116   5.605
 5961SOL    HW218783   2.659   1.016   5.692
 5962SOL     OW18784   5.427   4.201   2.610
 5962SOL    HW118785   5.482   4.284   2.619
 5962SOL    HW218786   5.337   4.224   2.573
 5963SOL     OW18787   4.227   4.346   1.665
 5963SOL    HW118788   4.157   4.281   1.637
 5963SOL    HW218789   4.271   4.315   1.749
 5964SOL     OW18790   1.454   3.336   5.223
 5964SOL    HW118791   1.501   3.423   5.208
 5964SOL    HW218792   1.415   3.335   5.315
 5965SOL     OW18793   2.337   2.083   4.244
 5965SOL    HW118794   2.345   2.041   4.334
 5965SOL    HW218795   2.427   2.094   4.203
 5966SOL     OW18796   1.766   6.223   4.273
 5966SOL    HW118797   1.741   6.319   4.286
 5966SOL    HW218798   1.692   6.165   4.306
 5967SOL     OW18799   4.636   5.518   0.956
 5967SOL    HW118800   4.657   5.546   0.862
 5967SOL    HW218801   4.645   5.596   1.017
 5968SOL     OW18802   1.584   1.895   4.170
 5968SOL    HW118803   1.560   1.831   4.243
 5968SOL    HW218804   1.670   1.867   4.127
 5969SOL     OW18805   0.903   2.119   2.824
 5969SOL    HW118806   0.839   2.191   2.851
 5969SOL    HW218807   0.989   2.130   2.874
 5970SOL     OW18808   2.123   4.181   3.361
 5970SOL    HW118809   2.050   4.166   3.427
 5970SOL    HW218810   2.129   4.101   3.300
 5971SOL     OW18811   2.859   5.650   3.325
 5971SOL    HW118812   2.800   5.580   3.366
 5971SOL    HW218813   2.809   5.736   3.318
 5972SOL     OW18814   6.240   0.213   1.667
 5972SOL    HW118815   6.229   0.217   1.767
 5972SOL    HW218816   6.151   0.199   1.624
 5973SOL     OW18817   2.411   5.070   3.444
 5973SOL    HW118818   2.327   5.108   3.403
 5973SOL    HW218819   2.387   5.012   3.522
 5974SOL     OW18820   0.962   4.347   6.148
 5974SOL    HW118821   1.052   4.323   6.112
 5974SOL    HW218822   0.927   4.270   6.202
 5975SOL     OW18823   2.031   2.505   6.482
 5975SOL    HW118824   2.040   2.464   6.573
 5975SOL    HW218825   1.963   2.578   6.485
 5976SOL     OW18826   3.540   3.662   4.428
 5976SOL    HW118827   3.583   3.750   4.406
 5976SOL    HW218828   3.441   3.669   4.415
 5977SOL     OW18829   0.500   3.429   2.612
 5977SOL    HW118830   0.450   3.473   2.687
 5977SOL    HW218831   0.459   3.340   2.593
 5978SOL     OW18832   5.051   5.484   1.610
 5978SOL    HW118833   5.146   5.515   1.606
 5978SOL    HW218834   5.017   5.469   1.517
 5979SOL     OW18835   0.717   1.397   1.720
 5979SOL    HW118836   0.681   1.393   1.813
 5979SOL    HW218837   0.704   1.489   1.683
 5980SOL     OW18838   5.933   2.539   5.360
 5980SOL    HW118839   6.016   2.587   5.331
 5980SOL    HW218840   5.882   2.597   5.424
 5981SOL     OW18841   3.391   2.235   0.431
 5981SOL    HW118842   3.296   2.266   0.433
 5981SOL    HW218843   3.452   2.314   0.441
 5982SOL     OW18844   6.166   2.841   6.872
 5982SOL    HW118845   6.095   2.906   6.844
 5982SOL    HW218846   6.255   2.886   6.869
 5983SOL     OW18847   0.771   0.420   4.330
 5983SOL    HW118848   0.837   0.396   4.401
 5983SOL    HW218849   0.681   0.382   4.353
 5984SOL     OW18850   0.737   0.224   5.986
 5984SOL    HW118851   0.756   0.322   5.996
 5984SOL    HW218852   0.811   0.171   6.027
 5985SOL     OW18853   5.972   3.105   4.289
 5985SOL    HW118854   5.984   3.029   4.353
 5985SOL    HW218855   6.054   3.162   4.291
 5986SOL     OW18856   3.196   3.561   2.248
 5986SOL    HW118857   3.122   3.519   2.196
 5986SOL    HW218858   3.173   3.657   2.268
 5987SOL     OW18859   3.950   0.123   5.492
 5987SOL    HW118860   4.044   0.119   5.526
 5987SOL    HW218861   3.924   0.218   5.477
 5988SOL     OW18862   3.720   6.839   6.019
 5988SOL    HW118863   3.784   6.873   5.950
 5988SOL    HW218864   3.684   6.751   5.990
 5989SOL     OW18865   2.968   1.641   6.696
 5989SOL    HW118866   2.896   1.611   6.634
 5989SOL    HW218867   3.025   1.709   6.649
 5990SOL     OW18868   3.148   6.059   3.169
 5990SOL    HW118869   3.141   6.008   3.254
 5990SOL    HW218870   3.244   6.062   3.140
 5991SOL     OW18871   3.576   4.914   3.275
 5991SOL    HW118872   3.514   4.880   3.345
 5991SOL    HW218873   3.602   5.008   3.297
 5992SOL     OW18874   4.030   1.566   4.212
 5992SOL    HW118875   4.001   1.553   4.307
 5992SOL    HW218876   4.119   1.611   4.210
 5993SOL     OW18877   2.860   5.295   3.805
 5993SOL    HW118878   2.890   5.218   3.862
 5993SOL    HW218879   2.788   5.346   3.852
 5994SOL     OW18880   6.467   1.965   0.076
 5994SOL    HW118881   6.450   1.965   0.175
 5994SOL    HW218882   6.404   2.028   0.031
 5995SOL     OW18883   0.353   3.672   1.940
 5995SOL    HW118884   0.437   3.726   1.946
 5995SOL    HW218885   0.293   3.696   2.016
 5996SOL     OW18886   1.561   5.899   6.237
 5996SOL    HW118887   1.640   5.839   6.234
 5996SOL    HW218888   1.479   5.849   6.210
 5997SOL     OW18889   0.936   0.424   1.367
 5997SOL    HW118890   0.850   0.380   1.341
 5997SOL    HW218891   0.962   0.492   1.298
 5998SOL     OW18892   5.237   3.056   3.324
 5998SOL    HW118893   5.193   3.012   3.245
 5998SOL    HW218894   5.253   2.988   3.396
 5999SOL     OW18895   2.042   2.729   3.147
 5999SOL    HW118896   2.129   2.681   3.147
 5999SOL    HW218897   2.026   2.769   3.237
 6000SOL     OW18898   5.271   1.264   3.406
 6000SOL    HW118899   5.231   1.273   3.316
 6000SOL    HW218900   5.281   1.355   3.448
 6001SOL     OW18901   5.988   1.036   0.193
 6001SOL    HW118902   5.958   1.106   0.128
 6001SOL    HW218903   5.909   0.986   0.227
 6002SOL     OW18904   2.546   0.128   2.262
 6002SOL    HW118905   2.472   0.185   2.227
 6002SOL    HW218906   2.633   0.173   2.245
 6003SOL     OW18907   4.789   4.160   3.935
 6003SOL    HW118908   4.867   4.188   3.879
 6003SOL    HW218909   4.806   4.068   3.972
 6004SOL     OW18910   0.687   3.306   1.608
 6004SOL    HW118911   0.757   3.272   1.672
 6004SOL    HW218912   0.701   3.404   1.592
 6005SOL     OW18913   1.950   6.360   2.558
 6005SOL    HW118914   1.966   6.360   2.656
 6005SOL    HW218915   2.037   6.343   2.510
 6006SOL     OW18916   2.317   6.055   6.855
 6006SOL    HW118917   2.335   5.984   6.787
 6006SOL    HW218918   2.291   6.013   6.942
 6007SOL     OW18919   5.438   3.784   4.608
 6007SOL    HW118920   5.412   3.835   4.690
 6007SOL    HW218921   5.377   3.705   4.597
 6008SOL     OW18922   4.805   4.023   1.927
 6008SOL    HW118923   4.764   4.093   1.985
 6008SOL    HW218924   4.753   4.016   1.842
 6009SOL     OW18925   3.914   1.312   4.731
 6009SOL    HW118926   3.816   1.326   4.725
 6009SOL    HW218927   3.956   1.388   4.780
 6010SOL     OW18928   1.800   4.734   3.595
 6010SOL    HW118929   1.817   4.659   3.659
 6010SOL    HW218930   1.742   4.700   3.520
 6011SOL     OW18931   6.191   2.150   2.010
 6011SOL    HW118932   6.283   2.188   2.024
 6011SOL    HW218933   6.178   2.071   2.070
 6012SOL     OW18934   0.799   2.787   1.232
 6012SOL    HW118935   0.892   2.798   1.267
 6012SOL    HW218936   0.774   2.690   1.233
 6013SOL     OW18937   5.279   0.352   2.437
 6013SOL    HW118938   5.278   0.369   2.338
 6013SOL    HW218939   5.286   0.253   2.453
 6014SOL     OW18940   6.449   1.048   0.651
 6014SOL    HW118941   6.479   0.953   0.636
 6014SOL    HW218942   6.396   1.053   0.735
 6015SOL     OW18943   5.946   0.274   4.655
 6015SOL    HW118944   5.962   0.325   4.570
 6015SOL    HW218945   5.913   0.183   4.633
 6016SOL     OW18946   1.512   0.255   5.650
 6016SOL    HW118947   1.578   0.198   5.698
 6016SOL    HW218948   1.552   0.346   5.633
 6017SOL     OW18949   0.131   3.722   2.179
 6017SOL    HW118950   0.135   3.624   2.162
 6017SOL    HW218951   0.038   3.755   2.163
 6018SOL     OW18952   3.448   5.079   1.255
 6018SOL    HW118953   3.465   5.063   1.352
 6018SOL    HW218954   3.492   5.164   1.228
 6019SOL     OW18955   6.603   6.623   3.490
 6019SOL    HW118956   6.676   6.566   3.528
 6019SOL    HW218957   6.596   6.608   3.392
 6020SOL     OW18958   2.234   6.188   2.746
 6020SOL    HW118959   2.324   6.231   2.759
 6020SOL    HW218960   2.237   6.095   2.781
 6021SOL     OW18961   2.942   0.442   3.461
 6021SOL    HW118962   2.867   0.506   3.441
 6021SOL    HW218963   3.027   0.493   3.472
 6022SOL     OW18964   3.749   1.427   5.682
 6022SOL    HW118965   3.844   1.414   5.653
 6022SOL    HW218966   3.740   1.406   5.779
 6023SOL     OW18967   0.247   2.048   1.797
 6023SOL    HW118968   0.242   2.122   1.864
 6023SOL    HW218969   0.214   1.964   1.838
 6024SOL     OW18970   6.320   5.831   2.714
 6024SOL    HW118971   6.322   5.918   2.663
 6024SOL    HW218972   6.225   5.804   2.729
 6025SOL     OW18973   4.661   2.075   2.359
 6025SOL    HW118974   4.582   2.046   2.413
 6025SOL    HW218975   4.720   1.996   2.341
 6026SOL     OW18976   0.675   4.196   5.654
 6026SOL    HW118977   0.676   4.285   5.699
 6026SOL    HW218978   0.761   4.183   5.604
 6027SOL     OW18979   4.405   4.461   0.530
 6027SOL    HW118980   4.381   4.537   0.470
 6027SOL    HW218981   4.374   4.375   0.489
 6028SOL     OW18982   0.712   4.058   6.641
 6028SOL    HW118983   0.787   4.120   6.666
 6028SOL    HW218984   0.747   3.965   6.631
 6029SOL     OW18985   1.329   5.259   1.586
 6029SOL    HW118986   1.418   5.269   1.631
 6029SOL    HW218987   1.267   5.208   1.646
 6030SOL     OW18988   1.688   6.581   1.976
 6030SOL    HW118989   1.786   6.574   1.993
 6030SOL    HW218990   1.668   6.668   1.930
 6031SOL     OW18991   4.922   0.922   4.285
 6031SOL    HW118992   4.953   0.906   4.379
 6031SOL    HW218993   5.001   0.919   4.224
 6032SOL     OW18994   1.333   2.416   2.087
 6032SOL    HW118995   1.413   2.459   2.128
 6032SOL    HW218996   1.250   2.454   2.128
 6033SOL     OW18997   0.202   6.978   4.436
 6033SOL    HW118998   0.196   6.974   4.536
 6033SOL    HW218999   0.136   6.915   4.396
 6034SOL     OW19000   2.442   4.638   4.573
 6034SOL    HW119001   2.404   4.657   4.664
 6034SOL    HW219002   2.367   4.635   4.506
 6035SOL     OW19003   4.789   0.270   4.024
 6035SOL    HW119004   4.769   0.366   4.009
 6035SOL    HW219005   4.809   0.226   3.936
 6036SOL     OW19006   5.625   0.404   5.103
 6036SOL    HW119007   5.716   0.369   5.126
 6036SOL    HW219008   5.570   0.411   5.186
 6037SOL     OW19009   0.796   5.721   4.580
 6037SOL    HW119010   0.727   5.773   4.630
 6037SOL    HW219011   0.751   5.651   4.524
 6038SOL     OW19012   0.506   4.095   6.460
 6038SOL    HW119013   0.593   4.113   6.507
 6038SOL    HW219014   0.506   4.001   6.427
 6039SOL     OW19015   3.514   3.467   4.207
 6039SOL    HW119016   3.535   3.382   4.254
 6039SOL    HW219017   3.545   3.544   4.261
 6040SOL     OW19018   1.195   0.849   0.633
 6040SOL    HW119019   1.217   0.794   0.552
 6040SOL    HW219020   1.215   0.945   0.614
 6041SOL     OW19021   0.681   3.018   0.302
 6041SOL    HW119022   0.642   3.008   0.393
 6041SOL    HW219023   0.745   2.944   0.285
 6042SOL     OW19024   5.148   5.661   4.787
 6042SOL    HW119025   5.050   5.663   4.769
 6042SOL    HW219026   5.198   5.688   4.704
 6043SOL     OW19027   0.257   4.444   3.734
 6043SOL    HW119028   0.218   4.521   3.683
 6043SOL    HW219029   0.333   4.404   3.682
 6044SOL     OW19030   1.235   0.551   1.054
 6044SOL    HW119031   1.304   0.480   1.039
 6044SOL    HW219032   1.244   0.622   0.984
 6045SOL     OW19033   6.322   4.334   6.793
 6045SOL    HW119034   6.242   4.334   6.853
 6045SOL    HW219035   6.372   4.249   6.804
 6046SOL     OW19036   1.309   3.612   6.729
 6046SOL    HW119037   1.360   3.620   6.643
 6046SOL    HW219038   1.227   3.557   6.714
 6047SOL     OW19039   1.449   5.732   5.072
 6047SOL    HW119040   1.460   5.715   4.974
 6047SOL    HW219041   1.373   5.678   5.107
 6048SOL     OW19042   4.555   5.862   4.002
 6048SOL    HW119043   4.648   5.899   4.007
 6048SOL    HW219044   4.490   5.938   3.997
 6049SOL     OW19045   6.823   5.725   0.215
 6049SOL    HW119046   6.800   5.708   0.119
 6049SOL    HW219047   6.771   5.664   0.274
 6050SOL     OW19048   5.855   4.423   5.357
 6050SOL    HW119049   5.820   4.386   5.271
 6050SOL    HW219050   5.923   4.493   5.337
 6051SOL     OW19051   3.044   1.915   3.633
 6051SOL    HW119052   3.004   1.935   3.543
 6051SOL    HW219053   2.974   1.880   3.694
 6052SOL     OW19054   0.419   1.845   6.846
 6052SOL    HW119055   0.444   1.749   6.832
 6052SOL    HW219056   0.498   1.903   6.822
 6053SOL     OW19057   0.974   0.355   6.279
 6053SOL    HW119058   0.959   0.423   6.351
 6053SOL    HW219059   0.979   0.401   6.191
 6054SOL     OW19060   0.911   4.282   5.848
 6054SOL    HW119061   0.961   4.302   5.933
 6054SOL    HW219062   0.855   4.200   5.861
 6055SOL     OW19063   5.655   6.656   2.783
 6055SOL    HW119064   5.571   6.679   2.834
 6055SOL    HW219065   5.693   6.571   2.818
 6056SOL     OW19066   5.365   2.883   6.284
 6056SOL    HW119067   5.400   2.806   6.230
 6056SOL    HW219068   5.346   2.960   6.223
 6057SOL     OW19069   4.441   0.877   6.784
 6057SOL    HW119070   4.361   0.835   6.741
 6057SOL    HW219071   4.422   0.973   6.803
 6058SOL     OW19072   5.226   2.032   5.224
 6058SOL    HW119073   5.231   2.048   5.125
 6058SOL    HW219074   5.276   2.104   5.272
 6059SOL     OW19075   0.040   6.351   6.876
 6059SOL    HW119076   0.093   6.344   6.791
 6059SOL    HW219077   6.967   6.317   6.861
 6060SOL     OW19078   2.907   5.467   6.644
 6060SOL    HW119079   2.852   5.513   6.714
 6060SOL    HW219080   2.955   5.536   6.590
 6061SOL     OW19081   1.900   1.596   0.245
 6061SOL    HW119082   1.823   1.533   0.236
 6061SOL    HW219083   1.928   1.627   0.154
 6062SOL     OW19084   1.558   0.323   3.649
 6062SOL    HW119085   1.646   0.349   3.687
 6062SOL    HW219086   1.526   0.393   3.586
 6063SOL     OW19087   6.055   5.737   6.760
 6063SOL    HW119088   6.082   5.670   6.830
 6063SOL    HW219089   6.073   5.700   6.669
 6064SOL     OW19090   1.152   5.586   2.747
 6064SOL    HW119091   1.179   5.637   2.665
 6064SOL    HW219092   1.090   5.642   2.802
 6065SOL     OW19093   5.135   0.053   1.240
 6065SOL    HW119094   5.103   0.141   1.205
 6065SOL    HW219095   5.151   0.060   1.339
 6066SOL     OW19096   4.535   2.131   5.531
 6066SOL    HW119097   4.564   2.063   5.599
 6066SOL    HW219098   4.572   2.220   5.556
 6067SOL     OW19099   4.910   1.706   6.723
 6067SOL    HW119100   4.943   1.753   6.805
 6067SOL    HW219101   4.981   1.709   6.652
 6068SOL     OW19102   5.204   0.706   5.735
 6068SOL    HW119103   5.174   0.727   5.642
 6068SOL    HW219104   5.268   0.777   5.767
 6069SOL     OW19105   6.559   5.336   3.669
 6069SOL    HW119106   6.547   5.320   3.767
 6069SOL    HW219107   6.629   5.274   3.633
 6070SOL     OW19108   4.938   3.540   0.762
 6070SOL    HW119109   4.892   3.548   0.673
 6070SOL    HW219110   5.018   3.600   0.764
 6071SOL     OW19111   4.801   6.983   5.171
 6071SOL    HW119112   4.751   7.015   5.252
 6071SOL    HW219113   4.793   0.032   5.098
 6072SOL     OW19114   5.960   1.622   1.424
 6072SOL    HW119115   6.056   1.650   1.423
 6072SOL    HW219116   5.948   1.544   1.485
 6073SOL     OW19117   6.026   1.050   0.941
 6073SOL    HW119118   6.098   0.982   0.952
 6073SOL    HW219119   6.043   1.104   0.858
 6074SOL     OW19120   0.531   0.587   5.782
 6074SOL    HW119121   0.627   0.614   5.772
 6074SOL    HW219122   0.485   0.654   5.840
 6075SOL     OW19123   5.077   3.599   5.698
 6075SOL    HW119124   5.149   3.652   5.652
 6075SOL    HW219125   5.049   3.647   5.782
 6076SOL     OW19126   2.608   0.493   3.923
 6076SOL    HW119127   2.627   0.451   4.012
 6076SOL    HW219128   2.509   0.507   3.913
 6077SOL     OW19129   5.339   4.938   3.440
 6077SOL    HW119130   5.328   4.846   3.404
 6077SOL    HW219131   5.436   4.958   3.454
 6078SOL     OW19132   2.009   4.637   4.769
 6078SOL    HW119133   1.993   4.688   4.854
 6078SOL    HW219134   2.054   4.697   4.703
 6079SOL     OW19135   2.792   2.061   0.845
 6079SOL    HW119136   2.757   2.110   0.925
 6079SOL    HW219137   2.716   2.040   0.784
 6080SOL     OW19138   5.864   3.381   3.236
 6080SOL    HW119139   5.903   3.289   3.237
 6080SOL    HW219140   5.793   3.388   3.306
 6081SOL     OW19141   0.372   4.260   1.892
 6081SOL    HW119142   0.317   4.304   1.963
 6081SOL    HW219143   0.367   4.161   1.903
 6082SOL     OW19144   4.325   1.881   5.190
 6082SOL    HW119145   4.266   1.959   5.172
 6082SOL    HW219146   4.380   1.861   5.109
 6083SOL     OW19147   1.895   6.842   6.853
 6083SOL    HW119148   1.989   6.867   6.829
 6083SOL    HW219149   1.892   6.813   6.949
 6084SOL     OW19150   6.954   5.619   6.209
 6084SOL    HW119151   6.879   5.659   6.157
 6084SOL    HW219152   0.019   5.670   6.192
 6085SOL     OW19153   5.094   4.927   1.401
 6085SOL    HW119154   5.056   4.848   1.450
 6085SOL    HW219155   5.190   4.939   1.426
 6086SOL     OW19156   3.178   1.861   2.154
 6086SOL    HW119157   3.228   1.942   2.187
 6086SOL    HW219158   3.115   1.830   2.224
 6087SOL     OW19159   3.858   0.608   0.585
 6087SOL    HW119160   3.852   0.523   0.533
 6087SOL    HW219161   3.837   0.589   0.681
 6088SOL     OW19162   0.248   0.642   5.041
 6088SOL    HW119163   0.196   0.655   5.126
 6088SOL    HW219164   0.327   0.704   5.041
 6089SOL     OW19165   6.400   4.077   1.010
 6089SOL    HW119166   6.316   4.033   1.042
 6089SOL    HW219167   6.469   4.072   1.082
 6090SOL     OW19168   6.863   6.134   4.345
 6090SOL    HW119169   6.959   6.116   4.368
 6090SOL    HW219170   6.830   6.065   4.282
 6091SOL     OW19171   6.888   2.389   1.826
 6091SOL    HW119172   6.859   2.294   1.821
 6091SOL    HW219173   6.811   2.446   1.856
 6092SOL     OW19174   0.872   3.908   0.748
 6092SOL    HW119175   0.966   3.885   0.722
 6092SOL    HW219176   0.809   3.875   0.678
 6093SOL     OW19177   0.990   4.694   0.605
 6093SOL    HW119178   1.012   4.788   0.578
 6093SOL    HW219179   0.930   4.696   0.684
 6094SOL     OW19180   0.385   1.154   1.155
 6094SOL    HW119181   0.295   1.178   1.191
 6094SOL    HW219182   0.446   1.234   1.161
 6095SOL     OW19183   6.972   3.709   5.034
 6095SOL    HW119184   6.927   3.712   4.945
 6095SOL    HW219185   6.911   3.667   5.102
 6096SOL     OW19186   5.474   1.800   2.663
 6096SOL    HW119187   5.426   1.864   2.603
 6096SOL    HW219188   5.572   1.806   2.648
 6097SOL     OW19189   3.801   1.812   2.423
 6097SOL    HW119190   3.770   1.906   2.410
 6097SOL    HW219191   3.759   1.774   2.505
 6098SOL     OW19192   0.727   0.741   6.698
 6098SOL    HW119193   0.716   0.805   6.622
 6098SOL    HW219194   0.650   0.751   6.762
 6099SOL     OW19195   5.931   4.020   4.783
 6099SOL    HW119196   5.956   4.079   4.706
 6099SOL    HW219197   5.856   3.959   4.755
 6100SOL     OW19198   0.046   3.036   1.042
 6100SOL    HW119199   0.106   3.106   1.004
 6100SOL    HW219200   7.008   3.077   1.113
 6101SOL     OW19201   6.283   6.370   3.875
 6101SOL    HW119202   6.206   6.383   3.814
 6101SOL    HW219203   6.275   6.283   3.922
 6102SOL     OW19204   3.264   6.409   5.119
 6102SOL    HW119205   3.325   6.467   5.172
 6102SOL    HW219206   3.174   6.406   5.164
 6103SOL     OW19207   5.765   1.857   5.310
 6103SOL    HW119208   5.766   1.857   5.410
 6103SOL    HW219209   5.730   1.770   5.278
 6104SOL     OW19210   2.139   2.876   1.290
 6104SOL    HW119211   2.105   2.933   1.365
 6104SOL    HW219212   2.235   2.851   1.308
 6105SOL     OW19213   3.376   4.899   4.582
 6105SOL    HW119214   3.354   4.934   4.673
 6105SOL    HW219215   3.291   4.884   4.531
 6106SOL     OW19216   2.192   5.128   4.237
 6106SOL    HW119217   2.120   5.086   4.181
 6106SOL    HW219218   2.221   5.064   4.308
 6107SOL     OW19219   2.176   5.224   6.328
 6107SOL    HW119220   2.234   5.281   6.271
 6107SOL    HW219221   2.103   5.184   6.272
 6108SOL     OW19222   5.484   2.027   4.974
 6108SOL    HW119223   5.404   2.082   4.950
 6108SOL    HW219224   5.511   1.970   4.897
 6109SOL     OW19225   6.955   4.395   1.636
 6109SOL    HW119226   6.998   4.320   1.585
 6109SOL    HW219227   0.005   4.439   1.694
 6110SOL     OW19228   3.443   2.023   3.842
 6110SOL    HW119229   3.429   2.038   3.939
 6110SOL    HW219230   3.363   2.054   3.791
 6111SOL     OW19231   0.469   4.404   3.545
 6111SOL    HW119232   0.538   4.416   3.474
 6111SOL    HW219233   0.510   4.423   3.634
 6112SOL     OW19234   1.339   1.044   1.291
 6112SOL    HW119235   1.400   1.071   1.366
 6112SOL    HW219236   1.393   1.033   1.208
 6113SOL     OW19237   1.319   4.712   5.494
 6113SOL    HW119238   1.317   4.809   5.518
 6113SOL    HW219239   1.406   4.672   5.522
 6114SOL     OW19240   3.658   4.191   0.942
 6114SOL    HW119241   3.591   4.228   0.878
 6114SOL    HW219242   3.613   4.173   1.030
 6115SOL     OW19243   0.048   4.936   2.415
 6115SOL    HW119244   7.001   4.996   2.460
 6115SOL    HW219245   0.069   4.972   2.324
 6116SOL     OW19246   4.069   2.481   1.065
 6116SOL    HW119247   4.022   2.454   1.149
 6116SOL    HW219248   4.050   2.577   1.046
 6117SOL     OW19249   5.363   5.877   4.080
 6117SOL    HW119250   5.268   5.875   4.051
 6117SOL    HW219251   5.407   5.960   4.047
 6118SOL     OW19252   6.373   0.320   3.689
 6118SOL    HW119253   6.335   0.228   3.700
 6118SOL    HW219254   6.301   0.382   3.658
 6119SOL     OW19255   5.784   5.302   4.668
 6119SOL    HW119256   5.725   5.382   4.677
 6119SOL    HW219257   5.729   5.222   4.645
 6120SOL     OW19258   2.208   1.903   3.019
 6120SOL    HW119259   2.276   1.934   2.952
 6120SOL    HW219260   2.250   1.902   3.110
 6121SOL     OW19261   0.063   2.235   3.334
 6121SOL    HW119262   0.058   2.277   3.243
 6121SOL    HW219263   0.146   2.180   3.340
 6122SOL     OW19264   3.951   5.487   4.039
 6122SOL    HW119265   3.944   5.387   4.037
 6122SOL    HW219266   4.029   5.513   4.097
 6123SOL     OW19267   5.831   1.699   2.512
 6123SOL    HW119268   5.929   1.712   2.519
 6123SOL    HW219269   5.785   1.787   2.526
 6124SOL     OW19270   2.960   0.211   5.095
 6124SOL    HW119271   2.952   0.213   5.195
 6124SOL    HW219272   3.045   0.257   5.068
 6125SOL     OW19273   1.264   4.289   2.289
 6125SOL    HW119274   1.168   4.316   2.299
 6125SOL    HW219275   1.315   4.362   2.244
 6126SOL     OW19276   3.554   6.665   3.438
 6126SOL    HW119277   3.546   6.568   3.414
 6126SOL    HW219278   3.646   6.697   3.417
 6127SOL     OW19279   2.107   5.428   1.352
 6127SOL    HW119280   2.170   5.440   1.430
 6127SOL    HW219281   2.018   5.467   1.375
 6128SOL     OW19282   5.351   4.204   1.661
 6128SOL    HW119283   5.252   4.220   1.665
 6128SOL    HW219284   5.392   4.219   1.751
 6129SOL     OW19285   6.555   3.656   3.574
 6129SOL    HW119286   6.579   3.740   3.622
 6129SOL    HW219287   6.506   3.678   3.490
 6130SOL     OW19288   5.091   3.535   2.809
 6130SOL    HW119289   5.110   3.473   2.733
 6130SOL    HW219290   5.004   3.582   2.792
 6131SOL     OW19291   6.753   1.008   5.225
 6131SOL    HW119292   6.799   0.966   5.302
 6131SOL    HW219293   6.654   0.993   5.232
 6132SOL     OW19294   6.946   2.588   0.414
 6132SOL    HW119295   6.866   2.647   0.401
 6132SOL    HW219296   6.959   2.532   0.332
 6133SOL     OW19297   1.404   5.088   0.187
 6133SOL    HW119298   1.410   4.992   0.159
 6133SOL    HW219299   1.492   5.119   0.222
 6134SOL     OW19300   4.925   3.686   6.357
 6134SOL    HW119301   4.894   3.609   6.303
 6134SOL    HW219302   5.001   3.658   6.416
 6135SOL     OW19303   6.159   6.624   2.259
 6135SOL    HW119304   6.231   6.581   2.204
 6135SOL    HW219305   6.111   6.692   2.204
 6136SOL     OW19306   1.684   2.022   2.579
 6136SOL    HW119307   1.743   1.994   2.655
 6136SOL    HW219308   1.730   2.003   2.493
 6137SOL     OW19309   3.363   0.037   6.290
 6137SOL    HW119310   3.447   0.033   6.237
 6137SOL    HW219311   3.381   0.078   6.380
 6138SOL     OW19312   4.786   0.650   3.019
 6138SOL    HW119313   4.840   0.734   3.020
 6138SOL    HW219314   4.755   0.629   3.111
 6139SOL     OW19315   2.495   6.235   3.721
 6139SOL    HW119316   2.443   6.152   3.699
 6139SOL    HW219317   2.582   6.234   3.672
 6140SOL     OW19318   2.409   5.779   1.226
 6140SOL    HW119319   2.322   5.792   1.274
 6140SOL    HW219320   2.453   5.867   1.210
 6141SOL     OW19321   0.823   6.201   5.076
 6141SOL    HW119322   0.902   6.152   5.038
 6141SOL    HW219323   0.772   6.141   5.137
 6142SOL     OW19324   7.002   3.317   3.724
 6142SOL    HW119325   6.903   3.306   3.712
 6142SOL    HW219326   0.016   3.388   3.662
 6143SOL     OW19327   6.401   5.880   6.237
 6143SOL    HW119328   6.481   5.941   6.241
 6143SOL    HW219329   6.356   5.891   6.148
 6144SOL     OW19330   0.314   5.732   4.471
 6144SOL    HW119331   0.287   5.769   4.382
 6144SOL    HW219332   0.382   5.792   4.513
 6145SOL     OW19333   6.038   4.840   3.569
 6145SOL    HW119334   6.021   4.937   3.581
 6145SOL    HW219335   6.057   4.821   3.472
 6146SOL     OW19336   6.002   1.983   3.266
 6146SOL    HW119337   5.999   2.020   3.359
 6146SOL    HW219338   5.947   1.900   3.261
 6147SOL     OW19339   0.997   3.766   3.909
 6147SOL    HW119340   0.955   3.819   3.835
 6147SOL    HW219341   1.067   3.822   3.954
 6148SOL     OW19342   6.397   6.520   3.276
 6148SOL    HW119343   6.436   6.587   3.214
 6148SOL    HW219344   6.341   6.455   3.224
 6149SOL     OW19345   1.261   5.842   4.623
 6149SOL    HW119346   1.206   5.761   4.604
 6149SOL    HW219347   1.200   5.918   4.647
 6150SOL     OW19348   4.835   6.654   6.183
 6150SOL    HW119349   4.894   6.579   6.212
 6150SOL    HW219350   4.745   6.643   6.224
 6151SOL     OW19351   4.352   0.290   4.941
 6151SOL    HW119352   4.395   0.330   5.022
 6151SOL    HW219353   4.256   0.271   4.960
 6152SOL     OW19354   6.510   4.021   6.437
 6152SOL    HW119355   6.518   4.103   6.494
 6152SOL    HW219356   6.601   3.989   6.411
 6153SOL     OW19357   3.635   5.557   5.791
 6153SOL    HW119358   3.658   5.644   5.833
 6153SOL    HW219359   3.575   5.572   5.712
 6154SOL     OW19360   5.445   3.296   2.956
 6154SOL    HW119361   5.377   3.369   2.965
 6154SOL    HW219362   5.402   3.216   2.914
 6155SOL     OW19363   2.705   4.800   4.542
 6155SOL    HW119364   2.630   4.736   4.558
 6155SOL    HW219365   2.729   4.799   4.444
 6156SOL     OW19366   5.492   0.786   4.567
 6156SOL    HW119367   5.446   0.714   4.514
 6156SOL    HW219368   5.526   0.747   4.653
 6157SOL     OW19369   1.179   1.090   4.765
 6157SOL    HW119370   1.211   1.053   4.678
 6157SOL    HW219371   1.146   1.184   4.751
 6158SOL     OW19372   4.994   6.560   6.915
 6158SOL    HW119373   5.048   6.645   6.917
 6158SOL    HW219374   5.056   6.482   6.906
 6159SOL     OW19375   5.316   3.696   6.209
 6159SOL    HW119376   5.260   3.636   6.152
 6159SOL    HW219377   5.324   3.657   6.301
 6160SOL     OW19378   6.409   5.421   0.024
 6160SOL    HW119379   6.436   5.338   0.072
 6160SOL    HW219380   6.380   5.491   0.090
 6161SOL     OW19381   5.702   0.166   6.350
 6161SOL    HW119382   5.702   0.259   6.387
 6161SOL    HW219383   5.639   0.109   6.403
 6162SOL     OW19384   5.888   5.547   3.550
 6162SOL    HW119385   5.916   5.482   3.620
 6162SOL    HW219386   5.921   5.518   3.461
 6163SOL     OW19387   6.783   3.779   2.849
 6163SOL    HW119388   6.779   3.837   2.768
 6163SOL    HW219389   6.706   3.799   2.909
 6164SOL     OW19390   4.631   3.151   0.891
 6164SOL    HW119391   4.673   3.061   0.876
 6164SOL    HW219392   4.703   3.220   0.900
 6165SOL     OW19393   3.889   6.886   0.799
 6165SOL    HW119394   3.958   6.939   0.848
 6165SOL    HW219395   3.798   6.923   0.819
 6166SOL     OW19396   3.001   0.417   0.379
 6166SOL    HW119397   3.088   0.465   0.369
 6166SOL    HW219398   3.003   0.332   0.327
 6167SOL     OW19399   6.917   5.181   3.276
 6167SOL    HW119400   7.000   5.162   3.329
 6167SOL    HW219401   6.904   5.280   3.269
 6168SOL     OW19402   0.001   2.689   1.703
 6168SOL    HW119403   0.039   2.607   1.747
 6168SOL    HW219404   7.012   2.762   1.770
 6169SOL     OW19405   1.244   3.986   1.005
 6169SOL    HW119406   1.195   3.989   1.092
 6169SOL    HW219407   1.179   3.968   0.931
 6170SOL     OW19408   6.662   2.196   3.553
 6170SOL    HW119409   6.731   2.221   3.621
 6170SOL    HW219410   6.604   2.123   3.590
 6171SOL     OW19411   5.589   2.149   6.167
 6171SOL    HW119412   5.554   2.058   6.189
 6171SOL    HW219413   5.536   2.187   6.091
 6172SOL     OW19414   0.360   4.839   3.841
 6172SOL    HW119415   0.383   4.818   3.746
 6172SOL    HW219416   0.268   4.807   3.862
 6173SOL     OW19417   5.412   6.303   3.024
 6173SOL    HW119418   5.482   6.341   3.084
 6173SOL    HW219419   5.439   6.212   2.993
 6174SOL     OW19420   0.500   2.243   3.424
 6174SOL    HW119421   0.544   2.253   3.335
 6174SOL    HW219422   0.559   2.190   3.485
 6175SOL     OW19423   4.185   2.530   6.444
 6175SOL    HW119424   4.227   2.515   6.534
 6175SOL    HW219425   4.178   2.628   6.427
 6176SOL     OW19426   2.873   5.098   5.688
 6176SOL    HW119427   2.910   5.182   5.647
 6176SOL    HW219428   2.949   5.040   5.718
 6177SOL     OW19429   5.994   5.388   1.638
 6177SOL    HW119430   5.942   5.465   1.600
 6177SOL    HW219431   5.937   5.306   1.635
 6178SOL     OW19432   4.359   4.803   1.885
 6178SOL    HW119433   4.384   4.708   1.901
 6178SOL    HW219434   4.371   4.825   1.788
 6179SOL     OW19435   4.641   5.344   4.866
 6179SOL    HW119436   4.736   5.359   4.840
 6179SOL    HW219437   4.637   5.312   4.961
 6180SOL     OW19438   2.151   3.655   6.804
 6180SOL    HW119439   2.059   3.684   6.830
 6180SOL    HW219440   2.218   3.718   6.843
 6181SOL     OW19441   0.152   6.460   0.332
 6181SOL    HW119442   0.128   6.439   0.427
 6181SOL    HW219443   0.169   6.558   0.323
 6182SOL     OW19444   2.747   2.677   5.817
 6182SOL    HW119445   2.674   2.744   5.806
 6182SOL    HW219446   2.706   2.586   5.829
 6183SOL     OW19447   0.444   0.491   0.429
 6183SOL    HW119448   0.543   0.496   0.439
 6183SOL    HW219449   0.400   0.538   0.506
 6184SOL     OW19450   3.667   6.463   5.645
 6184SOL    HW119451   3.575   6.501   5.656
 6184SOL    HW219452   3.734   6.537   5.644
 6185SOL     OW19453   3.228   2.991   3.865
 6185SOL    HW119454   3.180   2.984   3.778
 6185SOL    HW219455   3.326   2.980   3.850
 6186SOL     OW19456   0.974   1.566   2.355
 6186SOL    HW119457   1.042   1.583   2.427
 6186SOL    HW219458   0.928   1.652   2.332
 6187SOL     OW19459   3.594   1.951   5.803
 6187SOL    HW119460   3.603   1.942   5.902
 6187SOL    HW219461   3.641   1.875   5.758
 6188SOL     OW19462   1.322   1.383   5.829
 6188SOL    HW119463   1.277   1.349   5.747
 6188SOL    HW219464   1.416   1.349   5.833
 6189SOL     OW19465   6.849   5.569   0.802
 6189SOL    HW119466   6.906   5.515   0.741
 6189SOL    HW219467   6.824   5.655   0.757
 6190SOL     OW19468   1.014   2.840   3.863
 6190SOL    HW119469   0.924   2.802   3.886
 6190SOL    HW219470   1.085   2.785   3.907
 6191SOL     OW19471   3.295   4.493   0.037
 6191SOL    HW119472   3.211   4.547   0.045
 6191SOL    HW219473   3.327   4.495   6.962
 6192SOL     OW19474   2.787   1.751   1.601
 6192SOL    HW119475   2.796   1.718   1.695
 6192SOL    HW219476   2.690   1.759   1.578
 6193SOL     OW19477   4.838   5.623   6.927
 6193SOL    HW119478   4.927   5.592   6.894
 6193SOL    HW219479   4.814   5.571   7.009
 6194SOL     OW19480   5.506   6.806   6.044
 6194SOL    HW119481   5.430   6.849   5.995
 6194SOL    HW219482   5.593   6.840   6.008
 6195SOL     OW19483   4.666   5.468   5.890
 6195SOL    HW119484   4.677   5.564   5.868
 6195SOL    HW219485   4.736   5.414   5.843
 6196SOL     OW19486   6.795   3.628   3.186
 6196SOL    HW119487   6.723   3.691   3.217
 6196SOL    HW219488   6.796   3.548   3.246
 6197SOL     OW19489   0.601   5.565   0.672
 6197SOL    HW119490   0.645   5.491   0.620
 6197SOL    HW219491   0.593   5.646   0.613
 6198SOL     OW19492   6.715   1.719   5.928
 6198SOL    HW119493   6.625   1.756   5.949
 6198SOL    HW219494   6.748   1.666   6.007
 6199SOL     OW19495   2.346   0.091   6.107
 6199SOL    HW119496   2.249   0.086   6.084
 6199SOL    HW219497   2.364   0.176   6.157
 6200SOL     OW19498   1.558   6.972   6.846
 6200SOL    HW119499   1.601   6.997   6.760
 6200SOL    HW219500   1.607   7.015   6.922
 6201SOL     OW19501   0.624   4.740   3.931
 6201SOL    HW119502   0.527   4.751   3.955
 6201SOL    HW219503   0.665   4.829   3.914
 6202SOL     OW19504   5.736   0.731   1.315
 6202SOL    HW119505   5.800   0.720   1.239
 6202SOL    HW219506   5.688   0.819   1.305
 6203SOL     OW19507   7.007   1.476   2.198
 6203SOL    HW119508   6.957   1.457   2.283
 6203SOL    HW219509   7.015   1.575   2.186
 6204SOL     OW19510   1.198   6.249   4.652
 6204SOL    HW119511   1.133   6.187   4.608
 6204SOL    HW219512   1.208   6.224   4.748
 6205SOL     OW19513   0.058   4.289   3.481
 6205SOL    HW119514   0.034   4.276   3.577
 6205SOL    HW219515   6.994   4.309   3.428
 6206SOL     OW19516   5.131   2.201   3.595
 6206SOL    HW119517   5.171   2.135   3.530
 6206SOL    HW219518   5.034   2.181   3.606
 6207SOL     OW19519   1.505   5.830   3.546
 6207SOL    HW119520   1.558   5.785   3.474
 6207SOL    HW219521   1.563   5.894   3.596
 6208SOL     OW19522   3.672   4.438   6.456
 6208SOL    HW119523   3.716   4.478   6.537
 6208SOL    HW219524   3.734   4.443   6.378
 6209SOL     OW19525   3.524   0.853   2.444
 6209SOL    HW119526   3.480   0.942   2.441
 6209SOL    HW219527   3.476   0.794   2.509
 6210SOL     OW19528   5.513   0.395   3.678
 6210SOL    HW119529   5.485   0.431   3.767
 6210SOL    HW219530   5.432   0.388   3.619
 6211SOL     OW19531   5.348   2.615   5.049
 6211SOL    HW119532   5.368   2.519   5.031
 6211SOL    HW219533   5.405   2.648   5.124
 6212SOL     OW19534   5.101   3.983   4.583
 6212SOL    HW119535   5.144   4.061   4.536
 6212SOL    HW219536   5.137   3.898   4.545
 6213SOL     OW19537   5.495   5.920   0.810
 6213SOL    HW119538   5.465   5.828   0.783
 6213SOL    HW219539   5.494   5.980   0.730
 6214SOL     OW19540   6.843   6.193   6.419
 6214SOL    HW119541   6.771   6.256   6.393
 6214SOL    HW219542   6.906   6.180   6.343
 6215SOL     OW19543   5.666   2.600   4.910
 6215SOL    HW119544   5.747   2.617   4.965
 6215SOL    HW219545   5.596   2.669   4.930
 6216SOL     OW19546   5.080   2.830   5.763
 6216SOL    HW119547   5.163   2.780   5.786
 6216SOL    HW219548   5.101   2.928   5.755
 6217SOL     OW19549   6.950   4.276   2.176
 6217SOL    HW119550   0.018   4.229   2.160
 6217SOL    HW219551   6.908   4.300   2.089
 6218SOL     OW19552   4.937   6.880   1.206
 6218SOL    HW119553   4.982   6.840   1.127
 6218SOL    HW219554   4.991   6.956   1.242
 6219SOL     OW19555   2.601   0.749   0.715
 6219SOL    HW119556   2.653   0.746   0.630
 6219SOL    HW219557   2.526   0.814   0.706
 6220SOL     OW19558   3.106   0.582   2.700
 6220SOL    HW119559   3.175   0.573   2.771
 6220SOL    HW219560   3.046   0.659   2.721
 6221SOL     OW19561   4.443   5.016   5.150
 6221SOL    HW119562   4.372   5.057   5.208
 6221SOL    HW219563   4.404   4.939   5.100
 6222SOL     OW19564   0.172   0.939   2.162
 6222SOL    HW119565   0.172   0.988   2.074
 6222SOL    HW219566   0.109   0.985   2.225
 6223SOL     OW19567   6.763   5.201   3.956
 6223SOL    HW119568   6.784   5.299   3.964
 6223SOL    HW219569   6.669   5.189   3.924
 6224SOL     OW19570   3.762   0.034   0.076
 6224SOL    HW119571   3.757   7.019   0.169
 6224SOL    HW219572   3.680   0.006   0.025
 6225SOL     OW19573   5.497   5.564   6.611
 6225SOL    HW119574   5.549   5.576   6.695
 6225SOL    HW219575   5.544   5.498   6.552
 6226SOL     OW19576   1.115   1.250   4.300
 6226SOL    HW119577   1.176   1.240   4.221
 6226SOL    HW219578   1.025   1.281   4.268
 6227SOL     OW19579   2.486   4.388   6.277
 6227SOL    HW119580   2.581   4.411   6.259
 6227SOL    HW219581   2.432   4.405   6.194
 6228SOL     OW19582   0.532   2.932   3.961
 6228SOL    HW119583   0.492   3.014   3.920
 6228SOL    HW219584   0.492   2.851   3.919
 6229SOL     OW19585   6.852   4.570   5.051
 6229SOL    HW119586   6.942   4.530   5.069
 6229SOL    HW219587   6.821   4.543   4.959
 6230SOL     OW19588   0.713   0.534   1.118
 6230SOL    HW119589   0.647   0.523   1.044
 6230SOL    HW219590   0.802   0.559   1.080
 6231SOL     OW19591   2.330   5.541   5.676
 6231SOL    HW119592   2.415   5.584   5.707
 6231SOL    HW219593   2.318   5.454   5.724
 6232SOL     OW19594   3.877   0.907   6.752
 6232SOL    HW119595   3.860   0.809   6.749
 6232SOL    HW219596   3.948   0.930   6.686
 6233SOL     OW19597   6.999   4.353   0.864
 6233SOL    HW119598   6.927   4.285   0.879
 6233SOL    HW219599   0.068   4.313   0.887
 6234SOL     OW19600   4.920   5.274   3.092
 6234SOL    HW119601   4.820   5.268   3.092
 6234SOL    HW219602   4.958   5.206   3.155
 6235SOL     OW19603   0.501   0.822   1.827
 6235SOL    HW119604   0.475   0.893   1.892
 6235SOL    HW219605   0.420   0.793   1.776
 6236SOL     OW19606   6.378   5.958   1.387
 6236SOL    HW119607   6.410   5.982   1.295
 6236SOL    HW219608   6.292   6.005   1.405
 6237SOL     OW19609   4.352   1.291   2.701
 6237SOL    HW119610   4.427   1.243   2.746
 6237SOL    HW219611   4.307   1.230   2.636
 6238SOL     OW19612   2.288   6.986   3.772
 6238SOL    HW119613   2.310   6.996   3.869
 6238SOL    HW219614   2.297   6.890   3.745
 6239SOL     OW19615   3.994   1.558   4.520
 6239SOL    HW119616   4.002   1.461   4.542
 6239SOL    HW219617   3.901   1.578   4.489
 6240SOL     OW19618   3.790   3.235   4.228
 6240SOL    HW119619   3.711   3.254   4.287
 6240SOL    HW219620   3.845   3.162   4.267
 6241SOL     OW19621   4.144   0.046   3.486
 6241SOL    HW119622   4.198   0.012   3.564
 6241SOL    HW219623   4.166   7.011   3.405
 6242SOL     OW19624   3.492   2.059   4.598
 6242SOL    HW119625   3.472   2.096   4.689
 6242SOL    HW219626   3.415   2.078   4.537
 6243SOL     OW19627   3.054   0.674   0.073
 6243SOL    HW119628   3.042   0.759   0.022
 6243SOL    HW219629   3.097   0.693   0.161
 6244SOL     OW19630   4.616   2.620   1.507
 6244SOL    HW119631   4.560   2.660   1.580
 6244SOL    HW219632   4.667   2.693   1.462
 6245SOL     OW19633   6.968   4.786   1.579
 6245SOL    HW119634   7.001   4.855   1.642
 6245SOL    HW219635   6.932   4.830   1.497
 6246SOL     OW19636   1.216   5.721   5.325
 6246SOL    HW119637   1.195   5.818   5.340
 6246SOL    HW219638   1.132   5.667   5.334
 6247SOL     OW19639   5.711   5.433   2.747
 6247SOL    HW119640   5.649   5.422   2.669
 6247SOL    HW219641   5.785   5.366   2.741
 6248SOL     OW19642   4.395   2.600   6.215
 6248SOL    HW119643   4.441   2.670   6.270
 6248SOL    HW219644   4.352   2.644   6.136
 6249SOL     OW19645   5.455   2.190   2.834
 6249SOL    HW119646   5.451   2.220   2.929
 6249SOL    HW219647   5.514   2.251   2.782
 6250SOL     OW19648   5.445   6.814   5.222
 6250SOL    HW119649   5.362   6.774   5.184
 6250SOL    HW219650   5.525   6.773   5.179
 6251SOL     OW19651   2.708   1.111   3.809
 6251SOL    HW119652   2.783   1.131   3.872
 6251SOL    HW219653   2.624   1.098   3.861
 6252SOL     OW19654   2.799   4.828   0.272
 6252SOL    HW119655   2.796   4.926   0.295
 6252SOL    HW219656   2.877   4.786   0.317
 6253SOL     OW19657   4.980   6.069   3.303
 6253SOL    HW119658   5.014   6.123   3.227
 6253SOL    HW219659   5.043   6.076   3.380
 6254SOL     OW19660   6.881   6.971   1.892
 6254SOL    HW119661   6.889   0.028   1.955
 6254SOL    HW219662   6.829   6.897   1.935
 6255SOL     OW19663   2.174   0.819   1.022
 6255SOL    HW119664   2.207   0.799   1.114
 6255SOL    HW219665   2.090   0.768   1.005
 6256SOL     OW19666   0.077   4.588   2.114
 6256SOL    HW119667   0.072   4.687   2.102
 6256SOL    HW219668   0.046   4.564   2.206
 6257SOL     OW19669   4.287   3.789   0.529
 6257SOL    HW119670   4.243   3.828   0.448
 6257SOL    HW219671   4.364   3.732   0.502
 6258SOL     OW19672   4.005   4.961   4.027
 6258SOL    HW119673   4.030   4.882   3.971
 6258SOL    HW219674   3.942   4.932   4.100
 6259SOL     OW19675   4.677   0.424   4.849
 6259SOL    HW119676   4.681   0.334   4.804
 6259SOL    HW219677   4.766   0.444   4.891
 6260SOL     OW19678   3.538   2.184   6.970
 6260SOL    HW119679   3.592   2.125   6.911
 6260SOL    HW219680   3.470   2.233   6.915
 6261SOL     OW19681   4.812   6.499   1.359
 6261SOL    HW119682   4.733   6.529   1.413
 6261SOL    HW219683   4.896   6.526   1.406
 6262SOL     OW19684   6.125   1.456   3.527
 6262SOL    HW119685   6.178   1.520   3.583
 6262SOL    HW219686   6.187   1.407   3.465
 6263SOL     OW19687   6.229   6.333   6.102
 6263SOL    HW119688   6.156   6.275   6.064
 6263SOL    HW219689   6.271   6.387   6.029
 6264SOL     OW19690   1.225   6.641   1.456
 6264SOL    HW119691   1.201   6.609   1.365
 6264SOL    HW219692   1.144   6.644   1.514
 6265SOL     OW19693   4.000   6.719   6.833
 6265SOL    HW119694   3.946   6.670   6.901
 6265SOL    HW219695   3.966   6.698   6.742
 6266SOL     OW19696   2.725   5.377   3.361
 6266SOL    HW119697   2.701   5.304   3.297
 6266SOL    HW219698   2.794   5.343   3.426
 6267SOL     OW19699   0.774   6.442   4.047
 6267SOL    HW119700   0.833   6.417   3.970
 6267SOL    HW219701   0.825   6.499   4.111
 6268SOL     OW19702   3.156   1.568   1.468
 6268SOL    HW119703   3.122   1.551   1.560
 6268SOL    HW219704   3.117   1.653   1.433
 6269SOL     OW19705   0.237   6.095   0.340
 6269SOL    HW119706   0.238   6.116   0.242
 6269SOL    HW219707   0.157   6.040   0.362
 6270SOL     OW19708   1.453   6.169   0.846
 6270SOL    HW119709   1.435   6.180   0.749
 6270SOL    HW219710   1.432   6.075   0.874
 6271SOL     OW19711   0.030   3.462   5.992
 6271SOL    HW119712   0.102   3.461   5.923
 6271SOL    HW219713   0.070   3.486   6.081
 6272SOL     OW19714   0.060   1.182   0.898
 6272SOL    HW119715   6.996   1.162   0.846
 6272SOL    HW219716   0.108   1.258   0.854
 6273SOL     OW19717   0.457   6.423   3.021
 6273SOL    HW119718   0.430   6.396   3.113
 6273SOL    HW219719   0.385   6.479   2.980
 6274SOL     OW19720   3.448   5.787   3.911
 6274SOL    HW119721   3.387   5.717   3.946
 6274SOL    HW219722   3.412   5.823   3.825
 6275SOL     OW19723   2.967   5.532   1.414
 6275SOL    HW119724   2.984   5.471   1.492
 6275SOL    HW219725   2.878   5.576   1.424
 6276SOL     OW19726   1.402   4.415   2.091
 6276SOL    HW119727   1.421   4.512   2.078
 6276SOL    HW219728   1.488   4.367   2.110
 6277SOL     OW19729   5.401   2.611   1.164
 6277SOL    HW119730   5.343   2.574   1.092
 6277SOL    HW219731   5.452   2.537   1.207
 6278SOL     OW19732   3.766   3.036   0.042
 6278SOL    HW119733   3.733   3.103   6.994
 6278SOL    HW219734   3.745   2.944   0.009
 6279SOL     OW19735   1.184   6.444   2.278
 6279SOL    HW119736   1.183   6.350   2.311
 6279SOL    HW219737   1.235   6.449   2.192
 6280SOL     OW19738   4.986   0.931   6.876
 6280SOL    HW119739   4.995   0.998   6.802
 6280SOL    HW219740   4.977   0.979   6.963
 6281SOL     OW19741   5.815   3.627   6.505
 6281SOL    HW119742   5.753   3.702   6.526
 6281SOL    HW219743   5.910   3.657   6.516
 6282SOL     OW19744   0.773   4.069   5.918
 6282SOL    HW119745   0.709   4.034   5.850
 6282SOL    HW219746   0.725   4.088   6.003
 6283SOL     OW19747   2.649   6.918   4.568
 6283SOL    HW119748   2.551   6.902   4.581
 6283SOL    HW219749   2.674   7.006   4.607
 6284SOL     OW19750   2.057   3.956   6.368
 6284SOL    HW119751   2.100   3.893   6.433
 6284SOL    HW219752   2.075   4.050   6.397
 6285SOL     OW19753   1.787   4.522   3.800
 6285SOL    HW119754   1.705   4.574   3.824
 6285SOL    HW219755   1.762   4.443   3.745
 6286SOL     OW19756   1.029   3.208   6.841
 6286SOL    HW119757   0.991   3.200   6.749
 6286SOL    HW219758   0.955   3.196   6.908
 6287SOL     OW19759   4.024   5.300   5.234
 6287SOL    HW119760   3.949   5.365   5.226
 6287SOL    HW219761   4.111   5.349   5.245
 6288SOL     OW19762   3.509   3.999   5.915
 6288SOL    HW119763   3.470   4.091   5.907
 6288SOL    HW219764   3.521   3.961   5.823
 6289SOL     OW19765   2.499   4.789   5.517
 6289SOL    HW119766   2.409   4.806   5.477
 6289SOL    HW219767   2.566   4.849   5.475
 6290SOL     OW19768   6.256   0.488   2.916
 6290SOL    HW119769   6.335   0.476   2.977
 6290SOL    HW219770   6.225   0.399   2.884
 6291SOL     OW19771   2.913   3.188   2.241
 6291SOL    HW119772   2.821   3.173   2.278
 6291SOL    HW219773   2.971   3.110   2.264
 6292SOL     OW19774   0.947   4.188   5.176
 6292SOL    HW119775   1.036   4.213   5.138
 6292SOL    HW219776   0.949   4.198   5.276
 6293SOL     OW19777   2.798   1.145   0.689
 6293SOL    HW119778   2.752   1.099   0.613
 6293SOL    HW219779   2.756   1.116   0.775
 6294SOL     OW19780   1.391   0.257   2.339
 6294SOL    HW119781   1.446   0.338   2.315
 6294SOL    HW219782   1.425   0.219   2.426
 6295SOL     OW19783   4.710   2.359   5.422
 6295SOL    HW119784   4.655   2.331   5.344
 6295SOL    HW219785   4.800   2.317   5.418
 6296SOL     OW19786   6.811   1.945   0.004
 6296SOL    HW119787   6.828   1.855   6.983
 6296SOL    HW219788   6.804   1.937   0.103
 6297SOL     OW19789   0.075   1.029   4.282
 6297SOL    HW119790   0.029   1.029   4.193
 6297SOL    HW219791   0.171   1.003   4.270
 6298SOL     OW19792   6.824   0.654   6.441
 6298SOL    HW119793   6.906   0.602   6.466
 6298SOL    HW219794   6.850   0.734   6.387
 6299SOL     OW19795   3.095   1.579   3.819
 6299SOL    HW119796   3.145   1.521   3.883
 6299SOL    HW219797   3.129   1.563   3.726
 6300SOL     OW19798   2.852   2.291   1.235
 6300SOL    HW119799   2.949   2.282   1.255
 6300SOL    HW219800   2.835   2.380   1.192
 6301SOL     OW19801   3.875   6.302   0.981
 6301SOL    HW119802   3.845   6.206   0.975
 6301SOL    HW219803   3.802   6.361   0.947
 6302SOL     OW19804   1.826   3.628   0.334
 6302SOL    HW119805   1.923   3.648   0.328
 6302SOL    HW219806   1.781   3.695   0.393
 6303SOL     OW19807   6.411   4.715   4.956
 6303SOL    HW119808   6.446   4.623   4.969
 6303SOL    HW219809   6.473   4.781   4.998
 6304SOL     OW19810   2.227   2.593   4.420
 6304SOL    HW119811   2.271   2.529   4.357
 6304SOL    HW219812   2.296   2.631   4.483
 6305SOL     OW19813   1.035   6.024   5.091
 6305SOL    HW119814   1.060   6.025   5.188
 6305SOL    HW219815   1.036   5.929   5.057
 6306SOL     OW19816   0.995   4.352   3.827
 6306SOL    HW119817   0.945   4.385   3.748
 6306SOL    HW219818   1.077   4.303   3.797
 6307SOL     OW19819   3.505   3.460   2.988
 6307SOL    HW119820   3.430   3.394   2.989
 6307SOL    HW219821   3.579   3.427   2.930
 6308SOL     OW19822   1.074   0.912   1.251
 6308SOL    HW119823   1.161   0.962   1.246
 6308SOL    HW219824   1.029   0.932   1.337
 6309SOL     OW19825   1.856   5.968   5.199
 6309SOL    HW119826   1.847   5.986   5.297
 6309SOL    HW219827   1.813   5.880   5.177
 6310SOL     OW19828   1.033   0.003   3.242
 6310SOL    HW119829   1.129   0.025   3.260
 6310SOL    HW219830   1.014   6.929   3.270
 6311SOL     OW19831   5.552   1.524   6.174
 6311SOL    HW119832   5.558   1.461   6.251
 6311SOL    HW219833   5.573   1.617   6.205
 6312SOL     OW19834   3.782   5.637   1.853
 6312SOL    HW119835   3.731   5.685   1.782
 6312SOL    HW219836   3.867   5.600   1.815
 6313SOL     OW19837   5.429   5.055   2.760
 6313SOL    HW119838   5.483   5.066   2.677
 6313SOL    HW219839   5.461   5.119   2.830
 6314SOL     OW19840   2.118   6.421   2.857
 6314SOL    HW119841   2.203   6.471   2.842
 6314SOL    HW219842   2.133   6.323   2.841
 6315SOL     OW19843   2.301   2.645   3.084
 6315SOL    HW119844   2.366   2.663   3.011
 6315SOL    HW219845   2.345   2.660   3.172
 6316SOL     OW19846   4.574   0.668   4.886
 6316SOL    HW119847   4.658   0.721   4.874
 6316SOL    HW219848   4.592   0.572   4.865
 6317SOL     OW19849   4.995   3.508   3.566
 6317SOL    HW119850   5.086   3.546   3.548
 6317SOL    HW219851   4.938   3.519   3.484
 6318SOL     OW19852   5.647   6.721   0.326
 6318SOL    HW119853   5.612   6.711   0.419
 6318SOL    HW219854   5.580   6.684   0.261
 6319SOL     OW19855   4.834   2.418   4.101
 6319SOL    HW119856   4.912   2.360   4.121
 6319SOL    HW219857   4.764   2.365   4.052
 6320SOL     OW19858   5.816   2.154   6.454
 6320SOL    HW119859   5.790   2.058   6.469
 6320SOL    HW219860   5.885   2.158   6.381
 6321SOL     OW19861   0.990   3.872   0.365
 6321SOL    HW119862   0.901   3.837   0.394
 6321SOL    HW219863   0.992   3.971   0.374
 6322SOL     OW19864   2.030   1.163   2.872
 6322SOL    HW119865   2.082   1.196   2.951
 6322SOL    HW219866   2.027   1.064   2.874
 6323SOL     OW19867   1.863   6.066   0.954
 6323SOL    HW119868   1.802   6.140   0.923
 6323SOL    HW219869   1.854   6.056   1.053
 6324SOL     OW19870   5.219   3.774   1.592
 6324SOL    HW119871   5.189   3.684   1.560
 6324SOL    HW219872   5.274   3.763   1.675
 6325SOL     OW19873   0.960   3.467   4.040
 6325SOL    HW119874   0.942   3.486   3.944
 6325SOL    HW219875   1.055   3.437   4.051
 6326SOL     OW19876   5.110   5.403   4.943
 6326SOL    HW119877   5.114   5.467   5.019
 6326SOL    HW219878   5.155   5.443   4.863
 6327SOL     OW19879   0.768   1.146   2.737
 6327SOL    HW119880   0.761   1.046   2.727
 6327SOL    HW219881   0.710   1.176   2.812
 6328SOL     OW19882   4.186   3.544   4.826
 6328SOL    HW119883   4.128   3.496   4.761
 6328SOL    HW219884   4.272   3.571   4.781
 6329SOL     OW19885   0.377   2.856   4.556
 6329SOL    HW119886   0.402   2.783   4.620
 6329SOL    HW219887   0.458   2.912   4.537
 6330SOL     OW19888   4.411   1.788   3.110
 6330SOL    HW119889   4.456   1.793   3.021
 6330SOL    HW219890   4.405   1.880   3.149
 6331SOL     OW19891   1.632   3.266   3.598
 6331SOL    HW119892   1.577   3.206   3.657
 6331SOL    HW219893   1.642   3.355   3.642
 6332SOL     OW19894   4.424   2.373   0.281
 6332SOL    HW119895   4.441   2.346   0.376
 6332SOL    HW219896   4.368   2.303   0.236
 6333SOL     OW19897   6.092   1.408   6.954
 6333SOL    HW119898   6.182   1.449   6.969
 6333SOL    HW219899   6.022   1.465   6.995
 6334SOL     OW19900   2.201   1.145   1.712
 6334SOL    HW119901   2.141   1.190   1.646
 6334SOL    HW219902   2.178   1.177   1.804
 6335SOL     OW19903   5.853   2.645   5.125
 6335SOL    HW119904   5.882   2.580   5.195
 6335SOL    HW219905   5.821   2.729   5.169
 6336SOL     OW19906   0.714   5.558   5.988
 6336SOL    HW119907   0.664   5.644   5.979
 6336SOL    HW219908   0.768   5.559   6.072
 6337SOL     OW19909   6.367   0.331   5.484
 6337SOL    HW119910   6.378   0.337   5.583
 6337SOL    HW219911   6.271   0.315   5.461
 6338SOL     OW19912   0.813   0.844   2.699
 6338SOL    HW119913   0.730   0.881   2.657
 6338SOL    HW219914   0.852   0.775   2.639
 6339SOL     OW19915   0.023   4.083   3.218
 6339SOL    HW119916   0.109   4.119   3.254
 6339SOL    HW219917   0.043   4.008   3.155
 6340SOL     OW19918   2.320   5.496   6.610
 6340SOL    HW119919   2.326   5.400   6.638
 6340SOL    HW219920   2.347   5.554   6.688
 6341SOL     OW19921   0.991   4.415   2.935
 6341SOL    HW119922   1.013   4.485   2.867
 6341SOL    HW219923   1.034   4.329   2.910
 6342SOL     OW19924   2.313   6.977   1.464
 6342SOL    HW119925   2.382   0.029   1.458
 6342SOL    HW219926   2.326   6.924   1.547
 6343SOL     OW19927   1.535   4.562   6.626
 6343SOL    HW119928   1.542   4.503   6.546
 6343SOL    HW219929   1.602   4.637   6.618
 6344SOL     OW19930   1.956   1.369   4.093
 6344SOL    HW119931   1.916   1.421   4.017
 6344SOL    HW219932   2.011   1.294   4.056
 6345SOL     OW19933   0.345   2.914   3.517
 6345SOL    HW119934   0.351   2.994   3.577
 6345SOL    HW219935   0.420   2.851   3.538
 6346SOL     OW19936   0.524   4.514   4.175
 6346SOL    HW119937   0.543   4.457   4.095
 6346SOL    HW219938   0.485   4.457   4.248
 6347SOL     OW19939   2.041   1.573   2.494
 6347SOL    HW119940   2.121   1.514   2.490
 6347SOL    HW219941   1.958   1.518   2.483
 6348SOL     OW19942   1.043   2.553   0.471
 6348SOL    HW119943   1.093   2.633   0.440
 6348SOL    HW219944   0.987   2.577   0.551
 6349SOL     OW19945   6.283   1.414   0.817
 6349SOL    HW119946   6.283   1.324   0.862
 6349SOL    HW219947   6.224   1.476   0.868
 6350SOL     OW19948   0.151   0.057   1.458
 6350SOL    HW119949   0.064   0.010   1.474
 6350SOL    HW219950   0.167   0.122   1.533
 6351SOL     OW19951   6.217   2.585   2.236
 6351SOL    HW119952   6.131   2.625   2.206
 6351SOL    HW219953   6.293   2.643   2.206
 6352SOL     OW19954   4.052   0.393   5.301
 6352SOL    HW119955   4.093   0.470   5.252
 6352SOL    HW219956   3.990   0.428   5.371
 6353SOL     OW19957   3.871   5.946   5.920
 6353SOL    HW119958   3.828   6.034   5.940
 6353SOL    HW219959   3.965   5.961   5.889
 6354SOL     OW19960   5.734   4.906   2.670
 6354SOL    HW119961   5.832   4.909   2.687
 6354SOL    HW219962   5.706   4.987   2.619
 6355SOL     OW19963   4.772   6.330   6.635
 6355SOL    HW119964   4.753   6.273   6.715
 6355SOL    HW219965   4.823   6.276   6.568
 6356SOL     OW19966   0.670   6.817   6.058
 6356SOL    HW119967   0.739   6.855   5.997
 6356SOL    HW219968   0.714   6.767   6.132
 6357SOL     OW19969   4.786   1.612   2.889
 6357SOL    HW119970   4.822   1.635   2.798
 6357SOL    HW219971   4.702   1.557   2.878
 6358SOL     OW19972   1.496   1.489   4.787
 6358SOL    HW119973   1.426   1.418   4.794
 6358SOL    HW219974   1.555   1.485   4.868
 6359SOL     OW19975   6.571   4.289   0.696
 6359SOL    HW119976   6.485   4.327   0.728
 6359SOL    HW219977   6.582   4.310   0.599
 6360SOL     OW19978   2.841   3.198   0.771
 6360SOL    HW119979   2.763   3.178   0.831
 6360SOL    HW219980   2.909   3.125   0.779
 6361SOL     OW19981   0.108   2.180   2.925
 6361SOL    HW119982   0.206   2.161   2.934
 6361SOL    HW219983   0.088   2.271   2.960
 6362SOL     OW19984   2.071   5.779   0.348
 6362SOL    HW119985   1.984   5.736   0.373
 6362SOL    HW219986   2.093   5.852   0.413
 6363SOL     OW19987   0.691   2.303   1.375
 6363SOL    HW119988   0.779   2.312   1.421
 6363SOL    HW219989   0.693   2.223   1.314
 6364SOL     OW19990   2.873   1.959   4.072
 6364SOL    HW119991   2.945   1.914   4.019
 6364SOL    HW219992   2.847   2.045   4.027
 6365SOL     OW19993   6.277   6.378   1.977
 6365SOL    HW119994   6.223   6.452   1.938
 6365SOL    HW219995   6.355   6.416   2.027
 6366SOL     OW19996   6.068   1.242   5.324
 6366SOL    HW119997   5.972   1.254   5.297
 6366SOL    HW219998   6.119   1.202   5.248
 6367SOL     OW19999   1.840   3.291   4.611
 6367SOL    HW120000   1.769   3.320   4.674
 6367SOL    HW220001   1.799   3.239   4.536
 6368SOL     OW20002   5.322   3.419   5.133
 6368SOL    HW120003   5.294   3.397   5.039
 6368SOL    HW220004   5.365   3.509   5.135
 6369SOL     OW20005   3.358   4.641   0.647
 6369SOL    HW120006   3.368   4.668   0.743
 6369SOL    HW220007   3.438   4.672   0.595
 6370SOL     OW20008   6.267   3.424   4.825
 6370SOL    HW120009   6.196   3.355   4.812
 6370SOL    HW220010   6.254   3.498   4.759
 6371SOL     OW20011   5.728   4.557   1.413
 6371SOL    HW120012   5.785   4.585   1.491
 6371SOL    HW220013   5.631   4.570   1.437
 6372SOL     OW20014   5.940   1.360   1.554
 6372SOL    HW120015   5.861   1.321   1.508
 6372SOL    HW220016   5.921   1.370   1.652
 6373SOL     OW20017   5.770   1.421   1.159
 6373SOL    HW120018   5.808   1.513   1.170
 6373SOL    HW220019   5.694   1.409   1.224
 6374SOL     OW20020   3.509   3.372   6.188
 6374SOL    HW120021   3.522   3.304   6.260
 6374SOL    HW220022   3.593   3.378   6.133
 6375SOL     OW20023   5.579   0.838   1.603
 6375SOL    HW120024   5.483   0.853   1.628
 6375SOL    HW220025   5.605   0.905   1.533
 6376SOL     OW20026   2.941   6.872   6.993
 6376SOL    HW120027   2.979   6.786   6.959
 6376SOL    HW220028   2.979   6.892   0.064
 6377SOL     OW20029   0.033   1.058   0.135
 6377SOL    HW120030   0.027   1.139   0.077
 6377SOL    HW220031   0.117   1.008   0.114
 6378SOL     OW20032   6.072   3.763   2.744
 6378SOL    HW120033   5.976   3.767   2.719
 6378SOL    HW220034   6.102   3.668   2.750
 6379SOL     OW20035   2.474   4.669   6.728
 6379SOL    HW120036   2.483   4.662   6.629
 6379SOL    HW220037   2.442   4.760   6.753
 6380SOL     OW20038   1.934   2.531   4.585
 6380SOL    HW120039   1.871   2.609   4.580
 6380SOL    HW220040   2.028   2.565   4.590
 6381SOL     OW20041   3.248   4.731   0.877
 6381SOL    HW120042   3.156   4.693   0.894
 6381SOL    HW220043   3.282   4.774   0.961
 6382SOL     OW20044   1.947   1.066   1.129
 6382SOL    HW120045   1.874   1.056   1.197
 6382SOL    HW220046   1.934   0.999   1.057
 6383SOL     OW20047   2.888   2.000   2.536
 6383SOL    HW120048   2.960   1.955   2.588
 6383SOL    HW220049   2.923   2.087   2.500
 6384SOL     OW20050   0.271   1.536   2.431
 6384SOL    HW120051   0.277   1.547   2.331
 6384SOL    HW220052   0.328   1.605   2.475
 6385SOL     OW20053   0.328   3.902   1.685
 6385SOL    HW120054   0.423   3.879   1.705
 6385SOL    HW220055   0.284   3.824   1.640
 6386SOL     OW20056   2.987   4.354   0.407
 6386SOL    HW120057   3.039   4.273   0.435
 6386SOL    HW220058   2.920   4.377   0.477
 6387SOL     OW20059   6.193   1.124   5.593
 6387SOL    HW120060   6.293   1.115   5.584
 6387SOL    HW220061   6.157   1.175   5.516
 6388SOL     OW20062   6.255   5.110   2.049
 6388SOL    HW120063   6.341   5.078   2.091
 6388SOL    HW220064   6.276   5.175   1.977
 6389SOL     OW20065   6.696   6.616   0.773
 6389SOL    HW120066   6.648   6.532   0.747
 6389SOL    HW220067   6.794   6.602   0.764
 6390SOL     OW20068   4.607   6.047   0.293
 6390SOL    HW120069   4.635   6.142   0.310
 6390SOL    HW220070   4.507   6.041   0.296
 6391SOL     OW20071   1.116   1.761   4.843
 6391SOL    HW120072   1.032   1.803   4.876
 6391SOL    HW220073   1.175   1.737   4.920
 6392SOL     OW20074   4.706   6.066   3.301
 6392SOL    HW120075   4.665   5.975   3.300
 6392SOL    HW220076   4.805   6.059   3.305
 6393SOL     OW20077   2.597   4.708   0.117
 6393SOL    HW120078   2.673   4.738   0.175
 6393SOL    HW220079   2.533   4.784   0.104
 6394SOL     OW20080   1.636   5.240   2.246
 6394SOL    HW120081   1.687   5.276   2.324
 6394SOL    HW220082   1.592   5.154   2.272
 6395SOL     OW20083   0.956   3.891   5.347
 6395SOL    HW120084   1.053   3.891   5.323
 6395SOL    HW220085   0.908   3.826   5.289
 6396SOL     OW20086   1.065   3.643   4.353
 6396SOL    HW120087   1.131   3.572   4.330
 6396SOL    HW220088   1.016   3.670   4.270
 6397SOL     OW20089   0.507   3.324   4.232
 6397SOL    HW120090   0.417   3.320   4.274
 6397SOL    HW220091   0.564   3.391   4.281
 6398SOL     OW20092   0.500   0.057   2.740
 6398SOL    HW120093   0.472   0.072   2.645
 6398SOL    HW220094   0.597   0.030   2.741
 6399SOL     OW20095   2.616   0.059   6.636
 6399SOL    HW120096   2.664   0.141   6.665
 6399SOL    HW220097   2.625   7.007   6.706
 6400SOL     OW20098   0.826   6.084   3.142
 6400SOL    HW120099   0.904   6.045   3.093
 6400SOL    HW220100   0.809   6.177   3.110
 6401SOL     OW20101   4.105   4.699   1.681
 6401SOL    HW120102   4.066   4.770   1.622
 6401SOL    HW220103   4.177   4.651   1.631
 6402SOL     OW20104   3.243   3.304   6.034
 6402SOL    HW120105   3.244   3.266   5.942
 6402SOL    HW220106   3.336   3.309   6.070
 6403SOL     OW20107   3.437   5.207   5.636
 6403SOL    HW120108   3.503   5.200   5.711
 6403SOL    HW220109   3.421   5.303   5.614
 6404SOL     OW20110   5.233   6.081   6.116
 6404SOL    HW120111   5.236   6.034   6.204
 6404SOL    HW220112   5.312   6.053   6.061
 6405SOL     OW20113   4.627   0.749   3.322
 6405SOL    HW120114   4.651   0.790   3.410
 6405SOL    HW220115   4.655   0.810   3.248
 6406SOL     OW20116   0.676   3.261   2.405
 6406SOL    HW120117   0.764   3.283   2.363
 6406SOL    HW220118   0.602   3.298   2.348
 6407SOL     OW20119   0.109   0.132   2.641
 6407SOL    HW120120   0.123   0.136   2.740
 6407SOL    HW220121   0.150   0.049   2.605
 6408SOL     OW20122   6.789   1.436   2.017
 6408SOL    HW120123   6.874   1.441   2.069
 6408SOL    HW220124   6.803   1.379   1.936
 6409SOL     OW20125   6.683   4.400   4.110
 6409SOL    HW120126   6.744   4.323   4.128
 6409SOL    HW220127   6.617   4.374   4.040
 6410SOL     OW20128   1.635   0.478   7.010
 6410SOL    HW120129   1.661   0.483   0.087
 6410SOL    HW220130   1.557   0.417   7.001
 6411SOL     OW20131   1.310   2.369   4.255
 6411SOL    HW120132   1.347   2.276   4.247
 6411SOL    HW220133   1.244   2.385   4.181
 6412SOL     OW20134   4.250   0.279   0.235
 6412SOL    HW120135   4.272   0.350   0.169
 6412SOL    HW220136   4.327   0.216   0.245
 6413SOL     OW20137   4.580   5.549   3.278
 6413SOL    HW120138   4.552   5.521   3.370
 6413SOL    HW220139   4.525   5.499   3.210
 6414SOL     OW20140   3.444   0.241   0.335
 6414SOL    HW120141   3.419   0.148   0.308
 6414SOL    HW220142   3.522   0.272   0.280
 6415SOL     OW20143   0.296   2.054   3.318
 6415SOL    HW120144   0.310   1.967   3.365
 6415SOL    HW220145   0.366   2.120   3.348
 6416SOL     OW20146   3.078   4.083   0.400
 6416SOL    HW120147   3.053   4.066   0.495
 6416SOL    HW220148   3.176   4.067   0.387
 6417SOL     OW20149   4.704   3.491   5.959
 6417SOL    HW120150   4.604   3.499   5.961
 6417SOL    HW220151   4.736   3.441   6.039
 6418SOL     OW20152   5.163   5.449   0.316
 6418SOL    HW120153   5.245   5.455   0.258
 6418SOL    HW220154   5.087   5.411   0.262
 6419SOL     OW20155   1.473   6.979   6.527
 6419SOL    HW120156   1.557   7.015   6.566
 6419SOL    HW220157   1.476   6.987   6.427
 6420SOL     OW20158   1.991   5.064   3.493
 6420SOL    HW120159   1.901   5.047   3.533
 6420SOL    HW220160   2.012   4.993   3.426
 6421SOL     OW20161   4.990   6.628   1.514
 6421SOL    HW120162   4.947   6.574   1.586
 6421SOL    HW220163   4.984   6.725   1.537
 6422SOL     OW20164   1.111   0.830   5.394
 6422SOL    HW120165   1.051   0.766   5.347
 6422SOL    HW220166   1.092   0.923   5.363
 6423SOL     OW20167   1.146   3.922   4.407
 6423SOL    HW120168   1.207   3.843   4.414
 6423SOL    HW220169   1.116   3.934   4.313
 6424SOL     OW20170   6.452   4.192   5.451
 6424SOL    HW120171   6.492   4.283   5.452
 6424SOL    HW220172   6.447   4.157   5.545
 6425SOL     OW20173   0.751   0.035   5.108
 6425SOL    HW120174   0.656   0.035   5.078
 6425SOL    HW220175   0.768   6.975   5.167
 6426SOL     OW20176   3.225   5.235   3.731
 6426SOL    HW120177   3.198   5.151   3.777
 6426SOL    HW220178   3.324   5.235   3.717
 6427SOL     OW20179   3.373   3.546   3.228
 6427SOL    HW120180   3.407   3.512   3.140
 6427SOL    HW220181   3.307   3.620   3.211
 6428SOL     OW20182   6.418   2.940   6.633
 6428SOL    HW120183   6.409   3.027   6.585
 6428SOL    HW220184   6.389   2.950   6.728
 6429SOL     OW20185   2.774   1.928   4.480
 6429SOL    HW120186   2.763   1.901   4.576
 6429SOL    HW220187   2.694   1.896   4.428
 6430SOL     OW20188   6.333   1.379   4.073
 6430SOL    HW120189   6.328   1.454   4.139
 6430SOL    HW220190   6.248   1.326   4.076
 6431SOL     OW20191   3.409   4.883   3.490
 6431SOL    HW120192   3.398   4.872   3.588
 6431SOL    HW220193   3.319   4.889   3.446
 6432SOL     OW20194   4.414   3.619   6.774
 6432SOL    HW120195   4.381   3.652   6.685
 6432SOL    HW220196   4.463   3.692   6.821
 6433SOL     OW20197   3.982   5.151   6.211
 6433SOL    HW120198   4.059   5.213   6.202
 6433SOL    HW220199   3.955   5.145   6.307
 6434SOL     OW20200   6.482   4.666   6.317
 6434SOL    HW120201   6.539   4.629   6.244
 6434SOL    HW220202   6.444   4.754   6.289
 6435SOL     OW20203   4.313   1.004   0.761
 6435SOL    HW120204   4.381   1.061   0.715
 6435SOL    HW220205   4.226   1.011   0.713
 6436SOL     OW20206   0.987   1.618   3.958
 6436SOL    HW120207   0.988   1.680   3.880
 6436SOL    HW220208   0.912   1.553   3.948
 6437SOL     OW20209   1.207   2.766   6.810
 6437SOL    HW120210   1.204   2.670   6.785
 6437SOL    HW220211   1.137   2.816   6.758
 6438SOL     OW20212   0.780   5.729   1.359
 6438SOL    HW120213   0.739   5.729   1.451
 6438SOL    HW220214   0.717   5.684   1.295
 6439SOL     OW20215   4.717   6.244   2.968
 6439SOL    HW120216   4.721   6.185   2.887
 6439SOL    HW220217   4.667   6.196   3.041
 6440SOL     OW20218   2.185   2.148   5.802
 6440SOL    HW120219   2.101   2.107   5.767
 6440SOL    HW220220   2.251   2.076   5.823
 6441SOL     OW20221   1.193   1.598   1.337
 6441SOL    HW120222   1.137   1.594   1.255
 6441SOL    HW220223   1.290   1.596   1.313
 6442SOL     OW20224   3.240   1.763   4.188
 6442SOL    HW120225   3.290   1.732   4.269
 6442SOL    HW220226   3.259   1.860   4.172
 6443SOL     OW20227   2.503   2.233   6.035
 6443SOL    HW120228   2.559   2.231   5.953
 6443SOL    HW220229   2.499   2.327   6.070
 6444SOL     OW20230   0.016   4.006   5.596
 6444SOL    HW120231   0.049   3.916   5.567
 6444SOL    HW220232   0.094   4.066   5.614
 6445SOL     OW20233   3.178   2.997   3.595
 6445SOL    HW120234   3.237   3.070   3.560
 6445SOL    HW220235   3.117   2.965   3.522
 6446SOL     OW20236   1.087   0.230   2.166
 6446SOL    HW120237   1.007   0.188   2.209
 6446SOL    HW220238   1.060   0.275   2.081
 6447SOL     OW20239   0.202   3.689   1.565
 6447SOL    HW120240   0.216   3.644   1.477
 6447SOL    HW220241   0.212   3.622   1.638
 6448SOL     OW20242   3.989   4.188   1.651
 6448SOL    HW120243   4.049   4.108   1.652
 6448SOL    HW220244   3.910   4.172   1.710
 6449SOL     OW20245   4.619   5.801   0.123
 6449SOL    HW120246   4.705   5.751   0.117
 6449SOL    HW220247   4.633   5.886   0.173
 6450SOL     OW20248   4.483   3.511   1.011
 6450SOL    HW120249   4.450   3.449   0.940
 6450SOL    HW220250   4.439   3.489   1.098
 6451SOL     OW20251   4.263   3.319   1.503
 6451SOL    HW120252   4.178   3.267   1.509
 6451SOL    HW220253   4.288   3.352   1.594
 6452SOL     OW20254   4.282   1.697   4.231
 6452SOL    HW120255   4.243   1.784   4.261
 6452SOL    HW220256   4.380   1.709   4.213
 6453SOL     OW20257   3.380   0.939   2.887
 6453SOL    HW120258   3.441   1.001   2.937
 6453SOL    HW220259   3.390   0.846   2.922
 6454SOL     OW20260   4.828   3.552   5.555
 6454SOL    HW120261   4.925   3.547   5.580
 6454SOL    HW220262   4.814   3.629   5.492
 6455SOL     OW20263   0.271   3.033   5.438
 6455SOL    HW120264   0.287   3.126   5.469
 6455SOL    HW220265   0.319   3.017   5.351
 6456SOL     OW20266   6.334   1.986   2.983
 6456SOL    HW120267   6.407   1.996   3.051
 6456SOL    HW220268   6.253   2.036   3.013
 6457SOL     OW20269   1.313   6.446   3.299
 6457SOL    HW120270   1.230   6.429   3.353
 6457SOL    HW220271   1.363   6.360   3.287
 6458SOL     OW20272   1.044   0.006   5.113
 6458SOL    HW120273   1.082   0.059   5.188
 6458SOL    HW220274   0.949   0.033   5.097
 6459SOL     OW20275   0.286   3.221   3.296
 6459SOL    HW120276   0.377   3.197   3.260
 6459SOL    HW220277   0.293   3.239   3.394
 6460SOL     OW20278   1.562   5.135   5.734
 6460SOL    HW120279   1.647   5.176   5.766
 6460SOL    HW220280   1.502   5.118   5.812
 6461SOL     OW20281   0.037   6.729   2.246
 6461SOL    HW120282   0.105   6.719   2.319
 6461SOL    HW220283   6.977   6.778   2.282
 6462SOL     OW20284   2.699   4.236   5.430
 6462SOL    HW120285   2.687   4.275   5.339
 6462SOL    HW220286   2.622   4.176   5.451
 6463SOL     OW20287   4.899   3.163   1.880
 6463SOL    HW120288   4.827   3.094   1.893
 6463SOL    HW220289   4.987   3.117   1.867
 6464SOL     OW20290   0.886   3.239   3.421
 6464SOL    HW120291   0.954   3.234   3.348
 6464SOL    HW220292   0.817   3.308   3.398
 6465SOL     OW20293   2.368   1.246   2.639
 6465SOL    HW120294   2.388   1.187   2.717
 6465SOL    HW220295   2.269   1.245   2.622
 6466SOL     OW20296   6.675   5.501   6.697
 6466SOL    HW120297   6.691   5.598   6.711
 6466SOL    HW220298   6.756   5.459   6.656
 6467SOL     OW20299   2.840   3.217   5.817
 6467SOL    HW120300   2.877   3.285   5.881
 6467SOL    HW220301   2.911   3.190   5.753
 6468SOL     OW20302   0.970   1.083   0.397
 6468SOL    HW120303   1.052   1.059   0.344
 6468SOL    HW220304   0.945   1.178   0.378
 6469SOL     OW20305   2.742   1.041   0.958
 6469SOL    HW120306   2.743   0.945   0.984
 6469SOL    HW220307   2.830   1.083   0.981
 6470SOL     OW20308   6.245   0.560   6.417
 6470SOL    HW120309   6.237   0.463   6.398
 6470SOL    HW220310   6.160   0.593   6.460
 6471SOL     OW20311   0.966   6.588   5.444
 6471SOL    HW120312   0.900   6.560   5.375
 6471SOL    HW220313   0.997   6.681   5.424
 6472SOL     OW20314   0.841   6.451   1.480
 6472SOL    HW120315   0.846   6.525   1.547
 6472SOL    HW220316   0.903   6.471   1.405
 6473SOL     OW20317   2.731   1.684   4.084
 6473SOL    HW120318   2.770   1.775   4.097
 6473SOL    HW220319   2.763   1.646   3.998
 6474SOL     OW20320   3.785   0.356   4.363
 6474SOL    HW120321   3.778   0.418   4.285
 6474SOL    HW220322   3.839   0.276   4.337
 6475SOL     OW20323   5.316   6.019   3.709
 6475SOL    HW120324   5.363   6.095   3.754
 6475SOL    HW220325   5.273   5.961   3.778
 6476SOL     OW20326   5.363   3.896   4.859
 6476SOL    HW120327   5.323   3.985   4.877
 6476SOL    HW220328   5.301   3.824   4.891
 6477SOL     OW20329   1.281   6.680   0.579
 6477SOL    HW120330   1.196   6.633   0.555
 6477SOL    HW220331   1.334   6.623   0.642
 6478SOL     OW20332   2.030   6.192   6.841
 6478SOL    HW120333   2.101   6.170   6.907
 6478SOL    HW220334   2.062   6.170   6.748
 6479SOL     OW20335   4.494   5.505   4.685
 6479SOL    HW120336   4.521   5.415   4.720
 6479SOL    HW220337   4.395   5.506   4.670
 6480SOL     OW20338   2.911   0.881   5.475
 6480SOL    HW120339   2.966   0.954   5.434
 6480SOL    HW220340   2.823   0.918   5.504
 6481SOL     OW20341   4.210   4.000   1.675
 6481SOL    HW120342   4.186   3.921   1.731
 6481SOL    HW220343   4.245   4.073   1.734
 6482SOL     OW20344   5.158   3.049   3.813
 6482SOL    HW120345   5.110   3.087   3.893
 6482SOL    HW220346   5.133   3.101   3.732
 6483SOL     OW20347   1.876   6.332   5.441
 6483SOL    HW120348   1.968   6.370   5.442
 6483SOL    HW220349   1.813   6.397   5.484
 6484SOL     OW20350   3.809   0.363   3.277
 6484SOL    HW120351   3.900   0.387   3.308
 6484SOL    HW220352   3.788   0.269   3.305
 6485SOL     OW20353   2.058   4.752   5.049
 6485SOL    HW120354   2.061   4.658   5.085
 6485SOL    HW220355   1.971   4.794   5.075
 6486SOL     OW20356   6.838   4.064   2.306
 6486SOL    HW120357   6.869   4.153   2.271
 6486SOL    HW220358   6.758   4.078   2.365
 6487SOL     OW20359   5.947   5.715   4.432
 6487SOL    HW120360   5.989   5.736   4.343
 6487SOL    HW220361   5.964   5.619   4.455
 6488SOL     OW20362   3.160   4.861   3.273
 6488SOL    HW120363   3.174   4.960   3.270
 6488SOL    HW220364   3.152   4.826   3.179
 6489SOL     OW20365   6.228   3.642   5.685
 6489SOL    HW120366   6.185   3.698   5.614
 6489SOL    HW220367   6.265   3.559   5.643
 6490SOL     OW20368   1.560   3.790   6.566
 6490SOL    HW120369   1.561   3.690   6.577
 6490SOL    HW220370   1.602   3.832   6.647
 6491SOL     OW20371   1.125   0.227   2.499
 6491SOL    HW120372   1.195   0.251   2.432
 6491SOL    HW220373   1.116   0.127   2.503
 6492SOL     OW20374   3.809   2.927   2.907
 6492SOL    HW120375   3.744   2.937   2.982
 6492SOL    HW220376   3.874   2.854   2.928
 6493SOL     OW20377   1.420   4.757   4.108
 6493SOL    HW120378   1.362   4.834   4.083
 6493SOL    HW220379   1.452   4.768   4.202
 6494SOL     OW20380   6.816   1.052   1.733
 6494SOL    HW120381   6.812   1.073   1.636
 6494SOL    HW220382   6.755   1.114   1.783
 6495SOL     OW20383   6.222   6.377   2.431
 6495SOL    HW120384   6.146   6.318   2.456
 6495SOL    HW220385   6.190   6.449   2.369
 6496SOL     OW20386   2.590   2.799   1.295
 6496SOL    HW120387   2.563   2.864   1.224
 6496SOL    HW220388   2.509   2.772   1.348
 6497SOL     OW20389   6.898   2.612   0.699
 6497SOL    HW120390   6.948   2.572   0.622
 6497SOL    HW220391   6.897   2.546   0.775
 6498SOL     OW20392   2.640   5.219   4.659
 6498SOL    HW120393   2.613   5.124   4.677
 6498SOL    HW220394   2.567   5.281   4.689
 6499SOL     OW20395   5.574   2.383   2.668
 6499SOL    HW120396   5.627   2.357   2.587
 6499SOL    HW220397   5.479   2.397   2.642
 6500SOL     OW20398   1.777   3.951   2.639
 6500SOL    HW120399   1.761   3.977   2.735
 6500SOL    HW220400   1.761   3.853   2.628
 6501SOL     OW20401   6.529   1.621   2.542
 6501SOL    HW120402   6.541   1.609   2.641
 6501SOL    HW220403   6.516   1.532   2.499
 6502SOL     OW20404   1.026   2.703   2.614
 6502SOL    HW120405   1.014   2.604   2.619
 6502SOL    HW220406   0.974   2.739   2.536
 6503SOL     OW20407   0.671   2.382   5.550
 6503SOL    HW120408   0.636   2.410   5.640
 6503SOL    HW220409   0.697   2.463   5.497
 6504SOL     OW20410   4.025   5.967   6.141
 6504SOL    HW120411   3.979   5.908   6.207
 6504SOL    HW220412   3.974   5.968   6.055
 6505SOL     OW20413   0.642   6.845   6.822
 6505SOL    HW120414   0.681   6.905   6.892
 6505SOL    HW220415   0.625   6.898   6.739
 6506SOL     OW20416   0.741   4.623   2.104
 6506SOL    HW120417   0.790   4.700   2.063
 6506SOL    HW220418   0.687   4.577   2.034
 6507SOL     OW20419   5.457   5.205   0.981
 6507SOL    HW120420   5.396   5.278   0.949
 6507SOL    HW220421   5.410   5.117   0.977
 6508SOL     OW20422   0.010   0.833   4.487
 6508SOL    HW120423   6.937   0.837   4.527
 6508SOL    HW220424   0.021   0.908   4.422
 6509SOL     OW20425   2.207   1.605   6.939
 6509SOL    HW120426   2.203   1.550   6.856
 6509SOL    HW220427   2.243   1.550   7.014
 6510SOL     OW20428   3.837   4.887   4.215
 6510SOL    HW120429   3.906   4.904   4.286
 6510SOL    HW220430   3.747   4.881   4.258
 6511SOL     OW20431   3.575   3.156   6.878
 6511SOL    HW120432   3.495   3.095   6.880
 6511SOL    HW220433   3.547   3.248   6.904
 6512SOL     OW20434   5.243   1.620   1.873
 6512SOL    HW120435   5.228   1.634   1.775
 6512SOL    HW220436   5.293   1.698   1.911
 6513SOL     OW20437   3.490   4.975   2.025
 6513SOL    HW120438   3.528   4.891   1.987
 6513SOL    HW220439   3.539   5.054   1.988
 6514SOL     OW20440   5.023   5.630   5.614
 6514SOL    HW120441   5.038   5.548   5.668
 6514SOL    HW220442   4.998   5.706   5.674
 6515SOL     OW20443   0.939   5.230   2.514
 6515SOL    HW120444   1.025   5.262   2.554
 6515SOL    HW220445   0.957   5.151   2.455
 6516SOL     OW20446   5.576   1.357   3.456
 6516SOL    HW120447   5.674   1.357   3.477
 6516SOL    HW220448   5.524   1.336   3.538
 6517SOL     OW20449   6.635   4.293   0.423
 6517SOL    HW120450   6.570   4.359   0.384
 6517SOL    HW220451   6.607   4.201   0.399
 6518SOL     OW20452   0.921   1.910   2.072
 6518SOL    HW120453   0.962   1.848   2.006
 6518SOL    HW220454   0.973   1.995   2.075
 6519SOL     OW20455   1.451   2.252   3.848
 6519SOL    HW120456   1.512   2.297   3.913
 6519SOL    HW220457   1.501   2.180   3.800
 6520SOL     OW20458   6.118   6.417   6.669
 6520SOL    HW120459   6.111   6.504   6.620
 6520SOL    HW220460   6.090   6.343   6.608
 6521SOL     OW20461   1.574   4.556   4.645
 6521SOL    HW120462   1.582   4.649   4.679
 6521SOL    HW220463   1.658   4.506   4.664
 6522SOL     OW20464   2.158   2.914   5.215
 6522SOL    HW120465   2.116   3.005   5.213
 6522SOL    HW220466   2.253   2.920   5.184
 6523SOL     OW20467   5.045   6.536   0.582
 6523SOL    HW120468   5.065   6.525   0.485
 6523SOL    HW220469   4.975   6.607   0.594
 6524SOL     OW20470   3.711   2.095   0.760
 6524SOL    HW120471   3.715   2.128   0.855
 6524SOL    HW220472   3.795   2.120   0.712
 6525SOL     OW20473   2.938   4.813   3.489
 6525SOL    HW120474   3.012   4.841   3.427
 6525SOL    HW220475   2.874   4.753   3.440
 6526SOL     OW20476   6.335   6.499   0.751
 6526SOL    HW120477   6.381   6.411   0.754
 6526SOL    HW220478   6.349   6.547   0.838
 6527SOL     OW20479   5.498   2.595   0.569
 6527SOL    HW120480   5.435   2.673   0.561
 6527SOL    HW220481   5.484   2.533   0.493
 6528SOL     OW20482   4.334   6.764   0.535
 6528SOL    HW120483   4.259   6.792   0.476
 6528SOL    HW220484   4.409   6.830   0.526
 6529SOL     OW20485   4.049   6.464   1.447
 6529SOL    HW120486   4.021   6.411   1.367
 6529SOL    HW220487   4.141   6.500   1.432
 6530SOL     OW20488   0.059   2.660   4.115
 6530SOL    HW120489   0.059   2.729   4.188
 6530SOL    HW220490   0.071   2.569   4.155
 6531SOL     OW20491   3.009   3.765   3.947
 6531SOL    HW120492   3.019   3.667   3.966
 6531SOL    HW220493   3.025   3.817   4.031
 6532SOL     OW20494   0.915   5.985   6.930
 6532SOL    HW120495   0.836   6.018   6.879
 6532SOL    HW220496   0.996   6.038   6.904
 6533SOL     OW20497   5.258   4.535   1.244
 6533SOL    HW120498   5.161   4.523   1.264
 6533SOL    HW220499   5.290   4.457   1.189
 6534SOL     OW20500   6.678   3.406   4.593
 6534SOL    HW120501   6.616   3.359   4.656
 6534SOL    HW220502   6.641   3.497   4.573
 6535SOL     OW20503   5.491   3.384   6.986
 6535SOL    HW120504   5.569   3.371   6.925
 6535SOL    HW220505   5.409   3.405   6.931
 6536SOL     OW20506   6.827   5.515   5.277
 6536SOL    HW120507   6.921   5.513   5.242
 6536SOL    HW220508   6.775   5.587   5.231
 6537SOL     OW20509   6.664   5.288   4.418
 6537SOL    HW120510   6.757   5.266   4.392
 6537SOL    HW220511   6.664   5.365   4.482
 6538SOL     OW20512   1.137   3.829   3.517
 6538SOL    HW120513   1.111   3.844   3.422
 6538SOL    HW220514   1.057   3.801   3.570
 6539SOL     OW20515   5.790   6.696   5.318
 6539SOL    HW120516   5.811   6.695   5.220
 6539SOL    HW220517   5.790   6.603   5.354
 6540SOL     OW20518   1.107   2.450   5.312
 6540SOL    HW120519   1.051   2.458   5.394
 6540SOL    HW220520   1.155   2.362   5.312
 6541SOL     OW20521   3.751   1.516   5.329
 6541SOL    HW120522   3.746   1.422   5.362
 6541SOL    HW220523   3.811   1.569   5.390
 6542SOL     OW20524   1.775   4.700   2.028
 6542SOL    HW120525   1.817   4.665   2.111
 6542SOL    HW220526   1.805   4.795   2.013
 6543SOL     OW20527   3.746   1.704   4.442
 6543SOL    HW120528   3.712   1.793   4.412
 6543SOL    HW220529   3.734   1.637   4.369
 6544SOL     OW20530   1.250   0.580   1.538
 6544SOL    HW120531   1.294   0.534   1.615
 6544SOL    HW220532   1.151   0.577   1.550
 6545SOL     OW20533   6.046   4.745   0.739
 6545SOL    HW120534   6.143   4.754   0.718
 6545SOL    HW220535   6.007   4.836   0.755
 6546SOL     OW20536   3.871   5.237   4.106
 6546SOL    HW120537   3.911   5.150   4.077
 6546SOL    HW220538   3.889   5.252   4.203
 6547SOL     OW20539   0.662   6.703   5.092
 6547SOL    HW120540   0.708   6.710   5.004
 6547SOL    HW220541   0.712   6.759   5.159
 6548SOL     OW20542   1.005   1.660   5.161
 6548SOL    HW120543   1.095   1.690   5.130
 6548SOL    HW220544   0.980   1.711   5.244
 6549SOL     OW20545   2.868   1.523   2.593
 6549SOL    HW120546   2.931   1.454   2.628
 6549SOL    HW220547   2.774   1.497   2.614
 6550SOL     OW20548   5.867   6.878   1.825
 6550SOL    HW120549   5.883   6.881   1.726
 6550SOL    HW220550   5.816   6.796   1.849
 6551SOL     OW20551   2.257   5.512   1.111
 6551SOL    HW120552   2.212   5.457   1.181
 6551SOL    HW220553   2.327   5.570   1.154
 6552SOL     OW20554   2.547   3.664   6.703
 6552SOL    HW120555   2.560   3.709   6.791
 6552SOL    HW220556   2.508   3.728   6.637
 6553SOL     OW20557   0.196   1.795   3.385
 6553SOL    HW120558   0.276   1.757   3.339
 6553SOL    HW220559   0.209   1.792   3.484
 6554SOL     OW20560   2.280   1.954   3.937
 6554SOL    HW120561   2.237   2.043   3.945
 6554SOL    HW220562   2.258   1.914   3.848
 6555SOL     OW20563   2.138   3.722   1.974
 6555SOL    HW120564   2.108   3.719   1.878
 6555SOL    HW220565   2.164   3.630   2.004
 6556SOL     OW20566   4.818   3.165   3.459
 6556SOL    HW120567   4.802   3.254   3.416
 6556SOL    HW220568   4.899   3.169   3.517
 6557SOL     OW20569   1.850   6.668   2.232
 6557SOL    HW120570   1.785   6.627   2.169
 6557SOL    HW220571   1.841   6.625   2.322
 6558SOL     OW20572   5.118   5.289   1.046
 6558SOL    HW120573   5.038   5.338   1.080
 6558SOL    HW220574   5.175   5.262   1.124
 6559SOL     OW20575   0.170   1.636   6.181
 6559SOL    HW120576   0.247   1.668   6.126
 6559SOL    HW220577   0.184   1.662   6.276
 6560SOL     OW20578   6.638   4.530   6.147
 6560SOL    HW120579   6.603   4.518   6.054
 6560SOL    HW220580   6.734   4.558   6.143
 6561SOL     OW20581   2.780   5.163   6.973
 6561SOL    HW120582   2.845   5.089   6.954
 6561SOL    HW220583   2.825   5.233   0.009
 6562SOL     OW20584   4.696   2.723   1.063
 6562SOL    HW120585   4.646   2.757   1.142
 6562SOL    HW220586   4.684   2.624   1.056
 6563SOL     OW20587   6.065   4.673   5.645
 6563SOL    HW120588   5.997   4.718   5.587
 6563SOL    HW220589   6.058   4.574   5.632
 6564SOL     OW20590   6.319   3.805   1.686
 6564SOL    HW120591   6.413   3.770   1.691
 6564SOL    HW220592   6.255   3.729   1.677
 6565SOL     OW20593   5.378   5.399   1.914
 6565SOL    HW120594   5.440   5.355   1.848
 6565SOL    HW220595   5.284   5.373   1.893
 6566SOL     OW20596   5.472   5.355   3.921
 6566SOL    HW120597   5.501   5.310   4.005
 6566SOL    HW220598   5.372   5.349   3.913
 6567SOL     OW20599   2.749   0.816   2.577
 6567SOL    HW120600   2.811   0.821   2.655
 6567SOL    HW220601   2.737   0.907   2.537
 6568SOL     OW20602   5.164   1.708   0.358
 6568SOL    HW120603   5.099   1.632   0.351
 6568SOL    HW220604   5.257   1.672   0.367
 6569SOL     OW20605   1.650   4.196   3.389
 6569SOL    HW120606   1.719   4.236   3.329
 6569SOL    HW220607   1.634   4.101   3.362
 6570SOL     OW20608   4.098   0.143   2.766
 6570SOL    HW120609   4.033   0.150   2.842
 6570SOL    HW220610   4.051   0.166   2.681
 6571SOL     OW20611   2.546   7.019   2.903
 6571SOL    HW120612   2.465   0.025   2.955
 6571SOL    HW220613   2.618   6.988   2.965
 6572SOL     OW20614   1.177   6.571   3.675
 6572SOL    HW120615   1.132   6.536   3.593
 6572SOL    HW220616   1.110   6.619   3.732
 6573SOL     OW20617   1.175   2.642   3.967
 6573SOL    HW120618   1.126   2.572   3.915
 6573SOL    HW220619   1.248   2.680   3.912
 6574SOL     OW20620   0.971   4.972   1.662
 6574SOL    HW120621   1.022   4.967   1.576
 6574SOL    HW220622   0.898   4.903   1.662
 6575SOL     OW20623   6.555   1.008   4.043
 6575SOL    HW120624   6.572   1.087   3.984
 6575SOL    HW220625   6.630   1.001   4.110
 6576SOL     OW20626   4.174   0.412   2.360
 6576SOL    HW120627   4.112   0.457   2.295
 6576SOL    HW220628   4.127   0.334   2.402
 6577SOL     OW20629   3.155   1.073   5.509
 6577SOL    HW120630   3.093   1.111   5.579
 6577SOL    HW220631   3.248   1.073   5.544
 6578SOL     OW20632   0.940   5.574   0.244
 6578SOL    HW120633   0.974   5.537   0.331
 6578SOL    HW220634   0.843   5.595   0.253
 6579SOL     OW20635   1.968   1.809   2.929
 6579SOL    HW120636   1.981   1.723   2.881
 6579SOL    HW220637   2.056   1.856   2.938
 6580SOL     OW20638   3.308   2.472   6.706
 6580SOL    HW120639   3.330   2.553   6.652
 6580SOL    HW220640   3.384   2.408   6.703
 6581SOL     OW20641   0.768   2.543   1.753
 6581SOL    HW120642   0.778   2.595   1.668
 6581SOL    HW220643   0.763   2.446   1.731
 6582SOL     OW20644   4.035   6.708   3.263
 6582SOL    HW120645   3.961   6.650   3.229
 6582SOL    HW220646   4.119   6.654   3.268
 6583SOL     OW20647   2.667   4.330   1.162
 6583SOL    HW120648   2.618   4.384   1.094
 6583SOL    HW220649   2.632   4.236   1.160
 6584SOL     OW20650   4.172   3.493   5.817
 6584SOL    HW120651   4.124   3.412   5.849
 6584SOL    HW220652   4.181   3.489   5.717
 6585SOL     OW20653   4.952   6.900   1.635
 6585SOL    HW120654   4.957   6.998   1.657
 6585SOL    HW220655   4.876   6.859   1.686
 6586SOL     OW20656   6.820   1.655   6.647
 6586SOL    HW120657   6.723   1.666   6.670
 6586SOL    HW220658   6.828   1.614   6.556
 6587SOL     OW20659   2.448   4.431   5.508
 6587SOL    HW120660   2.440   4.365   5.433
 6587SOL    HW220661   2.519   4.499   5.485
 6588SOL     OW20662   0.987   2.448   0.824
 6588SOL    HW120663   1.043   2.525   0.795
 6588SOL    HW220664   1.043   2.366   0.829
 6589SOL     OW20665   5.783   0.137   1.031
 6589SOL    HW120666   5.753   0.077   0.957
 6589SOL    HW220667   5.878   0.165   1.015
 6590SOL     OW20668   1.141   6.087   4.321
 6590SOL    HW120669   1.208   6.013   4.318
 6590SOL    HW220670   1.080   6.074   4.398
 6591SOL     OW20671   6.545   3.397   3.396
 6591SOL    HW120672   6.573   3.349   3.312
 6591SOL    HW220673   6.452   3.431   3.385
 6592SOL     OW20674   0.031   0.608   4.330
 6592SOL    HW120675   0.019   0.693   4.381
 6592SOL    HW220676   0.053   0.534   4.393
 6593SOL     OW20677   0.966   0.742   3.086
 6593SOL    HW120678   1.047   0.714   3.138
 6593SOL    HW220679   0.894   0.768   3.150
 6594SOL     OW20680   5.251   0.131   6.725
 6594SOL    HW120681   5.264   0.204   6.658
 6594SOL    HW220682   5.291   0.046   6.692
 6595SOL     OW20683   0.756   0.319   5.224
 6595SOL    HW120684   0.695   0.320   5.304
 6595SOL    HW220685   0.749   0.232   5.177
 6596SOL     OW20686   5.013   0.545   2.881
 6596SOL    HW120687   4.941   0.603   2.919
 6596SOL    HW220688   5.007   0.545   2.781
 6597SOL     OW20689   1.299   5.544   1.533
 6597SOL    HW120690   1.317   5.458   1.581
 6597SOL    HW220691   1.213   5.536   1.483
 6598SOL     OW20692   1.534   5.342   1.752
 6598SOL    HW120693   1.626   5.304   1.743
 6598SOL    HW220694   1.518   5.368   1.848
 6599SOL     OW20695   0.581   6.146   6.351
 6599SOL    HW120696   0.525   6.100   6.420
 6599SOL    HW220697   0.665   6.181   6.393
 6600SOL     OW20698   4.893   0.121   4.419
 6600SOL    HW120699   4.848   0.210   4.415
 6600SOL    HW220700   4.992   0.133   4.415
 6601SOL     OW20701   0.795   2.701   3.280
 6601SOL    HW120702   0.740   2.752   3.346
 6601SOL    HW220703   0.882   2.676   3.322
 6602SOL     OW20704   6.025   5.968   0.645
 6602SOL    HW120705   6.011   5.914   0.727
 6602SOL    HW220706   6.120   5.960   0.615
 6603SOL     OW20707   6.740   4.697   2.414
 6603SOL    HW120708   6.810   4.738   2.356
 6603SOL    HW220709   6.777   4.680   2.505
 6604SOL     OW20710   2.108   5.018   2.382
 6604SOL    HW120711   2.165   4.987   2.306
 6604SOL    HW220712   2.112   5.117   2.390
 6605SOL     OW20713   6.965   5.699   1.077
 6605SOL    HW120714   6.883   5.677   1.024
 6605SOL    HW220715   7.012   5.776   1.035
 6606SOL     OW20716   1.306   4.779   3.131
 6606SOL    HW120717   1.233   4.841   3.159
 6606SOL    HW220718   1.383   4.833   3.095
 6607SOL     OW20719   6.598   3.315   4.317
 6607SOL    HW120720   6.635   3.354   4.402
 6607SOL    HW220721   6.646   3.356   4.239
 6608SOL     OW20722   1.748   0.735   5.565
 6608SOL    HW120723   1.695   0.791   5.500
 6608SOL    HW220724   1.834   0.708   5.523
 6609SOL     OW20725   2.645   1.812   0.106
 6609SOL    HW120726   2.619   1.830   0.201
 6609SOL    HW220727   2.744   1.823   0.096
 6610SOL     OW20728   3.191   5.657   0.842
 6610SOL    HW120729   3.214   5.572   0.793
 6610SOL    HW220730   3.121   5.706   0.792
 6611SOL     OW20731   3.080   1.418   5.004
 6611SOL    HW120732   3.032   1.433   5.091
 6611SOL    HW220733   3.013   1.411   4.930
 6612SOL     OW20734   6.188   0.465   0.046
 6612SOL    HW120735   6.231   0.440   6.979
 6612SOL    HW220736   6.254   0.451   0.121
 6613SOL     OW20737   5.005   0.089   0.871
 6613SOL    HW120738   4.969   0.068   0.780
 6613SOL    HW220739   5.052   0.009   0.908
 6614SOL     OW20740   4.613   5.039   0.916
 6614SOL    HW120741   4.693   5.049   0.858
 6614SOL    HW220742   4.638   4.988   0.999
 6615SOL     OW20743   3.496   5.685   6.190
 6615SOL    HW120744   3.422   5.645   6.136
 6615SOL    HW220745   3.582   5.638   6.169
 6616SOL     OW20746   3.858   2.394   6.353
 6616SOL    HW120747   3.885   2.302   6.325
 6616SOL    HW220748   3.849   2.452   6.272
 6617SOL     OW20749   3.679   1.495   4.296
 6617SOL    HW120750   3.759   1.438   4.314
 6617SOL    HW220751   3.644   1.475   4.205
 6618SOL     OW20752   6.320   2.710   3.587
 6618SOL    HW120753   6.301   2.765   3.506
 6618SOL    HW220754   6.358   2.622   3.558
 6619SOL     OW20755   4.216   4.817   3.742
 6619SOL    HW120756   4.307   4.858   3.743
 6619SOL    HW220757   4.192   4.790   3.649
 6620SOL     OW20758   1.086   2.928   3.615
 6620SOL    HW120759   1.080   3.026   3.596
 6620SOL    HW220760   1.037   2.908   3.700
 6621SOL     OW20761   3.728   3.409   3.299
 6621SOL    HW120762   3.705   3.482   3.235
 6621SOL    HW220763   3.827   3.398   3.302
 6622SOL     OW20764   6.758   4.859   1.846
 6622SOL    HW120765   6.839   4.914   1.824
 6622SOL    HW220766   6.676   4.914   1.832
 6623SOL     OW20767   3.658   2.931   4.325
 6623SOL    HW120768   3.757   2.939   4.314
 6623SOL    HW220769   3.621   2.877   4.249
 6624SOL     OW20770   2.361   2.413   2.578
 6624SOL    HW120771   2.269   2.398   2.543
 6624SOL    HW220772   2.427   2.362   2.523
 6625SOL     OW20773   0.702   4.809   5.565
 6625SOL    HW120774   0.638   4.867   5.516
 6625SOL    HW220775   0.732   4.855   5.648
 6626SOL     OW20776   3.388   5.773   5.892
 6626SOL    HW120777   3.329   5.817   5.960
 6626SOL    HW220778   3.479   5.814   5.895
 6627SOL     OW20779   2.709   0.112   4.731
 6627SOL    HW120780   2.748   0.078   4.816
 6627SOL    HW220781   2.611   0.131   4.745
 6628SOL     OW20782   3.783   6.092   3.505
 6628SOL    HW120783   3.703   6.070   3.561
 6628SOL    HW220784   3.824   6.177   3.537
 6629SOL     OW20785   5.048   5.905   5.275
 6629SOL    HW120786   4.987   5.829   5.296
 6629SOL    HW220787   5.023   5.945   5.187
 6630SOL     OW20788   2.143   0.132   0.635
 6630SOL    HW120789   2.175   0.227   0.630
 6630SOL    HW220790   2.220   0.070   0.628
 6631SOL     OW20791   1.621   1.566   5.982
 6631SOL    HW120792   1.665   1.477   5.966
 6631SOL    HW220793   1.567   1.561   6.066
 6632SOL     OW20794   1.285   0.619   5.900
 6632SOL    HW120795   1.370   0.660   5.868
 6632SOL    HW220796   1.277   0.526   5.863
 6633SOL     OW20797   4.938   6.759   5.777
 6633SOL    HW120798   4.931   6.674   5.830
 6633SOL    HW220799   4.959   6.835   5.838
 6634SOL     OW20800   3.091   2.189   4.227
 6634SOL    HW120801   3.090   2.235   4.138
 6634SOL    HW220802   2.998   2.189   4.266
 6635SOL     OW20803   4.699   5.499   6.180
 6635SOL    HW120804   4.674   5.479   6.085
 6635SOL    HW220805   4.616   5.496   6.236
 6636SOL     OW20806   4.527   1.567   1.261
 6636SOL    HW120807   4.540   1.469   1.279
 6636SOL    HW220808   4.466   1.579   1.183
 6637SOL     OW20809   0.294   3.292   6.910
 6637SOL    HW120810   0.280   3.207   6.962
 6637SOL    HW220811   0.205   3.326   6.878
 6638SOL     OW20812   2.968   3.718   4.349
 6638SOL    HW120813   3.055   3.683   4.384
 6638SOL    HW220814   2.922   3.770   4.421
 6639SOL     OW20815   5.176   3.058   1.810
 6639SOL    HW120816   5.233   3.139   1.796
 6639SOL    HW220817   5.169   3.007   1.724
 6640SOL     OW20818   0.526   3.802   4.048
 6640SOL    HW120819   0.606   3.750   4.076
 6640SOL    HW220820   0.518   3.884   4.104
 6641SOL     OW20821   5.201   2.392   0.223
 6641SOL    HW120822   5.157   2.306   0.250
 6641SOL    HW220823   5.168   2.420   0.133
 6642SOL     OW20824   0.805   5.176   5.905
 6642SOL    HW120825   0.871   5.251   5.899
 6642SOL    HW220826   0.717   5.212   5.936
 6643SOL     OW20827   5.127   5.498   5.879
 6643SOL    HW120828   5.099   5.593   5.891
 6643SOL    HW220829   5.048   5.438   5.894
 6644SOL     OW20830   1.860   6.396   3.197
 6644SOL    HW120831   1.807   6.427   3.275
 6644SOL    HW220832   1.810   6.325   3.148
 6645SOL     OW20833   5.008   2.839   5.173
 6645SOL    HW120834   5.043   2.882   5.256
 6645SOL    HW220835   4.912   2.861   5.161
 6646SOL     OW20836   4.613   0.126   6.045
 6646SOL    HW120837   4.544   0.180   5.997
 6646SOL    HW220838   4.575   0.090   6.130
 6647SOL     OW20839   3.648   4.967   0.486
 6647SOL    HW120840   3.727   5.024   0.463
 6647SOL    HW220841   3.574   4.987   0.422
 6648SOL     OW20842   3.448   5.760   5.564
 6648SOL    HW120843   3.373   5.793   5.621
 6648SOL    HW220844   3.497   5.838   5.524
 6649SOL     OW20845   5.725   2.858   5.242
 6649SOL    HW120846   5.746   2.951   5.270
 6649SOL    HW220847   5.670   2.860   5.158
 6650SOL     OW20848   2.634   0.860   5.068
 6650SOL    HW120849   2.555   0.901   5.112
 6650SOL    HW220850   2.716   0.913   5.090
 6651SOL     OW20851   6.529   0.949   3.452
 6651SOL    HW120852   6.532   1.038   3.497
 6651SOL    HW220853   6.524   0.877   3.521
 6652SOL     OW20854   6.903   5.493   6.503
 6652SOL    HW120855   6.854   5.580   6.496
 6652SOL    HW220856   6.927   5.461   6.411
 6653SOL     OW20857   5.744   3.806   0.127
 6653SOL    HW120858   5.674   3.828   0.059
 6653SOL    HW220859   5.701   3.768   0.209
 6654SOL     OW20860   6.981   1.784   3.235
 6654SOL    HW120861   0.041   1.762   3.292
 6654SOL    HW220862   6.897   1.764   3.286
 6655SOL     OW20863   0.126   5.614   1.531
 6655SOL    HW120864   0.099   5.711   1.538
 6655SOL    HW220865   0.073   5.570   1.459
 6656SOL     OW20866   5.124   1.187   2.033
 6656SOL    HW120867   5.161   1.262   1.978
 6656SOL    HW220868   5.024   1.189   2.028
 6657SOL     OW20869   4.526   1.815   4.175
 6657SOL    HW120870   4.515   1.901   4.225
 6657SOL    HW220871   4.623   1.798   4.160
 6658SOL     OW20872   6.380   5.840   4.285
 6658SOL    HW120873   6.393   5.933   4.320
 6658SOL    HW220874   6.442   5.824   4.208
 6659SOL     OW20875   1.021   6.566   1.271
 6659SOL    HW120876   0.966   6.549   1.189
 6659SOL    HW220877   1.012   6.662   1.298
 6660SOL     OW20878   1.336   0.706   3.876
 6660SOL    HW120879   1.366   0.743   3.788
 6660SOL    HW220880   1.240   0.676   3.869
 6661SOL     OW20881   3.685   6.383   3.808
 6661SOL    HW120882   3.647   6.295   3.779
 6661SOL    HW220883   3.618   6.431   3.865
 6662SOL     OW20884   3.883   6.646   1.569
 6662SOL    HW120885   3.875   6.733   1.520
 6662SOL    HW220886   3.942   6.584   1.518
 6663SOL     OW20887   1.683   3.995   5.200
 6663SOL    HW120888   1.748   4.066   5.175
 6663SOL    HW220889   1.615   4.032   5.263
 6664SOL     OW20890   3.152   0.021   1.658
 6664SOL    HW120891   3.224   6.978   1.688
 6664SOL    HW220892   3.063   7.005   1.685
 6665SOL     OW20893   2.729   0.295   6.727
 6665SOL    HW120894   2.699   0.354   6.652
 6665SOL    HW220895   2.715   0.342   6.814
 6666SOL     OW20896   2.530   6.629   5.752
 6666SOL    HW120897   2.561   6.714   5.710
 6666SOL    HW220898   2.469   6.649   5.828
 6667SOL     OW20899   1.956   6.029   0.139
 6667SOL    HW120900   1.910   6.043   0.227
 6667SOL    HW220901   1.905   5.962   0.085
 6668SOL     OW20902   0.096   3.695   5.791
 6668SOL    HW120903   0.096   3.610   5.738
 6668SOL    HW220904   0.017   3.696   5.852
 6669SOL     OW20905   0.503   3.400   3.766
 6669SOL    HW120906   0.453   3.478   3.803
 6669SOL    HW220907   0.583   3.433   3.716
 6670SOL     OW20908   2.324   4.196   0.764
 6670SOL    HW120909   2.336   4.113   0.818
 6670SOL    HW220910   2.268   4.261   0.816
 6671SOL     OW20911   5.085   5.161   0.463
 6671SOL    HW120912   5.136   5.118   0.388
 6671SOL    HW220913   4.993   5.122   0.466
 6672SOL     OW20914   2.294   2.376   0.946
 6672SOL    HW120915   2.267   2.288   0.986
 6672SOL    HW220916   2.383   2.404   0.983
 6673SOL     OW20917   5.735   3.824   4.687
 6673SOL    HW120918   5.707   3.762   4.760
 6673SOL    HW220919   5.657   3.842   4.627
 6674SOL     OW20920   6.470   1.138   7.013
 6674SOL    HW120921   6.421   1.169   6.931
 6674SOL    HW220922   6.452   1.200   0.069
 6675SOL     OW20923   5.056   1.455   0.366
 6675SOL    HW120924   5.007   1.449   0.453
 6675SOL    HW220925   4.993   1.483   0.294
 6676SOL     OW20926   1.049   3.274   5.441
 6676SOL    HW120927   1.148   3.287   5.453
 6676SOL    HW220928   1.001   3.355   5.473
 6677SOL     OW20929   0.497   2.162   6.944
 6677SOL    HW120930   0.500   2.099   0.002
 6677SOL    HW220931   0.580   2.152   6.890
 6678SOL     OW20932   3.091   4.108   6.574
 6678SOL    HW120933   3.056   4.181   6.516
 6678SOL    HW220934   3.102   4.025   6.521
 6679SOL     OW20935   1.733   0.450   3.815
 6679SOL    HW120936   1.739   0.550   3.822
 6679SOL    HW220937   1.825   0.412   3.804
 6680SOL     OW20938   6.393   5.883   1.823
 6680SOL    HW120939   6.431   5.881   1.731
 6680SOL    HW220940   6.433   5.809   1.877
 6681SOL     OW20941   3.369   5.713   1.096
 6681SOL    HW120942   3.312   5.721   1.015
 6681SOL    HW220943   3.369   5.800   1.145
 6682SOL     OW20944   2.503   4.721   6.471
 6682SOL    HW120945   2.451   4.797   6.509
 6682SOL    HW220946   2.484   4.713   6.374
 6683SOL     OW20947   0.135   6.315   6.623
 6683SOL    HW120948   0.133   6.415   6.617
 6683SOL    HW220949   0.086   6.276   6.545
 6684SOL     OW20950   2.869   0.068   6.030
 6684SOL    HW120951   2.837   6.994   6.048
 6684SOL    HW220952   2.964   0.077   6.060
 6685SOL     OW20953   3.839   3.001   0.927
 6685SOL    HW120954   3.826   3.006   1.026
 6685SOL    HW220955   3.756   3.032   0.881
 6686SOL     OW20956   4.762   4.286   5.315
 6686SOL    HW120957   4.673   4.296   5.269
 6686SOL    HW220958   4.748   4.245   5.405
 6687SOL     OW20959   6.901   2.444   0.915
 6687SOL    HW120960   6.998   2.467   0.930
 6687SOL    HW220961   6.871   2.380   0.986
 6688SOL     OW20962   5.732   5.758   0.625
 6688SOL    HW120963   5.792   5.797   0.555
 6688SOL    HW220964   5.677   5.685   0.585
 6689SOL     OW20965   3.284   4.774   5.952
 6689SOL    HW120966   3.350   4.842   5.920
 6689SOL    HW220967   3.280   4.775   6.051
 6690SOL     OW20968   1.145   0.246   0.089
 6690SOL    HW120969   1.083   0.183   0.135
 6690SOL    HW220970   1.206   0.196   0.028
 6691SOL     OW20971   2.233   1.668   2.138
 6691SOL    HW120972   2.149   1.717   2.160
 6691SOL    HW220973   2.295   1.672   2.216
 6692SOL     OW20974   3.957   6.446   1.961
 6692SOL    HW120975   3.970   6.403   1.872
 6692SOL    HW220976   3.910   6.534   1.948
 6693SOL     OW20977   2.611   1.084   6.051
 6693SOL    HW120978   2.694   1.139   6.040
 6693SOL    HW220979   2.560   1.083   5.965
 6694SOL     OW20980   4.483   4.202   1.598
 6694SOL    HW120981   4.460   4.238   1.688
 6694SOL    HW220982   4.430   4.250   1.528
 6695SOL     OW20983   3.143   2.582   6.992
 6695SOL    HW120984   3.062   2.567   0.029
 6695SOL    HW220985   3.161   2.500   6.937
 6696SOL     OW20986   3.431   2.925   5.063
 6696SOL    HW120987   3.401   2.830   5.062
 6696SOL    HW220988   3.460   2.950   5.156
 6697SOL     OW20989   5.038   1.055   2.635
 6697SOL    HW120990   5.028   1.088   2.728
 6697SOL    HW220991   4.948   1.039   2.595
 6698SOL     OW20992   2.917   3.967   1.296
 6698SOL    HW120993   2.970   3.886   1.320
 6698SOL    HW220994   2.939   4.042   1.357
 6699SOL     OW20995   1.567   3.511   6.625
 6699SOL    HW120996   1.486   3.467   6.664
 6699SOL    HW220997   1.643   3.447   6.625
 6700SOL     OW20998   5.186   0.323   1.324
 6700SOL    HW120999   5.256   0.328   1.396
 6700SOL    HW221000   5.190   0.405   1.267
 6701SOL     OW21001   6.347   6.718   1.553
 6701SOL    HW121002   6.305   6.637   1.513
 6701SOL    HW221003   6.415   6.755   1.490
 6702SOL     OW21004   4.951   2.639   1.100
 6702SOL    HW121005   4.859   2.678   1.099
 6702SOL    HW221006   5.013   2.696   1.047
 6703SOL     OW21007   0.310   1.284   0.782
 6703SOL    HW121008   0.373   1.354   0.750
 6703SOL    HW221009   0.307   1.285   0.882
 6704SOL     OW21010   2.464   6.156   6.534
 6704SOL    HW121011   2.482   6.067   6.491
 6704SOL    HW221012   2.503   6.229   6.478
 6705SOL     OW21013   1.085   4.344   2.566
 6705SOL    HW121014   1.110   4.411   2.636
 6705SOL    HW221015   1.027   4.387   2.497
 6706SOL     OW21016   0.378   5.798   1.155
 6706SOL    HW121017   0.306   5.765   1.093
 6706SOL    HW221018   0.341   5.867   1.216
 6707SOL     OW21019   5.171   0.779   2.786
 6707SOL    HW121020   5.260   0.812   2.819
 6707SOL    HW221021   5.178   0.758   2.688
 6708SOL     OW21022   0.934   3.383   0.709
 6708SOL    HW121023   0.879   3.364   0.628
 6708SOL    HW221024   0.882   3.438   0.774
 6709SOL     OW21025   1.908   4.314   1.730
 6709SOL    HW121026   1.889   4.297   1.827
 6709SOL    HW221027   2.000   4.281   1.707
 6710SOL     OW21028   4.555   2.075   2.016
 6710SOL    HW121029   4.455   2.081   2.020
 6710SOL    HW221030   4.592   2.159   1.978
 6711SOL     OW21031   4.470   5.512   6.302
 6711SOL    HW121032   4.493   5.607   6.282
 6711SOL    HW221033   4.421   5.507   6.389
 6712SOL     OW21034   5.587   3.822   1.037
 6712SOL    HW121035   5.645   3.900   1.063
 6712SOL    HW221036   5.547   3.839   0.947
 6713SOL     OW21037   2.196   4.719   4.174
 6713SOL    HW121038   2.124   4.683   4.233
 6713SOL    HW221039   2.235   4.644   4.119
 6714SOL     OW21040   6.065   1.237   2.443
 6714SOL    HW121041   6.009   1.319   2.455
 6714SOL    HW221042   6.020   1.159   2.486
 6715SOL     OW21043   1.137   0.047   5.795
 6715SOL    HW121044   1.109   0.127   5.742
 6715SOL    HW221045   1.210   0.073   5.858
 6716SOL     OW21046   1.591   4.320   1.876
 6716SOL    HW121047   1.608   4.340   1.779
 6716SOL    HW221048   1.505   4.363   1.904
 6717SOL     OW21049   6.274   2.148   5.117
 6717SOL    HW121050   6.339   2.224   5.112
 6717SOL    HW221051   6.214   2.150   5.037
 6718SOL     OW21052   4.513   2.148   0.926
 6718SOL    HW121053   4.446   2.210   0.968
 6718SOL    HW221054   4.590   2.136   0.988
 6719SOL     OW21055   1.473   0.712   0.545
 6719SOL    HW121056   1.504   0.764   0.465
 6719SOL    HW221057   1.478   0.770   0.627
 6720SOL     OW21058   1.448   1.537   4.145
 6720SOL    HW121059   1.458   1.576   4.237
 6720SOL    HW221060   1.522   1.473   4.127
 6721SOL     OW21061   6.134   6.459   0.349
 6721SOL    HW121062   6.153   6.526   0.421
 6721SOL    HW221063   6.206   6.389   0.348
 6722SOL     OW21064   6.292   4.071   1.363
 6722SOL    HW121065   6.291   4.075   1.463
 6722SOL    HW221066   6.372   4.019   1.333
 6723SOL     OW21067   2.149   3.249   4.453
 6723SOL    HW121068   2.052   3.230   4.437
 6723SOL    HW221069   2.204   3.172   4.422
 6724SOL     OW21070   1.993   3.208   5.492
 6724SOL    HW121071   1.932   3.288   5.493
 6724SOL    HW221072   2.007   3.178   5.398
 6725SOL     OW21073   4.643   2.672   3.383
 6725SOL    HW121074   4.665   2.768   3.400
 6725SOL    HW221075   4.727   2.621   3.364
 6726SOL     OW21076   6.763   1.323   0.080
 6726SOL    HW121077   6.779   1.232   0.119
 6726SOL    HW221078   6.714   1.379   0.147
 6727SOL     OW21079   0.937   5.481   5.574
 6727SOL    HW121080   0.986   5.559   5.612
 6727SOL    HW221081   0.997   5.402   5.572
 6728SOL     OW21082   3.627   1.687   5.146
 6728SOL    HW121083   3.656   1.617   5.212
 6728SOL    HW221084   3.658   1.777   5.178
 6729SOL     OW21085   4.174   1.454   2.817
 6729SOL    HW121086   4.100   1.449   2.750
 6729SOL    HW221087   4.240   1.381   2.798
 6730SOL     OW21088   0.560   1.724   1.440
 6730SOL    HW121089   0.548   1.625   1.430
 6730SOL    HW221090   0.472   1.770   1.429
 6731SOL     OW21091   3.887   0.230   6.223
 6731SOL    HW121092   3.985   0.212   6.223
 6731SOL    HW221093   3.849   0.209   6.314
 6732SOL     OW21094   6.054   4.932   5.957
 6732SOL    HW121095   6.124   4.998   5.985
 6732SOL    HW221096   5.977   4.982   5.916
 6733SOL     OW21097   5.169   4.836   5.642
 6733SOL    HW121098   5.105   4.912   5.633
 6733SOL    HW221099   5.124   4.751   5.615
 6734SOL     OW21100   5.548   2.071   5.508
 6734SOL    HW121101   5.546   2.048   5.410
 6734SOL    HW221102   5.636   2.113   5.530
 6735SOL     OW21103   5.765   2.824   4.749
 6735SOL    HW121104   5.688   2.848   4.689
 6735SOL    HW221105   5.807   2.739   4.717
 6736SOL     OW21106   3.889   3.531   0.699
 6736SOL    HW121107   3.793   3.506   0.686
 6736SOL    HW221108   3.901   3.629   0.685
 6737SOL     OW21109   6.012   3.117   1.315
 6737SOL    HW121110   6.097   3.169   1.319
 6737SOL    HW221111   6.013   3.045   1.385
 6738SOL     OW21112   2.106   0.052   3.593
 6738SOL    HW121113   2.168   0.022   3.666
 6738SOL    HW221114   2.018   0.007   3.603
 6739SOL     OW21115   0.573   0.174   5.736
 6739SOL    HW121116   0.534   0.082   5.747
 6739SOL    HW221117   0.647   0.186   5.802
 6740SOL     OW21118   0.731   6.896   1.935
 6740SOL    HW121119   0.658   6.912   1.870
 6740SOL    HW221120   0.726   6.964   2.009
 6741SOL     OW21121   3.060   2.185   0.266
 6741SOL    HW121122   3.054   2.174   0.366
 6741SOL    HW221123   2.979   2.233   0.233
 6742SOL     OW21124   6.490   5.071   2.170
 6742SOL    HW121125   6.569   5.077   2.109
 6742SOL    HW221126   6.518   5.032   2.258
 6743SOL     OW21127   3.571   3.998   6.774
 6743SOL    HW121128   3.613   4.047   6.697
 6743SOL    HW221129   3.488   3.951   6.742
 6744SOL     OW21130   6.875   6.244   5.779
 6744SOL    HW121131   6.835   6.335   5.772
 6744SOL    HW221132   6.956   6.239   5.721
 6745SOL     OW21133   5.442   3.069   5.337
 6745SOL    HW121134   5.421   2.971   5.331
 6745SOL    HW221135   5.357   3.121   5.337
 6746SOL     OW21136   1.584   2.459   3.066
 6746SOL    HW121137   1.641   2.487   3.143
 6746SOL    HW221138   1.586   2.360   3.057
 6747SOL     OW21139   1.164   6.058   5.336
 6747SOL    HW121140   1.147   6.155   5.317
 6747SOL    HW221141   1.253   6.032   5.299
 6748SOL     OW21142   1.720   2.175   4.423
 6748SOL    HW121143   1.774   2.094   4.446
 6748SOL    HW221144   1.749   2.252   4.480
 6749SOL     OW21145   3.898   5.037   2.667
 6749SOL    HW121146   3.928   4.976   2.595
 6749SOL    HW221147   3.851   5.116   2.627
 6750SOL     OW21148   4.094   0.344   5.772
 6750SOL    HW121149   4.118   0.250   5.750
 6750SOL    HW221150   4.142   0.406   5.709
 6751SOL     OW21151   3.849   0.945   4.157
 6751SOL    HW121152   3.770   1.003   4.173
 6751SOL    HW221153   3.933   0.998   4.172
 6752SOL     OW21154   2.302   5.261   3.178
 6752SOL    HW121155   2.399   5.262   3.204
 6752SOL    HW221156   2.276   5.170   3.146
 6753SOL     OW21157   3.345   4.553   6.764
 6753SOL    HW121158   3.367   4.648   6.786
 6753SOL    HW221159   3.280   4.550   6.688
 6754SOL     OW21160   6.190   0.638   0.421
 6754SOL    HW121161   6.111   0.583   0.393
 6754SOL    HW221162   6.173   0.734   0.398
 6755SOL     OW21163   3.416   5.498   5.568
 6755SOL    HW121164   3.427   5.594   5.543
 6755SOL    HW221165   3.338   5.487   5.629
 6756SOL     OW21166   4.280   3.362   5.337
 6756SOL    HW121167   4.374   3.385   5.309
 6756SOL    HW221168   4.219   3.369   5.258
 6757SOL     OW21169   3.964   6.919   1.759
 6757SOL    HW121170   4.061   6.899   1.743
 6757SOL    HW221171   3.945   7.013   1.733
 6758SOL     OW21172   5.060   2.720   2.920
 6758SOL    HW121173   5.052   2.767   2.832
 6758SOL    HW221174   4.985   2.655   2.931
 6759SOL     OW21175   1.505   2.594   2.211
 6759SOL    HW121176   1.444   2.667   2.244
 6759SOL    HW221177   1.570   2.633   2.146
 6760SOL     OW21178   4.873   1.732   5.778
 6760SOL    HW121179   4.856   1.764   5.871
 6760SOL    HW221180   4.948   1.786   5.737
 6761SOL     OW21181   2.534   0.625   4.961
 6761SOL    HW121182   2.577   0.715   4.970
 6761SOL    HW221183   2.597   0.555   4.993
 6762SOL     OW21184   5.376   5.095   4.488
 6762SOL    HW121185   5.321   5.106   4.571
 6762SOL    HW221186   5.315   5.079   4.410
 6763SOL     OW21187   5.755   5.802   3.556
 6763SOL    HW121188   5.773   5.707   3.533
 6763SOL    HW221189   5.696   5.807   3.636
 6764SOL     OW21190   1.129   4.735   1.942
 6764SOL    HW121191   1.148   4.740   1.844
 6764SOL    HW221192   1.138   4.640   1.972
 6765SOL     OW21193   6.875   4.392   3.315
 6765SOL    HW121194   6.825   4.453   3.253
 6765SOL    HW221195   6.877   4.300   3.277
 6766SOL     OW21196   6.298   0.189   1.282
 6766SOL    HW121197   6.263   0.207   1.190
 6766SOL    HW221198   6.352   0.268   1.314
 6767SOL     OW21199   3.210   0.348   1.440
 6767SOL    HW121200   3.243   0.304   1.523
 6767SOL    HW221201   3.284   0.401   1.399
 6768SOL     OW21202   1.685   0.084   6.636
 6768SOL    HW121203   1.653   0.178   6.641
 6768SOL    HW221204   1.783   0.081   6.655
 6769SOL     OW21205   5.292   3.158   1.215
 6769SOL    HW121206   5.335   3.068   1.209
 6769SOL    HW221207   5.270   3.178   1.311
 6770SOL     OW21208   0.334   1.750   1.705
 6770SOL    HW121209   0.417   1.775   1.754
 6770SOL    HW221210   0.344   1.771   1.608
 6771SOL     OW21211   4.862   1.325   3.395
 6771SOL    HW121212   4.863   1.369   3.305
 6771SOL    HW221213   4.784   1.359   3.448
 6772SOL     OW21214   3.353   1.140   5.183
 6772SOL    HW121215   3.294   1.126   5.104
 6772SOL    HW221216   3.437   1.087   5.173
 6773SOL     OW21217   6.913   3.867   1.942
 6773SOL    HW121218   6.903   3.964   1.919
 6773SOL    HW221219   6.870   3.811   1.871
 6774SOL     OW21220   1.492   2.111   5.948
 6774SOL    HW121221   1.471   2.065   6.034
 6774SOL    HW221222   1.503   2.043   5.875
 6775SOL     OW21223   0.418   3.434   0.588
 6775SOL    HW121224   0.472   3.437   0.673
 6775SOL    HW221225   0.472   3.390   0.516
 6776SOL     OW21226   5.901   5.951   6.684
 6776SOL    HW121227   5.930   5.864   6.724
 6776SOL    HW221228   5.801   5.953   6.679
 6777SOL     OW21229   4.276   4.666   0.061
 6777SOL    HW121230   4.224   4.752   0.068
 6777SOL    HW221231   4.361   4.683   0.011
 6778SOL     OW21232   6.293   5.566   3.191
 6778SOL    HW121233   6.241   5.488   3.225
 6778SOL    HW221234   6.230   5.640   3.168
 6779SOL     OW21235   5.575   3.058   6.575
 6779SOL    HW121236   5.641   3.113   6.524
 6779SOL    HW221237   5.575   2.965   6.538
 6780SOL     OW21238   1.231   3.045   1.508
 6780SOL    HW121239   1.156   2.989   1.473
 6780SOL    HW221240   1.299   3.058   1.436
 6781SOL     OW21241   5.139   4.391   5.665
 6781SOL    HW121242   5.237   4.393   5.648
 6781SOL    HW221243   5.105   4.298   5.652
 6782SOL     OW21244   6.381   1.650   3.740
 6782SOL    HW121245   6.435   1.624   3.660
 6782SOL    HW221246   6.300   1.700   3.711
 6783SOL     OW21247   1.160   5.693   6.393
 6783SOL    HW121248   1.111   5.761   6.448
 6783SOL    HW221249   1.099   5.617   6.373
 6784SOL     OW21250   4.476   3.613   0.392
 6784SOL    HW121251   4.522   3.652   0.472
 6784SOL    HW221252   4.526   3.639   0.309
 6785SOL     OW21253   5.591   5.626   1.767
 6785SOL    HW121254   5.512   5.565   1.762
 6785SOL    HW221255   5.625   5.628   1.862
 6786SOL     OW21256   1.568   3.610   5.264
 6786SOL    HW121257   1.587   3.620   5.362
 6786SOL    HW221258   1.651   3.630   5.212
 6787SOL     OW21259   1.055   4.084   1.654
 6787SOL    HW121260   1.123   4.155   1.633
 6787SOL    HW221261   1.044   4.076   1.753
 6788SOL     OW21262   2.625   3.972   1.106
 6788SOL    HW121263   2.650   3.920   1.188
 6788SOL    HW221264   2.632   3.913   1.025
 6789SOL     OW21265   1.882   4.493   3.084
 6789SOL    HW121266   1.799   4.519   3.033
 6789SOL    HW221267   1.860   4.418   3.147
 6790SOL     OW21268   1.388   3.220   0.473
 6790SOL    HW121269   1.347   3.128   0.479
 6790SOL    HW221270   1.395   3.246   0.376
 6791SOL     OW21271   3.850   4.247   5.883
 6791SOL    HW121272   3.858   4.200   5.971
 6791SOL    HW221273   3.887   4.189   5.810
 6792SOL     OW21274   0.521   5.121   0.701
 6792SOL    HW121275   0.467   5.079   0.774
 6792SOL    HW221276   0.465   5.129   0.618
 6793SOL     OW21277   5.444   1.004   0.771
 6793SOL    HW121278   5.522   1.039   0.719
 6793SOL    HW221279   5.420   1.069   0.844
 6794SOL     OW21280   3.329   1.432   4.880
 6794SOL    HW121281   3.382   1.504   4.925
 6794SOL    HW221282   3.240   1.423   4.925
 6795SOL     OW21283   3.638   5.745   0.014
 6795SOL    HW121284   3.630   5.705   6.942
 6795SOL    HW221285   3.674   5.838   0.007
 6796SOL     OW21286   4.403   1.991   2.400
 6796SOL    HW121287   4.385   1.943   2.315
 6796SOL    HW221288   4.332   1.969   2.467
 6797SOL     OW21289   6.452   2.476   2.645
 6797SOL    HW121290   6.490   2.535   2.574
 6797SOL    HW221291   6.390   2.410   2.604
 6798SOL     OW21292   6.196   0.128   2.358
 6798SOL    HW121293   6.196   0.100   2.454
 6798SOL    HW221294   6.211   0.048   2.300
 6799SOL     OW21295   5.132   6.265   2.210
 6799SOL    HW121296   5.045   6.221   2.232
 6799SOL    HW221297   5.207   6.212   2.249
 6800SOL     OW21298   3.523   3.820   6.494
 6800SOL    HW121299   3.457   3.848   6.564
 6800SOL    HW221300   3.518   3.721   6.482
 6801SOL     OW21301   0.544   3.215   3.216
 6801SOL    HW121302   0.546   3.235   3.118
 6801SOL    HW221303   0.615   3.149   3.238
 6802SOL     OW21304   3.156   4.917   2.610
 6802SOL    HW121305   3.075   4.882   2.657
 6802SOL    HW221306   3.145   4.905   2.511
 6803SOL     OW21307   4.119   2.256   0.490
 6803SOL    HW121308   4.139   2.278   0.394
 6803SOL    HW221309   4.205   2.239   0.538
 6804SOL     OW21310   1.559   6.001   3.817
 6804SOL    HW121311   1.584   6.052   3.899
 6804SOL    HW221312   1.486   6.050   3.769
 6805SOL     OW21313   5.854   1.361   5.859
 6805SOL    HW121314   5.877   1.392   5.767
 6805SOL    HW221315   5.833   1.264   5.857
 6806SOL     OW21316   4.889   6.507   5.270
 6806SOL    HW121317   4.975   6.482   5.227
 6806SOL    HW221318   4.814   6.493   5.205
 6807SOL     OW21319   3.966   3.677   6.821
 6807SOL    HW121320   3.921   3.645   6.905
 6807SOL    HW221321   3.899   3.724   6.763
 6808SOL     OW21322   2.291   4.381   4.336
 6808SOL    HW121323   2.205   4.391   4.386
 6808SOL    HW221324   2.276   4.408   4.240
 6809SOL     OW21325   1.480   3.549   6.955
 6809SOL    HW121326   1.426   3.563   6.872
 6809SOL    HW221327   1.453   3.616   0.005
 6810SOL     OW21328   5.836   1.141   3.910
 6810SOL    HW121329   5.835   1.184   4.000
 6810SOL    HW221330   5.928   1.144   3.872
 6811SOL     OW21331   5.284   6.332   2.000
 6811SOL    HW121332   5.357   6.264   1.990
 6811SOL    HW221333   5.226   6.307   2.077
 6812SOL     OW21334   3.347   2.915   2.736
 6812SOL    HW121335   3.446   2.929   2.743
 6812SOL    HW221336   3.303   2.946   2.819
 6813SOL     OW21337   5.151   3.742   1.148
 6813SOL    HW121338   5.064   3.703   1.176
 6813SOL    HW221339   5.136   3.831   1.105
 6814SOL     OW21340   2.147   2.670   0.740
 6814SOL    HW121341   2.200   2.597   0.696
 6814SOL    HW221342   2.202   2.753   0.743
 6815SOL     OW21343   1.706   0.337   0.675
 6815SOL    HW121344   1.698   0.258   0.615
 6815SOL    HW221345   1.615   0.369   0.702
 6816SOL     OW21346   5.030   4.713   1.563
 6816SOL    HW121347   5.090   4.715   1.643
 6816SOL    HW221348   4.936   4.693   1.593
 6817SOL     OW21349   1.306   2.934   6.216
 6817SOL    HW121350   1.326   2.931   6.314
 6817SOL    HW221351   1.228   2.875   6.196
 6818SOL     OW21352   3.838   5.222   1.453
 6818SOL    HW121353   3.823   5.162   1.532
 6818SOL    HW221354   3.854   5.167   1.372
 6819SOL     OW21355   2.434   1.595   3.697
 6819SOL    HW121356   2.452   1.498   3.717
 6819SOL    HW221357   2.512   1.649   3.727
 6820SOL     OW21358   1.800   5.089   4.873
 6820SOL    HW121359   1.754   5.103   4.785
 6820SOL    HW221360   1.857   5.169   4.894
 6821SOL     OW21361   2.184   3.220   3.772
 6821SOL    HW121362   2.215   3.172   3.854
 6821SOL    HW221363   2.144   3.308   3.798
 6822SOL     OW21364   5.188   1.358   5.560
 6822SOL    HW121365   5.113   1.424   5.563
 6822SOL    HW221366   5.153   1.269   5.530
 6823SOL     OW21367   4.182   3.460   2.015
 6823SOL    HW121368   4.192   3.401   1.935
 6823SOL    HW221369   4.147   3.549   1.987
 6824SOL     OW21370   0.469   5.605   5.094
 6824SOL    HW121371   0.409   5.677   5.128
 6824SOL    HW221372   0.416   5.520   5.083
 6825SOL     OW21373   5.459   0.344   4.508
 6825SOL    HW121374   5.387   0.326   4.575
 6825SOL    HW221375   5.534   0.279   4.520
 6826SOL     OW21376   1.134   2.920   3.289
 6826SOL    HW121377   1.207   2.984   3.314
 6826SOL    HW221378   1.120   2.855   3.363
 6827SOL     OW21379   4.258   5.424   5.316
 6827SOL    HW121380   4.303   5.454   5.232
 6827SOL    HW221381   4.326   5.390   5.381
 6828SOL     OW21382   2.369   1.919   1.310
 6828SOL    HW121383   2.277   1.946   1.337
 6828SOL    HW221384   2.414   1.873   1.387
 6829SOL     OW21385   5.625   4.961   3.689
 6829SOL    HW121386   5.666   4.975   3.780
 6829SOL    HW221387   5.613   4.864   3.672
 6830SOL     OW21388   5.285   1.615   3.669
 6830SOL    HW121389   5.244   1.524   3.676
 6830SOL    HW221390   5.384   1.608   3.676
 6831SOL     OW21391   0.312   1.717   5.919
 6831SOL    HW121392   0.385   1.686   5.857
 6831SOL    HW221393   0.225   1.680   5.888
 6832SOL     OW21394   3.020   4.863   1.057
 6832SOL    HW121395   3.074   4.842   1.139
 6832SOL    HW221396   3.007   4.779   1.004
 6833SOL     OW21397   4.034   6.262   0.561
 6833SOL    HW121398   4.062   6.324   0.488
 6833SOL    HW221399   3.936   6.246   0.556
 6834SOL     OW21400   2.461   5.030   2.587
 6834SOL    HW121401   2.387   5.058   2.648
 6834SOL    HW221402   2.499   4.943   2.619
 6835SOL     OW21403   3.630   7.007   4.697
 6835SOL    HW121404   3.723   6.972   4.701
 6835SOL    HW221405   3.566   6.931   4.686
 6836SOL     OW21406   3.700   5.535   0.185
 6836SOL    HW121407   3.620   5.509   0.239
 6836SOL    HW221408   3.671   5.601   0.115
 6837SOL     OW21409   0.533   3.249   2.943
 6837SOL    HW121410   0.628   3.224   2.922
 6837SOL    HW221411   0.472   3.202   2.879
 6838SOL     OW21412   2.739   1.824   1.075
 6838SOL    HW121413   2.720   1.920   1.097
 6838SOL    HW221414   2.707   1.804   0.983
 6839SOL     OW21415   3.579   1.042   1.933
 6839SOL    HW121416   3.632   0.975   1.984
 6839SOL    HW221417   3.556   1.119   1.993
 6840SOL     OW21418   1.011   1.042   6.025
 6840SOL    HW121419   1.110   1.052   6.026
 6840SOL    HW221420   0.970   1.121   5.980
 6841SOL     OW21421   0.190   3.206   5.784
 6841SOL    HW121422   0.254   3.209   5.861
 6841SOL    HW221423   0.130   3.126   5.794
 6842SOL     OW21424   2.728   4.736   2.503
 6842SOL    HW121425   2.810   4.742   2.446
 6842SOL    HW221426   2.647   4.742   2.445
 6843SOL     OW21427   4.467   0.158   1.303
 6843SOL    HW121428   4.403   0.173   1.378
 6843SOL    HW221429   4.445   0.220   1.228
 6844SOL     OW21430   5.638   0.484   5.666
 6844SOL    HW121431   5.654   0.419   5.592
 6844SOL    HW221432   5.724   0.502   5.714
 6845SOL     OW21433   5.314   2.052   2.617
 6845SOL    HW121434   5.383   2.069   2.687
 6845SOL    HW221435   5.344   2.090   2.530
 6846SOL     OW21436   2.159   3.410   0.174
 6846SOL    HW121437   2.237   3.355   0.203
 6846SOL    HW221438   2.094   3.352   0.124
 6847SOL     OW21439   7.001   2.313   3.619
 6847SOL    HW121440   6.917   2.329   3.670
 6847SOL    HW221441   6.982   2.317   3.521
 6848SOL     OW21442   6.852   5.065   4.188
 6848SOL    HW121443   6.813   5.119   4.114
 6848SOL    HW221444   6.877   4.974   4.153
 6849SOL     OW21445   2.992   4.035   5.410
 6849SOL    HW121446   2.902   4.023   5.368
 6849SOL    HW221447   3.011   4.132   5.422
 6850SOL     OW21448   5.173   0.156   4.424
 6850SOL    HW121449   5.199   0.214   4.501
 6850SOL    HW221450   5.253   0.140   4.366
 6851SOL     OW21451   1.878   4.260   3.224
 6851SOL    HW121452   1.870   4.199   3.145
 6851SOL    HW221453   1.964   4.241   3.272
 6852SOL     OW21454   4.548   3.389   0.581
 6852SOL    HW121455   4.488   3.383   0.661
 6852SOL    HW221456   4.508   3.454   0.516
 6853SOL     OW21457   4.274   4.883   5.912
 6853SOL    HW121458   4.274   4.948   5.989
 6853SOL    HW221459   4.203   4.815   5.927
 6854SOL     OW21460   5.205   6.289   5.103
 6854SOL    HW121461   5.237   6.372   5.055
 6854SOL    HW221462   5.227   6.296   5.200
 6855SOL     OW21463   3.596   5.332   3.009
 6855SOL    HW121464   3.682   5.295   3.045
 6855SOL    HW221465   3.587   5.428   3.036
 6856SOL     OW21466   6.444   2.359   0.733
 6856SOL    HW121467   6.492   2.436   0.690
 6856SOL    HW221468   6.363   2.337   0.680
 6857SOL     OW21469   1.824   4.801   5.988
 6857SOL    HW121470   1.892   4.756   6.046
 6857SOL    HW221471   1.857   4.804   5.894
 6858SOL     OW21472   1.143   3.793   1.576
 6858SOL    HW121473   1.217   3.726   1.562
 6858SOL    HW221474   1.182   3.885   1.576
 6859SOL     OW21475   2.422   2.176   1.205
 6859SOL    HW121476   2.434   2.079   1.228
 6859SOL    HW221477   2.339   2.210   1.250
 6860SOL     OW21478   0.084   6.938   0.065
 6860SOL    HW121479   0.092   0.018   0.065
 6860SOL    HW221480   0.143   6.899   7.014
 6861SOL     OW21481   6.575   3.228   6.864
 6861SOL    HW121482   6.650   3.224   6.798
 6861SOL    HW221483   6.528   3.316   6.857
 6862SOL     OW21484   0.593   4.413   3.286
 6862SOL    HW121485   0.530   4.466   3.228
 6862SOL    HW221486   0.571   4.316   3.278
 6863SOL     OW21487   5.054   1.128   5.490
 6863SOL    HW121488   5.048   1.095   5.584
 6863SOL    HW221489   4.969   1.108   5.443
 6864SOL     OW21490   1.912   3.404   6.437
 6864SOL    HW121491   1.907   3.398   6.537
 6864SOL    HW221492   1.940   3.315   6.401
 6865SOL     OW21493   1.813   0.653   3.514
 6865SOL    HW121494   1.767   0.578   3.466
 6865SOL    HW221495   1.754   0.688   3.586
 6866SOL     OW21496   2.294   4.806   0.057
 6866SOL    HW121497   2.205   4.850   0.046
 6866SOL    HW221498   2.312   4.790   0.154
 6867SOL     OW21499   2.446   2.786   6.219
 6867SOL    HW121500   2.380   2.828   6.157
 6867SOL    HW221501   2.396   2.739   6.293
 6868SOL     OW21502   3.758   4.935   3.064
 6868SOL    HW121503   3.682   4.933   3.128
 6868SOL    HW221504   3.732   4.887   2.980
 6869SOL     OW21505   1.589   0.527   5.646
 6869SOL    HW121506   1.662   0.587   5.613
 6869SOL    HW221507   1.536   0.575   5.716
 6870SOL     OW21508   5.419   2.778   6.724
 6870SOL    HW121509   5.456   2.685   6.728
 6870SOL    HW221510   5.460   2.827   6.647
 6871SOL     OW21511   6.163   2.178   2.759
 6871SOL    HW121512   6.138   2.136   2.847
 6871SOL    HW221513   6.195   2.271   2.775
 6872SOL     OW21514   1.583   5.073   0.863
 6872SOL    HW121515   1.671   5.096   0.821
 6872SOL    HW221516   1.580   4.975   0.882
 6873SOL     OW21517   0.571   4.114   2.319
 6873SOL    HW121518   0.485   4.159   2.343
 6873SOL    HW221519   0.552   4.032   2.265
 6874SOL     OW21520   4.073   5.765   1.590
 6874SOL    HW121521   4.097   5.824   1.512
 6874SOL    HW221522   3.987   5.796   1.630
 6875SOL     OW21523   2.647   1.482   6.721
 6875SOL    HW121524   2.570   1.505   6.663
 6875SOL    HW221525   2.640   1.531   6.808
 6876SOL     OW21526   5.894   5.083   3.644
 6876SOL    HW121527   5.802   5.045   3.645
 6876SOL    HW221528   5.890   5.183   3.642
 6877SOL     OW21529   0.643   4.345   1.545
 6877SOL    HW121530   0.691   4.409   1.605
 6877SOL    HW221531   0.650   4.376   1.450
 6878SOL     OW21532   2.018   0.934   3.916
 6878SOL    HW121533   2.038   0.836   3.915
 6878SOL    HW221534   1.951   0.953   3.988
 6879SOL     OW21535   1.005   1.624   1.533
 6879SOL    HW121536   1.065   1.586   1.462
 6879SOL    HW221537   0.920   1.571   1.536
 6880SOL     OW21538   1.906   6.467   0.337
 6880SOL    HW121539   1.888   6.465   0.239
 6880SOL    HW221540   1.980   6.403   0.358
 6881SOL     OW21541   6.916   3.736   0.744
 6881SOL    HW121542   6.972   3.653   0.736
 6881SOL    HW221543   6.976   3.816   0.744
 6882SOL     OW21544   2.887   6.608   0.384
 6882SOL    HW121545   2.795   6.638   0.358
 6882SOL    HW221546   2.900   6.624   0.482
 6883SOL     OW21547   4.599   6.957   0.986
 6883SOL    HW121548   4.651   6.903   0.920
 6883SOL    HW221549   4.637   6.942   1.078
 6884SOL     OW21550   0.985   4.834   3.169
 6884SOL    HW121551   0.924   4.865   3.242
 6884SOL    HW221552   1.032   4.751   3.197
 6885SOL     OW21553   6.030   4.703   4.273
 6885SOL    HW121554   5.970   4.624   4.282
 6885SOL    HW221555   6.120   4.681   4.312
 6886SOL     OW21556   5.481   3.877   0.778
 6886SOL    HW121557   5.404   3.921   0.732
 6886SOL    HW221558   5.562   3.881   0.720
 6887SOL     OW21559   5.203   6.472   5.611
 6887SOL    HW121560   5.123   6.522   5.578
 6887SOL    HW221561   5.257   6.531   5.671
 6888SOL     OW21562   6.278   4.356   0.786
 6888SOL    HW121563   6.245   4.265   0.763
 6888SOL    HW221564   6.298   4.361   0.884
 6889SOL     OW21565   0.297   2.716   5.444
 6889SOL    HW121566   0.218   2.674   5.488
 6889SOL    HW221567   0.289   2.816   5.449
 6890SOL     OW21568   4.923   4.523   4.125
 6890SOL    HW121569   4.900   4.563   4.036
 6890SOL    HW221570   4.843   4.478   4.163
 6891SOL     OW21571   1.515   1.727   1.073
 6891SOL    HW121572   1.428   1.701   1.032
 6891SOL    HW221573   1.572   1.774   1.005
 6892SOL     OW21574   1.605   0.839   5.148
 6892SOL    HW121575   1.621   0.763   5.086
 6892SOL    HW221576   1.526   0.892   5.116
 6893SOL     OW21577   5.871   3.149   0.542
 6893SOL    HW121578   5.955   3.187   0.505
 6893SOL    HW221579   5.795   3.171   0.481
 6894SOL     OW21580   5.556   5.314   6.987
 6894SOL    HW121581   5.486   5.333   6.918
 6894SOL    HW221582   5.572   5.215   6.991
 6895SOL     OW21583   1.508   5.598   2.490
 6895SOL    HW121584   1.488   5.500   2.487
 6895SOL    HW221585   1.422   5.648   2.492
 6896SOL     OW21586   5.359   0.610   6.558
 6896SOL    HW121587   5.320   0.648   6.642
 6896SOL    HW221588   5.402   0.683   6.506
 6897SOL     OW21589   4.360   2.419   4.779
 6897SOL    HW121590   4.311   2.419   4.866
 6897SOL    HW221591   4.424   2.496   4.777
 6898SOL     OW21592   1.917   7.010   1.563
 6898SOL    HW121593   1.817   7.012   1.567
 6898SOL    HW221594   1.953   6.985   1.653
 6899SOL     OW21595   5.146   5.269   2.406
 6899SOL    HW121596   5.180   5.256   2.499
 6899SOL    HW221597   5.224   5.271   2.343
 6900SOL     OW21598   6.879   4.762   4.579
 6900SOL    HW121599   6.781   4.758   4.557
 6900SOL    HW221600   6.890   4.787   4.675
 6901SOL     OW21601   5.450   4.366   6.461
 6901SOL    HW121602   5.424   4.270   6.463
 6901SOL    HW221603   5.485   4.393   6.551
 6902SOL     OW21604   0.132   5.743   5.969
 6902SOL    HW121605   0.116   5.737   6.067
 6902SOL    HW221606   0.065   5.805   5.928
 6903SOL     OW21607   1.256   6.446   5.210
 6903SOL    HW121608   1.242   6.523   5.148
 6903SOL    HW221609   1.311   6.376   5.165
 6904SOL     OW21610   0.616   0.293   6.323
 6904SOL    HW121611   0.530   0.339   6.304
 6904SOL    HW221612   0.689   0.362   6.335
 6905SOL     OW21613   4.728   5.882   5.624
 6905SOL    HW121614   4.729   5.982   5.621
 6905SOL    HW221615   4.669   5.848   5.550
 6906SOL     OW21616   3.326   1.679   3.228
 6906SOL    HW121617   3.266   1.739   3.283
 6906SOL    HW221618   3.394   1.636   3.287
 6907SOL     OW21619   5.899   2.948   0.210
 6907SOL    HW121620   5.907   3.042   0.241
 6907SOL    HW221621   5.956   2.889   0.268
 6908SOL     OW21622   3.749   6.203   0.532
 6908SOL    HW121623   3.734   6.104   0.540
 6908SOL    HW221624   3.717   6.234   0.442
 6909SOL     OW21625   5.578   4.395   2.706
 6909SOL    HW121626   5.625   4.483   2.695
 6909SOL    HW221627   5.625   4.342   2.777
 6910SOL     OW21628   1.676   2.606   1.983
 6910SOL    HW121629   1.732   2.532   1.946
 6910SOL    HW221630   1.725   2.650   2.059
 6911SOL     OW21631   2.475   6.684   4.897
 6911SOL    HW121632   2.416   6.631   4.958
 6911SOL    HW221633   2.492   6.774   4.937
 6912SOL     OW21634   2.451   4.352   6.574
 6912SOL    HW121635   2.524   4.363   6.641
 6912SOL    HW221636   2.483   4.382   6.485
 6913SOL     OW21637   4.147   5.590   5.991
 6913SOL    HW121638   4.164   5.492   6.006
 6913SOL    HW221639   4.221   5.628   5.935
 6914SOL     OW21640   0.582   2.261   2.320
 6914SOL    HW121641   0.663   2.209   2.345
 6914SOL    HW221642   0.605   2.327   2.248
 6915SOL     OW21643   6.934   3.381   4.427
 6915SOL    HW121644   6.848   3.392   4.477
 6915SOL    HW221645   6.996   3.456   4.450
 6916SOL     OW21646   4.714   6.158   5.605
 6916SOL    HW121647   4.620   6.190   5.593
 6916SOL    HW221648   4.775   6.208   5.545
 6917SOL     OW21649   3.966   5.908   2.279
 6917SOL    HW121650   3.939   5.816   2.307
 6917SOL    HW221651   4.064   5.920   2.296
 6918SOL     OW21652   2.075   3.714   0.115
 6918SOL    HW121653   2.066   3.615   0.101
 6918SOL    HW221654   2.165   3.735   0.154
 6919SOL     OW21655   6.326   5.867   3.333
 6919SOL    HW121656   6.275   5.835   3.253
 6919SOL    HW221657   6.267   5.927   3.388
 6920SOL     OW21658   0.406   2.940   5.222
 6920SOL    HW121659   0.368   2.864   5.170
 6920SOL    HW221660   0.474   2.988   5.167
 6921SOL     OW21661   3.310   0.739   4.904
 6921SOL    HW121662   3.349   0.733   4.996
 6921SOL    HW221663   3.259   0.655   4.884
 6922SOL     OW21664   3.164   4.478   6.576
 6922SOL    HW121665   3.148   4.493   6.479
 6922SOL    HW221666   3.076   4.475   6.624
 6923SOL     OW21667   5.255   6.884   3.063
 6923SOL    HW121668   5.277   6.834   3.147
 6923SOL    HW221669   5.248   6.981   3.083
 6924SOL     OW21670   3.002   5.130   1.798
 6924SOL    HW121671   3.078   5.194   1.798
 6924SOL    HW221672   3.031   5.043   1.838
 6925SOL     OW21673   6.562   6.655   4.561
 6925SOL    HW121674   6.647   6.649   4.614
 6925SOL    HW221675   6.527   6.748   4.564
 6926SOL     OW21676   2.993   2.791   0.241
 6926SOL    HW121677   2.948   2.809   0.328
 6926SOL    HW221678   3.078   2.741   0.257
 6927SOL     OW21679   3.113   6.743   5.884
 6927SOL    HW121680   3.152   6.661   5.923
 6927SOL    HW221681   3.178   6.819   5.893
 6928SOL     OW21682   4.334   6.125   0.613
 6928SOL    HW121683   4.335   6.100   0.710
 6928SOL    HW221684   4.299   6.047   0.559
 6929SOL     OW21685   4.645   5.276   3.057
 6929SOL    HW121686   4.624   5.368   3.024
 6929SOL    HW221687   4.625   5.209   2.986
 6930SOL     OW21688   1.085   6.179   2.119
 6930SOL    HW121689   1.023   6.252   2.088
 6930SOL    HW221690   1.141   6.148   2.042
 6931SOL     OW21691   3.571   3.147   0.537
 6931SOL    HW121692   3.612   3.098   0.614
 6931SOL    HW221693   3.561   3.084   0.460
 6932SOL     OW21694   3.913   1.097   6.945
 6932SOL    HW121695   3.895   1.056   6.855
 6932SOL    HW221696   3.872   1.040   7.016
 6933SOL     OW21697   3.800   6.193   5.985
 6933SOL    HW121698   3.836   6.273   5.939
 6933SOL    HW221699   3.803   6.207   6.084
 6934SOL     OW21700   4.806   5.329   0.365
 6934SOL    HW121701   4.867   5.378   0.427
 6934SOL    HW221702   4.814   5.230   0.381
 6935SOL     OW21703   4.127   5.589   2.747
 6935SOL    HW121704   4.056   5.551   2.688
 6935SOL    HW221705   4.205   5.526   2.751
 6936SOL     OW21706   0.950   1.697   6.810
 6936SOL    HW121707   0.901   1.755   6.875
 6936SOL    HW221708   0.981   1.753   6.733
 6937SOL     OW21709   5.825   4.429   0.530
 6937SOL    HW121710   5.786   4.359   0.590
 6937SOL    HW221711   5.818   4.518   0.575
 6938SOL     OW21712   2.921   6.960   5.428
 6938SOL    HW121713   2.822   6.958   5.411
 6938SOL    HW221714   2.948   0.034   5.454
 6939SOL     OW21715   5.577   3.140   3.347
 6939SOL    HW121716   5.517   3.136   3.267
 6939SOL    HW221717   5.599   3.236   3.366
 6940SOL     OW21718   1.382   6.532   1.685
 6940SOL    HW121719   1.350   6.627   1.687
 6940SOL    HW221720   1.458   6.522   1.750
 6941SOL     OW21721   3.345   2.933   2.455
 6941SOL    HW121722   3.326   2.900   2.547
 6941SOL    HW221723   3.438   2.907   2.428
 6942SOL     OW21724   6.990   5.100   2.778
 6942SOL    HW121725   6.981   5.146   2.867
 6942SOL    HW221726   6.977   5.001   2.791
 6943SOL     OW21727   3.149   5.648   5.418
 6943SOL    HW121728   3.066   5.593   5.410
 6943SOL    HW221729   3.145   5.703   5.502
 6944SOL     OW21730   0.623   4.644   5.186
 6944SOL    HW121731   0.534   4.691   5.185
 6944SOL    HW221732   0.656   4.635   5.092
 6945SOL     OW21733   4.178   1.818   0.987
 6945SOL    HW121734   4.149   1.898   1.038
 6945SOL    HW221735   4.102   1.786   0.929
 6946SOL     OW21736   5.346   5.559   3.387
 6946SOL    HW121737   5.246   5.555   3.391
 6946SOL    HW221738   5.378   5.648   3.419
 6947SOL     OW21739   6.449   3.834   5.620
 6947SOL    HW121740   6.384   3.818   5.695
 6947SOL    HW221741   6.416   3.790   5.537
 6948SOL     OW21742   0.086   4.854   6.400
 6948SOL    HW121743   0.101   4.805   6.314
 6948SOL    HW221744   0.137   4.939   6.400
 6949SOL     OW21745   2.378   1.359   3.117
 6949SOL    HW121746   2.468   1.342   3.157
 6949SOL    HW221747   2.353   1.455   3.129
 6950SOL     OW21748   1.902   1.443   4.360
 6950SOL    HW121749   1.949   1.426   4.274
 6950SOL    HW221750   1.891   1.541   4.374
 6951SOL     OW21751   1.134   4.047   0.082
 6951SOL    HW121752   1.159   3.953   0.105
 6951SOL    HW221753   1.087   4.049   7.013
 6952SOL     OW21754   4.185   4.695   3.189
 6952SOL    HW121755   4.124   4.765   3.153
 6952SOL    HW221756   4.135   4.609   3.197
 6953SOL     OW21757   0.724   0.673   1.946
 6953SOL    HW121758   0.654   0.731   1.905
 6953SOL    HW221759   0.733   0.695   2.043
 6954SOL     OW21760   6.644   5.161   6.075
 6954SOL    HW121761   6.611   5.092   6.011
 6954SOL    HW221762   6.665   5.118   6.162
 6955SOL     OW21763   4.212   5.773   2.547
 6955SOL    HW121764   4.312   5.774   2.540
 6955SOL    HW221765   4.180   5.678   2.546
 6956SOL     OW21766   6.046   5.008   2.208
 6956SOL    HW121767   6.100   5.068   2.149
 6956SOL    HW221768   6.082   4.915   2.204
 6957SOL     OW21769   6.085   4.021   5.354
 6957SOL    HW121770   6.120   4.109   5.386
 6957SOL    HW221771   6.156   3.972   5.304
 6958SOL     OW21772   3.467   3.802   1.653
 6958SOL    HW121773   3.418   3.715   1.650
 6958SOL    HW221774   3.410   3.874   1.613
 6959SOL     OW21775   0.786   3.470   2.634
 6959SOL    HW121776   0.692   3.440   2.616
 6959SOL    HW221777   0.849   3.394   2.618
 6960SOL     OW21778   5.532   4.631   1.703
 6960SOL    HW121779   5.469   4.603   1.631
 6960SOL    HW221780   5.599   4.559   1.719
 6961SOL     OW21781   5.177   2.362   4.701
 6961SOL    HW121782   5.191   2.449   4.747
 6961SOL    HW221783   5.085   2.360   4.662
 6962SOL     OW21784   2.341   6.773   0.821
 6962SOL    HW121785   2.316   6.777   0.918
 6962SOL    HW221786   2.280   6.832   0.769
 6963SOL     OW21787   1.002   6.762   7.015
 6963SOL    HW121788   0.961   6.780   0.084
 6963SOL    HW221789   1.088   6.812   7.007
 6964SOL     OW21790   2.297   1.301   5.393
 6964SOL    HW121791   2.319   1.397   5.373
 6964SOL    HW221792   2.351   1.241   5.334
 6965SOL     OW21793   1.879   1.291   6.909
 6965SOL    HW121794   1.977   1.273   6.906
 6965SOL    HW221795   1.842   1.261   6.997
 6966SOL     OW21796   1.604   6.632   0.978
 6966SOL    HW121797   1.633   6.647   0.884
 6966SOL    HW221798   1.564   6.715   1.015
 6967SOL     OW21799   3.901   0.035   6.699
 6967SOL    HW121800   3.863   6.967   6.673
 6967SOL    HW221801   3.828   0.097   6.726
 6968SOL     OW21802   4.140   0.499   2.075
 6968SOL    HW121803   4.080   0.419   2.073
 6968SOL    HW221804   4.156   0.532   1.982
 6969SOL     OW21805   1.365   3.598   3.034
 6969SOL    HW121806   1.411   3.509   3.037
 6969SOL    HW221807   1.337   3.623   3.127
 6970SOL     OW21808   3.530   5.957   6.228
 6970SOL    HW121809   3.515   6.022   6.153
 6970SOL    HW221810   3.517   5.864   6.194
 6971SOL     OW21811   6.867   3.720   0.045
 6971SOL    HW121812   6.803   3.684   6.997
 6971SOL    HW221813   6.960   3.713   0.011
 6972SOL     OW21814   5.833   3.807   1.929
 6972SOL    HW121815   5.819   3.872   2.004
 6972SOL    HW221816   5.924   3.820   1.890
 6973SOL     OW21817   0.970   1.408   2.954
 6973SOL    HW121818   0.985   1.472   3.029
 6973SOL    HW221819   1.040   1.336   2.957
 6974SOL     OW21820   4.100   3.234   2.972
 6974SOL    HW121821   4.068   3.141   2.986
 6974SOL    HW221822   4.094   3.284   3.059
 6975SOL     OW21823   3.146   5.177   4.743
 6975SOL    HW121824   3.167   5.165   4.645
 6975SOL    HW221825   3.151   5.274   4.766
 6976SOL     OW21826   4.977   5.233   5.987
 6976SOL    HW121827   5.019   5.143   5.971
 6976SOL    HW221828   4.941   5.236   6.080
 6977SOL     OW21829   3.992   4.946   2.433
 6977SOL    HW121830   4.052   5.004   2.379
 6977SOL    HW221831   3.923   4.905   2.374
 6978SOL     OW21832   1.240   3.596   1.106
 6978SOL    HW121833   1.183   3.604   1.024
 6978SOL    HW221834   1.261   3.687   1.141
 6979SOL     OW21835   1.266   3.941   2.710
 6979SOL    HW121836   1.274   4.040   2.701
 6979SOL    HW221837   1.185   3.919   2.765
 6980SOL     OW21838   2.544   4.468   3.334
 6980SOL    HW121839   2.484   4.425   3.402
 6980SOL    HW221840   2.564   4.562   3.361
 6981SOL     OW21841   4.041   2.430   6.692
 6981SOL    HW121842   4.135   2.461   6.703
 6981SOL    HW221843   3.999   2.475   6.614
 6982SOL     OW21844   6.542   6.902   1.974
 6982SOL    HW121845   6.553   6.999   1.995
 6982SOL    HW221846   6.617   6.850   2.014
 6983SOL     OW21847   6.780   0.529   4.046
 6983SOL    HW121848   6.802   0.434   4.071
 6983SOL    HW221849   6.752   0.532   3.950
 6984SOL     OW21850   1.710   4.303   3.642
 6984SOL    HW121851   1.665   4.234   3.698
 6984SOL    HW221852   1.715   4.272   3.547
 6985SOL     OW21853   5.363   3.514   1.041
 6985SOL    HW121854   5.270   3.479   1.044
 6985SOL    HW221855   5.417   3.464   0.973
 6986SOL     OW21856   3.747   5.887   5.310
 6986SOL    HW121857   3.674   5.820   5.312
 6986SOL    HW221858   3.835   5.841   5.297
 6987SOL     OW21859   0.189   1.210   6.793
 6987SOL    HW121860   0.122   1.159   6.739
 6987SOL    HW221861   0.230   1.281   6.735
 6988SOL     OW21862   1.621   0.140   5.936
 6988SOL    HW121863   1.680   0.173   5.862
 6988SOL    HW221864   1.594   0.217   5.994
 6989SOL     OW21865   0.887   3.351   1.997
 6989SOL    HW121866   0.971   3.405   1.992
 6989SOL    HW221867   0.909   3.257   2.024
 6990SOL     OW21868   3.805   4.926   6.640
 6990SOL    HW121869   3.843   4.854   6.583
 6990SOL    HW221870   3.757   4.886   6.718
 6991SOL     OW21871   5.025   4.033   3.362
 6991SOL    HW121872   4.962   3.962   3.394
 6991SOL    HW221873   5.029   4.107   3.429
 6992SOL     OW21874   1.995   5.394   6.009
 6992SOL    HW121875   1.929   5.449   5.957
 6992SOL    HW221876   2.066   5.361   5.947
 6993SOL     OW21877   4.295   2.110   1.265
 6993SOL    HW121878   4.375   2.050   1.275
 6993SOL    HW221879   4.325   2.199   1.231
 6994SOL     OW21880   2.881   1.086   2.959
 6994SOL    HW121881   2.881   1.162   3.023
 6994SOL    HW221882   2.849   1.117   2.869
 6995SOL     OW21883   6.995   5.162   0.644
 6995SOL    HW121884   0.053   5.192   0.700
 6995SOL    HW221885   6.913   5.154   0.702
 6996SOL     OW21886   0.954   1.637   6.181
 6996SOL    HW121887   0.879   1.699   6.204
 6996SOL    HW221888   0.965   1.633   6.082
 6997SOL     OW21889   5.874   6.106   5.816
 6997SOL    HW121890   5.935   6.113   5.895
 6997SOL    HW221891   5.877   6.191   5.764
 6998SOL     OW21892   0.514   1.119   0.111
 6998SOL    HW121893   0.507   1.205   0.162
 6998SOL    HW221894   0.558   1.135   0.023
 6999SOL     OW21895   0.270   2.615   0.250
 6999SOL    HW121896   0.198   2.606   0.182
 6999SOL    HW221897   0.241   2.678   0.322
 7000SOL     OW21898   0.684   4.824   3.231
 7000SOL    HW121899   0.600   4.829   3.284
 7000SOL    HW221900   0.733   4.739   3.255
 7001SOL     OW21901   1.292   1.015   4.478
 7001SOL    HW121902   1.372   1.035   4.421
 7001SOL    HW221903   1.209   1.025   4.424
 7002SOL     OW21904   1.251   4.259   3.135
 7002SOL    HW121905   1.343   4.220   3.138
 7002SOL    HW221906   1.254   4.348   3.090
 7003SOL     OW21907   0.484   5.311   6.289
 7003SOL    HW121908   0.548   5.282   6.361
 7003SOL    HW221909   0.394   5.325   6.329
 7004SOL     OW21910   1.258   1.062   6.930
 7004SOL    HW121911   1.343   1.109   6.907
 7004SOL    HW221912   1.272   1.002   7.009
 7005SOL     OW21913   1.700   5.279   6.987
 7005SOL    HW121914   1.638   5.201   6.979
 7005SOL    HW221915   1.677   5.346   6.917
 7006SOL     OW21916   0.409   0.442   3.459
 7006SOL    HW121917   0.377   0.348   3.446
 7006SOL    HW221918   0.371   0.478   3.544
 7007SOL     OW21919   2.141   6.851   6.545
 7007SOL    HW121920   2.151   6.910   6.625
 7007SOL    HW221921   2.154   6.755   6.573
 7008SOL     OW21922   5.786   3.210   2.346
 7008SOL    HW121923   5.737   3.162   2.419
 7008SOL    HW221924   5.813   3.301   2.378
 7009SOL     OW21925   5.336   5.851   2.583
 7009SOL    HW121926   5.347   5.775   2.647
 7009SOL    HW221927   5.266   5.828   2.516
 7010SOL     OW21928   5.247   2.922   3.089
 7010SOL    HW121929   5.199   2.859   3.028
 7010SOL    HW221930   5.268   2.876   3.175
 7011SOL     OW21931   2.318   5.881   6.313
 7011SOL    HW121932   2.262   5.943   6.367
 7011SOL    HW221933   2.287   5.882   6.218
 7012SOL     OW21934   0.114   4.090   0.527
 7012SOL    HW121935   0.031   4.132   0.489
 7012SOL    HW221936   0.133   4.004   0.478
 7013SOL     OW21937   2.744   2.638   6.899
 7013SOL    HW121938   2.716   2.728   6.866
 7013SOL    HW221939   2.673   2.601   6.960
 7014SOL     OW21940   6.772   3.410   0.924
 7014SOL    HW121941   6.723   3.450   1.001
 7014SOL    HW221942   6.709   3.396   0.848
 7015SOL     OW21943   5.795   6.107   1.613
 7015SOL    HW121944   5.727   6.180   1.609
 7015SOL    HW221945   5.855   6.113   1.533
 7016SOL     OW21946   3.262   5.202   0.789
 7016SOL    HW121947   3.212   5.256   0.857
 7016SOL    HW221948   3.348   5.169   0.830
 7017SOL     OW21949   6.230   4.327   6.542
 7017SOL    HW121950   6.264   4.328   6.636
 7017SOL    HW221951   6.290   4.382   6.484
 7018SOL     OW21952   5.987   2.943   4.530
 7018SOL    HW121953   6.066   2.883   4.542
 7018SOL    HW221954   5.953   2.973   4.619
 7019SOL     OW21955   3.390   5.924   2.792
 7019SOL    HW121956   3.390   6.019   2.763
 7019SOL    HW221957   3.304   5.881   2.764
 7020SOL     OW21958   6.876   1.620   0.856
 7020SOL    HW121959   6.917   1.534   0.824
 7020SOL    HW221960   6.805   1.599   0.923
 7021SOL     OW21961   0.688   2.439   4.648
 7021SOL    HW121962   0.776   2.423   4.692
 7021SOL    HW221963   0.683   2.385   4.564
 7022SOL     OW21964   1.848   4.255   0.985
 7022SOL    HW121965   1.895   4.270   0.898
 7022SOL    HW221966   1.891   4.179   1.034
 7023SOL     OW21967   6.799   2.146   1.269
 7023SOL    HW121968   6.786   2.215   1.340
 7023SOL    HW221969   6.745   2.170   1.188
 7024SOL     OW21970   3.621   4.211   5.721
 7024SOL    HW121971   3.706   4.234   5.769
 7024SOL    HW221972   3.619   4.112   5.702
 7025SOL     OW21973   3.023   0.987   0.943
 7025SOL    HW121974   3.007   0.971   0.846
 7025SOL    HW221975   3.034   0.900   0.990
 7026SOL     OW21976   2.670   2.266   1.456
 7026SOL    HW121977   2.722   2.282   1.540
 7026SOL    HW221978   2.732   2.259   1.378
 7027SOL     OW21979   2.648   4.411   0.758
 7027SOL    HW121980   2.679   4.319   0.783
 7027SOL    HW221981   2.598   4.451   0.834
 7028SOL     OW21982   3.280   0.576   2.911
 7028SOL    HW121983   3.309   0.654   2.967
 7028SOL    HW221984   3.343   0.499   2.926
 7029SOL     OW21985   3.420   3.961   3.602
 7029SOL    HW121986   3.440   3.885   3.541
 7029SOL    HW221987   3.363   3.929   3.678
 7030SOL     OW21988   6.031   6.831   5.041
 7030SOL    HW121989   6.128   6.832   5.019
 7030SOL    HW221990   6.001   6.737   5.059
 7031SOL     OW21991   5.779   5.051   0.621
 7031SOL    HW121992   5.737   5.141   0.633
 7031SOL    HW221993   5.855   5.041   0.685
 7032SOL     OW21994   3.717   4.889   3.967
 7032SOL    HW121995   3.725   4.791   3.948
 7032SOL    HW221996   3.746   4.908   4.060
 7033SOL     OW21997   1.866   2.129   5.433
 7033SOL    HW121998   1.931   2.073   5.485
 7033SOL    HW221999   1.844   2.211   5.485
 7034SOL     OW22000   6.399   2.315   2.051
 7034SOL    HW122001   6.415   2.384   2.121
 7034SOL    HW222002   6.418   2.353   1.961
 7035SOL     OW22003   3.332   2.706   1.000
 7035SOL    HW122004   3.396   2.645   0.954
 7035SOL    HW222005   3.376   2.746   1.080
 7036SOL     OW22006   6.685   1.833   1.618
 7036SOL    HW122007   6.668   1.872   1.528
 7036SOL    HW222008   6.651   1.895   1.689
 7037SOL     OW22009   0.472   1.068   6.124
 7037SOL    HW122010   0.408   1.133   6.165
 7037SOL    HW222011   0.475   0.985   6.179
 7038SOL     OW22012   0.693   4.472   0.165
 7038SOL    HW122013   0.662   4.565   0.145
 7038SOL    HW222014   0.782   4.476   0.211
 7039SOL     OW22015   6.797   0.405   1.484
 7039SOL    HW122016   6.835   0.496   1.466
 7039SOL    HW222017   6.842   0.365   1.563
 7040SOL     OW22018   5.026   3.182   4.432
 7040SOL    HW122019   5.000   3.110   4.495
 7040SOL    HW222020   5.012   3.151   4.338
 7041SOL     OW22021   0.888   0.136   3.444
 7041SOL    HW122022   0.908   0.073   3.370
 7041SOL    HW222023   0.923   0.227   3.421
 7042SOL     OW22024   5.572   5.628   5.337
 7042SOL    HW122025   5.623   5.550   5.300
 7042SOL    HW222026   5.636   5.692   5.380
 7043SOL     OW22027   2.107   5.990   0.513
 7043SOL    HW122028   2.163   6.022   0.589
 7043SOL    HW222029   2.066   6.068   0.466
 7044SOL     OW22030   4.148   6.300   4.847
 7044SOL    HW122031   4.053   6.328   4.864
 7044SOL    HW222032   4.170   6.223   4.906
 7045SOL     OW22033   5.273   6.711   1.571
 7045SOL    HW122034   5.259   6.713   1.670
 7045SOL    HW222035   5.282   6.804   1.536
 7046SOL     OW22036   2.847   1.179   2.667
 7046SOL    HW122037   2.897   1.148   2.586
 7046SOL    HW222038   2.756   1.136   2.668
 7047SOL     OW22039   1.923   0.044   0.775
 7047SOL    HW122040   1.881   6.978   0.743
 7047SOL    HW222041   1.993   0.073   0.709
 7048SOL     OW22042   0.622   5.576   4.447
 7048SOL    HW122043   0.601   5.486   4.410
 7048SOL    HW222044   0.563   5.644   4.405
 7049SOL     OW22045   2.892   1.441   4.796
 7049SOL    HW122046   2.923   1.419   4.703
 7049SOL    HW222047   2.848   1.531   4.796
 7050SOL     OW22048   4.163   4.597   0.592
 7050SOL    HW122049   4.252   4.555   0.609
 7050SOL    HW222050   4.098   4.569   0.662
 7051SOL     OW22051   1.790   0.975   1.943
 7051SOL    HW122052   1.793   1.052   2.007
 7051SOL    HW222053   1.826   1.004   1.854
 7052SOL     OW22054   5.048   2.167   3.025
 7052SOL    HW122055   4.978   2.225   2.983
 7052SOL    HW222056   5.080   2.100   2.959
 7053SOL     OW22057   0.625   4.496   3.804
 7053SOL    HW122058   0.638   4.585   3.849
 7053SOL    HW222059   0.586   4.431   3.869
 7054SOL     OW22060   5.551   6.857   0.601
 7054SOL    HW122061   5.543   6.764   0.566
 7054SOL    HW222062   5.564   6.920   0.525
 7055SOL     OW22063   1.976   0.263   0.002
 7055SOL    HW122064   1.927   0.317   6.952
 7055SOL    HW222065   2.072   0.255   6.995
 7056SOL     OW22066   6.892   5.369   1.020
 7056SOL    HW122067   6.868   5.415   0.934
 7056SOL    HW222068   6.992   5.366   1.029
 7057SOL     OW22069   2.999   5.615   4.647
 7057SOL    HW122070   2.993   5.552   4.725
 7057SOL    HW222071   2.943   5.696   4.666
 7058SOL     OW22072   5.647   2.463   5.870
 7058SOL    HW122073   5.619   2.382   5.819
 7058SOL    HW222074   5.673   2.536   5.806
 7059SOL     OW22075   1.483   1.103   4.768
 7059SOL    HW122076   1.383   1.098   4.769
 7059SOL    HW222077   1.514   1.128   4.677
 7060SOL     OW22078   3.070   2.235   1.506
 7060SOL    HW122079   3.076   2.268   1.412
 7060SOL    HW222080   3.027   2.305   1.563
 7061SOL     OW22081   1.754   0.564   1.237
 7061SOL    HW122082   1.749   0.642   1.300
 7061SOL    HW222083   1.749   0.479   1.290
 7062SOL     OW22084   3.691   1.031   5.296
 7062SOL    HW122085   3.659   1.039   5.202
 7062SOL    HW222086   3.686   1.121   5.341
 7063SOL     OW22087   0.149   1.404   1.549
 7063SOL    HW122088   0.205   1.355   1.483
 7063SOL    HW222089   0.105   1.482   1.505
 7064SOL     OW22090   2.895   1.491   5.256
 7064SOL    HW122091   2.904   1.580   5.212
 7064SOL    HW222092   2.938   1.494   5.347
 7065SOL     OW22093   3.263   0.011   4.058
 7065SOL    HW122094   3.241   6.934   4.072
 7065SOL    HW222095   3.356   0.029   4.089
 7066SOL     OW22096   3.820   0.882   1.229
 7066SOL    HW122097   3.785   0.968   1.265
 7066SOL    HW222098   3.882   0.841   1.296
 7067SOL     OW22099   2.830   4.211   5.943
 7067SOL    HW122100   2.915   4.262   5.951
 7067SOL    HW222101   2.788   4.230   5.853
 7068SOL     OW22102   4.676   4.813   2.732
 7068SOL    HW122103   4.770   4.780   2.722
 7068SOL    HW222104   4.640   4.786   2.822
 7069SOL     OW22105   3.935   1.148   5.059
 7069SOL    HW122106   3.893   1.239   5.063
 7069SOL    HW222107   3.910   1.104   4.973
 7070SOL     OW22108   6.734   1.258   5.601
 7070SOL    HW122109   6.654   1.240   5.543
 7070SOL    HW222110   6.803   1.187   5.587
 7071SOL     OW22111   4.452   5.733   6.926
 7071SOL    HW122112   4.525   5.735   6.857
 7071SOL    HW222113   4.490   5.759   7.015
 7072SOL     OW22114   0.971   3.559   6.297
 7072SOL    HW122115   1.043   3.497   6.327
 7072SOL    HW222116   0.996   3.653   6.320
 7073SOL     OW22117   4.057   1.116   4.234
 7073SOL    HW122118   4.101   1.113   4.144
 7073SOL    HW222119   4.115   1.069   4.300
 7074SOL     OW22120   6.034   3.513   2.198
 7074SOL    HW122121   5.967   3.534   2.127
 7074SOL    HW222122   5.986   3.492   2.284
 7075SOL     OW22123   2.249   4.669   2.585
 7075SOL    HW122124   2.171   4.614   2.613
 7075SOL    HW222125   2.252   4.675   2.485
 7076SOL     OW22126   6.323   2.697   0.786
 7076SOL    HW122127   6.309   2.674   0.882
 7076SOL    HW222128   6.272   2.781   0.764
 7077SOL     OW22129   3.513   5.836   1.892
 7077SOL    HW122130   3.486   5.808   1.985
 7077SOL    HW222131   3.545   5.930   1.894
 7078SOL     OW22132   0.144   1.862   6.869
 7078SOL    HW122133   0.239   1.850   6.841
 7078SOL    HW222134   0.138   1.863   6.969
 7079SOL     OW22135   2.505   5.272   5.730
 7079SOL    HW122136   2.505   5.234   5.638
 7079SOL    HW222137   2.494   5.198   5.797
 7080SOL     OW22138   3.850   1.977   6.515
 7080SOL    HW122139   3.792   1.937   6.444
 7080SOL    HW222140   3.803   2.056   6.555
 7081SOL     OW22141   3.004   6.624   6.895
 7081SOL    HW122142   2.950   6.580   6.823
 7081SOL    HW222143   3.006   6.565   6.975
 7082SOL     OW22144   1.646   4.923   2.231
 7082SOL    HW122145   1.565   4.895   2.284
 7082SOL    HW222146   1.728   4.898   2.281
 7083SOL     OW22147   6.141   3.045   2.840
 7083SOL    HW122148   6.170   3.010   2.929
 7083SOL    HW222149   6.050   3.085   2.848
 7084SOL     OW22150   1.254   5.363   0.037
 7084SOL    HW122151   1.194   5.284   0.044
 7084SOL    HW222152   1.252   5.398   6.962
 7085SOL     OW22153   0.160   3.471   2.103
 7085SOL    HW122154   0.081   3.410   2.089
 7085SOL    HW222155   0.242   3.427   2.066
 7086SOL     OW22156   4.326   1.204   3.818
 7086SOL    HW122157   4.263   1.163   3.884
 7086SOL    HW222158   4.390   1.134   3.784
 7087SOL     OW22159   6.079   2.872   3.493
 7087SOL    HW122160   6.010   2.835   3.432
 7087SOL    HW222161   6.087   2.813   3.574
 7088SOL     OW22162   5.962   1.988   5.154
 7088SOL    HW122163   5.908   2.072   5.158
 7088SOL    HW222164   5.935   1.928   5.230
 7089SOL     OW22165   3.329   6.159   1.397
 7089SOL    HW122166   3.265   6.149   1.473
 7089SOL    HW222167   3.284   6.205   1.321
 7090SOL     OW22168   5.127   3.520   1.510
 7090SOL    HW122169   5.105   3.503   1.414
 7090SOL    HW222170   5.060   3.475   1.568
 7091SOL     OW22171   5.789   0.242   6.925
 7091SOL    HW122172   5.705   0.291   6.950
 7091SOL    HW222173   5.850   0.237   7.004
 7092SOL     OW22174   4.327   6.646   6.255
 7092SOL    HW122175   4.273   6.617   6.176
 7092SOL    HW222176   4.275   6.713   6.309
 7093SOL     OW22177   3.966   3.152   0.483
 7093SOL    HW122178   3.911   3.234   0.468
 7093SOL    HW222179   4.063   3.178   0.487
 7094SOL     OW22180   4.368   0.702   5.147
 7094SOL    HW122181   4.369   0.706   5.047
 7094SOL    HW222182   4.448   0.751   5.183
 7095SOL     OW22183   2.317   4.914   3.707
 7095SOL    HW122184   2.315   4.979   3.783
 7095SOL    HW222185   2.284   4.825   3.738
 7096SOL     OW22186   0.013   5.520   0.322
 7096SOL    HW122187   0.073   5.443   0.297
 7096SOL    HW222188   7.008   5.571   0.239
 7097SOL     OW22189   4.661   2.075   2.940
 7097SOL    HW122190   4.710   2.003   2.988
 7097SOL    HW222191   4.634   2.042   2.849
 7098SOL     OW22192   0.751   1.302   2.508
 7098SOL    HW122193   0.749   1.240   2.587
 7098SOL    HW222194   0.809   1.262   2.437
 7099SOL     OW22195   3.306   1.829   4.901
 7099SOL    HW122196   3.339   1.742   4.939
 7099SOL    HW222197   3.261   1.812   4.814
 7100SOL     OW22198   0.438   4.451   1.691
 7100SOL    HW122199   0.509   4.400   1.643
 7100SOL    HW222200   0.397   4.393   1.762
 7101SOL     OW22201   3.259   6.082   4.559
 7101SOL    HW122202   3.296   5.990   4.569
 7101SOL    HW222203   3.189   6.098   4.628
 7102SOL     OW22204   5.507   1.495   2.365
 7102SOL    HW122205   5.430   1.439   2.393
 7102SOL    HW222206   5.540   1.465   2.276
 7103SOL     OW22207   6.844   3.702   4.647
 7103SOL    HW122208   6.815   3.617   4.692
 7103SOL    HW222209   6.774   3.773   4.661
 7104SOL     OW22210   4.326   2.325   4.234
 7104SOL    HW122211   4.292   2.348   4.325
 7104SOL    HW222212   4.250   2.302   4.174
 7105SOL     OW22213   3.041   3.771   1.935
 7105SOL    HW122214   3.130   3.756   1.977
 7105SOL    HW222215   2.980   3.815   2.000
 7106SOL     OW22216   2.381   2.000   2.780
 7106SOL    HW122217   2.311   2.063   2.814
 7106SOL    HW222218   2.423   2.038   2.698
 7107SOL     OW22219   4.152   0.455   0.443
 7107SOL    HW122220   4.205   0.381   0.402
 7107SOL    HW222221   4.066   0.419   0.478
 7108SOL     OW22222   3.302   6.902   1.948
 7108SOL    HW122223   3.248   6.832   1.995
 7108SOL    HW222224   3.306   6.984   2.005
 7109SOL     OW22225   2.490   4.843   5.794
 7109SOL    HW122226   2.488   4.813   5.698
 7109SOL    HW222227   2.584   4.843   5.826
 7110SOL     OW22228   2.870   5.595   5.332
 7110SOL    HW122229   2.874   5.684   5.378
 7110SOL    HW222230   2.789   5.591   5.274
 7111SOL     OW22231   6.194   1.627   4.852
 7111SOL    HW122232   6.133   1.553   4.881
 7111SOL    HW222233   6.257   1.592   4.782
 7112SOL     OW22234   6.248   5.031   4.548
 7112SOL    HW122235   6.287   4.952   4.595
 7112SOL    HW222236   6.315   5.070   4.485
 7113SOL     OW22237   3.119   6.944   4.797
 7113SOL    HW122238   3.185   7.016   4.819
 7113SOL    HW222239   3.069   6.969   4.715
 7114SOL     OW22240   5.590   4.089   0.299
 7114SOL    HW122241   5.540   4.148   0.362
 7114SOL    HW222242   5.525   4.033   0.247
 7115SOL     OW22243   5.106   2.978   6.151
 7115SOL    HW122244   5.066   2.906   6.207
 7115SOL    HW222245   5.132   2.941   6.062
 7116SOL     OW22246   5.977   5.449   4.497
 7116SOL    HW122247   6.068   5.420   4.526
 7116SOL    HW222248   5.908   5.408   4.557
 7117SOL     OW22249   3.534   0.416   2.906
 7117SOL    HW122250   3.476   0.336   2.891
 7117SOL    HW222251   3.624   0.387   2.936
 7118SOL     OW22252   4.779   4.205   5.595
 7118SOL    HW122253   4.856   4.156   5.637
 7118SOL    HW222254   4.693   4.169   5.631
 7119SOL     OW22255   2.706   6.630   4.355
 7119SOL    HW122256   2.806   6.631   4.350
 7119SOL    HW222257   2.668   6.650   4.265
 7120SOL     OW22258   4.546   1.697   2.097
 7120SOL    HW122259   4.640   1.729   2.083
 7120SOL    HW222260   4.486   1.776   2.106
 7121SOL     OW22261   1.659   5.914   2.271
 7121SOL    HW122262   1.587   5.937   2.336
 7121SOL    HW222263   1.672   5.990   2.207
 7122SOL     OW22264   2.948   2.380   6.582
 7122SOL    HW122265   2.993   2.341   6.662
 7122SOL    HW222266   2.867   2.326   6.560
 7123SOL     OW22267   5.320   4.172   0.059
 7123SOL    HW122268   5.326   4.258   0.109
 7123SOL    HW222269   5.326   4.190   6.980
 7124SOL     OW22270   2.834   2.979   6.434
 7124SOL    HW122271   2.926   3.000   6.401
 7124SOL    HW222272   2.828   2.882   6.458
 7125SOL     OW22273   1.098   6.174   1.450
 7125SOL    HW122274   1.010   6.148   1.410
 7125SOL    HW222275   1.156   6.213   1.379
 7126SOL     OW22276   4.057   4.517   0.826
 7126SOL    HW122277   4.003   4.446   0.872
 7126SOL    HW222278   4.032   4.607   0.863
 7127SOL     OW22279   2.755   0.033   5.018
 7127SOL    HW122280   2.812   0.108   5.053
 7127SOL    HW222281   2.798   6.965   5.041
 7128SOL     OW22282   4.237   3.927   0.268
 7128SOL    HW122283   4.184   3.872   0.202
 7128SOL    HW222284   4.187   4.011   0.289
 7129SOL     OW22285   0.068   1.736   0.110
 7129SOL    HW122286   7.015   1.779   0.164
 7129SOL    HW222287   0.028   1.672   0.045
 7130SOL     OW22288   3.656   0.021   4.061
 7130SOL    HW122289   3.752   0.037   4.083
 7130SOL    HW222290   3.599   0.084   4.113
 7131SOL     OW22291   2.226   2.390   3.076
 7131SOL    HW122292   2.230   2.489   3.062
 7131SOL    HW222293   2.216   2.371   3.174
 7132SOL     OW22294   5.639   4.796   2.139
 7132SOL    HW122295   5.613   4.809   2.043
 7132SOL    HW222296   5.726   4.746   2.144
 7133SOL     OW22297   3.276   6.207   2.431
 7133SOL    HW122298   3.227   6.231   2.347
 7133SOL    HW222299   3.357   6.154   2.408
 7134SOL     OW22300   5.609   5.003   6.421
 7134SOL    HW122301   5.680   4.934   6.437
 7134SOL    HW222302   5.644   5.075   6.362
 7135SOL     OW22303   2.303   4.883   0.776
 7135SOL    HW122304   2.369   4.812   0.753
 7135SOL    HW222305   2.351   4.971   0.787
 7136SOL     OW22306   1.422   3.034   2.633
 7136SOL    HW122307   1.410   2.935   2.625
 7136SOL    HW222308   1.509   3.053   2.679
 7137SOL     OW22309   1.880   6.917   2.095
 7137SOL    HW122310   1.785   6.949   2.092
 7137SOL    HW222311   1.884   6.829   2.142
 7138SOL     OW22312   6.385   3.929   0.335
 7138SOL    HW122313   6.347   4.021   0.327
 7138SOL    HW222314   6.453   3.927   0.408
 7139SOL     OW22315   5.595   6.090   0.997
 7139SOL    HW122316   5.523   6.039   0.951
 7139SOL    HW222317   5.681   6.079   0.946
 7140SOL     OW22318   0.059   4.375   0.055
 7140SOL    HW122319   0.123   4.298   0.064
 7140SOL    HW222320   6.988   4.346   0.087
 7141SOL     OW22321   2.541   2.275   0.433
 7141SOL    HW122322   2.526   2.255   0.336
 7141SOL    HW222323   2.532   2.190   0.486
 7142SOL     OW22324   4.371   6.751   5.685
 7142SOL    HW122325   4.459   6.781   5.720
 7142SOL    HW222326   4.350   6.799   5.600
 7143SOL     OW22327   3.415   2.968   5.719
 7143SOL    HW122328   3.495   2.984   5.661
 7143SOL    HW222329   3.351   2.908   5.671
 7144SOL     OW22330   6.204   1.629   6.029
 7144SOL    HW122331   6.157   1.596   5.947
 7144SOL    HW222332   6.156   1.595   6.110
 7145SOL     OW22333   0.155   2.730   0.478
 7145SOL    HW122334   0.116   2.802   0.536
 7145SOL    HW222335   0.082   2.669   0.448
 7146SOL     OW22336   0.170   1.458   4.317
 7146SOL    HW122337   0.089   1.477   4.262
 7146SOL    HW222338   0.252   1.478   4.264
 7147SOL     OW22339   6.847   6.991   0.030
 7147SOL    HW122340   6.941   6.962   0.044
 7147SOL    HW222341   6.829   0.055   0.081
 7148SOL     OW22342   5.532   6.361   0.988
 7148SOL    HW122343   5.558   6.281   0.934
 7148SOL    HW222344   5.615   6.412   1.014
 7149SOL     OW22345   6.747   3.820   6.713
 7149SOL    HW122346   6.736   3.838   6.615
 7149SOL    HW222347   6.670   3.765   6.746
 7150SOL     OW22348   2.574   2.269   0.131
 7150SOL    HW122349   2.513   2.197   0.098
 7150SOL    HW222350   2.668   2.247   0.106
 7151SOL     OW22351   5.440   2.244   6.980
 7151SOL    HW122352   5.489   2.316   0.009
 7151SOL    HW222353   5.453   2.255   6.882
 7152SOL     OW22354   5.561   0.594   4.799
 7152SOL    HW122355   5.614   0.641   4.870
 7152SOL    HW222356   5.584   0.497   4.800
 7153SOL     OW22357   5.566   5.553   0.520
 7153SOL    HW122358   5.514   5.631   0.485
 7153SOL    HW222359   5.622   5.514   0.447
 7154SOL     OW22360   4.681   0.228   1.936
 7154SOL    HW122361   4.687   0.163   1.860
 7154SOL    HW222362   4.592   0.275   1.932
 7155SOL     OW22363   1.872   0.460   1.590
 7155SOL    HW122364   1.870   0.455   1.690
 7155SOL    HW222365   1.934   0.391   1.555
 7156SOL     OW22366   6.359   2.927   5.719
 7156SOL    HW122367   6.276   2.884   5.752
 7156SOL    HW222368   6.403   2.977   5.794
 7157SOL     OW22369   6.763   3.465   5.673
 7157SOL    HW122370   6.699   3.400   5.631
 7157SOL    HW222371   6.751   3.555   5.631
 7158SOL     OW22372   5.255   6.702   4.039
 7158SOL    HW122373   5.179   6.766   4.043
 7158SOL    HW222374   5.221   6.609   4.054
 7159SOL     OW22375   0.734   6.931   3.489
 7159SOL    HW122376   0.768   6.866   3.420
 7159SOL    HW222377   0.784   7.017   3.482
 7160SOL     OW22378   5.645   6.328   2.470
 7160SOL    HW122379   5.691   6.415   2.490
 7160SOL    HW222380   5.644   6.314   2.371
 7161SOL     OW22381   3.876   3.044   1.924
 7161SOL    HW122382   3.842   2.954   1.951
 7161SOL    HW222383   3.868   3.107   2.002
 7162SOL     OW22384   0.861   5.972   0.577
 7162SOL    HW122385   0.926   5.898   0.589
 7162SOL    HW222386   0.886   6.026   0.497
 7163SOL     OW22387   7.011   6.323   0.145
 7163SOL    HW122388   0.055   6.353   0.216
 7163SOL    HW222389   0.044   6.294   0.064
 7164SOL     OW22390   0.698   6.177   6.741
 7164SOL    HW122391   0.706   6.273   6.713
 7164SOL    HW222392   0.604   6.157   6.766
 7165SOL     OW22393   4.199   2.404   6.194
 7165SOL    HW122394   4.258   2.485   6.193
 7165SOL    HW222395   4.132   2.413   6.268
 7166SOL     OW22396   0.272   6.504   4.915
 7166SOL    HW122397   0.324   6.551   4.843
 7166SOL    HW222398   0.332   6.440   4.962
 7167SOL     OW22399   0.647   3.425   5.378
 7167SOL    HW122400   0.612   3.337   5.344
 7167SOL    HW222401   0.570   3.485   5.399
 7168SOL     OW22402   0.763   6.957   2.706
 7168SOL    HW122403   0.797   6.958   2.800
 7168SOL    HW222404   0.790   6.871   2.662
 7169SOL     OW22405   1.915   5.049   5.683
 7169SOL    HW122406   1.852   5.100   5.743
 7169SOL    HW222407   1.929   4.958   5.721
 7170SOL     OW22408   4.254   2.007   1.944
 7170SOL    HW122409   4.228   2.103   1.936
 7170SOL    HW222410   4.252   1.964   1.854
 7171SOL     OW22411   0.888   5.791   1.908
 7171SOL    HW122412   0.982   5.756   1.913
 7171SOL    HW222413   0.888   5.884   1.873
 7172SOL     OW22414   1.544   2.849   3.824
 7172SOL    HW122415   1.544   2.883   3.730
 7172SOL    HW222416   1.455   2.865   3.866
 7173SOL     OW22417   3.463   5.581   4.139
 7173SOL    HW122418   3.454   5.555   4.235
 7173SOL    HW222419   3.560   5.593   4.116
 7174SOL     OW22420   6.669   3.684   2.348
 7174SOL    HW122421   6.741   3.629   2.389
 7174SOL    HW222422   6.709   3.747   2.281
 7175SOL     OW22423   5.915   3.015   6.083
 7175SOL    HW122424   5.992   3.024   6.146
 7175SOL    HW222425   5.850   3.090   6.099
 7176SOL     OW22426   6.217   2.006   6.346
 7176SOL    HW122427   6.280   1.992   6.270
 7176SOL    HW222428   6.268   2.041   6.425
 7177SOL     OW22429   1.375   5.692   3.941
 7177SOL    HW122430   1.319   5.740   3.873
 7177SOL    HW222431   1.471   5.701   3.917
 7178SOL     OW22432   1.322   6.345   5.699
 7178SOL    HW122433   1.296   6.402   5.621
 7178SOL    HW222434   1.242   6.295   5.732
 7179SOL     OW22435   5.004   4.616   5.559
 7179SOL    HW122436   4.934   4.593   5.492
 7179SOL    HW222437   5.048   4.533   5.592
 7180SOL     OW22438   0.140   2.747   1.981
 7180SOL    HW122439   0.219   2.769   2.038
 7180SOL    HW222440   0.171   2.699   1.899
 7181SOL     OW22441   3.118   0.155   0.114
 7181SOL    HW122442   3.151   0.249   0.102
 7181SOL    HW222443   3.197   0.093   0.117
 7182SOL     OW22444   2.090   0.938   2.462
 7182SOL    HW122445   2.181   0.966   2.493
 7182SOL    HW222446   2.061   0.999   2.388
 7183SOL     OW22447   1.731   0.083   1.131
 7183SOL    HW122448   1.803   0.140   1.090
 7183SOL    HW222449   1.646   0.095   1.079
 7184SOL     OW22450   6.921   1.631   3.042
 7184SOL    HW122451   6.969   1.692   3.106
 7184SOL    HW222452   6.857   1.685   2.987
 7185SOL     OW22453   3.869   0.114   3.545
 7185SOL    HW122454   3.841   0.073   3.631
 7185SOL    HW222455   3.963   0.088   3.523
 7186SOL     OW22456   6.315   2.255   6.532
 7186SOL    HW122457   6.248   2.325   6.510
 7186SOL    HW222458   6.384   2.250   6.459
 7187SOL     OW22459   3.296   3.768   4.265
 7187SOL    HW122460   3.348   3.778   4.180
 7187SOL    HW222461   3.264   3.674   4.274
 7188SOL     OW22462   4.821   4.869   0.087
 7188SOL    HW122463   4.871   4.936   0.031
 7188SOL    HW222464   4.724   4.893   0.089
 7189SOL     OW22465   0.126   2.264   5.831
 7189SOL    HW122466   0.123   2.310   5.743
 7189SOL    HW222467   0.085   2.173   5.823
 7190SOL     OW22468   5.715   5.694   0.888
 7190SOL    HW122469   5.707   5.720   0.792
 7190SOL    HW222470   5.638   5.731   0.940
 7191SOL     OW22471   0.246   5.132   2.698
 7191SOL    HW122472   0.147   5.124   2.706
 7191SOL    HW222473   0.290   5.055   2.745
 7192SOL     OW22474   3.766   3.772   5.772
 7192SOL    HW122475   3.796   3.731   5.859
 7192SOL    HW222476   3.814   3.729   5.696
 7193SOL     OW22477   3.563   1.040   3.918
 7193SOL    HW122478   3.501   0.961   3.915
 7193SOL    HW222479   3.658   1.008   3.924
 7194SOL     OW22480   3.597   2.428   5.446
 7194SOL    HW122481   3.588   2.436   5.546
 7194SOL    HW222482   3.507   2.415   5.405
 7195SOL     OW22483   6.800   4.083   5.408
 7195SOL    HW122484   6.750   4.000   5.385
 7195SOL    HW222485   6.870   4.062   5.476
 7196SOL     OW22486   3.049   4.258   1.718
 7196SOL    HW122487   3.115   4.317   1.672
 7196SOL    HW222488   2.983   4.315   1.767
 7197SOL     OW22489   3.433   4.430   6.333
 7197SOL    HW122490   3.525   4.426   6.371
 7197SOL    HW222491   3.381   4.351   6.363
 7198SOL     OW22492   1.103   6.913   2.386
 7198SOL    HW122493   1.049   6.829   2.378
 7198SOL    HW222494   1.200   6.890   2.380
 7199SOL     OW22495   6.081   1.138   3.511
 7199SOL    HW122496   6.163   1.196   3.508
 7199SOL    HW222497   6.047   1.125   3.418
 7200SOL     OW22498   1.176   4.126   6.405
 7200SOL    HW122499   1.196   4.042   6.454
 7200SOL    HW222500   1.104   4.110   6.338
 7201SOL     OW22501   5.756   5.989   4.795
 7201SOL    HW122502   5.657   5.979   4.798
 7201SOL    HW222503   5.792   5.987   4.888
 7202SOL     OW22504   4.734   0.334   5.578
 7202SOL    HW122505   4.664   0.323   5.648
 7202SOL    HW222506   4.753   0.431   5.563
 7203SOL     OW22507   1.185   1.508   0.677
 7203SOL    HW122508   1.164   1.411   0.678
 7203SOL    HW222509   1.101   1.561   0.667
 7204SOL     OW22510   5.584   0.902   2.757
 7204SOL    HW122511   5.625   0.993   2.763
 7204SOL    HW222512   5.512   0.893   2.825
 7205SOL     OW22513   2.850   1.080   4.063
 7205SOL    HW122514   2.764   1.074   4.114
 7205SOL    HW222515   2.892   1.169   4.079
 7206SOL     OW22516   2.285   2.830   6.689
 7206SOL    HW122517   2.264   2.780   6.605
 7206SOL    HW222518   2.371   2.879   6.678
 7207SOL     OW22519   1.911   2.504   3.003
 7207SOL    HW122520   1.945   2.568   3.071
 7207SOL    HW222521   1.829   2.541   2.960
 7208SOL     OW22522   3.051   0.165   3.498
 7208SOL    HW122523   3.025   0.253   3.457
 7208SOL    HW222524   3.057   0.176   3.597
 7209SOL     OW22525   4.639   0.868   1.914
 7209SOL    HW122526   4.620   0.798   1.983
 7209SOL    HW222527   4.587   0.846   1.831
 7210SOL     OW22528   3.140   1.129   5.022
 7210SOL    HW122529   3.116   1.046   4.973
 7210SOL    HW222530   3.090   1.207   4.983
 7211SOL     OW22531   4.936   5.795   6.133
 7211SOL    HW122532   4.951   5.843   6.219
 7211SOL    HW222533   4.851   5.827   6.091
 7212SOL     OW22534   0.252   5.850   4.220
 7212SOL    HW122535   0.348   5.871   4.203
 7212SOL    HW222536   0.206   5.834   4.133
 7213SOL     OW22537   4.747   2.998   0.042
 7213SOL    HW122538   4.668   2.951   0.082
 7213SOL    HW222539   4.780   3.068   0.106
 7214SOL     OW22540   6.914   1.351   5.836
 7214SOL    HW122541   6.919   1.289   5.758
 7214SOL    HW222542   6.854   1.313   5.906
 7215SOL     OW22543   6.290   1.386   2.386
 7215SOL    HW122544   6.204   1.335   2.388
 7215SOL    HW222545   6.361   1.333   2.341
 7216SOL     OW22546   5.743   6.411   4.387
 7216SOL    HW122547   5.720   6.316   4.409
 7216SOL    HW222548   5.825   6.413   4.331
 7217SOL     OW22549   0.896   3.616   3.352
 7217SOL    HW122550   0.864   3.707   3.329
 7217SOL    HW222551   0.829   3.548   3.322
 7218SOL     OW22552   6.384   2.799   5.411
 7218SOL    HW122553   6.363   2.885   5.457
 7218SOL    HW222554   6.465   2.757   5.452
 7219SOL     OW22555   3.584   5.347   0.923
 7219SOL    HW122556   3.563   5.429   0.868
 7219SOL    HW222557   3.562   5.265   0.870
 7220SOL     OW22558   0.117   3.077   3.664
 7220SOL    HW122559   0.143   3.008   3.731
 7220SOL    HW222560   0.106   3.166   3.708
 7221SOL     OW22561   4.840   4.675   3.902
 7221SOL    HW122562   4.930   4.710   3.874
 7221SOL    HW222563   4.769   4.734   3.865
 7222SOL     OW22564   6.515   5.990   4.023
 7222SOL    HW122565   6.518   6.006   3.924
 7222SOL    HW222566   6.449   6.053   4.065
 7223SOL     OW22567   6.513   5.767   1.576
 7223SOL    HW122568   6.431   5.722   1.612
 7223SOL    HW222569   6.489   5.820   1.495
 7224SOL     OW22570   5.564   2.795   2.311
 7224SOL    HW122571   5.561   2.729   2.386
 7224SOL    HW222572   5.518   2.757   2.231
 7225SOL     OW22573   0.956   5.334   0.414
 7225SOL    HW122574   0.914   5.304   0.328
 7225SOL    HW222575   1.055   5.317   0.410
 7226SOL     OW22576   6.402   6.197   0.620
 7226SOL    HW122577   6.339   6.176   0.695
 7226SOL    HW222578   6.436   6.112   0.580
 7227SOL     OW22579   1.997   0.858   2.111
 7227SOL    HW122580   2.032   0.945   2.147
 7227SOL    HW222581   1.931   0.877   2.038
 7228SOL     OW22582   6.347   3.265   3.124
 7228SOL    HW122583   6.308   3.338   3.180
 7228SOL    HW222584   6.349   3.180   3.177
 7229SOL     OW22585   6.325   0.043   5.102
 7229SOL    HW122586   6.425   0.049   5.108
 7229SOL    HW222587   6.299   6.981   5.051
 7230SOL     OW22588   2.278   4.834   5.352
 7230SOL    HW122589   2.238   4.742   5.356
 7230SOL    HW222590   2.332   4.842   5.268
 7231SOL     OW22591   3.568   3.546   6.414
 7231SOL    HW122592   3.658   3.550   6.457
 7231SOL    HW222593   3.566   3.472   6.347
 7232SOL     OW22594   4.645   5.813   3.357
 7232SOL    HW122595   4.645   5.723   3.312
 7232SOL    HW222596   4.584   5.811   3.435
 7233SOL     OW22597   0.468   1.802   6.509
 7233SOL    HW122598   0.472   1.876   6.442
 7233SOL    HW222599   0.557   1.758   6.515
 7234SOL     OW22600   5.642   4.546   3.001
 7234SOL    HW122601   5.733   4.512   3.026
 7234SOL    HW222602   5.573   4.486   3.040
 7235SOL     OW22603   6.968   0.365   0.946
 7235SOL    HW122604   7.016   0.432   1.002
 7235SOL    HW222605   6.871   0.366   0.970
 7236SOL     OW22606   0.538   3.719   2.398
 7236SOL    HW122607   0.490   3.761   2.321
 7236SOL    HW222608   0.483   3.642   2.433
 7237SOL     OW22609   5.058   1.221   0.239
 7237SOL    HW122610   5.070   1.307   0.288
 7237SOL    HW222611   5.136   1.161   0.257
 7238SOL     OW22612   4.480   3.304   0.247
 7238SOL    HW122613   4.416   3.377   0.271
 7238SOL    HW222614   4.454   3.263   0.159
 7239SOL     OW22615   5.766   3.002   1.942
 7239SOL    HW122616   5.782   2.928   1.877
 7239SOL    HW222617   5.843   3.008   2.005
 7240SOL     OW22618   0.549   1.936   0.504
 7240SOL    HW122619   0.538   1.953   0.602
 7240SOL    HW222620   0.463   1.957   0.457
 7241SOL     OW22621   1.976   0.204   2.707
 7241SOL    HW122622   2.021   0.255   2.780
 7241SOL    HW222623   1.936   0.268   2.641
 7242SOL     OW22624   6.354   3.846   6.087
 7242SOL    HW122625   6.404   3.925   6.120
 7242SOL    HW222626   6.260   3.848   6.123
 7243SOL     OW22627   6.057   4.600   6.312
 7243SOL    HW122628   6.092   4.661   6.384
 7243SOL    HW222629   5.957   4.598   6.317
 7244SOL     OW22630   6.711   6.120   0.141
 7244SOL    HW122631   6.742   6.092   0.050
 7244SOL    HW222632   6.712   6.220   0.147
 7245SOL     OW22633   1.870   2.488   6.860
 7245SOL    HW122634   1.857   2.411   6.797
 7245SOL    HW222635   1.923   2.458   6.939
 7246SOL     OW22636   4.764   6.894   4.429
 7246SOL    HW122637   4.811   6.822   4.480
 7246SOL    HW222638   4.818   6.978   4.433
 7247SOL     OW22639   3.302   4.136   4.749
 7247SOL    HW122640   3.386   4.101   4.708
 7247SOL    HW222641   3.322   4.215   4.806
 7248SOL     OW22642   2.122   1.873   5.234
 7248SOL    HW122643   2.035   1.885   5.186
 7248SOL    HW222644   2.118   1.791   5.292
 7249SOL     OW22645   3.365   5.493   2.859
 7249SOL    HW122646   3.426   5.536   2.926
 7249SOL    HW222647   3.412   5.487   2.770
 7250SOL     OW22648   5.129   6.023   5.507
 7250SOL    HW122649   5.086   5.967   5.578
 7250SOL    HW222650   5.108   5.985   5.417
 7251SOL     OW22651   0.552   5.856   4.351
 7251SOL    HW122652   0.536   5.922   4.425
 7251SOL    HW222653   0.638   5.878   4.304
 7252SOL     OW22654   3.815   3.753   1.942
 7252SOL    HW122655   3.829   3.766   2.040
 7252SOL    HW222656   3.755   3.825   1.907
 7253SOL     OW22657   1.369   5.264   5.571
 7253SOL    HW122658   1.399   5.339   5.512
 7253SOL    HW222659   1.446   5.229   5.623
 7254SOL     OW22660   0.075   3.433   3.982
 7254SOL    HW122661   0.047   3.364   3.915
 7254SOL    HW222662   0.130   3.390   4.054
 7255SOL     OW22663   4.790   3.804   0.519
 7255SOL    HW122664   4.740   3.864   0.457
 7255SOL    HW222665   4.808   3.717   0.474
 7256SOL     OW22666   3.057   6.877   4.381
 7256SOL    HW122667   3.029   6.814   4.454
 7256SOL    HW222668   3.036   6.836   4.292
 7257SOL     OW22669   0.485   1.429   5.340
 7257SOL    HW122670   0.466   1.512   5.288
 7257SOL    HW222671   0.572   1.439   5.389
 7258SOL     OW22672   6.247   2.410   2.853
 7258SOL    HW122673   6.257   2.411   2.953
 7258SOL    HW222674   6.331   2.444   2.810
 7259SOL     OW22675   1.300   4.009   2.232
 7259SOL    HW122676   1.309   4.108   2.225
 7259SOL    HW222677   1.334   3.979   2.321
 7260SOL     OW22678   6.114   3.147   0.867
 7260SOL    HW122679   6.022   3.186   0.859
 7260SOL    HW222680   6.120   3.093   0.951
 7261SOL     OW22681   0.205   4.165   0.169
 7261SOL    HW122682   0.145   4.144   0.246
 7261SOL    HW222683   0.267   4.088   0.153
 7262SOL     OW22684   3.247   0.223   5.349
 7262SOL    HW122685   3.336   0.268   5.340
 7262SOL    HW222686   3.185   0.282   5.401
 7263SOL     OW22687   6.108   5.793   5.183
 7263SOL    HW122688   6.048   5.770   5.106
 7263SOL    HW222689   6.103   5.721   5.252
 7264SOL     OW22690   5.476   1.271   1.138
 7264SOL    HW122691   5.441   1.326   1.062
 7264SOL    HW222692   5.540   1.202   1.103
 7265SOL     OW22693   3.701   0.222   5.644
 7265SOL    HW122694   3.614   0.271   5.656
 7265SOL    HW222695   3.755   0.230   5.728
 7266SOL     OW22696   6.729   0.644   3.052
 7266SOL    HW122697   6.740   0.558   3.101
 7266SOL    HW222698   6.764   0.719   3.108
 7267SOL     OW22699   0.033   3.744   5.434
 7267SOL    HW122700   0.073   3.818   5.380
 7267SOL    HW222701   0.089   3.661   5.425
 7268SOL     OW22702   5.460   6.107   3.942
 7268SOL    HW122703   5.544   6.053   3.932
 7268SOL    HW222704   5.473   6.177   4.012
 7269SOL     OW22705   3.024   5.457   4.207
 7269SOL    HW122706   2.930   5.427   4.219
 7269SOL    HW222707   3.083   5.378   4.192
 7270SOL     OW22708   0.449   0.999   4.566
 7270SOL    HW122709   0.461   1.095   4.540
 7270SOL    HW222710   0.503   0.980   4.648
 7271SOL     OW22711   0.627   4.708   2.855
 7271SOL    HW122712   0.673   4.781   2.905
 7271SOL    HW222713   0.614   4.735   2.760
 7272SOL     OW22714   6.362   4.055   1.624
 7272SOL    HW122715   6.370   4.113   1.705
 7272SOL    HW222716   6.349   3.960   1.652
 7273SOL     OW22717   6.819   1.042   4.806
 7273SOL    HW122718   6.826   0.976   4.731
 7273SOL    HW222719   6.855   1.001   4.889
 7274SOL     OW22720   0.431   5.588   6.198
 7274SOL    HW122721   0.492   5.663   6.222
 7274SOL    HW222722   0.464   5.504   6.240
 7275SOL     OW22723   0.598   4.955   3.001
 7275SOL    HW122724   0.629   4.907   3.082
 7275SOL    HW222725   0.581   5.051   3.024
 7276SOL     OW22726   5.042   6.483   3.345
 7276SOL    HW122727   5.104   6.441   3.280
 7276SOL    HW222728   5.094   6.541   3.409
 7277SOL     OW22729   4.887   0.895   0.432
 7277SOL    HW122730   4.869   0.878   0.335
 7277SOL    HW222731   4.986   0.893   0.449
 7278SOL     OW22732   3.763   2.937   2.480
 7278SOL    HW122733   3.841   2.985   2.441
 7278SOL    HW222734   3.713   2.890   2.407
 7279SOL     OW22735   3.522   6.332   6.165
 7279SOL    HW122736   3.594   6.285   6.216
 7279SOL    HW222737   3.507   6.423   6.206
 7280SOL     OW22738   4.594   0.715   6.064
 7280SOL    HW122739   4.543   0.796   6.090
 7280SOL    HW222740   4.692   0.731   6.078
 7281SOL     OW22741   5.647   0.826   6.213
 7281SOL    HW122742   5.636   0.795   6.118
 7281SOL    HW222743   5.571   0.790   6.268
 7282SOL     OW22744   6.061   5.812   2.841
 7282SOL    HW122745   5.980   5.777   2.794
 7282SOL    HW222746   6.055   5.911   2.849
 7283SOL     OW22747   2.237   1.672   3.472
 7283SOL    HW122748   2.293   1.618   3.535
 7283SOL    HW222749   2.222   1.621   3.387
 7284SOL     OW22750   1.427   1.596   4.562
 7284SOL    HW122751   1.450   1.547   4.646
 7284SOL    HW222752   1.354   1.548   4.514
 7285SOL     OW22753   5.878   5.618   1.912
 7285SOL    HW122754   5.964   5.619   1.861
 7285SOL    HW222755   5.864   5.527   1.951
 7286SOL     OW22756   1.677   4.335   0.557
 7286SOL    HW122757   1.631   4.414   0.598
 7286SOL    HW222758   1.773   4.334   0.584
 7287SOL     OW22759   6.273   1.869   6.099
 7287SOL    HW122760   6.253   1.773   6.078
 7287SOL    HW222761   6.294   1.918   6.014
 7288SOL     OW22762   2.770   0.409   0.002
 7288SOL    HW122763   2.670   0.415   0.003
 7288SOL    HW222764   2.798   0.324   0.047
 7289SOL     OW22765   4.493   2.242   3.516
 7289SOL    HW122766   4.428   2.299   3.566
 7289SOL    HW222767   4.547   2.299   3.455
 7290SOL     OW22768   2.895   5.693   4.210
 7290SOL    HW122769   2.963   5.753   4.253
 7290SOL    HW222770   2.930   5.600   4.206
 7291SOL     OW22771   3.593   5.319   1.215
 7291SOL    HW122772   3.582   5.360   1.125
 7291SOL    HW222773   3.673   5.259   1.215
 7292SOL     OW22774   3.562   0.472   4.567
 7292SOL    HW122775   3.506   0.400   4.526
 7292SOL    HW222776   3.512   0.558   4.566
 7293SOL     OW22777   2.221   1.316   6.200
 7293SOL    HW122778   2.127   1.301   6.231
 7293SOL    HW222779   2.284   1.267   6.260
 7294SOL     OW22780   5.625   5.363   6.488
 7294SOL    HW122781   5.677   5.329   6.410
 7294SOL    HW222782   5.673   5.340   6.572
 7295SOL     OW22783   4.682   0.037   1.419
 7295SOL    HW122784   4.629   0.105   1.368
 7295SOL    HW222785   4.780   0.055   1.408
 7296SOL     OW22786   4.168   4.974   0.860
 7296SOL    HW122787   4.109   4.898   0.888
 7296SOL    HW222788   4.221   4.948   0.780
 7297SOL     OW22789   4.722   6.768   2.221
 7297SOL    HW122790   4.702   6.715   2.303
 7297SOL    HW222791   4.643   6.824   2.197
 7298SOL     OW22792   6.229   3.149   4.107
 7298SOL    HW122793   6.209   3.241   4.142
 7298SOL    HW222794   6.317   3.119   4.142
 7299SOL     OW22795   5.684   3.303   6.812
 7299SOL    HW122796   5.633   3.236   6.758
 7299SOL    HW222797   5.731   3.256   6.887
 7300SOL     OW22798   4.777   5.560   1.234
 7300SOL    HW122799   4.864   5.510   1.235
 7300SOL    HW222800   4.744   5.570   1.328
 7301SOL     OW22801   6.866   1.089   6.370
 7301SOL    HW122802   6.797   1.114   6.438
 7301SOL    HW222803   6.894   1.171   6.320
 7302SOL     OW22804   6.440   0.694   6.170
 7302SOL    HW122805   6.476   0.639   6.245
 7302SOL    HW222806   6.424   0.788   6.202
 7303SOL     OW22807   4.390   0.537   0.891
 7303SOL    HW122808   4.352   0.605   0.954
 7303SOL    HW222809   4.455   0.479   0.940
 7304SOL     OW22810   3.780   3.202   4.820
 7304SOL    HW122811   3.756   3.252   4.902
 7304SOL    HW222812   3.758   3.105   4.832
 7305SOL     OW22813   5.808   2.309   6.959
 7305SOL    HW122814   5.741   2.236   6.950
 7305SOL    HW222815   5.842   2.334   6.868
 7306SOL     OW22816   4.988   5.073   1.853
 7306SOL    HW122817   4.928   4.996   1.833
 7306SOL    HW222818   5.012   5.073   1.950
 7307SOL     OW22819   4.100   6.379   2.178
 7307SOL    HW122820   4.157   6.459   2.195
 7307SOL    HW222821   4.041   6.396   2.099
 7308SOL     OW22822   5.529   0.673   4.151
 7308SOL    HW122823   5.438   0.707   4.176
 7308SOL    HW222824   5.520   0.601   4.083
 7309SOL     OW22825   4.638   4.827   1.095
 7309SOL    HW122826   4.543   4.806   1.072
 7309SOL    HW222827   4.687   4.741   1.111
 7310SOL     OW22828   2.311   5.949   1.956
 7310SOL    HW122829   2.408   5.971   1.944
 7310SOL    HW222830   2.295   5.923   2.052
 7311SOL     OW22831   3.054   2.134   2.104
 7311SOL    HW122832   3.099   2.110   2.018
 7311SOL    HW222833   2.986   2.205   2.087
 7312SOL     OW22834   0.197   2.472   6.443
 7312SOL    HW122835   0.099   2.463   6.463
 7312SOL    HW222836   0.245   2.394   6.482
 7313SOL     OW22837   3.346   2.416   6.279
 7313SOL    HW122838   3.388   2.505   6.265
 7313SOL    HW222839   3.251   2.428   6.307
 7314SOL     OW22840   0.767   1.955   4.538
 7314SOL    HW122841   0.794   2.013   4.615
 7314SOL    HW222842   0.697   1.891   4.567
 7315SOL     OW22843   0.161   0.882   6.111
 7315SOL    HW122844   0.180   0.893   6.013
 7315SOL    HW222845   0.230   0.822   6.152
 7316SOL     OW22846   4.069   3.480   4.088
 7316SOL    HW122847   4.099   3.388   4.066
 7316SOL    HW222848   3.971   3.490   4.067
 7317SOL     OW22849   2.807   0.770   4.074
 7317SOL    HW122850   2.768   0.774   3.982
 7317SOL    HW222851   2.745   0.815   4.139
 7318SOL     OW22852   1.263   1.324   1.505
 7318SOL    HW122853   1.326   1.375   1.562
 7318SOL    HW222854   1.276   1.226   1.519
 7319SOL     OW22855   0.137   4.345   6.147
 7319SOL    HW122856   0.135   4.257   6.193
 7319SOL    HW222857   0.119   4.418   6.213
 7320SOL     OW22858   0.554   1.867   2.271
 7320SOL    HW122859   0.525   1.867   2.367
 7320SOL    HW222860   0.474   1.867   2.212
 7321SOL     OW22861   3.131   1.357   4.154
 7321SOL    HW122862   3.200   1.298   4.196
 7321SOL    HW222863   3.086   1.308   4.080
 7322SOL     OW22864   1.222   3.409   1.391
 7322SOL    HW122865   1.240   3.369   1.301
 7322SOL    HW222866   1.293   3.476   1.413
 7323SOL     OW22867   2.300   4.174   3.056
 7323SOL    HW122868   2.311   4.089   3.108
 7323SOL    HW222869   2.310   4.252   3.117
 7324SOL     OW22870   5.046   5.019   3.744
 7324SOL    HW122871   4.947   5.030   3.740
 7324SOL    HW222872   5.089   5.073   3.671
 7325SOL     OW22873   3.036   6.244   0.861
 7325SOL    HW122874   2.988   6.284   0.939
 7325SOL    HW222875   3.012   6.147   0.853
 7326SOL     OW22876   2.361   0.888   4.142
 7326SOL    HW122877   2.329   0.794   4.133
 7326SOL    HW222878   2.287   0.945   4.179
 7327SOL     OW22879   1.037   3.088   5.805
 7327SOL    HW122880   1.046   3.188   5.806
 7327SOL    HW222881   1.127   3.047   5.813
 7328SOL     OW22882   2.169   6.915   6.870
 7328SOL    HW122883   2.170   6.949   6.964
 7328SOL    HW222884   2.247   6.854   6.855
 7329SOL     OW22885   4.702   3.754   1.709
 7329SOL    HW122886   4.690   3.847   1.673
 7329SOL    HW222887   4.612   3.711   1.719
 7330SOL     OW22888   4.018   2.096   0.911
 7330SOL    HW122889   4.005   2.117   1.008
 7330SOL    HW222890   3.994   2.176   0.856
 7331SOL     OW22891   5.149   1.594   1.597
 7331SOL    HW122892   5.099   1.529   1.541
 7331SOL    HW222893   5.102   1.682   1.596
 7332SOL     OW22894   3.578   6.701   0.522
 7332SOL    HW122895   3.604   6.613   0.562
 7332SOL    HW222896   3.659   6.759   0.515
 7333SOL     OW22897   0.524   4.612   2.264
 7333SOL    HW122898   0.469   4.680   2.216
 7333SOL    HW222899   0.615   4.608   2.224
 7334SOL     OW22900   2.908   0.477   4.589
 7334SOL    HW122901   2.946   0.417   4.517
 7334SOL    HW222902   2.861   0.421   4.657
 7335SOL     OW22903   1.864   3.253   3.002
 7335SOL    HW122904   1.916   3.167   3.006
 7335SOL    HW222905   1.856   3.282   2.907
 7336SOL     OW22906   1.543   6.499   4.219
 7336SOL    HW122907   1.459   6.479   4.169
 7336SOL    HW222908   1.528   6.578   4.279
 7337SOL     OW22909   5.068   2.611   1.370
 7337SOL    HW122910   5.114   2.692   1.406
 7337SOL    HW222911   4.990   2.639   1.313
 7338SOL     OW22912   6.910   3.514   0.257
 7338SOL    HW122913   6.960   3.581   0.311
 7338SOL    HW222914   6.896   3.549   0.164
 7339SOL     OW22915   1.492   6.002   4.845
 7339SOL    HW122916   1.485   5.902   4.838
 7339SOL    HW222917   1.577   6.026   4.892
 7340SOL     OW22918   2.816   6.734   6.603
 7340SOL    HW122919   2.910   6.708   6.581
 7340SOL    HW222920   2.766   6.753   6.519
 7341SOL     OW22921   6.206   1.989   0.569
 7341SOL    HW122922   6.110   2.017   0.564
 7341SOL    HW222923   6.215   1.897   0.531
 7342SOL     OW22924   0.263   6.415   2.081
 7342SOL    HW122925   0.164   6.406   2.096
 7342SOL    HW222926   0.291   6.509   2.097
 7343SOL     OW22927   6.305   2.609   0.502
 7343SOL    HW122928   6.307   2.510   0.512
 7343SOL    HW222929   6.317   2.652   0.591
 7344SOL     OW22930   2.459   6.873   5.999
 7344SOL    HW122931   2.443   6.934   6.076
 7344SOL    HW222932   2.512   6.794   6.030
 7345SOL     OW22933   3.765   5.602   6.288
 7345SOL    HW122934   3.839   5.589   6.222
 7345SOL    HW222935   3.756   5.699   6.310
 7346SOL     OW22936   4.120   5.100   2.243
 7346SOL    HW122937   4.213   5.128   2.266
 7346SOL    HW222938   4.064   5.182   2.226
 7347SOL     OW22939   5.534   1.152   6.814
 7347SOL    HW122940   5.490   1.075   6.861
 7347SOL    HW222941   5.633   1.141   6.817
 7348SOL     OW22942   0.376   5.622   0.227
 7348SOL    HW122943   0.386   5.629   0.326
 7348SOL    HW222944   0.374   5.526   0.200
 7349SOL     OW22945   4.300   1.348   1.480
 7349SOL    HW122946   4.326   1.340   1.384
 7349SOL    HW222947   4.369   1.400   1.530
 7350SOL     OW22948   4.010   0.917   4.800
 7350SOL    HW122949   4.006   0.966   4.713
 7350SOL    HW222950   4.014   0.819   4.783
 7351SOL     OW22951   2.081   4.396   4.523
 7351SOL    HW122952   2.150   4.374   4.592
 7351SOL    HW222953   1.994   4.415   4.568
 7352SOL     OW22954   5.736   3.246   4.339
 7352SOL    HW122955   5.816   3.189   4.319
 7352SOL    HW222956   5.748   3.288   4.430
 7353SOL     OW22957   6.515   1.401   5.400
 7353SOL    HW122958   6.513   1.499   5.380
 7353SOL    HW222959   6.582   1.357   5.340
 7354SOL     OW22960   1.207   1.936   2.652
 7354SOL    HW122961   1.274   1.972   2.717
 7354SOL    HW222962   1.221   1.837   2.641
 7355SOL     OW22963   3.361   1.838   0.367
 7355SOL    HW122964   3.275   1.826   0.417
 7355SOL    HW222965   3.389   1.750   0.329
 7356SOL     OW22966   3.888   4.577   6.204
 7356SOL    HW122967   3.793   4.552   6.187
 7356SOL    HW222968   3.891   4.661   6.259
 7357SOL     OW22969   4.228   6.390   1.843
 7357SOL    HW122970   4.147   6.387   1.784
 7357SOL    HW222971   4.241   6.302   1.887
 7358SOL     OW22972   4.503   6.819   3.174
 7358SOL    HW122973   4.593   6.821   3.130
 7358SOL    HW222974   4.446   6.749   3.132
 7359SOL     OW22975   3.911   0.347   2.083
 7359SOL    HW122976   3.888   0.417   2.150
 7359SOL    HW222977   3.846   0.272   2.089
 7360SOL     OW22978   2.863   3.620   5.973
 7360SOL    HW122979   2.837   3.639   5.878
 7360SOL    HW222980   2.911   3.532   5.976
 7361SOL     OW22981   6.455   0.681   3.346
 7361SOL    HW122982   6.499   0.615   3.408
 7361SOL    HW222983   6.504   0.768   3.350
 7362SOL     OW22984   3.569   5.976   0.383
 7362SOL    HW122985   3.521   6.052   0.426
 7362SOL    HW222986   3.524   5.890   0.408
 7363SOL     OW22987   4.578   0.648   1.140
 7363SOL    HW122988   4.653   0.590   1.111
 7363SOL    HW222989   4.569   0.725   1.077
 7364SOL     OW22990   5.683   6.361   2.077
 7364SOL    HW122991   5.731   6.333   1.995
 7364SOL    HW222992   5.681   6.461   2.083
 7365SOL     OW22993   4.797   2.949   2.451
 7365SOL    HW122994   4.830   2.918   2.362
 7365SOL    HW222995   4.725   2.887   2.482
 7366SOL     OW22996   2.610   0.054   3.425
 7366SOL    HW122997   2.544   7.004   3.398
 7366SOL    HW222998   2.702   0.021   3.408
 7367SOL     OW22999   4.577   1.327   6.888
 7367SOL    HW123000   4.577   1.260   6.814
 7367SOL    HW223001   4.641   1.401   6.866
 7368SOL     OW23002   3.189   4.092   2.968
 7368SOL    HW123003   3.140   4.028   3.027
 7368SOL    HW223004   3.280   4.108   3.005
 7369SOL     OW23005   5.861   3.431   0.119
 7369SOL    HW123006   5.905   3.518   0.140
 7369SOL    HW223007   5.762   3.440   0.130
 7370SOL     OW23008   1.889   1.037   4.163
 7370SOL    HW123009   1.833   0.958   4.188
 7370SOL    HW223010   1.873   1.111   4.229
 7371SOL     OW23011   3.903   0.549   3.478
 7371SOL    HW123012   3.841   0.627   3.466
 7371SOL    HW223013   3.997   0.579   3.463
 7372SOL     OW23014   4.792   1.072   5.420
 7372SOL    HW123015   4.723   1.051   5.490
 7372SOL    HW223016   4.753   1.136   5.353
 7373SOL     OW23017   6.459   2.832   3.791
 7373SOL    HW123018   6.388   2.796   3.730
 7373SOL    HW223019   6.510   2.904   3.744
 7374SOL     OW23020   0.559   2.839   6.537
 7374SOL    HW123021   0.568   2.772   6.463
 7374SOL    HW223022   0.468   2.831   6.578
 7375SOL     OW23023   2.240   2.944   0.775
 7375SOL    HW123024   2.166   3.010   0.779
 7375SOL    HW223025   2.313   2.978   0.715
 7376SOL     OW23026   6.779   5.245   0.783
 7376SOL    HW123027   6.726   5.289   0.710
 7376SOL    HW223028   6.720   5.185   0.836
 7377SOL     OW23029   2.539   5.708   0.984
 7377SOL    HW123030   2.494   5.734   1.069
 7377SOL    HW223031   2.487   5.743   0.906
 7378SOL     OW23032   2.141   5.259   5.835
 7378SOL    HW123033   2.066   5.205   5.796
 7378SOL    HW223034   2.200   5.199   5.888
 7379SOL     OW23035   5.322   2.414   2.245
 7379SOL    HW123036   5.251   2.389   2.179
 7379SOL    HW223037   5.382   2.482   2.205
 7380SOL     OW23038   5.171   3.437   1.881
 7380SOL    HW123039   5.207   3.433   1.975
 7380SOL    HW223040   5.075   3.412   1.882
 7381SOL     OW23041   3.694   6.774   1.733
 7381SOL    HW123042   3.754   6.730   1.666
 7381SOL    HW223043   3.749   6.817   1.804
 7382SOL     OW23044   0.230   2.657   6.797
 7382SOL    HW123045   0.325   2.644   6.825
 7382SOL    HW223046   0.217   2.615   6.707
 7383SOL     OW23047   2.345   6.683   1.157
 7383SOL    HW123048   2.423   6.631   1.193
 7383SOL    HW223049   2.336   6.768   1.208
 7384SOL     OW23050   6.600   6.837   0.178
 7384SOL    HW123051   6.596   6.749   0.130
 7384SOL    HW223052   6.695   6.867   0.186
 7385SOL     OW23053   6.332   4.528   3.065
 7385SOL    HW123054   6.361   4.577   3.147
 7385SOL    HW223055   6.381   4.441   3.059
 7386SOL     OW23056   6.112   4.543   0.262
 7386SOL    HW123057   6.187   4.514   0.202
 7386SOL    HW223058   6.062   4.463   0.294
 7387SOL     OW23059   6.817   5.691   4.258
 7387SOL    HW123060   6.890   5.623   4.262
 7387SOL    HW223061   6.784   5.711   4.350
 7388SOL     OW23062   2.408   4.367   2.558
 7388SOL    HW123063   2.397   4.383   2.460
 7388SOL    HW223064   2.439   4.451   2.603
 7389SOL     OW23065   6.541   2.826   0.698
 7389SOL    HW123066   6.624   2.814   0.751
 7389SOL    HW223067   6.469   2.766   0.733
 7390SOL     OW23068   3.748   2.107   4.058
 7390SOL    HW123069   3.778   2.098   4.153
 7390SOL    HW223070   3.712   2.020   4.026
 7391SOL     OW23071   3.724   3.716   3.395
 7391SOL    HW123072   3.732   3.695   3.297
 7391SOL    HW223073   3.788   3.789   3.418
 7392SOL     OW23074   3.341   6.098   0.900
 7392SOL    HW123075   3.396   6.112   0.983
 7392SOL    HW223076   3.354   6.175   0.838
 7393SOL     OW23077   5.044   5.047   3.262
 7393SOL    HW123078   5.011   5.016   3.351
 7393SOL    HW223079   5.090   4.971   3.215
 7394SOL     OW23080   1.788   2.202   6.155
 7394SOL    HW123081   1.775   2.190   6.056
 7394SOL    HW223082   1.699   2.201   6.200
 7395SOL     OW23083   2.730   6.059   1.416
 7395SOL    HW123084   2.700   5.979   1.468
 7395SOL    HW223085   2.828   6.074   1.431
 7396SOL     OW23086   1.359   5.368   2.407
 7396SOL    HW123087   1.295   5.435   2.369
 7396SOL    HW223088   1.322   5.276   2.392
 7397SOL     OW23089   6.040   4.781   4.015
 7397SOL    HW123090   6.041   4.881   4.006
 7397SOL    HW223091   5.983   4.756   4.093
 7398SOL     OW23092   3.278   5.188   2.304
 7398SOL    HW123093   3.318   5.138   2.381
 7398SOL    HW223094   3.232   5.124   2.242
 7399SOL     OW23095   6.164   1.881   5.331
 7399SOL    HW123096   6.127   1.919   5.246
 7399SOL    HW223097   6.195   1.787   5.315
 7400SOL     OW23098   3.945   3.495   5.295
 7400SOL    HW123099   3.850   3.507   5.265
 7400SOL    HW223100   4.005   3.499   5.215
 7401SOL     OW23101   1.779   2.670   3.693
 7401SOL    HW123102   1.743   2.586   3.654
 7401SOL    HW223103   1.749   2.748   3.638
 7402SOL     OW23104   3.610   5.226   4.076
 7402SOL    HW123105   3.707   5.209   4.062
 7402SOL    HW223106   3.599   5.301   4.142
 7403SOL     OW23107   1.815   4.807   4.360
 7403SOL    HW123108   1.853   4.715   4.357
 7403SOL    HW223109   1.717   4.802   4.375
 7404SOL     OW23110   1.891   3.490   0.853
 7404SOL    HW123111   1.794   3.466   0.845
 7404SOL    HW223112   1.942   3.411   0.888
 7405SOL     OW23113   3.658   6.611   5.904
 7405SOL    HW123114   3.585   6.547   5.927
 7405SOL    HW223115   3.746   6.569   5.924
 7406SOL     OW23116   0.455   2.691   4.297
 7406SOL    HW123117   0.491   2.669   4.387
 7406SOL    HW223118   0.471   2.788   4.277
 7407SOL     OW23119   1.250   6.518   4.602
 7407SOL    HW123120   1.215   6.424   4.601
 7407SOL    HW223121   1.346   6.517   4.629
 7408SOL     OW23122   4.120   5.326   5.780
 7408SOL    HW123123   4.216   5.343   5.758
 7408SOL    HW223124   4.071   5.413   5.784
 7409SOL     OW23125   6.526   5.319   1.833
 7409SOL    HW123126   6.585   5.365   1.766
 7409SOL    HW223127   6.436   5.363   1.832
 7410SOL     OW23128   6.337   0.935   0.927
 7410SOL    HW123129   6.356   0.867   0.857
 7410SOL    HW223130   6.349   0.895   1.017
 7411SOL     OW23131   3.760   1.909   5.235
 7411SOL    HW123132   3.796   1.945   5.149
 7411SOL    HW223133   3.712   1.982   5.285
 7412SOL     OW23134   4.224   6.822   6.983
 7412SOL    HW123135   4.191   6.729   6.970
 7412SOL    HW223136   4.200   6.878   6.904
 7413SOL     OW23137   5.328   0.810   3.563
 7413SOL    HW123138   5.272   0.729   3.548
 7413SOL    HW223139   5.379   0.832   3.479
 7414SOL     OW23140   2.639   0.937   4.241
 7414SOL    HW123141   2.539   0.927   4.232
 7414SOL    HW223142   2.663   0.944   4.337
 7415SOL     OW23143   4.079   0.887   6.533
 7415SOL    HW123144   4.127   0.973   6.516
 7415SOL    HW223145   4.014   0.870   6.458
 7416SOL     OW23146   1.040   0.212   1.896
 7416SOL    HW123147   1.013   0.288   1.836
 7416SOL    HW223148   1.015   0.125   1.852
 7417SOL     OW23149   0.737   0.384   2.150
 7417SOL    HW123150   0.810   0.403   2.085
 7417SOL    HW223151   0.670   0.323   2.108
 7418SOL     OW23152   1.607   3.630   6.322
 7418SOL    HW123153   1.655   3.593   6.243
 7418SOL    HW223154   1.664   3.698   6.367
 7419SOL     OW23155   6.470   2.829   4.606
 7419SOL    HW123156   6.448   2.890   4.530
 7419SOL    HW223157   6.438   2.736   4.584
 7420SOL     OW23158   6.964   6.857   0.954
 7420SOL    HW123159   6.891   6.861   1.022
 7420SOL    HW223160   0.020   6.915   0.982
 7421SOL     OW23161   6.459   3.839   1.253
 7421SOL    HW123162   6.483   3.765   1.315
 7421SOL    HW223163   6.380   3.813   1.198
 7422SOL     OW23164   5.739   3.505   1.646
 7422SOL    HW123165   5.647   3.535   1.673
 7422SOL    HW223166   5.750   3.408   1.669
 7423SOL     OW23167   4.246   2.360   5.589
 7423SOL    HW123168   4.277   2.435   5.647
 7423SOL    HW223169   4.183   2.302   5.640
 7424SOL     OW23170   0.417   1.646   3.884
 7424SOL    HW123171   0.514   1.659   3.868
 7424SOL    HW223172   0.402   1.630   3.982
 7425SOL     OW23173   5.566   0.134   1.223
 7425SOL    HW123174   5.652   0.165   1.183
 7425SOL    HW223175   5.527   0.206   1.280
 7426SOL     OW23176   3.405   3.580   5.262
 7426SOL    HW123177   3.317   3.556   5.303
 7426SOL    HW223178   3.406   3.549   5.166
 7427SOL     OW23179   2.969   0.491   2.203
 7427SOL    HW123180   2.898   0.533   2.258
 7427SOL    HW223181   3.059   0.523   2.233
 7428SOL     OW23182   2.038   7.002   5.282
 7428SOL    HW123183   2.066   0.003   5.188
 7428SOL    HW223184   1.990   0.062   5.320
 7429SOL     OW23185   0.912   1.112   2.292
 7429SOL    HW123186   0.913   1.014   2.272
 7429SOL    HW223187   0.963   1.162   2.222
 7430SOL     OW23188   6.587   4.495   2.852
 7430SOL    HW123189   6.622   4.586   2.876
 7430SOL    HW223190   6.511   4.504   2.788
 7431SOL     OW23191   0.978   2.255   4.435
 7431SOL    HW123192   1.042   2.185   4.469
 7431SOL    HW223193   0.912   2.212   4.373
 7432SOL     OW23194   1.664   1.194   3.087
 7432SOL    HW123195   1.569   1.197   3.117
 7432SOL    HW223196   1.677   1.256   3.010
 7433SOL     OW23197   3.423   0.214   6.505
 7433SOL    HW123198   3.410   0.176   6.597
 7433SOL    HW223199   3.439   0.312   6.512
 7434SOL     OW23200   4.237   0.094   3.800
 7434SOL    HW123201   4.317   0.037   3.818
 7434SOL    HW223202   4.264   0.190   3.802
 7435SOL     OW23203   5.002   4.588   3.086
 7435SOL    HW123204   4.992   4.672   3.034
 7435SOL    HW223205   5.071   4.530   3.043
 7436SOL     OW23206   4.265   2.718   5.983
 7436SOL    HW123207   4.254   2.653   5.907
 7436SOL    HW223208   4.264   2.811   5.946
 7437SOL     OW23209   3.483   0.466   1.238
 7437SOL    HW123210   3.476   0.500   1.332
 7437SOL    HW223211   3.521   0.537   1.180
 7438SOL     OW23212   1.868   0.418   6.862
 7438SOL    HW123213   1.911   0.492   6.811
 7438SOL    HW223214   1.776   0.446   6.891
 7439SOL     OW23215   1.702   4.576   6.276
 7439SOL    HW123216   1.681   4.508   6.346
 7439SOL    HW223217   1.639   4.565   6.199
 7440SOL     OW23218   5.522   2.843   4.092
 7440SOL    HW123219   5.587   2.909   4.055
 7440SOL    HW223220   5.454   2.891   4.148
 7441SOL     OW23221   4.098   6.551   0.402
 7441SOL    HW123222   4.133   6.641   0.376
 7441SOL    HW223223   4.175   6.489   0.419
 7442SOL     OW23224   6.218   0.988   5.932
 7442SOL    HW123225   6.202   0.980   6.031
 7442SOL    HW223226   6.199   1.082   5.903
 7443SOL     OW23227   0.462   6.680   1.106
 7443SOL    HW123228   0.420   6.592   1.087
 7443SOL    HW223229   0.500   6.681   1.198
 7444SOL     OW23230   1.346   5.621   6.600
 7444SOL    HW123231   1.309   5.637   6.509
 7444SOL    HW223232   1.427   5.562   6.592
 7445SOL     OW23233   3.361   5.768   2.365
 7445SOL    HW123234   3.379   5.859   2.403
 7445SOL    HW223235   3.374   5.699   2.436
 7446SOL     OW23236   6.654   5.347   0.572
 7446SOL    HW123237   6.697   5.316   0.487
 7446SOL    HW223238   6.555   5.350   0.560
 7447SOL     OW23239   0.758   5.381   0.580
 7447SOL    HW123240   0.794   5.364   0.672
 7447SOL    HW223241   0.831   5.366   0.513
 7448SOL     OW23242   4.664   4.775   6.724
 7448SOL    HW123243   4.710   4.863   6.721
 7448SOL    HW223244   4.725   4.704   6.690
 7449SOL     OW23245   6.829   4.153   6.634
 7449SOL    HW123246   6.843   4.139   6.732
 7449SOL    HW223247   6.915   4.181   6.592
 7450SOL     OW23248   5.585   2.997   0.775
 7450SOL    HW123249   5.667   2.952   0.808
 7450SOL    HW223250   5.563   3.075   0.834
 7451SOL     OW23251   4.599   4.753   2.985
 7451SOL    HW123252   4.599   4.656   2.959
 7451SOL    HW223253   4.606   4.760   3.084
 7452SOL     OW23254   6.655   5.893   6.428
 7452SOL    HW123255   6.571   5.907   6.481
 7452SOL    HW223256   6.687   5.981   6.392
 7453SOL     OW23257   4.423   5.248   6.184
 7453SOL    HW123258   4.402   5.172   6.246
 7453SOL    HW223259   4.433   5.332   6.238
 7454SOL     OW23260   3.877   1.866   0.897
 7454SOL    HW123261   3.826   1.842   0.980
 7454SOL    HW223262   3.916   1.958   0.907
 7455SOL     OW23263   6.408   0.243   3.284
 7455SOL    HW123264   6.441   0.206   3.371
 7455SOL    HW223265   6.357   0.173   3.235
 7456SOL     OW23266   2.961   1.494   5.532
 7456SOL    HW123267   3.054   1.487   5.567
 7456SOL    HW223268   2.906   1.550   5.594
 7457SOL     OW23269   1.282   1.494   2.346
 7457SOL    HW123270   1.283   1.416   2.408
 7457SOL    HW223271   1.187   1.523   2.331
 7458SOL     OW23272   0.292   5.875   5.190
 7458SOL    HW123273   0.264   5.946   5.124
 7458SOL    HW223274   0.250   5.788   5.164
 7459SOL     OW23275   5.571   6.748   3.263
 7459SOL    HW123276   5.648   6.725   3.323
 7459SOL    HW223277   5.605   6.781   3.175
 7460SOL     OW23278   0.624   0.162   0.867
 7460SOL    HW123279   0.718   0.135   0.892
 7460SOL    HW223280   0.566   0.155   0.948
 7461SOL     OW23281   1.933   4.213   4.793
 7461SOL    HW123282   2.029   4.201   4.818
 7461SOL    HW223283   1.912   4.155   4.714
 7462SOL     OW23284   2.037   4.880   0.008
 7462SOL    HW123285   1.982   4.806   6.990
 7462SOL    HW223286   1.979   4.958   0.029
 7463SOL     OW23287   4.917   5.145   1.384
 7463SOL    HW123288   4.997   5.085   1.393
 7463SOL    HW223289   4.867   5.121   1.301
 7464SOL     OW23290   5.265   4.892   5.268
 7464SOL    HW123291   5.325   4.817   5.239
 7464SOL    HW223292   5.315   4.952   5.331
 7465SOL     OW23293   1.343   3.989   6.812
 7465SOL    HW123294   1.287   4.070   6.797
 7465SOL    HW223295   1.435   4.016   6.838
 7466SOL     OW23296   0.427   0.211   5.342
 7466SOL    HW123297   0.484   0.285   5.377
 7466SOL    HW223298   0.478   0.124   5.347
 7467SOL     OW23299   0.817   3.704   4.157
 7467SOL    HW123300   0.764   3.628   4.195
 7467SOL    HW223301   0.855   3.677   4.069
 7468SOL     OW23302   5.528   2.553   4.602
 7468SOL    HW123303   5.601   2.615   4.575
 7468SOL    HW223304   5.564   2.486   4.667
 7469SOL     OW23305   0.142   2.187   0.287
 7469SOL    HW123306   0.073   2.134   0.336
 7469SOL    HW223307   0.120   2.284   0.293
 7470SOL     OW23308   4.865   2.524   3.690
 7470SOL    HW123309   4.795   2.480   3.635
 7470SOL    HW223310   4.869   2.481   3.780
 7471SOL     OW23311   3.370   6.562   6.279
 7471SOL    HW123312   3.383   6.562   6.378
 7471SOL    HW223313   3.329   6.648   6.250
 7472SOL     OW23314   0.009   0.430   5.567
 7472SOL    HW123315   0.002   0.423   5.666
 7472SOL    HW223316   0.058   0.350   5.531
 7473SOL     OW23317   4.064   6.057   3.405
 7473SOL    HW123318   3.982   6.096   3.447
 7473SOL    HW223319   4.038   6.010   3.320
 7474SOL     OW23320   6.207   2.290   0.635
 7474SOL    HW123321   6.203   2.191   0.639
 7474SOL    HW223322   6.116   2.328   0.652
 7475SOL     OW23323   5.104   2.458   0.830
 7475SOL    HW123324   5.033   2.394   0.863
 7475SOL    HW223325   5.070   2.552   0.839
 7476SOL     OW23326   2.611   1.493   2.669
 7476SOL    HW123327   2.579   1.429   2.738
 7476SOL    HW223328   2.536   1.554   2.642
 7477SOL     OW23329   2.470   3.626   5.740
 7477SOL    HW123330   2.500   3.639   5.646
 7477SOL    HW223331   2.475   3.713   5.789
 7478SOL     OW23332   0.556   2.664   6.341
 7478SOL    HW123333   0.472   2.649   6.288
 7478SOL    HW223334   0.614   2.583   6.336
 7479SOL     OW23335   5.281   3.137   1.494
 7479SOL    HW123336   5.183   3.156   1.497
 7479SOL    HW223337   5.297   3.039   1.509
 7480SOL     OW23338   3.690   5.941   2.526
 7480SOL    HW123339   3.772   5.893   2.497
 7480SOL    HW223340   3.715   6.022   2.579
 7481SOL     OW23341   0.103   3.976   6.940
 7481SOL    HW123342   0.183   3.979   7.000
 7481SOL    HW223343   0.129   3.944   6.849
 7482SOL     OW23344   4.353   2.043   4.539
 7482SOL    HW123345   4.412   2.096   4.601
 7482SOL    HW223346   4.396   2.036   4.450
 7483SOL     OW23347   5.270   1.389   5.819
 7483SOL    HW123348   5.222   1.414   5.735
 7483SOL    HW223349   5.321   1.469   5.853
 7484SOL     OW23350   2.335   0.862   4.550
 7484SOL    HW123351   2.270   0.929   4.514
 7484SOL    HW223352   2.427   0.884   4.517
 7485SOL     OW23353   4.319   0.161   6.671
 7485SOL    HW123354   4.339   0.073   6.628
 7485SOL    HW223355   4.275   0.146   6.760
 7486SOL     OW23356   4.289   6.393   1.207
 7486SOL    HW123357   4.277   6.308   1.258
 7486SOL    HW223358   4.228   6.393   1.128
 7487SOL     OW23359   3.199   6.161   4.299
 7487SOL    HW123360   3.268   6.228   4.271
 7487SOL    HW223361   3.191   6.161   4.398
 7488SOL     OW23362   1.598   6.178   4.016
 7488SOL    HW123363   1.651   6.166   4.100
 7488SOL    HW223364   1.501   6.191   4.039
 7489SOL     OW23365   4.877   3.158   6.336
 7489SOL    HW123366   4.952   3.208   6.380
 7489SOL    HW223367   4.889   3.160   6.237
 7490SOL     OW23368   1.879   2.385   1.583
 7490SOL    HW123369   1.978   2.397   1.571
 7490SOL    HW223370   1.852   2.298   1.542
 7491SOL     OW23371   4.765   3.953   6.513
 7491SOL    HW123372   4.732   3.881   6.574
 7491SOL    HW223373   4.688   4.004   6.476
 7492SOL     OW23374   1.668   0.742   3.726
 7492SOL    HW123375   1.712   0.832   3.731
 7492SOL    HW223376   1.575   0.753   3.691
 7493SOL     OW23377   6.041   4.857   4.519
 7493SOL    HW123378   6.021   4.837   4.423
 7493SOL    HW223379   6.120   4.919   4.524
 7494SOL     OW23380   6.082   1.117   2.192
 7494SOL    HW123381   6.087   1.165   2.280
 7494SOL    HW223382   6.089   1.019   2.208
 7495SOL     OW23383   1.546   3.457   4.371
 7495SOL    HW123384   1.569   3.391   4.443
 7495SOL    HW223385   1.625   3.469   4.311
 7496SOL     OW23386   6.199   3.094   3.419
 7496SOL    HW123387   6.168   3.003   3.449
 7496SOL    HW223388   6.137   3.129   3.349
 7497SOL     OW23389   6.510   0.149   1.556
 7497SOL    HW123390   6.574   0.223   1.576
 7497SOL    HW223391   6.443   0.142   1.630
 7498SOL     OW23392   2.259   6.462   3.583
 7498SOL    HW123393   2.287   6.467   3.679
 7498SOL    HW223394   2.213   6.375   3.566
 7499SOL     OW23395   3.169   1.526   3.560
 7499SOL    HW123396   3.212   1.616   3.551
 7499SOL    HW223397   3.218   1.472   3.628
 7500SOL     OW23398   3.609   1.385   4.784
 7500SOL    HW123399   3.531   1.358   4.841
 7500SOL    HW223400   3.623   1.484   4.791
 7501SOL     OW23401   6.131   2.036   3.653
 7501SOL    HW123402   6.117   2.113   3.591
 7501SOL    HW223403   6.109   2.062   3.746
 7502SOL     OW23404   3.860   0.977   3.567
 7502SOL    HW123405   3.912   0.943   3.489
 7502SOL    HW223406   3.809   0.901   3.608
 7503SOL     OW23407   1.442   5.934   0.953
 7503SOL    HW123408   1.455   5.854   0.894
 7503SOL    HW223409   1.373   5.915   1.022
 7504SOL     OW23410   5.837   6.109   4.407
 7504SOL    HW123411   5.761   6.044   4.400
 7504SOL    HW223412   5.820   6.173   4.482
 7505SOL     OW23413   0.809   6.514   5.909
 7505SOL    HW123414   0.814   6.486   6.005
 7505SOL    HW223415   0.713   6.526   5.883
 7506SOL     OW23416   3.593   1.954   4.377
 7506SOL    HW123417   3.555   1.992   4.462
 7506SOL    HW223418   3.681   1.996   4.358
 7507SOL     OW23419   6.908   3.784   6.263
 7507SOL    HW123420   6.834   3.833   6.217
 7507SOL    HW223421   6.994   3.799   6.214
 7508SOL     OW23422   3.366   6.281   0.266
 7508SOL    HW123423   3.279   6.293   0.314
 7508SOL    HW223424   3.439   6.271   0.333
 7509SOL     OW23425   5.699   4.206   2.875
 7509SOL    HW123426   5.664   4.157   2.955
 7509SOL    HW223427   5.721   4.140   2.802
 7510SOL     OW23428   3.323   4.414   1.151
 7510SOL    HW123429   3.257   4.467   1.204
 7510SOL    HW223430   3.384   4.477   1.102
 7511SOL     OW23431   4.776   6.034   3.610
 7511SOL    HW123432   4.817   5.944   3.601
 7511SOL    HW223433   4.725   6.056   3.526
 7512SOL     OW23434   4.088   6.483   1.008
 7512SOL    HW123435   4.108   6.506   0.913
 7512SOL    HW223436   4.009   6.422   1.011
 7513SOL     OW23437   0.679   0.424   2.394
 7513SOL    HW123438   0.739   0.365   2.448
 7513SOL    HW223439   0.697   0.410   2.297
 7514SOL     OW23440   0.290   0.197   0.636
 7514SOL    HW123441   0.193   0.218   0.642
 7514SOL    HW223442   0.307   0.143   0.553
 7515SOL     OW23443   6.949   4.779   4.846
 7515SOL    HW123444   6.907   4.688   4.851
 7515SOL    HW223445   6.898   4.842   4.906
 7516SOL     OW23446   2.096   6.031   5.086
 7516SOL    HW123447   2.117   5.956   5.022
 7516SOL    HW223448   2.003   6.020   5.121
 7517SOL     OW23449   0.463   2.438   0.406
 7517SOL    HW123450   0.375   2.455   0.362
 7517SOL    HW223451   0.519   2.378   0.349
 7518SOL     OW23452   4.086   2.063   4.492
 7518SOL    HW123453   4.183   2.052   4.514
 7518SOL    HW223454   4.031   2.015   4.561
 7519SOL     OW23455   3.551   6.629   5.277
 7519SOL    HW123456   3.473   6.678   5.237
 7519SOL    HW223457   3.529   6.603   5.371
 7520SOL     OW23458   1.848   0.947   0.883
 7520SOL    HW123459   1.802   0.858   0.879
 7520SOL    HW223460   1.926   0.946   0.819
 7521SOL     OW23461   4.149   1.794   5.588
 7521SOL    HW123462   4.220   1.730   5.557
 7521SOL    HW223463   4.175   1.887   5.562
 7522SOL     OW23464   1.991   6.652   4.325
 7522SOL    HW123465   2.070   6.629   4.267
 7522SOL    HW223466   1.954   6.568   4.365
 7523SOL     OW23467   5.751   1.622   6.782
 7523SOL    HW123468   5.730   1.664   6.693
 7523SOL    HW223469   5.801   1.688   6.838
 7524SOL     OW23470   0.376   3.607   4.919
 7524SOL    HW123471   0.296   3.648   4.875
 7524SOL    HW223472   0.455   3.615   4.858
 7525SOL     OW23473   1.938   4.672   5.553
 7525SOL    HW123474   2.008   4.685   5.483
 7525SOL    HW223475   1.862   4.620   5.516
 7526SOL     OW23476   1.559   4.557   0.656
 7526SOL    HW123477   1.466   4.570   0.622
 7526SOL    HW223478   1.587   4.639   0.707
 7527SOL     OW23479   2.838   5.538   2.261
 7527SOL    HW123480   2.897   5.555   2.183
 7527SOL    HW223481   2.893   5.503   2.337
 7528SOL     OW23482   6.176   2.575   6.793
 7528SOL    HW123483   6.267   2.566   6.752
 7528SOL    HW223484   6.159   2.670   6.818
 7529SOL     OW23485   5.782   3.361   4.702
 7529SOL    HW123486   5.831   3.393   4.783
 7529SOL    HW223487   5.696   3.317   4.731
 7530SOL     OW23488   1.308   2.800   3.093
 7530SOL    HW123489   1.391   2.804   3.147
 7530SOL    HW223490   1.228   2.816   3.152
 7531SOL     OW23491   4.146   1.855   3.932
 7531SOL    HW123492   4.116   1.894   4.019
 7531SOL    HW223493   4.071   1.860   3.866
 7532SOL     OW23494   4.724   5.011   6.385
 7532SOL    HW123495   4.728   4.916   6.351
 7532SOL    HW223496   4.781   5.019   6.467
 7533SOL     OW23497   4.394   4.838   1.599
 7533SOL    HW123498   4.434   4.873   1.514
 7533SOL    HW223499   4.373   4.740   1.589
 7534SOL     OW23500   4.527   6.274   5.310
 7534SOL    HW123501   4.502   6.333   5.387
 7534SOL    HW223502   4.468   6.295   5.232
 7535SOL     OW23503   0.401   0.066   4.263
 7535SOL    HW123504   0.371   0.076   4.168
 7535SOL    HW223505   0.322   0.043   4.320
 7536SOL     OW23506   6.256   6.836   2.792
 7536SOL    HW123507   6.264   6.921   2.844
 7536SOL    HW223508   6.238   6.760   2.854
 7537SOL     OW23509   2.210   0.232   2.429
 7537SOL    HW123510   2.132   0.170   2.418
 7537SOL    HW223511   2.268   0.227   2.348
 7538SOL     OW23512   0.167   4.937   7.018
 7538SOL    HW123513   0.250   4.919   6.965
 7538SOL    HW223514   0.151   4.862   0.062
 7539SOL     OW23515   6.369   0.543   4.826
 7539SOL    HW123516   6.456   0.576   4.789
 7539SOL    HW223517   6.309   0.516   4.751
 7540SOL     OW23518   4.830   3.924   3.509
 7540SOL    HW123519   4.830   3.911   3.608
 7540SOL    HW223520   4.817   4.021   3.487
 7541SOL     OW23521   2.379   4.267   0.216
 7541SOL    HW123522   2.433   4.334   0.267
 7541SOL    HW223523   2.319   4.314   0.151
 7542SOL     OW23524   6.227   5.822   4.757
 7542SOL    HW123525   6.244   5.725   4.774
 7542SOL    HW223526   6.139   5.833   4.711
 7543SOL     OW23527   2.067   1.229   0.928
 7543SOL    HW123528   2.055   1.175   1.012
 7543SOL    HW223529   2.137   1.298   0.943
 7544SOL     OW23530   5.661   1.188   4.922
 7544SOL    HW123531   5.691   1.283   4.926
 7544SOL    HW223532   5.738   1.128   4.942
 7545SOL     OW23533   1.494   5.231   5.142
 7545SOL    HW123534   1.470   5.314   5.192
 7545SOL    HW223535   1.480   5.152   5.201
 7546SOL     OW23536   2.622   2.613   1.614
 7546SOL    HW123537   2.716   2.601   1.581
 7546SOL    HW223538   2.601   2.541   1.680
 7547SOL     OW23539   4.213   0.071   2.321
 7547SOL    HW123540   4.161   0.117   2.393
 7547SOL    HW223541   4.294   0.124   2.299
 7548SOL     OW23542   2.464   2.055   6.516
 7548SOL    HW123543   2.455   2.077   6.419
 7548SOL    HW223544   2.406   1.977   6.539
 7549SOL     OW23545   5.268   0.541   4.181
 7549SOL    HW123546   5.287   0.561   4.278
 7549SOL    HW223547   5.186   0.484   4.174
 7550SOL     OW23548   2.158   5.886   4.843
 7550SOL    HW123549   2.214   5.829   4.904
 7550SOL    HW223550   2.083   5.831   4.807
 7551SOL     OW23551   6.478   3.229   6.246
 7551SOL    HW123552   6.537   3.154   6.214
 7551SOL    HW223553   6.481   3.303   6.179
 7552SOL     OW23554   2.642   6.658   4.698
 7552SOL    HW123555   2.575   6.649   4.772
 7552SOL    HW223556   2.641   6.752   4.664
 7553SOL     OW23557   6.432   6.859   5.947
 7553SOL    HW123558   6.376   6.793   5.897
 7553SOL    HW223559   6.522   6.865   5.903
 7554SOL     OW23560   5.321   1.433   1.378
 7554SOL    HW123561   5.310   1.334   1.383
 7554SOL    HW223562   5.234   1.478   1.402
 7555SOL     OW23563   4.395   5.155   4.274
 7555SOL    HW123564   4.336   5.135   4.196
 7555SOL    HW223565   4.440   5.243   4.259
 7556SOL     OW23566   1.146   6.019   0.757
 7556SOL    HW123567   1.103   6.007   0.847
 7556SOL    HW223568   1.170   5.930   0.719
 7557SOL     OW23569   4.529   6.472   1.138
 7557SOL    HW123570   4.441   6.438   1.171
 7557SOL    HW223571   4.572   6.526   1.210
 7558SOL     OW23572   0.667   1.644   3.773
 7558SOL    HW123573   0.651   1.611   3.680
 7558SOL    HW223574   0.734   1.718   3.771
 7559SOL     OW23575   2.277   0.221   5.244
 7559SOL    HW123576   2.306   0.305   5.199
 7559SOL    HW223577   2.220   0.243   5.323
 7560SOL     OW23578   0.783   0.686   5.773
 7560SOL    HW123579   0.795   0.764   5.711
 7560SOL    HW223580   0.858   0.686   5.840
 7561SOL     OW23581   4.819   1.241   5.130
 7561SOL    HW123582   4.889   1.169   5.126
 7561SOL    HW223583   4.852   1.317   5.187
 7562SOL     OW23584   2.137   5.637   3.449
 7562SOL    HW123585   2.077   5.694   3.392
 7562SOL    HW223586   2.216   5.690   3.478
 7563SOL     OW23587   2.612   6.508   3.211
 7563SOL    HW123588   2.546   6.582   3.223
 7563SOL    HW223589   2.674   6.505   3.289
 7564SOL     OW23590   4.630   2.689   5.744
 7564SOL    HW123591   4.680   2.653   5.666
 7564SOL    HW223592   4.684   2.761   5.788
 7565SOL     OW23593   6.626   3.291   5.508
 7565SOL    HW123594   6.560   3.216   5.500
 7565SOL    HW223595   6.685   3.292   5.427
 7566SOL     OW23596   4.673   4.440   1.605
 7566SOL    HW123597   4.605   4.513   1.611
 7566SOL    HW223598   4.632   4.359   1.562
 7567SOL     OW23599   1.582   0.461   3.370
 7567SOL    HW123600   1.521   0.538   3.348
 7567SOL    HW223601   1.581   0.396   3.294
 7568SOL     OW23602   6.828   4.124   0.828
 7568SOL    HW123603   6.768   4.195   0.789
 7568SOL    HW223604   6.781   4.036   0.826
 7569SOL     OW23605   4.260   3.619   1.439
 7569SOL    HW123606   4.224   3.580   1.523
 7569SOL    HW223607   4.350   3.658   1.456
 7570SOL     OW23608   1.095   2.790   1.829
 7570SOL    HW123609   1.064   2.740   1.748
 7570SOL    HW223610   1.020   2.799   1.894
 7571SOL     OW23611   4.919   1.466   3.127
 7571SOL    HW123612   5.005   1.486   3.079
 7571SOL    HW223613   4.842   1.500   3.073
 7572SOL     OW23614   4.578   6.343   3.260
 7572SOL    HW123615   4.642   6.266   3.264
 7572SOL    HW223616   4.615   6.413   3.199
 7573SOL     OW23617   3.819   6.822   6.569
 7573SOL    HW123618   3.743   6.824   6.504
 7573SOL    HW223619   3.838   6.727   6.594
 7574SOL     OW23620   0.786   3.095   3.971
 7574SOL    HW123621   0.724   3.020   3.947
 7574SOL    HW223622   0.737   3.182   3.969
 7575SOL     OW23623   0.266   6.814   0.571
 7575SOL    HW123624   0.285   6.891   0.632
 7575SOL    HW223625   0.199   6.841   0.502
 7576SOL     OW23626   4.531   2.973   0.215
 7576SOL    HW123627   4.525   3.071   0.235
 7576SOL    HW223628   4.458   2.925   0.263
 7577SOL     OW23629   6.998   0.474   6.551
 7577SOL    HW123630   6.968   0.381   6.528
 7577SOL    HW223631   6.985   0.489   6.649
 7578SOL     OW23632   5.923   5.490   3.004
 7578SOL    HW123633   5.969   5.566   2.958
 7578SOL    HW223634   5.970   5.404   2.981
 7579SOL     OW23635   1.447   1.682   6.816
 7579SOL    HW123636   1.398   1.600   6.786
 7579SOL    HW223637   1.507   1.659   6.892
 7580SOL     OW23638   2.066   4.935   2.880
 7580SOL    HW123639   2.131   4.937   2.804
 7580SOL    HW223640   2.066   4.844   2.922
 7581SOL     OW23641   0.349   6.985   0.768
 7581SOL    HW123642   0.320   0.059   0.749
 7581SOL    HW223643   0.364   6.974   0.867
 7582SOL     OW23644   1.898   1.243   6.296
 7582SOL    HW123645   1.945   1.232   6.383
 7582SOL    HW223646   1.884   1.340   6.277
 7583SOL     OW23647   5.623   3.646   2.491
 7583SOL    HW123648   5.559   3.594   2.547
 7583SOL    HW223649   5.576   3.682   2.410
 7584SOL     OW23650   0.107   1.097   3.312
 7584SOL    HW123651   0.197   1.068   3.279
 7584SOL    HW223652   0.039   1.080   3.240
 7585SOL     OW23653   0.927   1.159   5.552
 7585SOL    HW123654   0.908   1.145   5.454
 7585SOL    HW223655   0.869   1.098   5.605
 7586SOL     OW23656   1.852   6.948   3.656
 7586SOL    HW123657   1.776   7.013   3.659
 7586SOL    HW223658   1.869   6.922   3.561
 7587SOL     OW23659   5.126   6.773   2.271
 7587SOL    HW123660   5.112   6.674   2.257
 7587SOL    HW223661   5.209   6.788   2.324
 7588SOL     OW23662   2.144   3.350   4.793
 7588SOL    HW123663   2.097   3.328   4.707
 7588SOL    HW223664   2.184   3.442   4.786
 7589SOL     OW23665   6.440   0.043   2.557
 7589SOL    HW123666   6.383   6.997   2.607
 7589SOL    HW223667   6.383   0.117   2.522
 7590SOL     OW23668   5.811   0.886   0.334
 7590SOL    HW123669   5.816   0.786   0.327
 7590SOL    HW223670   5.846   0.914   0.423
 7591SOL     OW23671   3.149   3.945   4.884
 7591SOL    HW123672   3.180   4.016   4.821
 7591SOL    HW223673   3.088   3.985   4.953
 7592SOL     OW23674   0.550   6.484   3.609
 7592SOL    HW123675   0.538   6.583   3.613
 7592SOL    HW223676   0.474   6.438   3.656
 7593SOL     OW23677   6.708   1.490   6.111
 7593SOL    HW123678   6.729   1.397   6.079
 7593SOL    HW223679   6.609   1.505   6.108
 7594SOL     OW23680   6.640   3.852   6.186
 7594SOL    HW123681   6.622   3.929   6.124
 7594SOL    HW223682   6.579   3.777   6.163
 7595SOL     OW23683   0.263   3.069   0.039
 7595SOL    HW123684   0.189   3.063   0.106
 7595SOL    HW223685   0.335   3.004   0.064
 7596SOL     OW23686   3.081   1.568   6.915
 7596SOL    HW123687   3.045   1.603   6.829
 7596SOL    HW223688   3.129   1.482   6.898
 7597SOL     OW23689   2.352   4.590   0.712
 7597SOL    HW123690   2.446   4.575   0.679
 7597SOL    HW223691   2.288   4.577   0.637
 7598SOL     OW23692   5.065   0.514   1.847
 7598SOL    HW123693   5.041   0.609   1.867
 7598SOL    HW223694   5.163   0.501   1.861
 7599SOL     OW23695   3.186   3.179   0.088
 7599SOL    HW123696   3.214   3.273   0.070
 7599SOL    HW223697   3.094   3.164   0.053
 7600SOL     OW23698   1.005   6.938   3.637
 7600SOL    HW123699   0.985   6.999   3.714
 7600SOL    HW223700   0.921   6.922   3.585
 7601SOL     OW23701   3.070   6.276   1.500
 7601SOL    HW123702   3.041   6.347   1.435
 7601SOL    HW223703   3.129   6.317   1.569
 7602SOL     OW23704   0.615   1.383   1.125
 7602SOL    HW123705   0.634   1.461   1.184
 7602SOL    HW223706   0.700   1.337   1.101
 7603SOL     OW23707   4.482   0.993   6.412
 7603SOL    HW123708   4.404   1.004   6.474
 7603SOL    HW223709   4.548   0.931   6.453
 7604SOL     OW23710   2.585   2.527   5.129
 7604SOL    HW123711   2.604   2.433   5.101
 7604SOL    HW223712   2.523   2.569   5.062
 7605SOL     OW23713   2.970   5.750   0.265
 7605SOL    HW123714   2.895   5.816   0.268
 7605SOL    HW223715   3.028   5.770   0.186
 7606SOL     OW23716   6.416   0.489   3.127
 7606SOL    HW123717   6.445   0.397   3.151
 7606SOL    HW223718   6.462   0.555   3.187
 7607SOL     OW23719   2.025   5.854   5.448
 7607SOL    HW123720   1.945   5.913   5.454
 7607SOL    HW223721   2.001   5.770   5.399
 7608SOL     OW23722   0.280   2.670   6.281
 7608SOL    HW123723   0.251   2.665   6.185
 7608SOL    HW223724   0.260   2.583   6.326
 7609SOL     OW23725   3.211   0.369   5.083
 7609SOL    HW123726   3.273   0.309   5.033
 7609SOL    HW223727   3.228   0.359   5.181
 7610SOL     OW23728   4.047   4.854   4.407
 7610SOL    HW123729   4.102   4.811   4.478
 7610SOL    HW223730   4.097   4.852   4.320
 7611SOL     OW23731   4.220   2.137   0.214
 7611SOL    HW123732   4.302   2.085   0.192
 7611SOL    HW223733   4.141   2.075   0.218
 7612SOL     OW23734   4.823   1.836   2.308
 7612SOL    HW123735   4.921   1.845   2.323
 7612SOL    HW223736   4.806   1.782   2.225
 7613SOL     OW23737   0.127   0.646   6.993
 7613SOL    HW123738   0.206   0.584   6.988
 7613SOL    HW223739   0.081   0.649   6.905
 7614SOL     OW23740   6.060   5.024   6.524
 7614SOL    HW123741   6.117   5.032   6.442
 7614SOL    HW223742   5.999   4.945   6.514
 7615SOL     OW23743   4.684   2.637   6.434
 7615SOL    HW123744   4.755   2.679   6.491
 7615SOL    HW223745   4.653   2.552   6.478
 7616SOL     OW23746   6.398   6.589   2.094
 7616SOL    HW123747   6.440   6.607   2.005
 7616SOL    HW223748   6.469   6.581   2.163
 7617SOL     OW23749   6.162   4.281   3.229
 7617SOL    HW123750   6.208   4.226   3.158
 7617SOL    HW223751   6.064   4.280   3.213
 7618SOL     OW23752   2.647   2.114   6.803
 7618SOL    HW123753   2.606   2.048   6.866
 7618SOL    HW223754   2.743   2.129   6.830
 7619SOL     OW23755   0.499   0.515   5.223
 7619SOL    HW123756   0.502   0.439   5.158
 7619SOL    HW223757   0.483   0.601   5.173
 7620SOL     OW23758   3.604   4.161   0.095
 7620SOL    HW123759   3.511   4.191   0.114
 7620SOL    HW223760   3.639   4.109   0.173
 7621SOL     OW23761   6.250   5.041   0.684
 7621SOL    HW123762   6.229   5.137   0.669
 7621SOL    HW223763   6.284   5.001   0.599
 7622SOL     OW23764   2.907   4.412   1.073
 7622SOL    HW123765   2.991   4.388   1.123
 7622SOL    HW223766   2.828   4.370   1.119
 7623SOL     OW23767   5.169   4.482   2.517
 7623SOL    HW123768   5.251   4.490   2.461
 7623SOL    HW223769   5.194   4.487   2.613
 7624SOL     OW23770   0.143   2.975   2.922
 7624SOL    HW123771   0.083   2.940   2.993
 7624SOL    HW223772   0.143   2.912   2.844
 7625SOL     OW23773   5.124   6.971   1.870
 7625SOL    HW123774   5.071   0.011   1.810
 7625SOL    HW223775   5.065   6.932   1.940
 7626SOL     OW23776   4.495   6.529   0.045
 7626SOL    HW123777   4.440   6.559   6.986
 7626SOL    HW223778   4.566   6.467   0.015
 7627SOL     OW23779   4.338   2.322   5.929
 7627SOL    HW123780   4.322   2.356   6.022
 7627SOL    HW223781   4.419   2.366   5.891
 7628SOL     OW23782   3.461   2.796   0.729
 7628SOL    HW123783   3.459   2.751   0.639
 7628SOL    HW223784   3.457   2.726   0.800
 7629SOL     OW23785   5.706   2.901   3.422
 7629SOL    HW123786   5.683   2.891   3.519
 7629SOL    HW223787   5.656   2.978   3.383
 7630SOL     OW23788   1.421   6.420   3.629
 7630SOL    HW123789   1.465   6.434   3.541
 7630SOL    HW223790   1.366   6.501   3.652
 7631SOL     OW23791   1.295   1.354   6.117
 7631SOL    HW123792   1.287   1.360   6.017
 7631SOL    HW223793   1.359   1.423   6.150
 7632SOL     OW23794   4.246   5.705   1.191
 7632SOL    HW123795   4.266   5.613   1.225
 7632SOL    HW223796   4.265   5.710   1.093
 7633SOL     OW23797   5.169   0.735   1.448
 7633SOL    HW123798   5.251   0.784   1.417
 7633SOL    HW223799   5.091   0.798   1.447
 7634SOL     OW23800   0.377   2.406   6.769
 7634SOL    HW123801   0.366   2.309   6.791
 7634SOL    HW223802   0.365   2.460   6.852
 7635SOL     OW23803   1.316   3.371   5.507
 7635SOL    HW123804   1.379   3.325   5.570
 7635SOL    HW223805   1.320   3.469   5.522
 7636SOL     OW23806   6.807   3.098   3.318
 7636SOL    HW123807   6.888   3.132   3.365
 7636SOL    HW223808   6.740   3.066   3.386
 7637SOL     OW23809   1.262   3.853   5.483
 7637SOL    HW123810   1.224   3.930   5.534
 7637SOL    HW223811   1.285   3.883   5.390
 7638SOL     OW23812   0.582   6.503   1.406
 7638SOL    HW123813   0.538   6.486   1.494
 7638SOL    HW223814   0.681   6.489   1.414
 7639SOL     OW23815   2.639   6.711   0.460
 7639SOL    HW123816   2.570   6.653   0.502
 7639SOL    HW223817   2.613   6.807   0.470
 7640SOL     OW23818   3.008   0.732   1.024
 7640SOL    HW123819   2.910   0.716   1.014
 7640SOL    HW223820   3.056   0.644   1.028
 7641SOL     OW23821   6.396   4.825   4.664
 7641SOL    HW123822   6.467   4.892   4.687
 7641SOL    HW223823   6.389   4.757   4.737
 7642SOL     OW23824   5.676   0.878   4.034
 7642SOL    HW123825   5.635   0.904   3.947
 7642SOL    HW223826   5.621   0.806   4.077
 7643SOL     OW23827   5.086   2.274   4.108
 7643SOL    HW123828   5.097   2.349   4.043
 7643SOL    HW223829   5.102   2.187   4.061
 7644SOL     OW23830   5.334   3.831   0.407
 7644SOL    HW123831   5.260   3.764   0.405
 7644SOL    HW223832   5.311   3.909   0.349
 7645SOL     OW23833   4.967   5.076   6.523
 7645SOL    HW123834   4.994   5.034   6.436
 7645SOL    HW223835   4.990   5.174   6.521
 7646SOL     OW23836   6.798   2.117   1.775
 7646SOL    HW123837   6.792   2.069   1.863
 7646SOL    HW223838   6.886   2.097   1.733
 7647SOL     OW23839   6.897   1.800   4.038
 7647SOL    HW123840   6.988   1.805   4.078
 7647SOL    HW223841   6.904   1.778   3.940
 7648SOL     OW23842   1.785   2.600   0.680
 7648SOL    HW123843   1.845   2.678   0.698
 7648SOL    HW223844   1.696   2.617   0.722
 7649SOL     OW23845   4.021   0.597   0.253
 7649SOL    HW123846   4.096   0.563   0.310
 7649SOL    HW223847   4.060   0.649   0.176
 7650SOL     OW23848   3.536   2.495   0.458
 7650SOL    HW123849   3.635   2.501   0.472
 7650SOL    HW223850   3.495   2.585   0.474
 7651SOL     OW23851   3.622   5.424   6.457
 7651SOL    HW123852   3.683   5.465   6.389
 7651SOL    HW223853   3.527   5.451   6.437
 7652SOL     OW23854   0.125   0.962   5.304
 7652SOL    HW123855   0.148   0.973   5.208
 7652SOL    HW223856   0.208   0.941   5.356
 7653SOL     OW23857   1.751   6.673   6.715
 7653SOL    HW123858   1.743   6.673   6.615
 7653SOL    HW223859   1.810   6.749   6.743
 7654SOL     OW23860   6.653   2.486   5.709
 7654SOL    HW123861   6.653   2.566   5.649
 7654SOL    HW223862   6.701   2.508   5.794
 7655SOL     OW23863   2.980   1.781   5.173
 7655SOL    HW123864   2.978   1.836   5.257
 7655SOL    HW223865   2.973   1.841   5.094
 7656SOL     OW23866   6.275   3.642   6.966
 7656SOL    HW123867   6.311   3.701   0.020
 7656SOL    HW223868   6.212   3.695   6.909
 7657SOL     OW23869   1.128   3.684   4.816
 7657SOL    HW123870   1.188   3.617   4.771
 7657SOL    HW223871   1.076   3.734   4.747
 7658SOL     OW23872   2.919   0.486   1.191
 7658SOL    HW123873   2.893   0.481   1.095
 7658SOL    HW223874   2.837   0.492   1.248
 7659SOL     OW23875   5.383   4.027   5.189
 7659SOL    HW123876   5.456   4.073   5.240
 7659SOL    HW223877   5.371   4.072   5.101
 7660SOL     OW23878   0.189   6.271   5.164
 7660SOL    HW123879   0.115   6.337   5.155
 7660SOL    HW223880   0.195   6.216   5.080
 7661SOL     OW23881   2.087   0.557   5.211
 7661SOL    HW123882   2.035   0.489   5.159
 7661SOL    HW223883   2.087   0.644   5.162
 7662SOL     OW23884   0.112   6.582   1.534
 7662SOL    HW123885   0.137   6.508   1.471
 7662SOL    HW223886   0.180   6.656   1.527
 7663SOL     OW23887   1.532   6.065   4.337
 7663SOL    HW123888   1.450   6.075   4.282
 7663SOL    HW223889   1.514   6.094   4.431
 7664SOL     OW23890   5.736   2.107   2.940
 7664SOL    HW123891   5.641   2.124   2.913
 7664SOL    HW223892   5.742   2.018   2.985
 7665SOL     OW23893   2.594   0.439   5.309
 7665SOL    HW123894   2.652   0.364   5.341
 7665SOL    HW223895   2.635   0.480   5.228
 7666SOL     OW23896   6.048   5.239   4.306
 7666SOL    HW123897   6.014   5.333   4.313
 7666SOL    HW223898   5.972   5.175   4.307
 7667SOL     OW23899   4.289   5.290   1.469
 7667SOL    HW123900   4.278   5.388   1.488
 7667SOL    HW223901   4.284   5.239   1.554
 7668SOL     OW23902   1.744   5.663   0.276
 7668SOL    HW123903   1.777   5.647   0.369
 7668SOL    HW223904   1.779   5.751   0.243
 7669SOL     OW23905   2.973   1.990   6.704
 7669SOL    HW123906   2.919   1.908   6.722
 7669SOL    HW223907   3.035   1.973   6.628
 7670SOL     OW23908   0.864   0.199   0.592
 7670SOL    HW123909   0.917   0.125   0.552
 7670SOL    HW223910   0.773   0.166   0.617
 7671SOL     OW23911   3.785   0.469   1.555
 7671SOL    HW123912   3.804   0.432   1.646
 7671SOL    HW223913   3.743   0.398   1.499
 7672SOL     OW23914   5.611   3.185   2.132
 7672SOL    HW123915   5.651   3.117   2.071
 7672SOL    HW223916   5.673   3.199   2.210
 7673SOL     OW23917   2.122   6.492   5.501
 7673SOL    HW123918   2.098   6.586   5.526
 7673SOL    HW223919   2.182   6.454   5.571
 7674SOL     OW23920   3.349   5.585   3.645
 7674SOL    HW123921   3.424   5.543   3.696
 7674SOL    HW223922   3.380   5.608   3.553
 7675SOL     OW23923   3.701   5.972   3.289
 7675SOL    HW123924   3.758   5.964   3.208
 7675SOL    HW223925   3.758   5.995   3.368
 7676SOL     OW23926   3.157   3.500   4.746
 7676SOL    HW123927   3.164   3.456   4.656
 7676SOL    HW223928   3.160   3.429   4.817
 7677SOL     OW23929   0.571   6.528   0.030
 7677SOL    HW123930   0.530   6.602   6.996
 7677SOL    HW223931   0.499   6.477   0.077
 7678SOL     OW23932   3.682   1.272   5.450
 7678SOL    HW123933   3.720   1.287   5.541
 7678SOL    HW223934   3.588   1.305   5.448
 7679SOL     OW23935   2.911   5.113   4.046
 7679SOL    HW123936   2.981   5.184   4.051
 7679SOL    HW223937   2.953   5.024   4.060
 7680SOL     OW23938   1.651   6.630   3.770
 7680SOL    HW123939   1.732   6.651   3.826
 7680SOL    HW223940   1.594   6.711   3.761
 7681SOL     OW23941   1.749   2.304   5.622
 7681SOL    HW123942   1.689   2.224   5.626
 7681SOL    HW223943   1.699   2.385   5.652
 7682SOL     OW23944   3.623   0.525   2.030
 7682SOL    HW123945   3.713   0.524   1.987
 7682SOL    HW223946   3.604   0.616   2.066
 7683SOL     OW23947   0.818   4.342   4.861
 7683SOL    HW123948   0.728   4.304   4.885
 7683SOL    HW223949   0.828   4.433   4.901
 7684SOL     OW23950   4.865   3.550   1.812
 7684SOL    HW123951   4.836   3.638   1.775
 7684SOL    HW223952   4.864   3.481   1.740
 7685SOL     OW23953   2.549   0.209   0.346
 7685SOL    HW123954   2.575   0.293   0.394
 7685SOL    HW223955   2.472   0.229   0.285
 7686SOL     OW23956   5.722   0.541   4.318
 7686SOL    HW123957   5.652   0.553   4.249
 7686SOL    HW223958   5.739   0.629   4.364
 7687SOL     OW23959   5.315   3.265   5.974
 7687SOL    HW123960   5.310   3.215   5.887
 7687SOL    HW223961   5.369   3.348   5.961
 7688SOL     OW23962   6.675   2.950   0.240
 7688SOL    HW123963   6.733   3.009   0.295
 7688SOL    HW223964   6.674   2.858   0.280
 7689SOL     OW23965   5.527   0.056   2.808
 7689SOL    HW123966   5.606   0.006   2.774
 7689SOL    HW223967   5.443   0.004   2.789
 7690SOL     OW23968   5.977   4.623   2.566
 7690SOL    HW123969   5.916   4.669   2.502
 7690SOL    HW223970   6.009   4.687   2.635
 7691SOL     OW23971   5.046   2.783   3.946
 7691SOL    HW123972   5.144   2.802   3.939
 7691SOL    HW223973   4.999   2.810   3.862
 7692SOL     OW23974   2.211   6.544   2.021
 7692SOL    HW123975   2.232   6.640   2.002
 7692SOL    HW223976   2.192   6.533   2.119
 7693SOL     OW23977   2.708   2.103   1.117
 7693SOL    HW123978   2.610   2.117   1.123
 7693SOL    HW223979   2.756   2.177   1.163
 7694SOL     OW23980   4.479   2.474   1.009
 7694SOL    HW123981   4.430   2.415   0.945
 7694SOL    HW223982   4.427   2.481   1.094
 7695SOL     OW23983   5.142   6.587   4.293
 7695SOL    HW123984   5.069   6.603   4.226
 7695SOL    HW223985   5.135   6.495   4.330
 7696SOL     OW23986   2.825   1.274   5.601
 7696SOL    HW123987   2.735   1.316   5.619
 7696SOL    HW223988   2.888   1.344   5.567
 7697SOL     OW23989   5.729   6.862   3.047
 7697SOL    HW123990   5.734   6.909   2.959
 7697SOL    HW223991   5.818   6.867   3.093
 7698SOL     OW23992   5.995   2.268   1.284
 7698SOL    HW123993   5.926   2.238   1.351
 7698SOL    HW223994   5.950   2.281   1.195
 7699SOL     OW23995   3.777   5.885   6.319
 7699SOL    HW123996   3.699   5.933   6.280
 7699SOL    HW223997   3.787   5.910   6.416
 7700SOL     OW23998   6.718   5.603   1.826
 7700SOL    HW123999   6.750   5.627   1.734
 7700SOL    HW224000   6.782   5.539   1.868
 7701SOL     OW24001   3.240   1.480   6.610
 7701SOL    HW124002   3.268   1.571   6.641
 7701SOL    HW224003   3.213   1.485   6.514
 7702SOL     OW24004   6.406   6.193   5.715
 7702SOL    HW124005   6.481   6.206   5.780
 7702SOL    HW224006   6.364   6.103   5.731
 7703SOL     OW24007   0.235   6.632   6.177
 7703SOL    HW124008   0.148   6.587   6.196
 7703SOL    HW224009   0.296   6.567   6.132
 7704SOL     OW24010   1.754   2.089   4.751
 7704SOL    HW124011   1.831   2.123   4.696
 7704SOL    HW224012   1.753   2.136   4.840
 7705SOL     OW24013   0.884   4.633   0.307
 7705SOL    HW124014   0.817   4.703   0.332
 7705SOL    HW224015   0.946   4.617   0.384
 7706SOL     OW24016   3.085   3.989   2.150
 7706SOL    HW124017   2.997   4.034   2.163
 7706SOL    HW224018   3.111   3.941   2.235
 7707SOL     OW24019   0.284   5.281   5.884
 7707SOL    HW124020   0.219   5.355   5.872
 7707SOL    HW224021   0.372   5.306   5.842
 7708SOL     OW24022   0.208   0.441   4.658
 7708SOL    HW124023   0.286   0.448   4.597
 7708SOL    HW224024   0.189   0.531   4.698
 7709SOL     OW24025   6.300   4.828   0.840
 7709SOL    HW124026   6.304   4.919   0.798
 7709SOL    HW224027   6.352   4.763   0.783
 7710SOL     OW24028   6.502   3.109   2.681
 7710SOL    HW124029   6.566   3.133   2.608
 7710SOL    HW224030   6.511   3.173   2.756
 7711SOL     OW24031   0.926   4.159   3.233
 7711SOL    HW124032   0.881   4.209   3.306
 7711SOL    HW224033   1.024   4.155   3.250
 7712SOL     OW24034   0.930   4.631   4.502
 7712SOL    HW124035   0.991   4.632   4.423
 7712SOL    HW224036   0.940   4.544   4.551
 7713SOL     OW24037   1.185   5.875   0.508
 7713SOL    HW124038   1.185   5.895   0.410
 7713SOL    HW224039   1.279   5.874   0.542
 7714SOL     OW24040   5.661   1.626   5.199
 7714SOL    HW124041   5.694   1.673   5.117
 7714SOL    HW224042   5.594   1.556   5.173
 7715SOL     OW24043   4.043   3.695   6.511
 7715SOL    HW124044   4.038   3.779   6.565
 7715SOL    HW224045   4.127   3.645   6.535
 7716SOL     OW24046   1.449   1.267   6.955
 7716SOL    HW124047   1.408   1.337   6.896
 7716SOL    HW224048   1.494   1.311   0.013
 7717SOL     OW24049   0.991   1.588   5.919
 7717SOL    HW124050   0.961   1.661   5.858
 7717SOL    HW224051   1.086   1.603   5.945
 7718SOL     OW24052   0.313   3.829   3.370
 7718SOL    HW124053   0.252   3.793   3.440
 7718SOL    HW224054   0.367   3.904   3.408
 7719SOL     OW24055   2.125   6.341   5.044
 7719SOL    HW124056   2.091   6.335   4.951
 7719SOL    HW224057   2.225   6.353   5.042
 7720SOL     OW24058   4.578   1.505   6.531
 7720SOL    HW124059   4.622   1.595   6.538
 7720SOL    HW224060   4.643   1.439   6.493
 7721SOL     OW24061   6.006   5.517   2.659
 7721SOL    HW124062   6.100   5.510   2.625
 7721SOL    HW224063   5.970   5.425   2.677
 7722SOL     OW24064   0.060   5.967   4.652
 7722SOL    HW124065   0.042   6.059   4.688
 7722SOL    HW224066   0.117   5.917   4.718
 7723SOL     OW24067   4.070   4.553   6.934
 7723SOL    HW124068   3.982   4.513   6.961
 7723SOL    HW224069   4.137   4.538   7.006
 7724SOL     OW24070   1.368   4.677   0.341
 7724SOL    HW124071   1.373   4.661   0.440
 7724SOL    HW224072   1.457   4.660   0.300
 7725SOL     OW24073   5.524   3.259   4.704
 7725SOL    HW124074   5.540   3.203   4.624
 7725SOL    HW224075   5.493   3.202   4.780
 7726SOL     OW24076   2.093   3.162   0.441
 7726SOL    HW124077   2.124   3.195   0.530
 7726SOL    HW224078   1.996   3.139   0.447
 7727SOL     OW24079   5.468   0.568   3.178
 7727SOL    HW124080   5.375   0.600   3.161
 7727SOL    HW224081   5.533   0.640   3.156
 7728SOL     OW24082   2.239   3.215   5.594
 7728SOL    HW124083   2.282   3.174   5.513
 7728SOL    HW224084   2.141   3.221   5.580
 7729SOL     OW24085   6.777   1.138   2.707
 7729SOL    HW124086   6.868   1.130   2.746
 7729SOL    HW224087   6.725   1.055   2.725
 7730SOL     OW24088   6.137   3.580   6.274
 7730SOL    HW124089   6.102   3.517   6.204
 7730SOL    HW224090   6.235   3.564   6.287
 7731SOL     OW24091   6.946   0.618   6.086
 7731SOL    HW124092   6.937   0.670   6.001
 7731SOL    HW224093   6.953   0.682   6.163
 7732SOL     OW24094   4.381   1.177   0.034
 7732SOL    HW124095   4.466   1.218   0.001
 7732SOL    HW224096   4.379   1.182   0.134
 7733SOL     OW24097   5.826   6.395   1.459
 7733SOL    HW124098   5.746   6.369   1.513
 7733SOL    HW224099   5.905   6.341   1.486
 7734SOL     OW24100   3.987   3.422   3.467
 7734SOL    HW124101   3.994   3.391   3.562
 7734SOL    HW224102   4.016   3.517   3.461
 7735SOL     OW24103   1.035   5.978   1.020
 7735SOL    HW124104   0.957   5.920   1.041
 7735SOL    HW224105   1.108   5.963   1.087
 7736SOL     OW24106   1.762   1.395   1.143
 7736SOL    HW124107   1.790   1.323   1.080
 7736SOL    HW224108   1.663   1.406   1.141
 7737SOL     OW24109   4.710   4.722   6.397
 7737SOL    HW124110   4.613   4.734   6.419
 7737SOL    HW224111   4.757   4.681   6.475
 7738SOL     OW24112   1.314   1.257   5.368
 7738SOL    HW124113   1.271   1.341   5.335
 7738SOL    HW224114   1.395   1.280   5.421
 7739SOL     OW24115   0.878   3.179   6.615
 7739SOL    HW124116   0.793   3.144   6.576
 7739SOL    HW224117   0.956   3.146   6.560
 7740SOL     OW24118   2.158   1.030   4.232
 7740SOL    HW124119   2.070   0.997   4.198
 7740SOL    HW224120   2.149   1.054   4.329
 7741SOL     OW24121   6.792   4.295   6.344
 7741SOL    HW124122   6.846   4.349   6.410
 7741SOL    HW224123   6.730   4.355   6.295
 7742SOL     OW24124   4.795   2.317   3.850
 7742SOL    HW124125   4.701   2.290   3.869
 7742SOL    HW224126   4.835   2.254   3.784
 7743SOL     OW24127   3.534   0.912   6.195
 7743SOL    HW124128   3.588   0.851   6.136
 7743SOL    HW224129   3.577   0.916   6.285
 7744SOL     OW24130   0.339   6.242   4.604
 7744SOL    HW124131   0.292   6.195   4.529
 7744SOL    HW224132   0.286   6.323   4.630
 7745SOL     OW24133   2.766   0.022   0.389
 7745SOL    HW124134   2.694   0.086   0.362
 7745SOL    HW224135   2.761   0.005   0.487
 7746SOL     OW24136   0.086   6.145   0.703
 7746SOL    HW124137   0.028   6.071   0.668
 7746SOL    HW224138   0.039   6.232   0.691
 7747SOL     OW24139   6.881   6.003   1.502
 7747SOL    HW124140   6.871   5.959   1.413
 7747SOL    HW224141   6.907   6.098   1.490
 7748SOL     OW24142   4.458   0.960   6.099
 7748SOL    HW124143   4.399   1.010   6.163
 7748SOL    HW224144   4.468   1.013   6.014
 7749SOL     OW24145   3.034   3.912   2.652
 7749SOL    HW124146   3.001   4.006   2.637
 7749SOL    HW224147   3.109   3.914   2.719
 7750SOL     OW24148   5.498   4.226   6.199
 7750SOL    HW124149   5.406   4.188   6.188
 7750SOL    HW224150   5.494   4.305   6.260
 7751SOL     OW24151   0.266   1.586   5.201
 7751SOL    HW124152   0.171   1.616   5.198
 7751SOL    HW224153   0.269   1.488   5.221
 7752SOL     OW24154   5.794   4.057   6.110
 7752SOL    HW124155   5.817   4.005   6.192
 7752SOL    HW224156   5.713   4.017   6.066
 7753SOL     OW24157   2.893   0.917   5.142
 7753SOL    HW124158   2.942   0.936   5.057
 7753SOL    HW224159   2.924   0.980   5.214
 7754SOL     OW24160   6.335   1.188   1.004
 7754SOL    HW124161   6.329   1.095   0.968
 7754SOL    HW224162   6.368   1.185   1.098
 7755SOL     OW24163   1.848   6.064   5.458
 7755SOL    HW124164   1.855   6.152   5.412
 7755SOL    HW224165   1.797   6.075   5.544
 7756SOL     OW24166   4.050   6.505   3.045
 7756SOL    HW124167   4.097   6.432   3.094
 7756SOL    HW224168   3.961   6.522   3.087
 7757SOL     OW24169   3.412   1.104   5.647
 7757SOL    HW124170   3.496   1.058   5.618
 7757SOL    HW224171   3.422   1.203   5.637
 7758SOL     OW24172   2.267   1.851   6.501
 7758SOL    HW124173   2.309   1.771   6.459
 7758SOL    HW224174   2.207   1.896   6.435
 7759SOL     OW24175   2.363   0.849   4.832
 7759SOL    HW124176   2.427   0.790   4.881
 7759SOL    HW224177   2.365   0.826   4.735
 7760SOL     OW24178   5.387   1.983   3.054
 7760SOL    HW124179   5.429   2.047   3.118
 7760SOL    HW224180   5.314   2.029   3.003
 7761SOL     OW24181   4.650   1.259   0.156
 7761SOL    HW124182   4.623   1.292   0.066
 7761SOL    HW224183   4.738   1.212   0.149
 7762SOL     OW24184   1.475   2.345   0.762
 7762SOL    HW124185   1.430   2.430   0.736
 7762SOL    HW224186   1.561   2.366   0.810
 7763SOL     OW24187   2.816   2.511   0.683
 7763SOL    HW124188   2.828   2.591   0.741
 7763SOL    HW224189   2.767   2.440   0.734
 7764SOL     OW24190   3.484   3.075   2.017
 7764SOL    HW124191   3.446   3.159   1.977
 7764SOL    HW224192   3.410   3.010   2.035
 7765SOL     OW24193   6.800   1.679   2.310
 7765SOL    HW124194   6.786   1.580   2.320
 7765SOL    HW224195   6.757   1.710   2.225
 7766SOL     OW24196   0.043   2.935   6.714
 7766SOL    HW124197   7.011   2.863   6.669
 7766SOL    HW224198   0.116   2.967   6.654
 7767SOL     OW24199   5.845   4.039   5.242
 7767SOL    HW124200   5.923   4.021   5.302
 7767SOL    HW224201   5.829   4.137   5.236
 7768SOL     OW24202   3.327   5.298   1.467
 7768SOL    HW124203   3.317   5.369   1.398
 7768SOL    HW224204   3.418   5.305   1.510
 7769SOL     OW24205   5.357   1.765   3.210
 7769SOL    HW124206   5.436   1.789   3.266
 7769SOL    HW224207   5.364   1.810   3.121
 7770SOL     OW24208   3.603   6.582   1.341
 7770SOL    HW124209   3.516   6.581   1.291
 7770SOL    HW224210   3.653   6.498   1.324
 7771SOL     OW24211   2.090   1.035   4.522
 7771SOL    HW124212   2.013   1.086   4.481
 7771SOL    HW224213   2.088   1.046   4.621
 7772SOL     OW24214   5.473   0.370   5.340
 7772SOL    HW124215   5.394   0.309   5.348
 7772SOL    HW224216   5.556   0.322   5.365
 7773SOL     OW24217   4.004   4.728   5.881
 7773SOL    HW124218   4.002   4.761   5.787
 7773SOL    HW224219   3.925   4.669   5.897
 7774SOL     OW24220   4.949   1.880   6.968
 7774SOL    HW124221   4.988   1.968   6.941
 7774SOL    HW224222   4.967   1.863   0.045
 7775SOL     OW24223   1.501   6.636   2.430
 7775SOL    HW124224   1.426   6.585   2.474
 7775SOL    HW224225   1.585   6.581   2.433
 7776SOL     OW24226   3.153   4.825   0.615
 7776SOL    HW124227   3.107   4.865   0.694
 7776SOL    HW224228   3.234   4.774   0.646
 7777SOL     OW24229   0.548   0.439   6.687
 7777SOL    HW124230   0.486   0.425   6.610
 7777SOL    HW224231   0.537   0.532   6.722
 7778SOL     OW24232   4.804   2.240   2.157
 7778SOL    HW124233   4.777   2.328   2.196
 7778SOL    HW224234   4.724   2.180   2.151
 7779SOL     OW24235   4.241   3.179   0.447
 7779SOL    HW124236   4.267   3.260   0.394
 7779SOL    HW224237   4.315   3.112   0.443
 7780SOL     OW24238   0.828   0.410   3.954
 7780SOL    HW124239   0.823   0.335   3.888
 7780SOL    HW224240   0.877   0.379   4.036
 7781SOL     OW24241   1.981   3.986   5.862
 7781SOL    HW124242   2.044   4.020   5.932
 7781SOL    HW224243   2.032   3.961   5.780
 7782SOL     OW24244   4.792   4.710   0.525
 7782SOL    HW124245   4.885   4.700   0.488
 7782SOL    HW224246   4.726   4.675   0.459
 7783SOL     OW24247   3.429   5.874   6.783
 7783SOL    HW124248   3.453   5.778   6.796
 7783SOL    HW224249   3.502   5.932   6.819
 7784SOL     OW24250   6.216   3.622   0.396
 7784SOL    HW124251   6.302   3.624   0.343
 7784SOL    HW224252   6.141   3.652   0.338
 7785SOL     OW24253   1.320   6.506   6.223
 7785SOL    HW124254   1.375   6.439   6.273
 7785SOL    HW224255   1.369   6.534   6.140
 7786SOL     OW24256   3.870   4.425   5.307
 7786SOL    HW124257   3.944   4.358   5.294
 7786SOL    HW224258   3.783   4.377   5.307
 7787SOL     OW24259   3.256   2.247   5.528
 7787SOL    HW124260   3.244   2.184   5.451
 7787SOL    HW224261   3.341   2.225   5.576
 7788SOL     OW24262   6.654   2.541   1.020
 7788SOL    HW124263   6.636   2.638   1.037
 7788SOL    HW224264   6.731   2.533   0.957
 7789SOL     OW24265   1.308   0.202   1.785
 7789SOL    HW124266   1.216   0.200   1.824
 7789SOL    HW224267   1.367   0.258   1.843
 7790SOL     OW24268   0.089   3.820   2.453
 7790SOL    HW124269   0.046   3.743   2.501
 7790SOL    HW224270   0.117   3.791   2.362
 7791SOL     OW24271   6.495   5.549   5.454
 7791SOL    HW124272   6.540   5.612   5.391
 7791SOL    HW224273   6.553   5.469   5.469
 7792SOL     OW24274   2.120   5.818   6.065
 7792SOL    HW124275   2.081   5.738   6.111
 7792SOL    HW224276   2.097   5.901   6.116
 7793SOL     OW24277   2.278   0.870   6.800
 7793SOL    HW124278   2.188   0.901   6.831
 7793SOL    HW224279   2.341   0.948   6.797
 7794SOL     OW24280   5.440   4.899   2.317
 7794SOL    HW124281   5.502   4.850   2.255
 7794SOL    HW224282   5.346   4.869   2.300
 7795SOL     OW24283   1.584   4.387   6.407
 7795SOL    HW124284   1.638   4.302   6.409
 7795SOL    HW224285   1.489   4.365   6.383
 7796SOL     OW24286   3.984   3.379   4.712
 7796SOL    HW124287   3.927   3.461   4.711
 7796SOL    HW224288   3.929   3.302   4.745
 7797SOL     OW24289   1.292   6.330   3.916
 7797SOL    HW124290   1.280   6.417   3.963
 7797SOL    HW224291   1.325   6.345   3.823
 7798SOL     OW24292   4.176   5.324   6.072
 7798SOL    HW124293   4.187   5.292   5.978
 7798SOL    HW224294   4.254   5.294   6.127
 7799SOL     OW24295   6.134   5.797   1.837
 7799SOL    HW124296   6.105   5.787   1.742
 7799SOL    HW224297   6.228   5.832   1.840
 7800SOL     OW24298   0.581   6.107   1.955
 7800SOL    HW124299   0.608   6.033   2.017
 7800SOL    HW224300   0.578   6.194   2.005
 7801SOL     OW24301   4.544   2.197   5.257
 7801SOL    HW124302   4.538   2.144   5.341
 7801SOL    HW224303   4.590   2.143   5.187
 7802SOL     OW24304   5.512   2.519   6.688
 7802SOL    HW124305   5.421   2.511   6.649
 7802SOL    HW224306   5.577   2.464   6.635
 7803SOL     OW24307   3.361   3.609   5.804
 7803SOL    HW124308   3.374   3.661   5.719
 7803SOL    HW224309   3.388   3.514   5.789
 7804SOL     OW24310   5.218   1.310   6.081
 7804SOL    HW124311   5.244   1.344   5.991
 7804SOL    HW224312   5.123   1.336   6.100
 7805SOL     OW24313   5.594   3.152   1.380
 7805SOL    HW124314   5.500   3.176   1.404
 7805SOL    HW224315   5.596   3.107   1.291
 7806SOL     OW24316   5.173   2.628   0.330
 7806SOL    HW124317   5.161   2.678   0.245
 7806SOL    HW224318   5.169   2.530   0.312
 7807SOL     OW24319   0.357   3.921   0.042
 7807SOL    HW124320   0.432   3.876   0.091
 7807SOL    HW224321   0.396   3.983   6.993
 7808SOL     OW24322   0.054   1.514   4.925
 7808SOL    HW124323   0.042   1.538   5.022
 7808SOL    HW224324   0.090   1.421   4.918
 7809SOL     OW24325   1.084   5.699   5.658
 7809SOL    HW124326   1.124   5.787   5.631
 7809SOL    HW224327   1.035   5.710   5.744
 7810SOL     OW24328   2.837   1.252   6.811
 7810SOL    HW124329   2.804   1.162   6.842
 7810SOL    HW224330   2.759   1.308   6.784
 7811SOL     OW24331   6.266   5.055   5.066
 7811SOL    HW124332   6.334   5.048   5.139
 7811SOL    HW224333   6.217   4.968   5.057
 7812SOL     OW24334   0.622   2.125   3.634
 7812SOL    HW124335   0.539   2.124   3.689
 7812SOL    HW224336   0.701   2.113   3.695
 7813SOL     OW24337   6.103   1.600   0.914
 7813SOL    HW124338   6.075   1.669   0.847
 7813SOL    HW224339   6.151   1.645   0.989
 7814SOL     OW24340   2.100   3.024   4.258
 7814SOL    HW124341   2.148   2.958   4.316
 7814SOL    HW224342   2.002   3.018   4.274
 7815SOL     OW24343   6.845   1.830   5.315
 7815SOL    HW124344   6.868   1.813   5.411
 7815SOL    HW224345   6.911   1.893   5.275
 7816SOL     OW24346   0.270   4.703   4.995
 7816SOL    HW124347   0.179   4.733   5.023
 7816SOL    HW224348   0.338   4.733   5.063
 7817SOL     OW24349   5.532   3.045   5.614
 7817SOL    HW124350   5.525   3.078   5.520
 7817SOL    HW224351   5.628   3.029   5.637
 7818SOL     OW24352   5.636   3.007   3.904
 7818SOL    HW124353   5.560   3.072   3.903
 7818SOL    HW224354   5.722   3.056   3.891
 7819SOL     OW24355   0.989   0.851   0.973
 7819SOL    HW124356   1.005   0.894   1.061
 7819SOL    HW224357   0.931   0.910   0.917
 7820SOL     OW24358   2.788   6.830   6.158
 7820SOL    HW124359   2.715   6.764   6.174
 7820SOL    HW224360   2.874   6.794   6.195
 7821SOL     OW24361   3.218   6.254   1.176
 7821SOL    HW124362   3.281   6.257   1.098
 7821SOL    HW224363   3.133   6.210   1.149
 7822SOL     OW24364   1.220   6.622   4.983
 7822SOL    HW124365   1.313   6.598   4.956
 7822SOL    HW224366   1.206   6.720   4.971
 7823SOL     OW24367   1.726   3.367   5.552
 7823SOL    HW124368   1.759   3.421   5.475
 7823SOL    HW224369   1.675   3.427   5.614
 7824SOL     OW24370   0.954   3.022   5.504
 7824SOL    HW124371   0.961   3.119   5.481
 7824SOL    HW224372   1.032   2.995   5.560
 7825SOL     OW24373   2.362   0.853   0.181
 7825SOL    HW124374   2.428   0.796   0.132
 7825SOL    HW224375   2.350   0.818   0.273
 7826SOL     OW24376   0.976   3.897   5.971
 7826SOL    HW124377   0.899   3.960   5.959
 7826SOL    HW224378   1.008   3.866   5.882
 7827SOL     OW24379   6.256   4.809   3.768
 7827SOL    HW124380   6.284   4.714   3.751
 7827SOL    HW224381   6.177   4.831   3.710
 7828SOL     OW24382   0.880   5.985   5.932
 7828SOL    HW124383   0.822   6.047   5.985
 7828SOL    HW224384   0.844   5.977   5.839
 7829SOL     OW24385   4.774   5.062   0.428
 7829SOL    HW124386   4.711   5.060   0.505
 7829SOL    HW224387   4.734   5.012   0.351
 7830SOL     OW24388   1.699   5.155   4.630
 7830SOL    HW124389   1.601   5.170   4.615
 7830SOL    HW224390   1.751   5.229   4.589
 7831SOL     OW24391   1.797   0.434   6.356
 7831SOL    HW124392   1.736   0.480   6.421
 7831SOL    HW224393   1.891   0.465   6.370
 7832SOL     OW24394   6.688   1.278   5.248
 7832SOL    HW124395   6.674   1.328   5.162
 7832SOL    HW224396   6.711   1.183   5.227
 7833SOL     OW24397   0.647   0.116   3.145
 7833SOL    HW124398   0.737   0.157   3.161
 7833SOL    HW224399   0.579   0.189   3.134
 7834SOL     OW24400   0.032   3.348   5.234
 7834SOL    HW124401   0.037   3.248   5.234
 7834SOL    HW224402   0.057   3.382   5.144
 7835SOL     OW24403   3.091   2.457   5.756
 7835SOL    HW124404   3.181   2.433   5.792
 7835SOL    HW224405   3.062   2.386   5.692
 7836SOL     OW24406   2.927   3.634   4.859
 7836SOL    HW124407   2.836   3.659   4.824
 7836SOL    HW224408   2.965   3.561   4.802
 7837SOL     OW24409   0.958   5.689   6.769
 7837SOL    HW124410   0.932   5.594   6.783
 7837SOL    HW224411   0.987   5.729   6.856
 7838SOL     OW24412   4.273   5.101   1.687
 7838SOL    HW124413   4.304   5.057   1.771
 7838SOL    HW224414   4.292   5.041   1.609
 7839SOL     OW24415   6.154   3.652   5.265
 7839SOL    HW124416   6.154   3.629   5.168
 7839SOL    HW224417   6.067   3.624   5.306
 7840SOL     OW24418   2.298   2.585   3.493
 7840SOL    HW124419   2.209   2.605   3.533
 7840SOL    HW224420   2.321   2.656   3.426
 7841SOL     OW24421   4.656   1.844   5.484
 7841SOL    HW124422   4.558   1.856   5.473
 7841SOL    HW224423   4.698   1.932   5.510
 7842SOL     OW24424   0.934   0.172   0.876
 7842SOL    HW124425   0.963   0.260   0.916
 7842SOL    HW224426   0.898   0.187   0.784
 7843SOL     OW24427   6.574   6.387   1.922
 7843SOL    HW124428   6.541   6.471   1.877
 7843SOL    HW224429   6.512   6.312   1.901
 7844SOL     OW24430   3.907   0.036   2.269
 7844SOL    HW124431   4.007   0.034   2.261
 7844SOL    HW224432   3.866   0.050   2.179
 7845SOL     OW24433   6.654   3.222   1.736
 7845SOL    HW124434   6.572   3.166   1.739
 7845SOL    HW224435   6.643   3.293   1.665
 7846SOL     OW24436   0.684   1.787   0.288
 7846SOL    HW124437   0.675   1.687   0.290
 7846SOL    HW224438   0.640   1.826   0.369
 7847SOL     OW24439   5.548   3.922   6.012
 7847SOL    HW124440   5.517   3.954   5.922
 7847SOL    HW224441   5.475   3.934   6.079
 7848SOL     OW24442   4.537   5.112   0.625
 7848SOL    HW124443   4.482   5.195   0.620
 7848SOL    HW224444   4.533   5.075   0.718
 7849SOL     OW24445   4.433   4.780   6.889
 7849SOL    HW124446   4.514   4.781   6.830
 7849SOL    HW224447   4.350   4.775   6.832
 7850SOL     OW24448   6.799   0.831   3.277
 7850SOL    HW124449   6.886   0.841   3.326
 7850SOL    HW224450   6.739   0.907   3.300
 7851SOL     OW24451   0.460   4.658   0.399
 7851SOL    HW124452   0.393   4.731   0.409
 7851SOL    HW224453   0.472   4.610   0.486
 7852SOL     OW24454   1.121   3.612   5.804
 7852SOL    HW124455   1.200   3.629   5.745
 7852SOL    HW224456   1.087   3.519   5.788
 7853SOL     OW24457   4.394   2.977   1.718
 7853SOL    HW124458   4.472   3.018   1.766
 7853SOL    HW224459   4.310   2.998   1.767
 7854SOL     OW24460   4.414   1.284   1.215
 7854SOL    HW124461   4.456   1.194   1.226
 7854SOL    HW224462   4.339   1.278   1.149
 7855SOL     OW24463   5.009   6.481   3.869
 7855SOL    HW124464   5.079   6.419   3.835
 7855SOL    HW224465   4.993   6.464   3.966
 7856SOL     OW24466   2.200   6.114   6.476
 7856SOL    HW124467   2.289   6.122   6.519
 7856SOL    HW224468   2.189   6.186   6.407
 7857SOL     OW24469   6.884   5.226   0.377
 7857SOL    HW124470   6.906   5.226   0.475
 7857SOL    HW224471   6.901   5.135   0.339
 7858SOL     OW24472   0.656   4.053   6.168
 7858SOL    HW124473   0.629   3.966   6.127
 7858SOL    HW224474   0.576   4.113   6.173
 7859SOL     OW24475   4.995   2.209   1.301
 7859SOL    HW124476   5.050   2.274   1.354
 7859SOL    HW224477   4.928   2.259   1.247
 7860SOL     OW24478   2.846   1.773   3.149
 7860SOL    HW124479   2.907   1.818   3.084
 7860SOL    HW224480   2.753   1.808   3.137
 7861SOL     OW24481   1.878   5.760   0.751
 7861SOL    HW124482   1.971   5.797   0.748
 7861SOL    HW224483   1.851   5.745   0.846
 7862SOL     OW24484   1.325   6.594   0.002
 7862SOL    HW124485   1.418   6.601   6.987
 7862SOL    HW224486   1.310   6.663   0.073
 7863SOL     OW24487   0.388   3.981   3.748
 7863SOL    HW124488   0.452   4.038   3.696
 7863SOL    HW224489   0.381   4.016   3.841
 7864SOL     OW24490   3.243   5.528   5.021
 7864SOL    HW124491   3.236   5.513   4.922
 7864SOL    HW224492   3.305   5.460   5.060
 7865SOL     OW24493   6.305   5.413   3.702
 7865SOL    HW124494   6.401   5.385   3.709
 7865SOL    HW224495   6.294   5.469   3.619
 7866SOL     OW24496   0.664   1.078   5.399
 7866SOL    HW124497   0.712   1.152   5.352
 7866SOL    HW224498   0.589   1.045   5.342
 7867SOL     OW24499   4.296   5.390   2.796
 7867SOL    HW124500   4.283   5.318   2.864
 7867SOL    HW224501   4.360   5.359   2.726
 7868SOL     OW24502   4.222   6.133   1.258
 7868SOL    HW124503   4.199   6.045   1.300
 7868SOL    HW224504   4.305   6.124   1.204
 7869SOL     OW24505   5.762   4.924   6.849
 7869SOL    HW124506   5.765   4.838   6.900
 7869SOL    HW224507   5.797   4.998   6.907
 7870SOL     OW24508   6.517   0.158   3.518
 7870SOL    HW124509   6.541   0.079   3.575
 7870SOL    HW224510   6.466   0.225   3.572
 7871SOL     OW24511   4.479   0.936   0.443
 7871SOL    HW124512   4.389   0.898   0.424
 7871SOL    HW224513   4.535   0.869   0.491
 7872SOL     OW24514   6.878   4.805   4.084
 7872SOL    HW124515   6.817   4.778   4.009
 7872SOL    HW224516   6.849   4.761   4.168
 7873SOL     OW24517   4.612   2.483   6.861
 7873SOL    HW124518   4.619   2.574   6.820
 7873SOL    HW224519   4.577   2.490   6.954
 7874SOL     OW24520   6.524   2.417   0.223
 7874SOL    HW124521   6.456   2.489   0.203
 7874SOL    HW224522   6.482   2.348   0.281
 7875SOL     OW24523   0.020   5.061   6.811
 7875SOL    HW124524   0.090   5.034   6.878
 7875SOL    HW224525   0.013   4.990   6.741
 7876SOL     OW24526   1.216   6.688   2.932
 7876SOL    HW124527   1.250   6.687   3.026
 7876SOL    HW224528   1.117   6.678   2.932
 7877SOL     OW24529   1.077   3.064   1.743
 7877SOL    HW124530   1.093   2.967   1.759
 7877SOL    HW224531   1.121   3.092   1.658
 7878SOL     OW24532   3.890   0.541   2.274
 7878SOL    HW124533   3.904   0.639   2.267
 7878SOL    HW224534   3.876   0.515   2.370
 7879SOL     OW24535   2.502   5.486   1.884
 7879SOL    HW124536   2.499   5.484   1.784
 7879SOL    HW224537   2.565   5.417   1.917
 7880SOL     OW24538   1.145   4.719   2.271
 7880SOL    HW124539   1.214   4.775   2.225
 7880SOL    HW224540   1.103   4.657   2.205
 7881SOL     OW24541   4.927   2.823   3.202
 7881SOL    HW124542   4.967   2.815   3.111
 7881SOL    HW224543   4.981   2.769   3.267
 7882SOL     OW24544   0.085   2.373   6.762
 7882SOL    HW124545   0.053   2.317   6.838
 7882SOL    HW224546   0.181   2.352   6.744
 7883SOL     OW24547   0.418   0.157   4.607
 7883SOL    HW124548   0.467   0.205   4.534
 7883SOL    HW224549   0.405   0.061   4.580
 7884SOL     OW24550   1.640   2.936   4.056
 7884SOL    HW124551   1.551   2.939   4.102
 7884SOL    HW224552   1.627   2.910   3.961
 7885SOL     OW24553   6.780   5.990   6.932
 7885SOL    HW124554   6.790   6.024   6.838
 7885SOL    HW224555   6.858   5.932   6.954
 7886SOL     OW24556   4.978   4.225   0.419
 7886SOL    HW124557   4.954   4.260   0.329
 7886SOL    HW224558   4.899   4.178   0.459
 7887SOL     OW24559   4.338   1.806   6.581
 7887SOL    HW124560   4.381   1.761   6.659
 7887SOL    HW224561   4.351   1.905   6.588
 7888SOL     OW24562   4.206   5.547   4.128
 7888SOL    HW124563   4.260   5.612   4.182
 7888SOL    HW224564   4.266   5.495   4.068
 7889SOL     OW24565   6.353   4.557   3.730
 7889SOL    HW124566   6.323   4.563   3.826
 7889SOL    HW224567   6.284   4.508   3.677
 7890SOL     OW24568   2.133   3.795   2.750
 7890SOL    HW124569   2.151   3.879   2.802
 7890SOL    HW224570   2.161   3.809   2.655
 7891SOL     OW24571   0.345   4.310   2.771
 7891SOL    HW124572   0.297   4.252   2.837
 7891SOL    HW224573   0.437   4.273   2.755
 7892SOL     OW24574   2.391   2.274   4.808
 7892SOL    HW124575   2.374   2.370   4.787
 7892SOL    HW224576   2.385   2.219   4.724
 7893SOL     OW24577   5.115   6.398   1.130
 7893SOL    HW124578   5.138   6.304   1.157
 7893SOL    HW224579   5.139   6.461   1.204
 7894SOL     OW24580   2.847   0.044   1.311
 7894SOL    HW124581   2.854   0.139   1.280
 7894SOL    HW224582   2.823   7.005   1.233
 7895SOL     OW24583   0.822   1.526   4.299
 7895SOL    HW124584   0.901   1.584   4.284
 7895SOL    HW224585   0.829   1.444   4.241
 7896SOL     OW24586   3.824   2.560   6.114
 7896SOL    HW124587   3.749   2.622   6.093
 7896SOL    HW224588   3.896   2.610   6.163
 7897SOL     OW24589   2.670   3.515   0.473
 7897SOL    HW124590   2.597   3.466   0.425
 7897SOL    HW224591   2.753   3.513   0.418
 7898SOL     OW24592   5.086   1.216   4.303
 7898SOL    HW124593   5.042   1.164   4.230
 7898SOL    HW224594   5.023   1.287   4.336
 7899SOL     OW24595   4.734   0.808   1.344
 7899SOL    HW124596   4.685   0.773   1.264
 7899SOL    HW224597   4.676   0.874   1.392
 7900SOL     OW24598   0.259   5.996   1.327
 7900SOL    HW124599   0.210   5.963   1.407
 7900SOL    HW224600   0.302   6.085   1.348
 7901SOL     OW24601   5.965   4.869   1.064
 7901SOL    HW124602   6.060   4.839   1.074
 7901SOL    HW224603   5.913   4.799   1.016
 7902SOL     OW24604   4.795   5.002   6.124
 7902SOL    HW124605   4.708   4.988   6.077
 7902SOL    HW224606   4.780   5.052   6.209
 7903SOL     OW24607   0.505   2.906   1.859
 7903SOL    HW124608   0.510   2.810   1.888
 7903SOL    HW224609   0.470   2.911   1.765
 7904SOL     OW24610   5.508   2.241   3.094
 7904SOL    HW124611   5.422   2.244   3.145
 7904SOL    HW224612   5.580   2.204   3.153
 7905SOL     OW24613   2.360   1.432   2.117
 7905SOL    HW124614   2.456   1.419   2.144
 7905SOL    HW224615   2.331   1.525   2.140
 7906SOL     OW24616   1.381   4.618   6.911
 7906SOL    HW124617   1.443   4.592   6.836
 7906SOL    HW224618   1.318   4.689   6.879
 7907SOL     OW24619   0.819   2.676   2.359
 7907SOL    HW124620   0.813   2.581   2.389
 7907SOL    HW224621   0.781   2.736   2.430
 7908SOL     OW24622   0.632   1.664   3.025
 7908SOL    HW124623   0.673   1.716   2.950
 7908SOL    HW224624   0.652   1.567   3.013
 7909SOL     OW24625   4.338   6.393   5.111
 7909SOL    HW124626   4.317   6.454   5.187
 7909SOL    HW224627   4.348   6.447   5.027
 7910SOL     OW24628   6.175   3.172   6.219
 7910SOL    HW124629   6.160   3.075   6.242
 7910SOL    HW224630   6.264   3.201   6.253
 7911SOL     OW24631   6.801   5.850   6.044
 7911SOL    HW124632   6.740   5.921   6.080
 7911SOL    HW224633   6.801   5.855   5.944
 7912SOL     OW24634   0.140   5.521   4.849
 7912SOL    HW124635   0.215   5.488   4.791
 7912SOL    HW224636   0.057   5.471   4.827
 7913SOL     OW24637   1.851   6.264   6.506
 7913SOL    HW124638   1.916   6.339   6.515
 7913SOL    HW224639   1.792   6.280   6.427
 7914SOL     OW24640   5.775   4.693   0.567
 7914SOL    HW124641   5.792   4.767   0.631
 7914SOL    HW224642   5.677   4.689   0.545
 7915SOL     OW24643   3.178   1.337   2.976
 7915SOL    HW124644   3.188   1.405   3.048
 7915SOL    HW224645   3.172   1.246   3.016
 7916SOL     OW24646   4.229   3.691   5.255
 7916SOL    HW124647   4.322   3.697   5.290
 7916SOL    HW224648   4.171   3.758   5.302
 7917SOL     OW24649   3.660   3.971   3.807
 7917SOL    HW124650   3.718   4.004   3.881
 7917SOL    HW224651   3.572   4.018   3.810
 7918SOL     OW24652   5.661   2.450   2.153
 7918SOL    HW124653   5.662   2.472   2.251
 7918SOL    HW224654   5.749   2.412   2.127
 7919SOL     OW24655   5.400   3.945   2.490
 7919SOL    HW124656   5.413   4.036   2.529
 7919SOL    HW224657   5.473   3.926   2.424
 7920SOL     OW24658   6.955   6.294   0.976
 7920SOL    HW124659   6.939   6.307   0.878
 7920SOL    HW224660   7.003   6.208   0.991
 7921SOL     OW24661   3.615   5.005   2.278
 7921SOL    HW124662   3.573   4.981   2.366
 7921SOL    HW224663   3.564   4.962   2.204
 7922SOL     OW24664   1.162   4.053   4.674
 7922SOL    HW124665   1.237   4.119   4.675
 7922SOL    HW224666   1.159   4.008   4.585
 7923SOL     OW24667   1.528   2.750   3.276
 7923SOL    HW124668   1.625   2.727   3.270
 7923SOL    HW224669   1.488   2.709   3.358
 7924SOL     OW24670   2.726   1.320   3.448
 7924SOL    HW124671   2.655   1.338   3.516
 7924SOL    HW224672   2.742   1.222   3.440
 7925SOL     OW24673   1.465   1.074   0.404
 7925SOL    HW124674   1.443   1.092   0.500
 7925SOL    HW224675   1.440   1.153   0.348
 7926SOL     OW24676   3.310   0.702   1.640
 7926SOL    HW124677   3.304   0.760   1.559
 7926SOL    HW224678   3.330   0.759   1.720
 7927SOL     OW24679   4.215   5.482   4.681
 7927SOL    HW124680   4.198   5.442   4.592
 7927SOL    HW224681   4.157   5.437   4.750
 7928SOL     OW24682   0.234   3.877   0.386
 7928SOL    HW124683   0.271   3.784   0.393
 7928SOL    HW224684   0.174   3.883   0.305
 7929SOL     OW24685   3.642   4.306   5.301
 7929SOL    HW124686   3.584   4.268   5.373
 7929SOL    HW224687   3.620   4.262   5.214
 7930SOL     OW24688   3.730   0.133   2.068
 7930SOL    HW124689   3.690   0.134   1.977
 7930SOL    HW224690   3.665   0.171   2.134
 7931SOL     OW24691   3.009   3.151   5.612
 7931SOL    HW124692   3.082   3.195   5.558
 7931SOL    HW224693   2.954   3.093   5.552
 7932SOL     OW24694   3.244   1.009   0.771
 7932SOL    HW124695   3.178   0.978   0.840
 7932SOL    HW224696   3.288   1.094   0.802
 7933SOL     OW24697   2.116   1.702   5.918
 7933SOL    HW124698   2.108   1.603   5.909
 7933SOL    HW224699   2.025   1.743   5.913
 7934SOL     OW24700   4.446   2.078   5.962
 7934SOL    HW124701   4.507   2.061   6.040
 7934SOL    HW224702   4.417   2.174   5.964
 7935SOL     OW24703   4.687   5.716   2.125
 7935SOL    HW124704   4.672   5.641   2.060
 7935SOL    HW224705   4.604   5.771   2.132
 7936SOL     OW24706   4.191   6.056   1.847
 7936SOL    HW124707   4.224   6.120   1.916
 7936SOL    HW224708   4.107   6.012   1.880
 7937SOL     OW24709   5.702   1.830   6.345
 7937SOL    HW124710   5.630   1.861   6.282
 7937SOL    HW224711   5.791   1.842   6.303
 7938SOL     OW24712   6.471   4.830   4.112
 7938SOL    HW124713   6.449   4.910   4.167
 7938SOL    HW224714   6.533   4.856   4.038
 7939SOL     OW24715   6.740   6.119   3.647
 7939SOL    HW124716   6.726   6.132   3.549
 7939SOL    HW224717   6.824   6.067   3.663
 7940SOL     OW24718   1.848   6.165   0.651
 7940SOL    HW124719   1.823   6.253   0.692
 7940SOL    HW224720   1.916   6.120   0.708
 7941SOL     OW24721   0.964   0.628   0.786
 7941SOL    HW124722   1.044   0.660   0.736
 7941SOL    HW224723   0.932   0.701   0.847
 7942SOL     OW24724   1.064   6.963   1.548
 7942SOL    HW124725   1.080   0.034   1.509
 7942SOL    HW224726   1.017   6.972   1.635
 7943SOL     OW24727   6.079   1.786   6.532
 7943SOL    HW124728   6.083   1.874   6.485
 7943SOL    HW224729   5.994   1.739   6.509
 7944SOL     OW24730   6.779   4.403   1.992
 7944SOL    HW124731   6.775   4.472   1.920
 7944SOL    HW224732   6.801   4.447   2.079
 7945SOL     OW24733   5.566   6.675   0.967
 7945SOL    HW124734   5.612   6.625   0.894
 7945SOL    HW224735   5.471   6.644   0.974
 7946SOL     OW24736   2.026   1.677   5.549
 7946SOL    HW124737   2.056   1.607   5.484
 7946SOL    HW224738   1.928   1.693   5.539
 7947SOL     OW24739   4.415   5.502   6.588
 7947SOL    HW124740   4.355   5.581   6.579
 7947SOL    HW224741   4.361   5.418   6.586
 7948SOL     OW24742   0.995   5.172   5.161
 7948SOL    HW124743   1.042   5.091   5.196
 7948SOL    HW224744   1.055   5.251   5.169
 7949SOL     OW24745   6.889   3.094   4.386
 7949SOL    HW124746   6.929   3.183   4.410
 7949SOL    HW224747   6.839   3.058   4.464
 7950SOL     OW24748   2.680   5.777   3.574
 7950SOL    HW124749   2.731   5.859   3.597
 7950SOL    HW224750   2.725   5.697   3.614
 7951SOL     OW24751   2.377   3.442   0.649
 7951SOL    HW124752   2.331   3.473   0.566
 7951SOL    HW224753   2.414   3.521   0.698
 7952SOL     OW24754   5.808   4.175   0.728
 7952SOL    HW124755   5.777   4.108   0.795
 7952SOL    HW224756   5.871   4.130   0.663
 7953SOL     OW24757   1.888   4.075   1.323
 7953SOL    HW124758   1.902   4.054   1.420
 7953SOL    HW224759   1.883   4.174   1.311
 7954SOL     OW24760   5.953   5.106   3.930
 7954SOL    HW124761   5.974   5.118   3.833
 7954SOL    HW224762   5.856   5.081   3.940
 7955SOL     OW24763   1.716   6.782   6.320
 7955SOL    HW124764   1.702   6.729   6.236
 7955SOL    HW224765   1.682   6.875   6.307
 7956SOL     OW24766   5.453   5.739   3.075
 7956SOL    HW124767   5.446   5.789   3.161
 7956SOL    HW224768   5.367   5.748   3.024
 7957SOL     OW24769   1.795   2.904   0.682
 7957SOL    HW124770   1.872   2.895   0.619
 7957SOL    HW224771   1.713   2.865   0.640
 7958SOL     OW24772   1.897   5.469   3.536
 7958SOL    HW124773   1.874   5.542   3.471
 7958SOL    HW224774   1.959   5.504   3.606
 7959SOL     OW24775   4.751   5.267   1.816
 7959SOL    HW124776   4.829   5.212   1.847
 7959SOL    HW224777   4.693   5.212   1.756
 7960SOL     OW24778   1.792   2.180   1.396
 7960SOL    HW124779   1.741   2.230   1.325
 7960SOL    HW224780   1.878   2.147   1.358
 7961SOL     OW24781   1.506   6.286   0.351
 7961SOL    HW124782   1.445   6.360   0.324
 7961SOL    HW224783   1.573   6.269   0.279
 7962SOL     OW24784   1.748   6.906   2.714
 7962SOL    HW124785   1.674   6.973   2.714
 7962SOL    HW224786   1.713   6.817   2.687
 7963SOL     OW24787   6.986   5.996   6.224
 7963SOL    HW124788   6.921   5.926   6.194
 7963SOL    HW224789   7.006   6.057   6.147
 7964SOL     OW24790   5.971   5.534   3.294
 7964SOL    HW124791   5.921   5.575   3.217
 7964SOL    HW224792   5.954   5.436   3.296
 7965SOL     OW24793   4.028   1.653   0.756
 7965SOL    HW124794   3.969   1.728   0.786
 7965SOL    HW224795   3.997   1.620   0.666
 7966SOL     OW24796   0.062   1.232   4.440
 7966SOL    HW124797   0.076   1.149   4.386
 7966SOL    HW224798   0.125   1.303   4.408
 7967SOL     OW24799   2.356   0.560   3.829
 7967SOL    HW124800   2.361   0.518   3.738
 7967SOL    HW224801   2.282   0.627   3.831
 7968SOL     OW24802   2.034   1.054   0.575
 7968SOL    HW124803   1.940   1.051   0.540
 7968SOL    HW224804   2.051   0.973   0.632
 7969SOL     OW24805   3.854   1.850   3.480
 7969SOL    HW124806   3.943   1.814   3.452
 7969SOL    HW224807   3.867   1.928   3.542
 7970SOL     OW24808   0.359   4.545   3.182
 7970SOL    HW124809   0.271   4.567   3.223
 7970SOL    HW224810   0.356   4.566   3.084
 7971SOL     OW24811   3.263   2.135   2.507
 7971SOL    HW124812   3.298   2.108   2.417
 7971SOL    HW224813   3.320   2.095   2.579
 7972SOL     OW24814   5.572   5.960   1.397
 7972SOL    HW124815   5.516   6.025   1.345
 7972SOL    HW224816   5.534   5.948   1.488
 7973SOL     OW24817   5.478   1.746   2.920
 7973SOL    HW124818   5.477   1.840   2.954
 7973SOL    HW224819   5.450   1.746   2.823
 7974SOL     OW24820   4.540   5.987   4.664
 7974SOL    HW124821   4.500   6.049   4.596
 7974SOL    HW224822   4.474   5.971   4.737
 7975SOL     OW24823   1.893   1.500   2.074
 7975SOL    HW124824   1.821   1.522   2.139
 7975SOL    HW224825   1.884   1.558   1.993
 7976SOL     OW24826   0.616   0.008   6.363
 7976SOL    HW124827   0.687   6.971   6.322
 7976SOL    HW224828   0.623   0.102   6.328
 7977SOL     OW24829   4.981   5.821   0.869
 7977SOL    HW124830   4.997   5.911   0.910
 7977SOL    HW224831   4.928   5.832   0.785
 7978SOL     OW24832   3.023   1.666   6.095
 7978SOL    HW124833   3.116   1.704   6.100
 7978SOL    HW224834   2.974   1.688   6.180
 7979SOL     OW24835   4.948   5.529   4.482
 7979SOL    HW124836   4.926   5.609   4.537
 7979SOL    HW224837   4.866   5.499   4.433
 7980SOL     OW24838   3.007   0.936   1.972
 7980SOL    HW124839   2.923   0.882   1.960
 7980SOL    HW224840   3.031   0.940   2.069
 7981SOL     OW24841   0.696   6.586   2.430
 7981SOL    HW124842   0.627   6.547   2.491
 7981SOL    HW224843   0.751   6.512   2.391
 7982SOL     OW24844   0.555   3.331   1.219
 7982SOL    HW124845   0.596   3.240   1.208
 7982SOL    HW224846   0.625   3.401   1.206
 7983SOL     OW24847   5.459   2.203   0.733
 7983SOL    HW124848   5.512   2.287   0.747
 7983SOL    HW224849   5.396   2.190   0.810
 7984SOL     OW24850   6.462   0.770   0.716
 7984SOL    HW124851   6.540   0.731   0.764
 7984SOL    HW224852   6.438   0.712   0.638
 7985SOL     OW24853   1.051   1.278   0.808
 7985SOL    HW124854   1.118   1.295   0.880
 7985SOL    HW224855   0.975   1.223   0.845
 7986SOL     OW24856   5.038   3.881   0.576
 7986SOL    HW124857   5.075   3.805   0.522
 7986SOL    HW224858   4.940   3.889   0.561
 7987SOL     OW24859   0.755   3.392   5.080
 7987SOL    HW124860   0.691   3.315   5.079
 7987SOL    HW224861   0.722   3.462   5.143
 7988SOL     OW24862   2.448   0.930   5.469
 7988SOL    HW124863   2.526   0.983   5.503
 7988SOL    HW224864   2.480   0.845   5.429
 7989SOL     OW24865   3.519   3.785   7.001
 7989SOL    HW124866   3.467   3.707   0.017
 7989SOL    HW224867   3.456   3.852   6.961
 7990SOL     OW24868   2.433   2.737   4.545
 7990SOL    HW124869   2.447   2.826   4.589
 7990SOL    HW224870   2.500   2.726   4.471
 7991SOL     OW24871   2.299   3.105   5.898
 7991SOL    HW124872   2.233   3.139   5.831
 7991SOL    HW224873   2.392   3.129   5.868
 7992SOL     OW24874   3.016   1.550   0.232
 7992SOL    HW124875   3.038   1.644   0.205
 7992SOL    HW224876   3.021   1.543   0.332
 7993SOL     OW24877   2.645   5.568   6.417
 7993SOL    HW124878   2.682   5.497   6.477
 7993SOL    HW224879   2.554   5.540   6.385
 7994SOL     OW24880   5.468   0.119   4.759
 7994SOL    HW124881   5.486   0.026   4.728
 7994SOL    HW224882   5.549   0.175   4.746
 7995SOL     OW24883   4.537   5.088   2.437
 7995SOL    HW124884   4.581   5.087   2.347
 7995SOL    HW224885   4.550   4.999   2.482
 7996SOL     OW24886   4.373   1.598   5.596
 7996SOL    HW124887   4.417   1.639   5.515
 7996SOL    HW224888   4.354   1.501   5.578
 7997SOL     OW24889   5.360   3.382   0.747
 7997SOL    HW124890   5.379   3.479   0.732
 7997SOL    HW224891   5.264   3.363   0.727
 7998SOL     OW24892   6.717   5.376   6.294
 7998SOL    HW124893   6.749   5.384   6.200
 7998SOL    HW224894   6.654   5.451   6.315
 7999SOL     OW24895   2.968   2.683   5.660
 7999SOL    HW124896   3.013   2.595   5.672
 7999SOL    HW224897   2.903   2.698   5.735
 8000SOL     OW24898   5.073   0.314   5.844
 8000SOL    HW124899   5.170   0.299   5.863
 8000SOL    HW224900   5.048   0.408   5.867
 8001SOL     OW24901   2.178   4.778   0.546
 8001SOL    HW124902   2.237   4.798   0.468
 8001SOL    HW224903   2.219   4.813   0.629
 8002SOL     OW24904   4.592   1.941   5.784
 8002SOL    HW124905   4.612   1.853   5.828
 8002SOL    HW224906   4.520   1.987   5.835
 8003SOL     OW24907   4.618   5.251   3.339
 8003SOL    HW124908   4.663   5.333   3.376
 8003SOL    HW224909   4.606   5.262   3.240
 8004SOL     OW24910   1.046   4.535   3.260
 8004SOL    HW124911   1.101   4.522   3.342
 8004SOL    HW224912   1.093   4.496   3.181
 8005SOL     OW24913   2.099   1.199   2.625
 8005SOL    HW124914   2.087   1.210   2.724
 8005SOL    HW224915   2.065   1.110   2.597
 8006SOL     OW24916   4.376   5.675   2.233
 8006SOL    HW124917   4.373   5.720   2.144
 8006SOL    HW224918   4.283   5.652   2.261
 8007SOL     OW24919   0.446   1.115   3.995
 8007SOL    HW124920   0.466   1.017   3.986
 8007SOL    HW224921   0.388   1.145   3.920
 8008SOL     OW24922   5.923   5.196   1.435
 8008SOL    HW124923   5.889   5.116   1.386
 8008SOL    HW224924   5.849   5.262   1.446
 8009SOL     OW24925   6.608   6.413   2.961
 8009SOL    HW124926   6.547   6.364   2.900
 8009SOL    HW224927   6.618   6.362   3.047
 8010SOL     OW24928   1.962   2.077   6.877
 8010SOL    HW124929   2.055   2.044   6.856
 8010SOL    HW224930   1.907   2.077   6.793
 8011SOL     OW24931   2.331   2.983   7.019
 8011SOL    HW124932   2.416   3.001   6.969
 8011SOL    HW224933   2.345   2.907   0.063
 8012SOL     OW24934   2.251   6.261   3.223
 8012SOL    HW124935   2.220   6.352   3.195
 8012SOL    HW224936   2.187   6.192   3.188
 8013SOL     OW24937   6.317   5.313   4.819
 8013SOL    HW124938   6.229   5.325   4.866
 8013SOL    HW224939   6.304   5.255   4.739
 8014SOL     OW24940   2.664   0.519   6.390
 8014SOL    HW124941   2.742   0.564   6.432
 8014SOL    HW224942   2.692   0.475   6.305
 8015SOL     OW24943   1.345   1.761   0.507
 8015SOL    HW124944   1.353   1.832   0.437
 8015SOL    HW224945   1.350   1.803   0.597
 8016SOL     OW24946   3.913   5.936   1.903
 8016SOL    HW124947   3.880   5.841   1.902
 8016SOL    HW224948   3.862   5.988   1.972
 8017SOL     OW24949   6.381   3.428   5.632
 8017SOL    HW124950   6.455   3.396   5.573
 8017SOL    HW224951   6.380   3.374   5.716
 8018SOL     OW24952   4.872   3.057   3.807
 8018SOL    HW124953   4.907   2.990   3.740
 8018SOL    HW224954   4.895   3.149   3.776
 8019SOL     OW24955   3.121   5.341   0.991
 8019SOL    HW124956   3.160   5.430   1.013
 8019SOL    HW224957   3.062   5.311   1.066
 8020SOL     OW24958   5.539   7.001   6.500
 8020SOL    HW124959   5.588   6.987   6.586
 8020SOL    HW224960   5.533   6.915   6.450
 8021SOL     OW24961   6.457   1.136   1.530
 8021SOL    HW124962   6.394   1.200   1.573
 8021SOL    HW224963   6.437   1.043   1.563
 8022SOL     OW24964   5.271   5.000   3.919
 8022SOL    HW124965   5.342   5.026   3.854
 8022SOL    HW224966   5.181   5.015   3.878
 8023SOL     OW24967   0.033   5.543   3.713
 8023SOL    HW124968   0.120   5.587   3.738
 8023SOL    HW224969   6.990   5.611   3.675
 8024SOL     OW24970   4.403   5.382   3.987
 8024SOL    HW124971   4.345   5.301   3.990
 8024SOL    HW224972   4.479   5.371   4.051
 8025SOL     OW24973   2.975   5.855   0.670
 8025SOL    HW124974   3.020   5.802   0.598
 8025SOL    HW224975   2.943   5.942   0.633
 8026SOL     OW24976   2.182   2.118   6.616
 8026SOL    HW124977   2.163   2.020   6.625
 8026SOL    HW224978   2.276   2.137   6.644
 8027SOL     OW24979   4.582   2.973   5.445
 8027SOL    HW124980   4.535   3.058   5.471
 8027SOL    HW224981   4.517   2.898   5.444
 8028SOL     OW24982   6.251   5.499   0.941
 8028SOL    HW124983   6.323   5.430   0.932
 8028SOL    HW224984   6.162   5.455   0.946
 8029SOL     OW24985   3.391   4.240   5.896
 8029SOL    HW124986   3.368   4.328   5.939
 8029SOL    HW224987   3.452   4.255   5.819
 8030SOL     OW24988   6.867   3.501   1.457
 8030SOL    HW124989   6.920   3.448   1.391
 8030SOL    HW224990   6.883   3.599   1.443
 8031SOL     OW24991   4.211   6.498   0.752
 8031SOL    HW124992   4.243   6.471   0.662
 8031SOL    HW224993   4.171   6.590   0.747
 8032SOL     OW24994   4.651   3.741   5.732
 8032SOL    HW124995   4.565   3.779   5.766
 8032SOL    HW224996   4.655   3.643   5.751
 8033SOL     OW24997   6.523   1.195   1.877
 8033SOL    HW124998   6.506   1.103   1.911
 8033SOL    HW224999   6.452   1.221   1.812
 8034SOL     OW25000   6.648   2.081   5.613
 8034SOL    HW125001   6.549   2.081   5.608
 8034SOL    HW225002   6.686   2.086   5.520
 8035SOL     OW25003   5.384   5.981   5.796
 8035SOL    HW125004   5.316   6.051   5.774
 8035SOL    HW225005   5.470   6.025   5.822
 8036SOL     OW25006   1.403   4.276   1.385
 8036SOL    HW125007   1.418   4.177   1.395
 8036SOL    HW225008   1.376   4.297   1.291
 8037SOL     OW25009   2.379   3.000   1.705
 8037SOL    HW125010   2.349   2.921   1.760
 8037SOL    HW225011   2.322   3.079   1.727
 8038SOL     OW25012   5.776   1.280   4.159
 8038SOL    HW125013   5.741   1.373   4.144
 8038SOL    HW225014   5.699   1.219   4.176
 8039SOL     OW25015   2.364   5.864   3.377
 8039SOL    HW125016   2.359   5.919   3.461
 8039SOL    HW225017   2.402   5.774   3.399
 8040SOL     OW25018   6.034   6.161   6.539
 8040SOL    HW125019   5.990   6.097   6.603
 8040SOL    HW225020   6.088   6.109   6.473
 8041SOL     OW25021   3.566   2.944   1.097
 8041SOL    HW125022   3.534   2.871   1.157
 8041SOL    HW225023   3.612   3.015   1.151
 8042SOL     OW25024   1.911   5.107   6.721
 8042SOL    HW125025   1.868   5.048   6.789
 8042SOL    HW225026   1.996   5.066   6.690
 8043SOL     OW25027   3.202   0.521   1.043
 8043SOL    HW125028   3.287   0.560   1.078
 8043SOL    HW225029   3.201   0.423   1.060
 8044SOL     OW25030   3.116   2.886   1.841
 8044SOL    HW125031   3.102   2.915   1.746
 8044SOL    HW225032   3.081   2.957   1.903
 8045SOL     OW25033   6.027   2.701   3.718
 8045SOL    HW125034   6.109   2.685   3.773
 8045SOL    HW225035   5.987   2.613   3.691
 8046SOL     OW25036   6.419   5.443   5.092
 8046SOL    HW125037   6.332   5.407   5.057
 8046SOL    HW225038   6.423   5.429   5.191
 8047SOL     OW25039   2.450   0.187   4.496
 8047SOL    HW125040   2.420   0.170   4.590
 8047SOL    HW225041   2.519   0.259   4.495
 8048SOL     OW25042   5.285   0.239   5.545
 8048SOL    HW125043   5.194   0.275   5.523
 8048SOL    HW225044   5.291   0.143   5.518
 8049SOL     OW25045   2.223   0.196   6.923
 8049SOL    HW125046   2.309   0.241   6.901
 8049SOL    HW225047   2.219   0.107   6.877
 8050SOL     OW25048   0.632   3.282   1.975
 8050SOL    HW125049   0.562   3.336   2.021
 8050SOL    HW225050   0.718   3.334   1.973
 8051SOL     OW25051   2.595   2.039   4.047
 8051SOL    HW125052   2.676   2.010   4.099
 8051SOL    HW225053   2.600   2.002   3.954
 8052SOL     OW25054   4.270   1.749   2.807
 8052SOL    HW125055   4.244   1.654   2.824
 8052SOL    HW225056   4.364   1.764   2.837
 8053SOL     OW25057   4.462   3.603   1.709
 8053SOL    HW125058   4.507   3.515   1.699
 8053SOL    HW225059   4.363   3.591   1.703
 8054SOL     OW25060   4.738   5.934   4.350
 8054SOL    HW125061   4.714   5.909   4.443
 8054SOL    HW225062   4.668   5.900   4.287
 8055SOL     OW25063   1.484   0.018   5.212
 8055SOL    HW125064   1.481   0.049   5.117
 8055SOL    HW225065   1.559   6.972   5.224
 8056SOL     OW25066   4.595   1.122   2.785
 8056SOL    HW125067   4.658   1.110   2.708
 8056SOL    HW225068   4.646   1.119   2.871
 8057SOL     OW25069   3.582   6.825   3.918
 8057SOL    HW125070   3.656   6.804   3.854
 8057SOL    HW225071   3.602   6.912   3.965
 8058SOL     OW25072   1.845   0.295   3.041
 8058SOL    HW125073   1.886   0.208   3.068
 8058SOL    HW225074   1.911   0.348   2.989
 8059SOL     OW25075   1.652   1.342   4.097
 8059SOL    HW125076   1.740   1.346   4.144
 8059SOL    HW225077   1.668   1.324   4.000
 8060SOL     OW25078   0.445   2.527   5.289
 8060SOL    HW125079   0.534   2.554   5.326
 8060SOL    HW225080   0.373   2.585   5.328
 8061SOL     OW25081   5.728   6.661   3.445
 8061SOL    HW125082   5.696   6.616   3.528
 8061SOL    HW225083   5.799   6.604   3.403
 8062SOL     OW25084   1.597   2.223   1.608
 8062SOL    HW125085   1.674   2.203   1.548
 8062SOL    HW225086   1.533   2.146   1.606
 8063SOL     OW25087   2.386   2.704   5.678
 8063SOL    HW125088   2.317   2.749   5.621
 8063SOL    HW225089   2.379   2.605   5.666
 8064SOL     OW25090   5.830   2.257   5.195
 8064SOL    HW125091   5.741   2.301   5.202
 8064SOL    HW225092   5.900   2.316   5.237
 8065SOL     OW25093   4.391   0.336   6.414
 8065SOL    HW125094   4.343   0.424   6.405
 8065SOL    HW225095   4.448   0.337   6.495
 8066SOL     OW25096   1.611   0.338   1.579
 8066SOL    HW125097   1.592   0.288   1.663
 8066SOL    HW225098   1.692   0.395   1.591
 8067SOL     OW25099   4.538   2.014   2.703
 8067SOL    HW125100   4.495   1.936   2.657
 8067SOL    HW225101   4.494   2.099   2.672
 8068SOL     OW25102   0.065   4.272   4.456
 8068SOL    HW125103   0.053   4.206   4.530
 8068SOL    HW225104   0.028   4.361   4.485
 8069SOL     OW25105   0.555   6.232   2.473
 8069SOL    HW125106   0.628   6.238   2.405
 8069SOL    HW225107   0.536   6.137   2.494
 8070SOL     OW25108   3.801   0.453   2.550
 8070SOL    HW125109   3.838   0.459   2.643
 8070SOL    HW225110   3.701   0.457   2.553
 8071SOL     OW25111   5.442   4.613   0.149
 8071SOL    HW125112   5.493   4.696   0.125
 8071SOL    HW225113   5.503   4.547   0.192
 8072SOL     OW25114   3.795   0.380   3.642
 8072SOL    HW125115   3.814   0.285   3.618
 8072SOL    HW225116   3.826   0.440   3.568
 8073SOL     OW25117   4.913   6.895   6.334
 8073SOL    HW125118   5.013   6.903   6.332
 8073SOL    HW225119   4.882   6.843   6.255
 8074SOL     OW25120   3.108   4.104   0.057
 8074SOL    HW125121   3.047   4.101   0.137
 8074SOL    HW225122   3.068   4.164   7.007
 8075SOL     OW25123   6.317   1.588   4.242
 8075SOL    HW125124   6.259   1.660   4.202
 8075SOL    HW225125   6.400   1.629   4.279
 8076SOL     OW25126   5.084   3.152   6.565
 8076SOL    HW125127   5.063   3.126   6.659
 8076SOL    HW225128   5.169   3.107   6.536
 8077SOL     OW25129   1.106   0.859   0.065
 8077SOL    HW125130   1.069   0.906   0.145
 8077SOL    HW225131   1.086   0.761   0.072
 8078SOL     OW25132   5.840   3.675   1.473
 8078SOL    HW125133   5.785   3.757   1.456
 8078SOL    HW225134   5.795   3.618   1.542
 8079SOL     OW25135   1.577   2.776   0.501
 8079SOL    HW125136   1.645   2.787   0.428
 8079SOL    HW225137   1.553   2.680   0.510
 8080SOL     OW25138   4.109   4.927   0.299
 8080SOL    HW125139   4.114   4.908   0.397
 8080SOL    HW225140   4.171   5.002   0.276
 8081SOL     OW25141   5.549   2.439   3.953
 8081SOL    HW125142   5.579   2.504   4.023
 8081SOL    HW225143   5.479   2.482   3.896
 8082SOL     OW25144   6.847   3.385   4.818
 8082SOL    HW125145   6.890   3.299   4.844
 8082SOL    HW225146   6.764   3.367   4.764
 8083SOL     OW25147   5.735   1.773   4.973
 8083SOL    HW125148   5.835   1.774   4.973
 8083SOL    HW225149   5.701   1.850   4.919
 8084SOL     OW25150   5.998   0.171   0.090
 8084SOL    HW125151   6.057   0.248   0.113
 8084SOL    HW225152   5.994   0.108   0.167
 8085SOL     OW25153   5.036   2.055   1.083
 8085SOL    HW125154   5.070   1.962   1.092
 8085SOL    HW225155   5.031   2.098   1.173
 8086SOL     OW25156   2.776   5.012   6.129
 8086SOL    HW125157   2.750   5.109   6.132
 8086SOL    HW225158   2.754   4.969   6.216
 8087SOL     OW25159   2.167   3.887   0.728
 8087SOL    HW125160   2.076   3.856   0.758
 8087SOL    HW225161   2.175   3.877   0.629
 8088SOL     OW25162   4.563   0.416   3.188
 8088SOL    HW125163   4.515   0.454   3.109
 8088SOL    HW225164   4.651   0.380   3.158
 8089SOL     OW25165   6.653   2.668   0.269
 8089SOL    HW125166   6.610   2.611   0.338
 8089SOL    HW225167   6.671   2.613   0.187
 8090SOL     OW25168   4.551   1.404   5.147
 8090SOL    HW125169   4.626   1.388   5.082
 8090SOL    HW225170   4.515   1.316   5.177
 8091SOL     OW25171   1.701   3.696   5.490
 8091SOL    HW125172   1.643   3.774   5.513
 8091SOL    HW225173   1.792   3.708   5.529
 8092SOL     OW25174   6.516   1.955   3.991
 8092SOL    HW125175   6.430   1.904   3.995
 8092SOL    HW225176   6.590   1.898   4.027
 8093SOL     OW25177   5.984   5.378   0.943
 8093SOL    HW125178   5.889   5.367   0.914
 8093SOL    HW225179   6.004   5.313   1.016
 8094SOL     OW25180   0.406   3.199   3.969
 8094SOL    HW125181   0.448   3.241   4.049
 8094SOL    HW225182   0.425   3.255   3.888
 8095SOL     OW25183   6.357   3.242   5.198
 8095SOL    HW125184   6.424   3.275   5.132
 8095SOL    HW225185   6.347   3.142   5.188
 8096SOL     OW25186   4.534   0.484   0.413
 8096SOL    HW125187   4.555   0.396   0.371
 8096SOL    HW225188   4.467   0.471   0.486
 8097SOL     OW25189   4.600   2.112   3.722
 8097SOL    HW125190   4.569   2.168   3.645
 8097SOL    HW225191   4.528   2.046   3.746
 8098SOL     OW25192   2.192   2.219   3.936
 8098SOL    HW125193   2.124   2.267   3.992
 8098SOL    HW225194   2.283   2.256   3.956
 8099SOL     OW25195   3.747   6.660   4.198
 8099SOL    HW125196   3.783   6.603   4.271
 8099SOL    HW225197   3.814   6.731   4.175
 8100SOL     OW25198   6.586   6.504   1.494
 8100SOL    HW125199   6.540   6.511   1.583
 8100SOL    HW225200   6.573   6.412   1.457
 8101SOL     OW25201   0.898   4.846   2.045
 8101SOL    HW125202   0.846   4.914   1.995
 8101SOL    HW225203   0.979   4.820   1.992
 8102SOL     OW25204   6.915   6.894   5.160
 8102SOL    HW125205   7.008   6.922   5.185
 8102SOL    HW225206   6.913   6.867   5.064
 8103SOL     OW25207   2.606   2.300   2.467
 8103SOL    HW125208   2.644   2.257   2.385
 8103SOL    HW225209   2.657   2.269   2.547
 8104SOL     OW25210   2.406   6.977   5.758
 8104SOL    HW125211   2.398   6.962   5.857
 8104SOL    HW225212   2.497   6.949   5.728
 8105SOL     OW25213   2.257   2.243   2.838
 8105SOL    HW125214   2.239   2.291   2.924
 8105SOL    HW225215   2.321   2.297   2.783
 8106SOL     OW25216   0.282   3.852   5.677
 8106SOL    HW125217   0.365   3.804   5.705
 8106SOL    HW225218   0.202   3.802   5.709
 8107SOL     OW25219   1.174   5.018   0.048
 8107SOL    HW125220   1.270   5.044   0.054
 8107SOL    HW225221   1.156   4.940   0.108
 8108SOL     OW25222   2.308   2.647   6.436
 8108SOL    HW125223   2.338   2.586   6.509
 8108SOL    HW225224   2.215   2.622   6.408
 8109SOL     OW25225   0.585   5.703   5.410
 8109SOL    HW125226   0.554   5.679   5.318
 8109SOL    HW225227   0.662   5.767   5.403
 8110SOL     OW25228   1.218   5.244   0.332
 8110SOL    HW125229   1.164   5.162   0.353
 8110SOL    HW225230   1.301   5.217   0.284
 8111SOL     OW25231   3.345   6.317   4.026
 8111SOL    HW125232   3.253   6.354   4.014
 8111SOL    HW225233   3.386   6.354   4.109
 8112SOL     OW25234   3.866   1.323   4.333
 8112SOL    HW125235   3.840   1.227   4.325
 8112SOL    HW225236   3.938   1.344   4.267
 8113SOL     OW25237   2.741   2.402   5.897
 8113SOL    HW125238   2.767   2.365   5.807
 8113SOL    HW225239   2.822   2.402   5.956
 8114SOL     OW25240   3.308   4.013   1.056
 8114SOL    HW125241   3.217   4.047   1.032
 8114SOL    HW225242   3.305   3.968   1.144
 8115SOL     OW25243   4.245   2.929   1.291
 8115SOL    HW125244   4.291   2.984   1.361
 8115SOL    HW225245   4.210   2.990   1.220
 8116SOL     OW25246   5.605   1.642   5.697
 8116SOL    HW125247   5.570   1.581   5.627
 8116SOL    HW225248   5.614   1.591   5.783
 8117SOL     OW25249   2.889   2.674   5.383
 8117SOL    HW125250   2.792   2.697   5.393
 8117SOL    HW225251   2.930   2.661   5.473
 8118SOL     OW25252   1.041   1.671   4.228
 8118SOL    HW125253   1.034   1.762   4.269
 8118SOL    HW225254   1.047   1.680   4.129
 8119SOL     OW25255   1.463   6.982   2.658
 8119SOL    HW125256   1.384   6.940   2.703
 8119SOL    HW225257   1.474   6.944   2.566
 8120SOL     OW25258   4.824   4.036   2.341
 8120SOL    HW125259   4.810   4.116   2.398
 8120SOL    HW225260   4.807   3.953   2.394
 8121SOL     OW25261   6.876   5.833   3.474
 8121SOL    HW125262   6.809   5.895   3.434
 8121SOL    HW225263   6.941   5.803   3.404
 8122SOL     OW25264   0.249   5.046   1.843
 8122SOL    HW125265   0.307   5.051   1.924
 8122SOL    HW225266   0.200   4.959   1.842
 8123SOL     OW25267   1.292   5.354   6.120
 8123SOL    HW125268   1.391   5.361   6.131
 8123SOL    HW225269   1.271   5.280   6.056
 8124SOL     OW25270   1.912   5.942   2.438
 8124SOL    HW125271   1.879   6.008   2.505
 8124SOL    HW225272   1.848   5.938   2.361
 8125SOL     OW25273   5.207   5.138   3.577
 8125SOL    HW125274   5.221   5.064   3.512
 8125SOL    HW225275   5.292   5.156   3.628
 8126SOL     OW25276   0.215   4.793   1.813
 8126SOL    HW125277   0.148   4.719   1.816
 8126SOL    HW225278   0.285   4.772   1.744
 8127SOL     OW25279   4.237   5.216   0.998
 8127SOL    HW125280   4.217   5.130   0.950
 8127SOL    HW225281   4.334   5.239   0.986
 8128SOL     OW25282   3.868   2.175   5.101
 8128SOL    HW125283   3.889   2.208   5.193
 8128SOL    HW225284   3.770   2.156   5.094
 8129SOL     OW25285   4.632   5.716   6.610
 8129SOL    HW125286   4.729   5.690   6.604
 8129SOL    HW225287   4.575   5.635   6.598
 8130SOL     OW25288   0.350   0.351   6.175
 8130SOL    HW125289   0.324   0.348   6.271
 8130SOL    HW225290   0.334   0.443   6.139
 8131SOL     OW25291   2.254   1.535   1.583
 8131SOL    HW125292   2.238   1.531   1.682
 8131SOL    HW225293   2.297   1.450   1.552
 8132SOL     OW25294   5.819   4.283   3.487
 8132SOL    HW125295   5.855   4.296   3.579
 8132SOL    HW225296   5.732   4.234   3.492
 8133SOL     OW25297   0.322   5.568   2.582
 8133SOL    HW125298   0.383   5.557   2.503
 8133SOL    HW225299   0.376   5.565   2.666
 8134SOL     OW25300   3.047   3.712   1.360
 8134SOL    HW125301   2.978   3.639   1.356
 8134SOL    HW225302   3.114   3.690   1.431
 8135SOL     OW25303   4.186   6.300   2.470
 8135SOL    HW125304   4.184   6.327   2.373
 8135SOL    HW225305   4.134   6.216   2.482
 8136SOL     OW25306   2.632   5.752   1.876
 8136SOL    HW125307   2.585   5.665   1.891
 8136SOL    HW225308   2.586   5.802   1.802
 8137SOL     OW25309   3.293   4.452   5.472
 8137SOL    HW125310   3.281   4.550   5.492
 8137SOL    HW225311   3.256   4.433   5.381
 8138SOL     OW25312   3.980   0.874   3.338
 8138SOL    HW125313   3.915   0.820   3.285
 8138SOL    HW225314   4.044   0.920   3.276
 8139SOL     OW25315   1.830   3.222   5.778
 8139SOL    HW125316   1.773   3.258   5.704
 8139SOL    HW225317   1.883   3.144   5.745
 8140SOL     OW25318   5.491   1.770   1.416
 8140SOL    HW125319   5.518   1.686   1.369
 8140SOL    HW225320   5.515   1.849   1.360
 8141SOL     OW25321   5.896   1.461   5.627
 8141SOL    HW125322   5.981   1.430   5.583
 8141SOL    HW225323   5.827   1.478   5.557
 8142SOL     OW25324   3.791   5.932   0.668
 8142SOL    HW125325   3.772   5.859   0.734
 8142SOL    HW225326   3.866   5.904   0.608
 8143SOL     OW25327   5.858   5.116   6.998
 8143SOL    HW125328   5.825   5.123   0.073
 8143SOL    HW225329   5.926   5.187   6.981
 8144SOL     OW25330   2.039   5.606   6.211
 8144SOL    HW125331   2.060   5.573   6.303
 8144SOL    HW225332   2.045   5.530   6.147
 8145SOL     OW25333   5.136   5.572   5.162
 8145SOL    HW125334   5.195   5.648   5.193
 8145SOL    HW225335   5.048   5.577   5.209
 8146SOL     OW25336   6.954   6.276   5.004
 8146SOL    HW125337   6.899   6.193   5.001
 8146SOL    HW225338   6.898   6.352   5.037
 8147SOL     OW25339   2.379   6.827   4.657
 8147SOL    HW125340   2.286   6.808   4.626
 8147SOL    HW225341   2.407   6.757   4.723
 8148SOL     OW25342   5.485   4.549   0.779
 8148SOL    HW125343   5.474   4.603   0.696
 8148SOL    HW225344   5.547   4.596   0.842
 8149SOL     OW25345   1.531   6.590   4.942
 8149SOL    HW125346   1.549   6.498   4.976
 8149SOL    HW225347   1.559   6.657   5.011
 8150SOL     OW25348   0.045   4.490   0.575
 8150SOL    HW125349   0.018   4.540   0.658
 8150SOL    HW225350   0.093   4.406   0.600
 8151SOL     OW25351   6.056   4.050   2.234
 8151SOL    HW125352   6.031   3.955   2.252
 8151SOL    HW225353   6.115   4.083   2.307
 8152SOL     OW25354   5.017   1.979   4.050
 8152SOL    HW125355   4.923   1.976   4.017
 8152SOL    HW225356   5.080   1.994   3.973
 8153SOL     OW25357   0.365   1.963   1.004
 8153SOL    HW125358   0.344   1.884   1.060
 8153SOL    HW225359   0.372   2.045   1.061
 8154SOL     OW25360   0.069   0.290   3.841
 8154SOL    HW125361   0.070   0.358   3.914
 8154SOL    HW225362   0.160   0.284   3.800
 8155SOL     OW25363   1.077   4.913   4.554
 8155SOL    HW125364   1.014   4.924   4.477
 8155SOL    HW225365   1.169   4.941   4.527
 8156SOL     OW25366   1.238   3.823   0.292
 8156SOL    HW125367   1.298   3.884   0.344
 8156SOL    HW225368   1.144   3.833   0.325
 8157SOL     OW25369   6.204   4.418   5.259
 8157SOL    HW125370   6.260   4.475   5.318
 8157SOL    HW225371   6.177   4.335   5.309
 8158SOL     OW25372   6.246   5.111   5.999
 8158SOL    HW125373   6.277   5.173   6.071
 8158SOL    HW225374   6.209   5.164   5.922
 8159SOL     OW25375   1.924   6.424   5.174
 8159SOL    HW125376   1.993   6.378   5.117
 8159SOL    HW225377   1.936   6.396   5.269
 8160SOL     OW25378   5.373   3.056   2.848
 8160SOL    HW125379   5.335   3.014   2.930
 8160SOL    HW225380   5.431   2.990   2.800
 8161SOL     OW25381   0.338   2.430   1.120
 8161SOL    HW125382   0.297   2.516   1.153
 8161SOL    HW225383   0.437   2.436   1.127
 8162SOL     OW25384   0.116   6.033   4.979
 8162SOL    HW125385   0.049   6.038   5.054
 8162SOL    HW225386   0.111   5.943   4.936
 8163SOL     OW25387   3.549   4.890   5.623
 8163SOL    HW125388   3.597   4.975   5.647
 8163SOL    HW225389   3.455   4.911   5.596
 8164SOL     OW25390   5.680   2.064   0.010
 8164SOL    HW125391   5.590   2.100   0.031
 8164SOL    HW225392   5.741   2.076   0.089
 8165SOL     OW25393   0.800   3.011   5.959
 8165SOL    HW125394   0.885   3.054   5.991
 8165SOL    HW225395   0.803   3.003   5.859
 8166SOL     OW25396   3.289   2.062   4.414
 8166SOL    HW125397   3.229   1.984   4.434
 8166SOL    HW225398   3.238   2.131   4.363
 8167SOL     OW25399   1.852   2.580   2.415
 8167SOL    HW125400   1.794   2.507   2.378
 8167SOL    HW225401   1.880   2.556   2.508
 8168SOL     OW25402   1.106   6.021   3.063
 8168SOL    HW125403   1.131   5.957   3.136
 8168SOL    HW225404   1.176   6.093   3.057
 8169SOL     OW25405   5.460   4.674   6.817
 8169SOL    HW125406   5.451   4.668   6.718
 8169SOL    HW225407   5.556   4.688   6.841
 8170SOL     OW25408   6.980   4.603   3.489
 8170SOL    HW125409   6.939   4.516   3.466
 8170SOL    HW225410   6.910   4.674   3.494
 8171SOL     OW25411   2.210   1.608   1.842
 8171SOL    HW125412   2.248   1.626   1.933
 8171SOL    HW225413   2.116   1.642   1.838
 8172SOL     OW25414   1.629   5.189   0.370
 8172SOL    HW125415   1.549   5.232   0.411
 8172SOL    HW225416   1.696   5.259   0.346
 8173SOL     OW25417   5.981   0.143   1.540
 8173SOL    HW125418   5.976   0.051   1.577
 8173SOL    HW225419   6.014   0.139   1.445
 8174SOL     OW25420   2.610   6.642   4.093
 8174SOL    HW125421   2.630   6.575   4.021
 8174SOL    HW225422   2.621   6.734   4.058
 8175SOL     OW25423   0.843   2.393   6.195
 8175SOL    HW125424   0.923   2.339   6.221
 8175SOL    HW225425   0.779   2.397   6.273
 8176SOL     OW25426   2.857   4.244   0.171
 8176SOL    HW125427   2.905   4.290   0.245
 8176SOL    HW225428   2.777   4.196   0.207
 8177SOL     OW25429   3.411   1.096   2.513
 8177SOL    HW125430   3.366   1.125   2.428
 8177SOL    HW225431   3.442   1.177   2.563
 8178SOL     OW25432   2.234   6.323   1.242
 8178SOL    HW125433   2.214   6.406   1.190
 8178SOL    HW225434   2.191   6.329   1.332
 8179SOL     OW25435   6.250   6.936   4.087
 8179SOL    HW125436   6.259   6.866   4.016
 8179SOL    HW225437   6.154   6.946   4.111
 8180SOL     OW25438   4.707   5.613   0.700
 8180SOL    HW125439   4.671   5.695   0.746
 8180SOL    HW225440   4.804   5.628   0.678
 8181SOL     OW25441   6.568   0.559   6.378
 8181SOL    HW125442   6.660   0.585   6.405
 8181SOL    HW225443   6.516   0.529   6.458
 8182SOL     OW25444   3.696   3.619   3.117
 8182SOL    HW125445   3.751   3.686   3.066
 8182SOL    HW225446   3.619   3.589   3.060
 8183SOL     OW25447   0.252   0.181   5.100
 8183SOL    HW125448   0.319   0.215   5.167
 8183SOL    HW225449   0.215   0.258   5.048
 8184SOL     OW25450   0.156   5.812   4.838
 8184SOL    HW125451   0.141   5.713   4.846
 8184SOL    HW225452   0.245   5.829   4.796
 8185SOL     OW25453   0.083   6.458   4.698
 8185SOL    HW125454   0.032   6.375   4.674
 8185SOL    HW225455   0.104   6.457   4.796
 8186SOL     OW25456   1.550   5.766   6.968
 8186SOL    HW125457   1.507   5.799   0.032
 8186SOL    HW225458   1.492   5.789   6.889
 8187SOL     OW25459   1.448   6.150   4.584
 8187SOL    HW125460   1.354   6.175   4.606
 8187SOL    HW225461   1.485   6.092   4.657
 8188SOL     OW25462   1.767   3.006   2.553
 8188SOL    HW125463   1.818   2.929   2.515
 8188SOL    HW225464   1.801   3.091   2.513
 8189SOL     OW25465   6.862   5.451   3.933
 8189SOL    HW125466   6.900   5.438   3.842
 8189SOL    HW225467   6.936   5.469   3.998
 8190SOL     OW25468   5.673   3.952   3.047
 8190SOL    HW125469   5.682   3.872   3.107
 8190SOL    HW225470   5.635   3.923   2.959
 8191SOL     OW25471   5.076   5.144   0.801
 8191SOL    HW125472   4.980   5.155   0.777
 8191SOL    HW225473   5.094   5.190   0.888
 8192SOL     OW25474   6.877   5.761   2.579
 8192SOL    HW125475   6.976   5.758   2.565
 8192SOL    HW225476   6.856   5.746   2.675
 8193SOL     OW25477   0.840   4.979   4.405
 8193SOL    HW125478   0.776   4.935   4.467
 8193SOL    HW225479   0.826   5.078   4.407
 8194SOL     OW25480   5.376   0.097   2.424
 8194SOL    HW125481   5.324   0.051   2.352
 8194SOL    HW225482   5.474   0.087   2.405
 8195SOL     OW25483   6.542   6.675   3.107
 8195SOL    HW125484   6.511   6.761   3.066
 8195SOL    HW225485   6.530   6.600   3.042
 8196SOL     OW25486   4.974   6.802   2.830
 8196SOL    HW125487   5.008   6.896   2.839
 8196SOL    HW225488   5.005   6.748   2.908
 8197SOL     OW25489   4.209   1.147   3.169
 8197SOL    HW125490   4.246   1.054   3.160
 8197SOL    HW225491   4.149   1.151   3.249
 8198SOL     OW25492   2.048   5.528   0.205
 8198SOL    HW125493   2.093   5.606   0.249
 8198SOL    HW225494   2.014   5.556   0.115
 8199SOL     OW25495   6.117   2.785   0.355
 8199SOL    HW125496   6.201   2.734   0.374
 8199SOL    HW225497   6.071   2.806   0.441
 8200SOL     OW25498   6.118   4.797   0.149
 8200SOL    HW125499   6.085   4.703   0.138
 8200SOL    HW225500   6.044   4.854   0.185
 8201SOL     OW25501   5.264   1.017   5.323
 8201SOL    HW125502   5.308   1.026   5.234
 8201SOL    HW225503   5.198   1.092   5.336
 8202SOL     OW25504   0.429   5.817   1.930
 8202SOL    HW125505   0.434   5.725   1.970
 8202SOL    HW225506   0.519   5.861   1.938
 8203SOL     OW25507   1.177   2.754   0.335
 8203SOL    HW125508   1.183   2.697   0.253
 8203SOL    HW225509   1.231   2.837   0.322
 8204SOL     OW25510   1.690   3.836   0.628
 8204SOL    HW125511   1.693   3.923   0.578
 8204SOL    HW225512   1.780   3.792   0.621
 8205SOL     OW25513   0.102   4.078   6.268
 8205SOL    HW125514   0.024   4.070   6.206
 8205SOL    HW225515   0.153   3.992   6.269
 8206SOL     OW25516   3.466   0.972   1.082
 8206SOL    HW125517   3.490   0.993   1.176
 8206SOL    HW225518   3.446   1.056   1.032
 8207SOL     OW25519   4.121   3.746   4.114
 8207SOL    HW125520   4.211   3.782   4.137
 8207SOL    HW225521   4.119   3.647   4.128
 8208SOL     OW25522   3.103   0.092   6.184
 8208SOL    HW125523   3.090   0.190   6.200
 8208SOL    HW225524   3.199   0.068   6.202
 8209SOL     OW25525   6.124   2.254   3.512
 8209SOL    HW125526   6.151   2.325   3.447
 8209SOL    HW225527   6.059   2.293   3.578
 8210SOL     OW25528   1.534   2.204   6.290
 8210SOL    HW125529   1.512   2.301   6.302
 8210SOL    HW225530   1.501   2.153   6.370
 8211SOL     OW25531   3.771   4.649   1.083
 8211SOL    HW125532   3.673   4.639   1.065
 8211SOL    HW225533   3.790   4.620   1.177
 8212SOL     OW25534   1.846   3.636   2.887
 8212SOL    HW125535   1.940   3.642   2.853
 8212SOL    HW225536   1.792   3.577   2.827
 8213SOL     OW25537   6.381   4.603   0.681
 8213SOL    HW125538   6.364   4.622   0.584
 8213SOL    HW225539   6.334   4.518   0.706
 8214SOL     OW25540   5.066   3.216   3.613
 8214SOL    HW125541   5.014   3.282   3.668
 8214SOL    HW225542   5.131   3.264   3.555
 8215SOL     OW25543   3.710   4.996   1.560
 8215SOL    HW125544   3.623   4.966   1.600
 8215SOL    HW225545   3.743   4.926   1.496
 8216SOL     OW25546   5.510   3.114   4.432
 8216SOL    HW125547   5.442   3.070   4.373
 8216SOL    HW225548   5.586   3.146   4.375
 8217SOL     OW25549   2.465   6.104   0.216
 8217SOL    HW125550   2.472   6.032   0.285
 8217SOL    HW225551   2.387   6.085   0.156
 8218SOL     OW25552   4.911   2.181   0.023
 8218SOL    HW125553   4.842   2.234   0.072
 8218SOL    HW225554   4.995   2.177   0.077
 8219SOL     OW25555   5.261   2.732   0.086
 8219SOL    HW125556   5.241   2.744   7.008
 8219SOL    HW225557   5.313   2.648   0.099
 8220SOL     OW25558   3.921   3.514   1.534
 8220SOL    HW125559   3.917   3.535   1.436
 8220SOL    HW225560   3.868   3.583   1.585
 8221SOL     OW25561   5.818   3.835   3.669
 8221SOL    HW125562   5.781   3.762   3.727
 8221SOL    HW225563   5.788   3.821   3.575
 8222SOL     OW25564   5.805   0.750   2.814
 8222SOL    HW125565   5.718   0.797   2.799
 8222SOL    HW225566   5.869   0.773   2.741
 8223SOL     OW25567   0.762   4.196   6.968
 8223SOL    HW125568   0.772   4.279   6.913
 8223SOL    HW225569   0.666   4.168   6.969
 8224SOL     OW25570   0.799   3.636   2.417
 8224SOL    HW125571   0.707   3.675   2.422
 8224SOL    HW225572   0.812   3.572   2.493
 8225SOL     OW25573   5.064   0.848   1.069
 8225SOL    HW125574   4.997   0.916   1.100
 8225SOL    HW225575   5.064   0.770   1.131
 8226SOL     OW25576   3.795   0.604   6.818
 8226SOL    HW125577   3.713   0.636   6.866
 8226SOL    HW225578   3.770   0.531   6.755
 8227SOL     OW25579   6.047   3.958   3.318
 8227SOL    HW125580   6.026   4.047   3.278
 8227SOL    HW225581   6.095   3.971   3.405
 8228SOL     OW25582   0.360   1.464   3.689
 8228SOL    HW125583   0.383   1.531   3.760
 8228SOL    HW225584   0.261   1.449   3.689
 8229SOL     OW25585   5.404   5.460   0.177
 8229SOL    HW125586   5.464   5.404   0.120
 8229SOL    HW225587   5.420   5.556   0.158
 8230SOL     OW25588   5.095   0.087   3.350
 8230SOL    HW125589   4.996   0.087   3.357
 8230SOL    HW225590   5.124   0.141   3.271
 8231SOL     OW25591   4.118   5.889   1.342
 8231SOL    HW125592   4.164   5.826   1.279
 8231SOL    HW225593   4.022   5.899   1.315
 8232SOL     OW25594   2.515   1.193   0.318
 8232SOL    HW125595   2.568   1.138   0.383
 8232SOL    HW225596   2.496   1.283   0.357
 8233SOL     OW25597   0.772   5.772   5.711
 8233SOL    HW125598   0.702   5.704   5.689
 8233SOL    HW225599   0.832   5.736   5.782
 8234SOL     OW25600   1.943   3.453   6.713
 8234SOL    HW125601   2.006   3.384   6.749
 8234SOL    HW225602   1.970   3.544   6.746
 8235SOL     OW25603   4.287   2.568   6.700
 8235SOL    HW125604   4.280   2.618   6.787
 8235SOL    HW225605   4.383   2.550   6.680
 8236SOL     OW25606   6.165   2.187   1.743
 8236SOL    HW125607   6.072   2.222   1.755
 8236SOL    HW225608   6.208   2.177   1.833
 8237SOL     OW25609   3.540   6.203   5.760
 8237SOL    HW125610   3.584   6.291   5.744
 8237SOL    HW225611   3.560   6.141   5.684
 8238SOL     OW25612   0.688   0.916   6.489
 8238SOL    HW125613   0.762   0.981   6.502
 8238SOL    HW225614   0.634   0.943   6.408
 8239SOL     OW25615   5.383   1.206   6.585
 8239SOL    HW125616   5.294   1.166   6.604
 8239SOL    HW225617   5.441   1.198   6.666
 8240SOL     OW25618   3.625   3.154   2.930
 8240SOL    HW125619   3.724   3.168   2.935
 8240SOL    HW225620   3.598   3.145   2.834
 8241SOL     OW25621   4.756   6.313   1.023
 8241SOL    HW125622   4.735   6.393   1.078
 8241SOL    HW225623   4.824   6.336   0.953
 8242SOL     OW25624   1.575   4.279   5.207
 8242SOL    HW125625   1.638   4.353   5.185
 8242SOL    HW225626   1.531   4.246   5.123
 8243SOL     OW25627   0.359   3.168   4.740
 8243SOL    HW125628   0.369   3.243   4.805
 8243SOL    HW225629   0.337   3.084   4.789
 8244SOL     OW25630   3.039   5.419   5.197
 8244SOL    HW125631   3.105   5.462   5.135
 8244SOL    HW225632   2.956   5.474   5.200
 8245SOL     OW25633   4.403   3.774   1.152
 8245SOL    HW125634   4.355   3.859   1.170
 8245SOL    HW225635   4.496   3.780   1.188
 8246SOL     OW25636   5.413   3.086   4.958
 8246SOL    HW125637   5.403   3.137   5.043
 8246SOL    HW225638   5.335   3.024   4.947
 8247SOL     OW25639   0.715   6.422   6.641
 8247SOL    HW125640   0.741   6.491   6.709
 8247SOL    HW225641   0.791   6.405   6.579
 8248SOL     OW25642   0.278   4.260   3.323
 8248SOL    HW125643   0.203   4.271   3.388
 8248SOL    HW225644   0.342   4.336   3.332
 8249SOL     OW25645   0.968   5.371   3.052
 8249SOL    HW125646   0.931   5.278   3.045
 8249SOL    HW225647   0.920   5.431   2.988
 8250SOL     OW25648   2.921   3.358   2.770
 8250SOL    HW125649   2.966   3.445   2.746
 8250SOL    HW225650   2.935   3.292   2.697
 8251SOL     OW25651   5.350   1.015   4.712
 8251SOL    HW125652   5.408   0.950   4.662
 8251SOL    HW225653   5.284   1.056   4.648
 8252SOL     OW25654   1.137   3.958   4.124
 8252SOL    HW125655   1.215   3.983   4.066
 8252SOL    HW225656   1.080   4.038   4.140
 8253SOL     OW25657   3.259   3.182   5.806
 8253SOL    HW125658   3.324   3.109   5.785
 8253SOL    HW225659   3.188   3.185   5.736
 8254SOL     OW25660   5.072   5.356   2.885
 8254SOL    HW125661   5.145   5.412   2.924
 8254SOL    HW225662   5.026   5.305   2.958
 8255SOL     OW25663   3.893   4.857   3.420
 8255SOL    HW125664   3.813   4.821   3.372
 8255SOL    HW225665   3.866   4.889   3.511
 8256SOL     OW25666   5.237   2.261   3.197
 8256SOL    HW125667   5.236   2.223   3.289
 8256SOL    HW225668   5.161   2.222   3.144
 8257SOL     OW25669   6.372   4.337   4.226
 8257SOL    HW125670   6.423   4.406   4.277
 8257SOL    HW225671   6.431   4.258   4.208
 8258SOL     OW25672   5.283   2.036   0.032
 8258SOL    HW125673   5.352   2.104   0.010
 8258SOL    HW225674   5.323   1.965   0.089
 8259SOL     OW25675   4.875   0.461   0.810
 8259SOL    HW125676   4.888   0.547   0.761
 8259SOL    HW225677   4.843   0.391   0.746
 8260SOL     OW25678   3.235   5.726   6.589
 8260SOL    HW125679   3.184   5.701   6.506
 8260SOL    HW225680   3.322   5.767   6.563
 8261SOL     OW25681   5.018   1.409   1.447
 8261SOL    HW125682   4.952   1.372   1.382
 8261SOL    HW225683   4.991   1.384   1.540
 8262SOL     OW25684   6.276   2.759   1.672
 8262SOL    HW125685   6.342   2.818   1.719
 8262SOL    HW225686   6.184   2.779   1.705
 8263SOL     OW25687   5.702   1.638   0.484
 8263SOL    HW125688   5.739   1.728   0.463
 8263SOL    HW225689   5.762   1.592   0.549
 8264SOL     OW25690   1.309   4.297   1.127
 8264SOL    HW125691   1.283   4.208   1.090
 8264SOL    HW225692   1.389   4.332   1.079
 8265SOL     OW25693   1.772   0.379   2.530
 8265SOL    HW125694   1.682   0.335   2.537
 8265SOL    HW225695   1.760   0.474   2.503
 8266SOL     OW25696   2.937   0.805   2.767
 8266SOL    HW125697   2.928   0.782   2.864
 8266SOL    HW225698   2.978   0.896   2.758
 8267SOL     OW25699   0.149   4.029   1.032
 8267SOL    HW125700   0.074   4.008   1.094
 8267SOL    HW225701   0.131   3.987   0.943
 8268SOL     OW25702   2.722   4.739   6.877
 8268SOL    HW125703   2.716   4.676   6.800
 8268SOL    HW225704   2.631   4.757   6.913
 8269SOL     OW25705   6.000   2.024   6.851
 8269SOL    HW125706   5.952   2.111   6.860
 8269SOL    HW225707   6.038   2.016   6.759
 8270SOL     OW25708   2.590   6.338   4.391
 8270SOL    HW125709   2.527   6.269   4.428
 8270SOL    HW225710   2.581   6.341   4.292
 8271SOL     OW25711   0.433   2.435   2.489
 8271SOL    HW125712   0.370   2.494   2.438
 8271SOL    HW225713   0.448   2.350   2.438
 8272SOL     OW25714   3.423   1.261   4.050
 8272SOL    HW125715   3.442   1.359   4.046
 8272SOL    HW225716   3.493   1.211   3.999
 8273SOL     OW25717   1.711   6.335   2.092
 8273SOL    HW125718   1.810   6.328   2.077
 8273SOL    HW225719   1.676   6.417   2.047
 8274SOL     OW25720   5.257   3.865   3.707
 8274SOL    HW125721   5.258   3.765   3.707
 8274SOL    HW225722   5.209   3.898   3.625
 8275SOL     OW25723   5.938   2.445   0.119
 8275SOL    HW125724   5.987   2.526   0.087
 8275SOL    HW225725   5.897   2.398   0.041
 8276SOL     OW25726   0.687   2.135   2.651
 8276SOL    HW125727   0.767   2.105   2.704
 8276SOL    HW225728   0.712   2.141   2.554
 8277SOL     OW25729   0.094   1.356   0.315
 8277SOL    HW125730   0.085   1.370   0.216
 8277SOL    HW225731   0.190   1.344   0.338
 8278SOL     OW25732   1.389   2.604   0.659
 8278SOL    HW125733   1.449   2.673   0.700
 8278SOL    HW225734   1.294   2.626   0.680
 8279SOL     OW25735   0.136   5.769   3.987
 8279SOL    HW125736   0.109   5.837   3.918
 8279SOL    HW225737   0.193   5.699   3.944
 8280SOL     OW25738   2.965   2.401   6.054
 8280SOL    HW125739   3.048   2.345   6.060
 8280SOL    HW225740   2.990   2.494   6.027
 8281SOL     OW25741   4.177   5.475   2.410
 8281SOL    HW125742   4.257   5.416   2.406
 8281SOL    HW225743   4.126   5.470   2.324
 8282SOL     OW25744   6.111   2.905   6.236
 8282SOL    HW125745   6.052   2.892   6.316
 8282SOL    HW225746   6.161   2.821   6.217
 8283SOL     OW25747   2.257   2.843   5.996
 8283SOL    HW125748   2.303   2.927   5.968
 8283SOL    HW225749   2.166   2.840   5.956
 8284SOL     OW25750   6.445   4.342   1.751
 8284SOL    HW125751   6.535   4.350   1.709
 8284SOL    HW225752   6.425   4.426   1.802
 8285SOL     OW25753   3.494   2.867   3.643
 8285SOL    HW125754   3.414   2.895   3.588
 8285SOL    HW225755   3.578   2.892   3.594
 8286SOL     OW25756   0.483   2.922   0.103
 8286SOL    HW125757   0.549   2.863   0.056
 8286SOL    HW225758   0.531   2.985   0.164
 8287SOL     OW25759   1.747   0.083   4.126
 8287SOL    HW125760   1.843   0.084   4.098
 8287SOL    HW225761   1.698   0.158   4.081
 8288SOL     OW25762   3.131   1.511   3.188
 8288SOL    HW125763   3.067   1.489   3.261
 8288SOL    HW225764   3.200   1.574   3.222
 8289SOL     OW25765   0.441   6.764   6.975
 8289SOL    HW125766   0.349   6.793   6.950
 8289SOL    HW225767   0.507   6.806   6.913
 8290SOL     OW25768   6.318   1.983   0.833
 8290SOL    HW125769   6.280   2.017   0.747
 8290SOL    HW225770   6.258   2.008   0.908
 8291SOL     OW25771   4.090   0.592   0.802
 8291SOL    HW125772   4.183   0.611   0.834
 8291SOL    HW225773   4.066   0.655   0.728
 8292SOL     OW25774   2.781   0.628   6.119
 8292SOL    HW125775   2.754   0.543   6.075
 8292SOL    HW225776   2.880   0.630   6.132
 8293SOL     OW25777   6.045   5.252   5.254
 8293SOL    HW125778   6.022   5.325   5.189
 8293SOL    HW225779   5.962   5.205   5.283
 8294SOL     OW25780   6.089   2.710   0.096
 8294SOL    HW125781   6.112   2.758   0.181
 8294SOL    HW225782   6.126   2.760   0.019
 8295SOL     OW25783   5.132   2.767   6.697
 8295SOL    HW125784   5.181   2.854   6.689
 8295SOL    HW225785   5.191   2.692   6.668
 8296SOL     OW25786   0.073   4.855   5.148
 8296SOL    HW125787   0.001   4.881   5.084
 8296SOL    HW225788   0.117   4.938   5.184
 8297SOL     OW25789   1.207   3.332   4.014
 8297SOL    HW125790   1.296   3.360   3.977
 8297SOL    HW225791   1.178   3.248   3.969
 8298SOL     OW25792   4.709   1.924   1.806
 8298SOL    HW125793   4.777   1.974   1.752
 8298SOL    HW225794   4.647   1.989   1.850
 8299SOL     OW25795   5.556   2.003   1.859
 8299SOL    HW125796   5.601   1.918   1.831
 8299SOL    HW225797   5.484   2.026   1.794
 8300SOL     OW25798   1.589   5.328   3.109
 8300SOL    HW125799   1.518   5.359   3.046
 8300SOL    HW225800   1.674   5.313   3.058
 8301SOL     OW25801   2.580   1.505   5.922
 8301SOL    HW125802   2.507   1.573   5.929
 8301SOL    HW225803   2.540   1.413   5.921
 8302SOL     OW25804   5.919   5.957   5.591
 8302SOL    HW125805   5.963   5.867   5.599
 8302SOL    HW225806   5.921   6.002   5.680
 8303SOL     OW25807   0.061   0.057   6.716
 8303SOL    HW125808   0.161   0.066   6.717
 8303SOL    HW225809   0.024   0.099   6.634
 8304SOL     OW25810   6.856   2.885   0.722
 8304SOL    HW125811   6.926   2.924   0.662
 8304SOL    HW225812   6.861   2.785   0.718
 8305SOL     OW25813   2.912   4.866   2.742
 8305SOL    HW125814   2.859   4.800   2.688
 8305SOL    HW225815   2.852   4.909   2.809
 8306SOL     OW25816   2.098   2.774   4.054
 8306SOL    HW125817   2.086   2.805   3.960
 8306SOL    HW225818   2.056   2.840   4.116
 8307SOL     OW25819   3.733   6.053   0.991
 8307SOL    HW125820   3.753   6.019   0.898
 8307SOL    HW225821   3.635   6.073   0.998
 8308SOL     OW25822   2.838   0.655   2.386
 8308SOL    HW125823   2.805   0.713   2.460
 8308SOL    HW225824   2.938   0.655   2.385
 8309SOL     OW25825   5.892   6.584   2.058
 8309SOL    HW125826   5.890   6.675   2.101
 8309SOL    HW225827   5.968   6.581   1.993
 8310SOL     OW25828   6.225   4.597   6.752
 8310SOL    HW125829   6.288   4.665   6.714
 8310SOL    HW225830   6.274   4.539   6.818
 8311SOL     OW25831   6.496   0.121   6.394
 8311SOL    HW125832   6.521   0.190   6.326
 8311SOL    HW225833   6.578   0.094   6.445
 8312SOL     OW25834   4.854   6.220   1.427
 8312SOL    HW125835   4.813   6.305   1.393
 8312SOL    HW225836   4.897   6.171   1.351
 8313SOL     OW25837   4.012   1.384   2.605
 8313SOL    HW125838   3.952   1.464   2.604
 8313SOL    HW225839   3.959   1.302   2.628
 8314SOL     OW25840   0.110   6.927   3.658
 8314SOL    HW125841   0.125   7.012   3.710
 8314SOL    HW225842   0.184   6.915   3.592
 8315SOL     OW25843   5.140   4.470   6.667
 8315SOL    HW125844   5.088   4.523   6.734
 8315SOL    HW225845   5.230   4.513   6.653
 8316SOL     OW25846   3.021   5.287   6.822
 8316SOL    HW125847   2.933   5.244   6.843
 8316SOL    HW225848   3.006   5.368   6.765
 8317SOL     OW25849   2.751   4.725   1.375
 8317SOL    HW125850   2.668   4.714   1.431
 8317SOL    HW225851   2.795   4.637   1.362
 8318SOL     OW25852   3.074   1.285   5.782
 8318SOL    HW125853   2.977   1.306   5.772
 8318SOL    HW225854   3.084   1.196   5.828
 8319SOL     OW25855   2.507   0.692   5.337
 8319SOL    HW125856   2.519   0.598   5.368
 8319SOL    HW225857   2.503   0.694   5.237
 8320SOL     OW25858   3.941   5.050   1.191
 8320SOL    HW125859   4.041   5.038   1.192
 8320SOL    HW225860   3.909   5.055   1.097
 8321SOL     OW25861   6.679   0.810   1.089
 8321SOL    HW125862   6.748   0.805   1.161
 8321SOL    HW225863   6.590   0.782   1.126
 8322SOL     OW25864   5.265   6.619   0.713
 8322SOL    HW125865   5.178   6.601   0.666
 8322SOL    HW225866   5.276   6.554   0.788
 8323SOL     OW25867   1.764   0.664   1.994
 8323SOL    HW125868   1.670   0.665   1.960
 8323SOL    HW225869   1.764   0.677   2.093
 8324SOL     OW25870   6.713   0.857   2.677
 8324SOL    HW125871   6.652   0.839   2.599
 8324SOL    HW225872   6.785   0.788   2.680
 8325SOL     OW25873   3.809   4.093   4.582
 8325SOL    HW125874   3.834   4.177   4.629
 8325SOL    HW225875   3.861   4.016   4.620
 8326SOL     OW25876   4.119   3.143   6.226
 8326SOL    HW125877   4.116   3.052   6.182
 8326SOL    HW225878   4.097   3.133   6.323
 8327SOL     OW25879   5.144   2.159   6.012
 8327SOL    HW125880   5.123   2.061   6.007
 8327SOL    HW225881   5.147   2.188   6.108
 8328SOL     OW25882   2.325   2.843   3.737
 8328SOL    HW125883   2.415   2.799   3.732
 8328SOL    HW225884   2.327   2.912   3.810
 8329SOL     OW25885   0.682   2.928   4.571
 8329SOL    HW125886   0.776   2.893   4.566
 8329SOL    HW225887   0.663   2.983   4.490
 8330SOL     OW25888   2.336   6.964   0.552
 8330SOL    HW125889   2.427   6.944   0.588
 8330SOL    HW225890   2.321   6.912   0.468
 8331SOL     OW25891   2.690   6.938   1.117
 8331SOL    HW125892   2.608   6.996   1.116
 8331SOL    HW225893   2.665   6.846   1.147
 8332SOL     OW25894   4.301   6.072   3.540
 8332SOL    HW125895   4.350   6.159   3.536
 8332SOL    HW225896   4.223   6.075   3.477
 8333SOL     OW25897   2.070   5.258   5.538
 8333SOL    HW125898   2.066   5.345   5.589
 8333SOL    HW225899   2.011   5.191   5.583
 8334SOL     OW25900   6.573   6.928   3.665
 8334SOL    HW125901   6.508   6.852   3.673
 8334SOL    HW225902   6.665   6.891   3.651
 8335SOL     OW25903   6.425   6.390   5.246
 8335SOL    HW125904   6.392   6.484   5.252
 8335SOL    HW225905   6.404   6.341   5.330
 8336SOL     OW25906   1.381   2.019   2.849
 8336SOL    HW125907   1.472   2.059   2.857
 8336SOL    HW225908   1.314   2.081   2.890
 8337SOL     OW25909   6.570   6.497   2.287
 8337SOL    HW125910   6.521   6.455   2.364
 8337SOL    HW225911   6.619   6.426   2.237
 8338SOL     OW25912   2.147   5.296   0.672
 8338SOL    HW125913   2.125   5.361   0.744
 8338SOL    HW225914   2.131   5.203   0.705
 8339SOL     OW25915   5.393   0.831   2.948
 8339SOL    HW125916   5.409   0.908   3.009
 8339SOL    HW225917   5.369   0.750   3.001
 8340SOL     OW25918   4.700   4.015   1.623
 8340SOL    HW125919   4.625   4.079   1.605
 8340SOL    HW225920   4.770   4.025   1.552
 8341SOL     OW25921   2.457   0.104   0.794
 8341SOL    HW125922   2.444   0.173   0.723
 8341SOL    HW225923   2.483   0.017   0.751
 8342SOL     OW25924   5.310   6.903   1.106
 8342SOL    HW125925   5.361   6.972   1.054
 8342SOL    HW225926   5.238   6.947   1.160
 8343SOL     OW25927   0.041   4.585   5.276
 8343SOL    HW125928   0.040   4.683   5.259
 8343SOL    HW225929   0.114   4.563   5.341
 8344SOL     OW25930   3.642   0.145   4.933
 8344SOL    HW125931   3.632   0.078   4.859
 8344SOL    HW225932   3.613   0.235   4.899
 8345SOL     OW25933   6.201   1.461   3.021
 8345SOL    HW125934   6.263   1.539   3.014
 8345SOL    HW225935   6.137   1.475   3.096
 8346SOL     OW25936   4.347   5.244   2.321
 8346SOL    HW125937   4.408   5.323   2.323
 8346SOL    HW225938   4.383   5.173   2.382
 8347SOL     OW25939   3.465   5.229   4.557
 8347SOL    HW125940   3.368   5.236   4.534
 8347SOL    HW225941   3.489   5.132   4.567
 8348SOL     OW25942   2.234   0.466   0.709
 8348SOL    HW125943   2.163   0.456   0.640
 8348SOL    HW225944   2.194   0.455   0.800
 8349SOL     OW25945   5.981   5.076   1.828
 8349SOL    HW125946   6.020   4.985   1.817
 8349SOL    HW225947   6.054   5.145   1.823
 8350SOL     OW25948   6.322   0.965   5.027
 8350SOL    HW125949   6.394   0.946   4.960
 8350SOL    HW225950   6.250   0.896   5.019
 8351SOL     OW25951   3.266   6.474   2.503
 8351SOL    HW125952   3.269   6.376   2.486
 8351SOL    HW225953   3.347   6.502   2.555
 8352SOL     OW25954   6.549   6.240   1.443
 8352SOL    HW125955   6.531   6.192   1.357
 8352SOL    HW225956   6.597   6.179   1.506
 8353SOL     OW25957   1.890   3.685   2.074
 8353SOL    HW125958   1.969   3.723   2.025
 8353SOL    HW225959   1.896   3.585   2.074
 8354SOL     OW25960   2.934   0.642   0.746
 8354SOL    HW125961   2.893   0.607   0.830
 8354SOL    HW225962   3.033   0.627   0.748
 8355SOL     OW25963   3.171   1.482   0.819
 8355SOL    HW125964   3.116   1.439   0.891
 8355SOL    HW225965   3.185   1.579   0.840
 8356SOL     OW25966   2.890   5.316   0.168
 8356SOL    HW125967   2.858   5.390   0.227
 8356SOL    HW225968   2.910   5.235   0.224
 8357SOL     OW25969   4.351   5.700   3.105
 8357SOL    HW125970   4.360   5.748   3.192
 8357SOL    HW225971   4.315   5.762   3.035
 8358SOL     OW25972   3.380   1.952   5.141
 8358SOL    HW125973   3.412   1.883   5.206
 8358SOL    HW225974   3.343   1.907   5.060
 8359SOL     OW25975   3.439   5.031   4.223
 8359SOL    HW125976   3.495   4.990   4.295
 8359SOL    HW225977   3.479   5.119   4.195
 8360SOL     OW25978   4.428   0.556   3.379
 8360SOL    HW125979   4.486   0.637   3.391
 8360SOL    HW225980   4.474   0.491   3.319
 8361SOL     OW25981   1.325   0.521   2.932
 8361SOL    HW125982   1.397   0.590   2.938
 8361SOL    HW225983   1.327   0.478   2.841
 8362SOL     OW25984   2.569   3.250   0.624
 8362SOL    HW125985   2.653   3.275   0.673
 8362SOL    HW225986   2.506   3.328   0.625
 8363SOL     OW25987   0.765   3.568   1.560
 8363SOL    HW125988   0.790   3.632   1.633
 8363SOL    HW225989   0.843   3.509   1.539
 8364SOL     OW25990   6.867   4.774   5.479
 8364SOL    HW125991   6.956   4.795   5.440
 8364SOL    HW225992   6.816   4.716   5.416
 8365SOL     OW25993   1.295   3.817   5.931
 8365SOL    HW125994   1.266   3.878   6.004
 8365SOL    HW225995   1.223   3.749   5.913
 8366SOL     OW25996   2.632   6.878   2.178
 8366SOL    HW125997   2.581   6.943   2.234
 8366SOL    HW225998   2.595   6.786   2.192
 8367SOL     OW25999   5.089   5.631   3.643
 8367SOL    HW126000   5.012   5.675   3.688
 8367SOL    HW226001   5.057   5.548   3.596
 8368SOL     OW26002   3.098   5.604   6.389
 8368SOL    HW126003   3.180   5.551   6.409
 8368SOL    HW226004   3.063   5.579   6.299
 8369SOL     OW26005   2.511   1.712   0.893
 8369SOL    HW126006   2.492   1.704   0.991
 8369SOL    HW226007   2.424   1.720   0.844
 8370SOL     OW26008   2.090   1.564   0.444
 8370SOL    HW126009   2.026   1.581   0.369
 8370SOL    HW226010   2.050   1.499   0.508
 8371SOL     OW26011   1.444   2.521   0.376
 8371SOL    HW126012   1.393   2.442   0.343
 8371SOL    HW226013   1.394   2.565   0.451
 8372SOL     OW26014   6.432   0.558   0.532
 8372SOL    HW126015   6.370   0.576   0.456
 8372SOL    HW226016   6.520   0.525   0.496
 8373SOL     OW26017   1.634   6.803   4.225
 8373SOL    HW126018   1.596   6.789   4.134
 8373SOL    HW226019   1.676   6.893   4.230
 8374SOL     OW26020   6.794   0.934   5.842
 8374SOL    HW126021   6.838   0.980   5.765
 8374SOL    HW226022   6.701   0.907   5.816
 8375SOL     OW26023   4.205   0.744   6.716
 8375SOL    HW126024   4.154   0.797   6.647
 8375SOL    HW226025   4.141   0.692   6.772
 8376SOL     OW26026   4.200   0.562   4.193
 8376SOL    HW126027   4.267   0.531   4.261
 8376SOL    HW226028   4.219   0.519   4.105
 8377SOL     OW26029   5.346   4.943   0.948
 8377SOL    HW126030   5.280   4.920   0.876
 8377SOL    HW226031   5.355   4.865   1.011
 8378SOL     OW26032   4.857   2.786   3.726
 8378SOL    HW126033   4.768   2.820   3.696
 8378SOL    HW226034   4.865   2.689   3.702
 8379SOL     OW26035   5.273   2.688   2.650
 8379SOL    HW126036   5.295   2.684   2.748
 8379SOL    HW226037   5.265   2.783   2.622
 8380SOL     OW26038   5.835   1.569   3.818
 8380SOL    HW126039   5.791   1.616   3.895
 8380SOL    HW226040   5.910   1.513   3.851
 8381SOL     OW26041   1.892   5.065   4.230
 8381SOL    HW126042   1.946   5.005   4.172
 8381SOL    HW226043   1.845   5.011   4.300
 8382SOL     OW26044   0.833   4.531   2.362
 8382SOL    HW126045   0.744   4.495   2.390
 8382SOL    HW226046   0.821   4.594   2.285
 8383SOL     OW26047   3.404   1.690   5.746
 8383SOL    HW126048   3.497   1.719   5.721
 8383SOL    HW226049   3.339   1.761   5.719
 8384SOL     OW26050   0.624   0.047   1.443
 8384SOL    HW126051   0.672   6.980   1.425
 8384SOL    HW226052   0.688   0.111   1.487
 8385SOL     OW26053   4.097   1.632   1.261
 8385SOL    HW126054   4.083   1.596   1.168
 8385SOL    HW226055   4.090   1.557   1.326
 8386SOL     OW26056   0.436   3.075   2.083
 8386SOL    HW126057   0.481   3.163   2.069
 8386SOL    HW226058   0.450   3.018   2.003
 8387SOL     OW26059   0.576   1.849   1.823
 8387SOL    HW126060   0.606   1.904   1.901
 8387SOL    HW226061   0.546   1.908   1.749
 8388SOL     OW26062   1.225   6.896   2.702
 8388SOL    HW126063   1.237   6.820   2.766
 8388SOL    HW226064   1.191   6.861   2.615
 8389SOL     OW26065   5.859   3.152   3.864
 8389SOL    HW126066   5.959   3.146   3.868
 8389SOL    HW226067   5.832   3.200   3.781
 8390SOL     OW26068   6.211   2.286   6.779
 8390SOL    HW126069   6.257   2.271   6.692
 8390SOL    HW226070   6.185   2.382   6.788
 8391SOL     OW26071   6.635   0.226   1.120
 8391SOL    HW126072   6.722   0.198   1.161
 8391SOL    HW226073   6.598   0.151   1.065
 8392SOL     OW26074   3.781   2.925   4.784
 8392SOL    HW126075   3.728   2.907   4.701
 8392SOL    HW226076   3.768   2.850   4.849
 8393SOL     OW26077   6.011   6.915   1.171
 8393SOL    HW126078   5.925   6.897   1.123
 8393SOL    HW226079   6.085   6.925   1.105
 8394SOL     OW26080   5.869   2.854   2.672
 8394SOL    HW126081   5.920   2.800   2.606
 8394SOL    HW226082   5.903   2.834   2.764
 8395SOL     OW26083   2.368   1.128   4.822
 8395SOL    HW126084   2.281   1.169   4.797
 8395SOL    HW226085   2.364   1.029   4.808
 8396SOL     OW26086   5.199   5.460   4.232
 8396SOL    HW126087   5.278   5.507   4.190
 8396SOL    HW226088   5.117   5.478   4.177
 8397SOL     OW26089   6.217   6.639   3.003
 8397SOL    HW126090   6.194   6.553   2.958
 8397SOL    HW226091   6.194   6.633   3.100
 8398SOL     OW26092   5.875   1.603   6.432
 8398SOL    HW126093   5.849   1.509   6.454
 8398SOL    HW226094   5.798   1.650   6.390
 8399SOL     OW26095   0.323   4.463   2.392
 8399SOL    HW126096   0.249   4.524   2.420
 8399SOL    HW226097   0.397   4.518   2.352
 8400SOL     OW26098   0.810   1.037   4.955
 8400SOL    HW126099   0.877   1.039   5.029
 8400SOL    HW226100   0.836   1.105   4.886
 8401SOL     OW26101   1.959   0.562   5.848
 8401SOL    HW126102   1.888   0.618   5.890
 8401SOL    HW226103   1.973   0.479   5.901
 8402SOL     OW26104   2.777   0.354   5.945
 8402SOL    HW126105   2.771   0.254   5.950
 8402SOL    HW226106   2.847   0.380   5.878
 8403SOL     OW26107   5.876   5.104   5.865
 8403SOL    HW126108   5.780   5.122   5.882
 8403SOL    HW226109   5.905   5.152   5.782
 8404SOL     OW26110   1.379   1.343   0.358
 8404SOL    HW126111   1.288   1.384   0.364
 8404SOL    HW226112   1.436   1.378   0.433
 8405SOL     OW26113   3.893   6.949   5.835
 8405SOL    HW126114   3.839   6.948   5.751
 8405SOL    HW226115   3.989   6.967   5.813
 8406SOL     OW26116   5.993   0.702   5.933
 8406SOL    HW126117   6.077   0.744   5.899
 8406SOL    HW226118   5.984   0.720   6.031
 8407SOL     OW26119   4.338   0.783   4.821
 8407SOL    HW126120   4.275   0.732   4.762
 8407SOL    HW226121   4.423   0.732   4.830
 8408SOL     OW26122   4.037   2.324   1.508
 8408SOL    HW126123   4.130   2.327   1.544
 8408SOL    HW226124   3.972   2.330   1.584
 8409SOL     OW26125   4.184   2.490   1.722
 8409SOL    HW126126   4.124   2.560   1.683
 8409SOL    HW226127   4.276   2.500   1.684
 8410SOL     OW26128   0.322   1.824   1.411
 8410SOL    HW126129   0.286   1.916   1.395
 8410SOL    HW226130   0.258   1.756   1.373
 8411SOL     OW26131   1.250   5.843   1.155
 8411SOL    HW126132   1.190   5.763   1.162
 8411SOL    HW226133   1.295   5.860   1.243
 8412SOL     OW26134   2.699   2.634   0.316
 8412SOL    HW126135   2.675   2.579   0.236
 8412SOL    HW226136   2.783   2.599   0.357
 8413SOL     OW26137   3.803   5.773   4.817
 8413SOL    HW126138   3.785   5.864   4.778
 8413SOL    HW226139   3.758   5.704   4.761
 8414SOL     OW26140   2.129   6.969   0.993
 8414SOL    HW126141   2.077   7.013   0.920
 8414SOL    HW226142   2.189   0.017   1.036
 8415SOL     OW26143   3.394   1.549   6.254
 8415SOL    HW126144   3.348   1.622   6.203
 8415SOL    HW226145   3.326   1.495   6.303
 8416SOL     OW26146   0.520   2.415   4.902
 8416SOL    HW126147   0.617   2.436   4.894
 8416SOL    HW226148   0.490   2.361   4.823
 8417SOL     OW26149   1.979   3.565   6.205
 8417SOL    HW126150   2.047   3.508   6.158
 8417SOL    HW226151   1.935   3.511   6.277
 8418SOL     OW26152   6.884   6.201   2.647
 8418SOL    HW126153   6.908   6.194   2.550
 8418SOL    HW226154   6.848   6.292   2.666
 8419SOL     OW26155   3.498   1.494   4.516
 8419SOL    HW126156   3.554   1.478   4.597
 8419SOL    HW226157   3.556   1.491   4.434
 8420SOL     OW26158   3.505   1.259   2.119
 8420SOL    HW126159   3.437   1.332   2.118
 8420SOL    HW226160   3.597   1.298   2.123
 8421SOL     OW26161   4.789   0.136   6.682
 8421SOL    HW126162   4.733   0.210   6.645
 8421SOL    HW226163   4.779   0.054   6.626
 8422SOL     OW26164   5.008   2.075   4.433
 8422SOL    HW126165   4.984   2.093   4.529
 8422SOL    HW226166   5.037   2.160   4.389
 8423SOL     OW26167   6.182   5.559   6.951
 8423SOL    HW126168   6.268   5.533   6.907
 8423SOL    HW226169   6.201   5.588   0.026
 8424SOL     OW26170   2.965   0.220   5.495
 8424SOL    HW126171   2.970   0.196   5.592
 8424SOL    HW226172   2.937   0.316   5.486
 8425SOL     OW26173   3.725   3.186   2.101
 8425SOL    HW126174   3.645   3.137   2.068
 8425SOL    HW226175   3.709   3.216   2.195
 8426SOL     OW26176   3.808   3.076   1.570
 8426SOL    HW126177   3.725   3.132   1.573
 8426SOL    HW226178   3.876   3.115   1.633
 8427SOL     OW26179   3.967   3.255   2.622
 8427SOL    HW126180   4.012   3.223   2.706
 8427SOL    HW226181   3.883   3.303   2.645
 8428SOL     OW26182   5.765   0.268   1.628
 8428SOL    HW126183   5.688   0.266   1.564
 8428SOL    HW226184   5.844   0.224   1.586
 8429SOL     OW26185   3.167   6.191   5.399
 8429SOL    HW126186   3.164   6.112   5.338
 8429SOL    HW226187   3.126   6.270   5.354
 8430SOL     OW26188   5.373   0.053   5.236
 8430SOL    HW126189   5.384   0.127   5.170
 8430SOL    HW226190   5.377   6.985   5.188
 8431SOL     OW26191   2.206   3.112   6.204
 8431SOL    HW126192   2.220   3.203   6.165
 8431SOL    HW226193   2.191   3.046   6.130
 8432SOL     OW26194   6.655   5.302   5.642
 8432SOL    HW126195   6.697   5.212   5.628
 8432SOL    HW226196   6.714   5.373   5.603
 8433SOL     OW26197   5.072   1.787   1.132
 8433SOL    HW126198   5.110   1.700   1.163
 8433SOL    HW226199   4.974   1.791   1.154
 8434SOL     OW26200   2.728   6.345   4.782
 8434SOL    HW126201   2.671   6.271   4.745
 8434SOL    HW226202   2.723   6.343   4.882
 8435SOL     OW26203   6.614   1.732   3.085
 8435SOL    HW126204   6.675   1.698   3.157
 8435SOL    HW226205   6.668   1.762   3.007
 8436SOL     OW26206   1.800   4.945   2.927
 8436SOL    HW126207   1.898   4.923   2.934
 8436SOL    HW226208   1.783   4.991   2.840
 8437SOL     OW26209   1.701   5.936   0.628
 8437SOL    HW126210   1.733   6.030   0.641
 8437SOL    HW226211   1.762   5.873   0.676
 8438SOL     OW26212   0.874   4.162   2.682
 8438SOL    HW126213   0.927   4.104   2.744
 8438SOL    HW226214   0.923   4.248   2.666
 8439SOL     OW26215   6.218   4.206   2.520
 8439SOL    HW126216   6.190   4.300   2.538
 8439SOL    HW226217   6.273   4.202   2.437
 8440SOL     OW26218   1.485   1.697   2.342
 8440SOL    HW126219   1.544   1.711   2.421
 8440SOL    HW226220   1.420   1.624   2.360
 8441SOL     OW26221   0.005   3.045   6.009
 8441SOL    HW126222   6.939   3.024   5.962
 8441SOL    HW226223   0.043   2.962   6.050
 8442SOL     OW26224   3.811   2.611   6.547
 8442SOL    HW126225   3.797   2.703   6.511
 8442SOL    HW226226   3.823   2.547   6.471
 8443SOL     OW26227   2.141   4.044   2.863
 8443SOL    HW126228   2.183   4.091   2.941
 8443SOL    HW226229   2.190   4.069   2.779
 8444SOL     OW26230   5.398   5.493   5.149
 8444SOL    HW126231   5.301   5.508   5.168
 8444SOL    HW226232   5.454   5.543   5.215
 8445SOL     OW26233   4.297   6.285   6.753
 8445SOL    HW126234   4.347   6.255   6.834
 8445SOL    HW226235   4.362   6.324   6.687
 8446SOL     OW26236   6.683   5.859   4.442
 8446SOL    HW126237   6.596   5.850   4.492
 8446SOL    HW226238   6.683   5.946   4.392
 8447SOL     OW26239   3.397   1.754   4.422
 8447SOL    HW126240   3.450   1.674   4.449
 8447SOL    HW226241   3.458   1.826   4.390
 8448SOL     OW26242   3.463   6.590   2.718
 8448SOL    HW126243   3.475   6.689   2.727
 8448SOL    HW226244   3.426   6.554   2.804
 8449SOL     OW26245   1.483   2.604   4.203
 8449SOL    HW126246   1.410   2.539   4.224
 8449SOL    HW226247   1.538   2.621   4.285
 8450SOL     OW26248   6.910   1.077   0.704
 8450SOL    HW126249   6.958   1.139   0.642
 8450SOL    HW226250   6.873   1.000   0.652
 8451SOL     OW26251   4.034   2.741   1.001
 8451SOL    HW126252   4.103   2.813   1.013
 8451SOL    HW226253   3.948   2.782   0.971
 8452SOL     OW26254   5.154   0.788   6.053
 8452SOL    HW126255   5.235   0.817   6.001
 8452SOL    HW226256   5.181   0.724   6.124
 8453SOL     OW26257   0.208   0.457   0.297
 8453SOL    HW126258   0.295   0.441   0.344
 8453SOL    HW226259   0.208   0.549   0.257
 8454SOL     OW26260   6.156   6.019   6.893
 8454SOL    HW126261   6.237   5.969   6.924
 8454SOL    HW226262   6.100   5.959   6.836
 8455SOL     OW26263   5.924   0.843   3.079
 8455SOL    HW126264   5.997   0.786   3.116
 8455SOL    HW226265   5.943   0.864   2.983
 8456SOL     OW26266   6.825   0.844   2.304
 8456SOL    HW126267   6.857   0.933   2.337
 8456SOL    HW226268   6.862   0.772   2.362
 8457SOL     OW26269   6.291   6.822   4.966
 8457SOL    HW126270   6.387   6.812   4.990
 8457SOL    HW226271   6.263   6.747   4.905
 8458SOL     OW26272   1.135   6.767   0.253
 8458SOL    HW126273   1.205   6.839   0.252
 8458SOL    HW226274   1.050   6.803   0.290
 8459SOL     OW26275   0.607   5.859   2.858
 8459SOL    HW126276   0.518   5.905   2.856
 8459SOL    HW226277   0.644   5.861   2.951
 8460SOL     OW26278   3.900   3.115   3.280
 8460SOL    HW126279   3.959   3.171   3.223
 8460SOL    HW226280   3.929   3.121   3.375
 8461SOL     OW26281   6.409   3.379   3.711
 8461SOL    HW126282   6.332   3.434   3.742
 8461SOL    HW226283   6.381   3.283   3.707
 8462SOL     OW26284   2.521   2.387   1.761
 8462SOL    HW126285   2.584   2.339   1.821
 8462SOL    HW226286   2.479   2.322   1.698
 8463SOL     OW26287   6.514   0.629   1.814
 8463SOL    HW126288   6.586   0.665   1.754
 8463SOL    HW226289   6.425   0.645   1.772
 8464SOL     OW26290   6.760   0.892   4.550
 8464SOL    HW126291   6.668   0.856   4.565
 8464SOL    HW226292   6.753   0.979   4.500
 8465SOL     OW26293   2.038   1.342   0.682
 8465SOL    HW126294   2.014   1.328   0.778
 8465SOL    HW226295   2.086   1.262   0.648
 8466SOL     OW26296   0.867   0.085   4.269
 8466SOL    HW126297   0.868   0.058   4.365
 8466SOL    HW226298   0.921   0.020   4.216
 8467SOL     OW26299   4.134   5.516   0.664
 8467SOL    HW126300   4.126   5.463   0.580
 8467SOL    HW226301   4.090   5.605   0.652
 8468SOL     OW26302   4.054   2.580   0.007
 8468SOL    HW126303   4.013   2.503   6.976
 8468SOL    HW226304   3.989   2.612   0.076
 8469SOL     OW26305   4.909   2.136   5.374
 8469SOL    HW126306   4.896   2.076   5.452
 8469SOL    HW226307   4.867   2.095   5.293
 8470SOL     OW26308   2.107   2.973   6.850
 8470SOL    HW126309   2.155   2.908   6.790
 8470SOL    HW226310   2.162   2.989   6.932
 8471SOL     OW26311   3.994   1.518   4.938
 8471SOL    HW126312   3.917   1.469   4.979
 8471SOL    HW226313   3.985   1.616   4.957
 8472SOL     OW26314   1.003   6.427   3.154
 8472SOL    HW126315   0.928   6.361   3.152
 8472SOL    HW226316   0.998   6.485   3.073
 8473SOL     OW26317   6.501   5.910   6.953
 8473SOL    HW126318   6.588   5.957   6.940
 8473SOL    HW226319   6.516   5.811   6.952
 8474SOL     OW26320   4.149   5.974   0.098
 8474SOL    HW126321   4.054   6.002   0.105
 8474SOL    HW226322   4.156   5.893   0.040
 8475SOL     OW26323   4.800   1.708   2.625
 8475SOL    HW126324   4.713   1.713   2.576
 8475SOL    HW226325   4.849   1.795   2.616
 8476SOL     OW26326   4.700   0.295   2.869
 8476SOL    HW126327   4.713   0.383   2.823
 8476SOL    HW226328   4.787   0.266   2.910
 8477SOL     OW26329   3.113   0.399   3.197
 8477SOL    HW126330   3.204   0.389   3.157
 8477SOL    HW226331   3.119   0.452   3.282
 8478SOL     OW26332   1.487   0.358   6.037
 8478SOL    HW126333   1.424   0.354   5.960
 8478SOL    HW226334   1.539   0.444   6.033
 8479SOL     OW26335   5.243   0.702   2.125
 8479SOL    HW126336   5.264   0.607   2.150
 8479SOL    HW226337   5.326   0.746   2.092
 8480SOL     OW26338   1.890   1.041   1.721
 8480SOL    HW126339   1.941   1.126   1.734
 8480SOL    HW226340   1.936   0.984   1.653
 8481SOL     OW26341   4.184   0.121   5.625
 8481SOL    HW126342   4.225   0.060   5.556
 8481SOL    HW226343   4.176   0.073   5.711
 8482SOL     OW26344   6.941   0.646   1.385
 8482SOL    HW126345   6.982   0.720   1.438
 8482SOL    HW226346   6.923   0.678   1.292
 8483SOL     OW26347   4.939   6.454   1.765
 8483SOL    HW126348   4.882   6.491   1.839
 8483SOL    HW226349   5.032   6.488   1.774
 8484SOL     OW26350   6.668   4.745   5.665
 8484SOL    HW126351   6.755   4.789   5.643
 8484SOL    HW226352   6.604   4.758   5.590
 8485SOL     OW26353   1.937   3.147   6.286
 8485SOL    HW126354   2.030   3.123   6.257
 8485SOL    HW226355   1.877   3.154   6.206
 8486SOL     OW26356   4.456   0.775   2.506
 8486SOL    HW126357   4.418   0.850   2.559
 8486SOL    HW226358   4.417   0.688   2.537
 8487SOL     OW26359   4.371   0.462   0.615
 8487SOL    HW126360   4.355   0.466   0.713
 8487SOL    HW226361   4.284   0.457   0.567
 8488SOL     OW26362   6.773   3.605   5.229
 8488SOL    HW126363   6.679   3.630   5.207
 8488SOL    HW226364   6.797   3.640   5.319
 8489SOL     OW26365   3.259   0.015   3.429
 8489SOL    HW126366   3.170   0.061   3.432
 8489SOL    HW226367   3.276   6.989   3.516
 8490SOL     OW26368   4.065   5.182   2.839
 8490SOL    HW126369   4.157   5.162   2.807
 8490SOL    HW226370   3.999   5.127   2.786
 8491SOL     OW26371   0.973   0.621   1.561
 8491SOL    HW126372   0.884   0.647   1.597
 8491SOL    HW226373   0.962   0.567   1.478
 8492SOL     OW26374   5.644   4.134   4.795
 8492SOL    HW126375   5.709   4.100   4.862
 8492SOL    HW226376   5.576   4.064   4.774
 8493SOL     OW26377   3.600   3.043   0.780
 8493SOL    HW126378   3.520   3.100   0.762
 8493SOL    HW226379   3.571   2.948   0.792
 8494SOL     OW26380   3.656   6.405   6.615
 8494SOL    HW126381   3.619   6.312   6.617
 8494SOL    HW226382   3.612   6.456   6.541
 8495SOL     OW26383   0.827   2.863   6.511
 8495SOL    HW126384   0.732   2.839   6.495
 8495SOL    HW226385   0.839   2.890   6.606
 8496SOL     OW26386   1.246   2.363   3.700
 8496SOL    HW126387   1.310   2.321   3.764
 8496SOL    HW226388   1.157   2.318   3.707
 8497SOL     OW26389   5.946   4.078   3.700
 8497SOL    HW126390   5.892   3.996   3.718
 8497SOL    HW226391   6.019   4.057   3.636
 8498SOL     OW26392   6.632   0.797   1.464
 8498SOL    HW126393   6.694   0.875   1.458
 8498SOL    HW226394   6.681   0.718   1.501
 8499SOL     OW26395   6.890   4.268   0.488
 8499SOL    HW126396   6.791   4.262   0.475
 8499SOL    HW226397   6.913   4.353   0.535
 8500SOL     OW26398   2.020   0.626   5.469
 8500SOL    HW126399   2.021   0.575   5.383
 8500SOL    HW226400   2.075   0.578   5.537
 8501SOL     OW26401   2.553   3.773   6.319
 8501SOL    HW126402   2.566   3.848   6.253
 8501SOL    HW226403   2.628   3.709   6.311
 8502SOL     OW26404   0.743   6.696   1.666
 8502SOL    HW126405   0.682   6.617   1.675
 8502SOL    HW226406   0.688   6.779   1.653
 8503SOL     OW26407   3.810   5.351   3.381
 8503SOL    HW126408   3.782   5.346   3.477
 8503SOL    HW226409   3.786   5.266   3.335
 8504SOL     OW26410   1.515   4.891   3.328
 8504SOL    HW126411   1.552   4.875   3.237
 8504SOL    HW226412   1.459   4.974   3.329
 8505SOL     OW26413   4.388   2.095   3.146
 8505SOL    HW126414   4.398   2.105   3.047
 8505SOL    HW226415   4.316   2.156   3.179
 8506SOL     OW26416   0.638   5.460   6.944
 8506SOL    HW126417   0.583   5.396   6.891
 8506SOL    HW226418   0.581   5.537   6.972
 8507SOL     OW26419   1.680   0.336   4.426
 8507SOL    HW126420   1.769   0.379   4.438
 8507SOL    HW226421   1.626   0.388   4.360
 8508SOL     OW26422   0.645   3.261   5.624
 8508SOL    HW126423   0.697   3.339   5.590
 8508SOL    HW226424   0.556   3.257   5.579
 8509SOL     OW26425   6.311   2.512   4.822
 8509SOL    HW126426   6.324   2.432   4.882
 8509SOL    HW226427   6.347   2.593   4.867
 8510SOL     OW26428   5.308   6.972   2.700
 8510SOL    HW126429   5.326   0.018   2.627
 8510SOL    HW226430   5.314   6.879   2.664
 8511SOL     OW26431   6.758   5.428   1.553
 8511SOL    HW126432   6.758   5.384   1.463
 8511SOL    HW226433   6.781   5.525   1.543
 8512SOL     OW26434   4.165   3.012   1.037
 8512SOL    HW126435   4.238   3.042   0.976
 8512SOL    HW226436   4.076   3.034   0.998
 8513SOL     OW26437   0.584   3.184   0.749
 8513SOL    HW126438   0.639   3.211   0.828
 8513SOL    HW226439   0.639   3.193   0.665
 8514SOL     OW26440   2.164   3.088   4.909
 8514SOL    HW126441   2.181   3.185   4.892
 8514SOL    HW226442   2.248   3.044   4.940
 8515SOL     OW26443   2.967   1.180   0.192
 8515SOL    HW126444   2.909   1.260   0.178
 8515SOL    HW226445   2.984   1.169   0.290
 8516SOL     OW26446   6.516   3.479   4.894
 8516SOL    HW126447   6.418   3.468   4.880
 8516SOL    HW226448   6.553   3.397   4.937
 8517SOL     OW26449   1.429   1.915   5.763
 8517SOL    HW126450   1.425   1.815   5.770
 8517SOL    HW226451   1.336   1.951   5.761
 8518SOL     OW26452   5.637   4.817   0.171
 8518SOL    HW126453   5.715   4.756   0.182
 8518SOL    HW226454   5.622   4.868   0.256
 8519SOL     OW26455   0.709   3.855   0.497
 8519SOL    HW126456   0.672   3.769   0.462
 8519SOL    HW226457   0.637   3.924   0.502
 8520SOL     OW26458   3.244   3.821   6.235
 8520SOL    HW126459   3.291   3.904   6.205
 8520SOL    HW226460   3.297   3.741   6.207
 8521SOL     OW26461   2.148   6.783   4.535
 8521SOL    HW126462   2.123   6.785   4.438
 8521SOL    HW226463   2.138   6.689   4.570
 8522SOL     OW26464   0.360   0.531   7.002
 8522SOL    HW126465   0.396   0.597   0.049
 8522SOL    HW226466   0.364   0.439   0.021
 8523SOL     OW26467   3.902   1.874   1.329
 8523SOL    HW126468   3.928   1.778   1.316
 8523SOL    HW226469   3.924   1.902   1.423
 8524SOL     OW26470   2.808   6.245   5.354
 8524SOL    HW126471   2.824   6.293   5.440
 8524SOL    HW226472   2.710   6.238   5.338
 8525SOL     OW26473   6.415   2.618   3.113
 8525SOL    HW126474   6.345   2.547   3.112
 8525SOL    HW226475   6.414   2.668   3.027
 8526SOL     OW26476   0.298   4.444   6.731
 8526SOL    HW126477   0.295   4.345   6.745
 8526SOL    HW226478   0.330   4.464   6.639
 8527SOL     OW26479   2.593   0.801   6.198
 8527SOL    HW126480   2.675   0.744   6.196
 8527SOL    HW226481   2.599   0.870   6.125
 8528SOL     OW26482   5.845   0.346   0.655
 8528SOL    HW126483   5.776   0.281   0.685
 8528SOL    HW226484   5.930   0.331   0.707
 8529SOL     OW26485   0.923   6.363   6.491
 8529SOL    HW126486   0.964   6.452   6.470
 8529SOL    HW226487   0.989   6.307   6.542
 8530SOL     OW26488   4.029   3.801   3.253
 8530SOL    HW126489   4.026   3.765   3.346
 8530SOL    HW226490   4.040   3.725   3.189
 8531SOL     OW26491   6.480   5.776   3.135
 8531SOL    HW126492   6.455   5.799   3.229
 8531SOL    HW226493   6.450   5.684   3.113
 8532SOL     OW26494   3.440   5.255   0.306
 8532SOL    HW126495   3.379   5.303   0.244
 8532SOL    HW226496   3.408   5.161   0.318
 8533SOL     OW26497   2.727   5.871   5.033
 8533SOL    HW126498   2.637   5.913   5.022
 8533SOL    HW226499   2.765   5.898   5.122
 8534SOL     OW26500   1.800   3.422   2.096
 8534SOL    HW126501   1.706   3.395   2.074
 8534SOL    HW226502   1.806   3.444   2.194
 8535SOL     OW26503   6.406   0.285   2.208
 8535SOL    HW126504   6.331   0.256   2.267
 8535SOL    HW226505   6.418   0.218   2.134
 8536SOL     OW26506   1.804   0.985   3.726
 8536SOL    HW126507   1.830   0.988   3.629
 8536SOL    HW226508   1.886   0.971   3.782
 8537SOL     OW26509   5.774   1.095   3.036
 8537SOL    HW126510   5.679   1.072   3.059
 8537SOL    HW226511   5.835   1.025   3.073
 8538SOL     OW26512   0.647   2.452   6.686
 8538SOL    HW126513   0.693   2.410   6.764
 8538SOL    HW226514   0.548   2.445   6.698
 8539SOL     OW26515   5.310   3.401   2.118
 8539SOL    HW126516   5.405   3.415   2.089
 8539SOL    HW226517   5.291   3.303   2.121
 8540SOL     OW26518   4.168   0.204   1.096
 8540SOL    HW126519   4.108   0.127   1.073
 8540SOL    HW226520   4.127   0.257   1.171
 8541SOL     OW26521   1.519   3.280   3.330
 8541SOL    HW126522   1.582   3.285   3.407
 8541SOL    HW226523   1.479   3.188   3.325
 8542SOL     OW26524   2.753   4.662   6.417
 8542SOL    HW126525   2.790   4.627   6.503
 8542SOL    HW226526   2.653   4.670   6.425
 8543SOL     OW26527   3.889   2.179   6.804
 8543SOL    HW126528   3.938   2.137   6.881
 8543SOL    HW226529   3.835   2.256   6.837
 8544SOL     OW26530   5.868   1.707   4.274
 8544SOL    HW126531   5.798   1.777   4.291
 8544SOL    HW226532   5.880   1.652   4.356
 8545SOL     OW26533   4.305   6.596   5.322
 8545SOL    HW126534   4.376   6.630   5.261
 8545SOL    HW226535   4.233   6.665   5.331
 8546SOL     OW26536   4.070   2.293   0.040
 8546SOL    HW126537   4.133   2.248   0.103
 8546SOL    HW226538   3.992   2.329   0.092
 8547SOL     OW26539   1.793   4.401   2.409
 8547SOL    HW126540   1.731   4.394   2.488
 8547SOL    HW226541   1.747   4.368   2.327
 8548SOL     OW26542   6.102   2.302   5.297
 8548SOL    HW126543   6.145   2.223   5.253
 8548SOL    HW226544   6.100   2.289   5.396
 8549SOL     OW26545   5.221   2.855   4.976
 8549SOL    HW126546   5.145   2.838   5.038
 8549SOL    HW226547   5.277   2.773   4.968
 8550SOL     OW26548   1.610   4.554   5.341
 8550SOL    HW126549   1.597   4.636   5.285
 8550SOL    HW226550   1.696   4.509   5.315
 8551SOL     OW26551   2.292   4.526   1.178
 8551SOL    HW126552   2.299   4.623   1.202
 8551SOL    HW226553   2.249   4.476   1.253
 8552SOL     OW26554   2.940   6.716   4.588
 8552SOL    HW126555   2.980   6.686   4.675
 8552SOL    HW226556   2.871   6.786   4.605
 8553SOL     OW26557   6.281   5.607   0.188
 8553SOL    HW126558   6.336   5.690   0.199
 8553SOL    HW226559   6.228   5.591   0.271
 8554SOL     OW26560   5.755   3.789   0.638
 8554SOL    HW126561   5.841   3.806   0.685
 8554SOL    HW226562   5.746   3.692   0.618
 8555SOL     OW26563   2.181   6.425   3.984
 8555SOL    HW126564   2.173   6.368   4.066
 8555SOL    HW226565   2.122   6.388   3.913
 8556SOL     OW26566   5.668   6.989   5.051
 8556SOL    HW126567   5.757   7.006   5.008
 8556SOL    HW226568   5.642   6.893   5.037
 8557SOL     OW26569   6.488   1.702   0.916
 8557SOL    HW126570   6.418   1.693   0.987
 8557SOL    HW226571   6.519   1.797   0.913
 8558SOL     OW26572   1.530   4.371   2.564
 8558SOL    HW126573   1.525   4.286   2.512
 8558SOL    HW226574   1.494   4.447   2.509
 8559SOL     OW26575   0.815   1.449   5.083
 8559SOL    HW126576   0.749   1.508   5.036
 8559SOL    HW226577   0.898   1.500   5.103
 8560SOL     OW26578   6.423   2.540   6.691
 8560SOL    HW126579   6.495   2.594   6.735
 8560SOL    HW226580   6.455   2.446   6.678
 8561SOL     OW26581   4.889   5.897   6.397
 8561SOL    HW126582   4.888   5.990   6.435
 8561SOL    HW226583   4.859   5.832   6.467
 8562SOL     OW26584   3.780   0.612   4.479
 8562SOL    HW126585   3.776   0.623   4.578
 8562SOL    HW226586   3.755   0.518   4.455
 8563SOL     OW26587   2.778   3.215   6.549
 8563SOL    HW126588   2.797   3.128   6.504
 8563SOL    HW226589   2.698   3.204   6.609
 8564SOL     OW26590   0.614   5.481   3.355
 8564SOL    HW126591   0.614   5.385   3.328
 8564SOL    HW226592   0.528   5.503   3.401
 8565SOL     OW26593   3.510   0.970   1.352
 8565SOL    HW126594   3.412   0.961   1.370
 8565SOL    HW226595   3.560   0.897   1.400
 8566SOL     OW26596   1.599   4.046   4.471
 8566SOL    HW126597   1.575   3.953   4.444
 8566SOL    HW226598   1.681   4.044   4.528
 8567SOL     OW26599   5.394   6.527   6.384
 8567SOL    HW126600   5.298   6.527   6.357
 8567SOL    HW226601   5.439   6.445   6.349
 8568SOL     OW26602   5.661   6.946   0.862
 8568SOL    HW126603   5.648   6.862   0.914
 8568SOL    HW226604   5.652   6.926   0.764
 8569SOL     OW26605   2.831   0.466   5.526
 8569SOL    HW126606   2.774   0.529   5.579
 8569SOL    HW226607   2.894   0.519   5.470
 8570SOL     OW26608   6.686   3.360   6.457
 8570SOL    HW126609   6.629   3.312   6.391
 8570SOL    HW226610   6.749   3.421   6.409
 8571SOL     OW26611   6.594   4.387   5.918
 8571SOL    HW126612   6.575   4.378   5.820
 8571SOL    HW226613   6.687   4.422   5.931
 8572SOL     OW26614   2.758   4.951   6.391
 8572SOL    HW126615   2.780   4.994   6.478
 8572SOL    HW226616   2.757   4.851   6.403
 8573SOL     OW26617   3.467   5.896   4.216
 8573SOL    HW126618   3.499   5.829   4.149
 8573SOL    HW226619   3.431   5.977   4.168
 8574SOL     OW26620   1.016   4.217   4.218
 8574SOL    HW126621   1.082   4.256   4.283
 8574SOL    HW226622   0.961   4.290   4.178
 8575SOL     OW26623   2.967   3.357   6.003
 8575SOL    HW126624   2.907   3.317   6.072
 8575SOL    HW226625   3.063   3.342   6.028
 8576SOL     OW26626   2.143   0.425   0.954
 8576SOL    HW126627   2.171   0.424   1.050
 8576SOL    HW226628   2.059   0.372   0.944
 8577SOL     OW26629   6.464   5.610   4.436
 8577SOL    HW126630   6.460   5.702   4.398
 8577SOL    HW226631   6.400   5.602   4.513
 8578SOL     OW26632   4.631   0.619   4.209
 8578SOL    HW126633   4.595   0.711   4.224
 8578SOL    HW226634   4.577   0.554   4.263
 8579SOL     OW26635   0.627   4.396   2.432
 8579SOL    HW126636   0.608   4.331   2.506
 8579SOL    HW226637   0.541   4.427   2.392
 8580SOL     OW26638   2.532   5.433   6.000
 8580SOL    HW126639   2.555   5.528   6.019
 8580SOL    HW226640   2.492   5.425   5.908
 8581SOL     OW26641   3.511   3.550   0.171
 8581SOL    HW126642   3.452   3.499   0.234
 8581SOL    HW226643   3.577   3.604   0.223
 8582SOL     OW26644   3.891   4.801   0.127
 8582SOL    HW126645   3.877   4.704   0.148
 8582SOL    HW226646   3.930   4.847   0.206
 8583SOL     OW26647   5.442   6.990   4.422
 8583SOL    HW126648   5.532   6.961   4.454
 8583SOL    HW226649   5.399   6.916   4.371
 8584SOL     OW26650   0.169   5.750   6.248
 8584SOL    HW126651   0.189   5.848   6.243
 8584SOL    HW226652   0.255   5.699   6.253
 8585SOL     OW26653   1.446   1.563   0.756
 8585SOL    HW126654   1.357   1.542   0.716
 8585SOL    HW226655   1.485   1.642   0.709
 8586SOL     OW26656   3.840   4.934   3.691
 8586SOL    HW126657   3.749   4.965   3.663
 8586SOL    HW226658   3.847   4.938   3.790
 8587SOL     OW26659   6.614   1.401   1.423
 8587SOL    HW126660   6.539   1.447   1.471
 8587SOL    HW226661   6.660   1.338   1.486
 8588SOL     OW26662   3.824   2.950   6.265
 8588SOL    HW126663   3.826   2.925   6.361
 8588SOL    HW226664   3.801   3.047   6.256
 8589SOL     OW26665   2.577   1.811   4.330
 8589SOL    HW126666   2.559   1.722   4.371
 8589SOL    HW226667   2.533   1.816   4.240
 8590SOL     OW26668   5.471   4.725   5.577
 8590SOL    HW126669   5.495   4.815   5.613
 8590SOL    HW226670   5.371   4.715   5.578
 8591SOL     OW26671   0.609   2.957   0.551
 8591SOL    HW126672   0.650   2.986   0.638
 8591SOL    HW226673   0.509   2.954   0.560
 8592SOL     OW26674   6.437   6.279   7.008
 8592SOL    HW126675   6.381   6.353   6.971
 8592SOL    HW226676   6.514   6.318   0.039
 8593SOL     OW26677   0.512   5.239   3.084
 8593SOL    HW126678   0.559   5.288   3.011
 8593SOL    HW226679   0.414   5.236   3.063
 8594SOL     OW26680   4.148   3.428   2.550
 8594SOL    HW126681   4.071   3.364   2.550
 8594SOL    HW226682   4.142   3.488   2.470
 8595SOL     OW26683   1.653   2.945   1.755
 8595SOL    HW126684   1.648   2.847   1.740
 8595SOL    HW226685   1.621   2.993   1.674
 8596SOL     OW26686   6.639   4.126   2.468
 8596SOL    HW126687   6.648   4.218   2.507
 8596SOL    HW226688   6.560   4.081   2.509
 8597SOL     OW26689   1.929   1.635   1.110
 8597SOL    HW126690   1.931   1.645   1.210
 8597SOL    HW226691   1.859   1.568   1.085
 8598SOL     OW26692   6.032   2.768   1.827
 8598SOL    HW126693   6.026   2.672   1.854
 8598SOL    HW226694   6.096   2.816   1.887
 8599SOL     OW26695   0.973   2.370   1.137
 8599SOL    HW126696   0.908   2.423   1.083
 8599SOL    HW226697   1.026   2.311   1.075
 8600SOL     OW26698   0.177   2.382   6.104
 8600SOL    HW126699   0.172   2.355   6.008
 8600SOL    HW226700   0.195   2.301   6.160
 8601SOL     OW26701   0.698   0.614   4.875
 8601SOL    HW126702   0.788   0.658   4.881
 8601SOL    HW226703   0.703   0.522   4.913
 8602SOL     OW26704   1.196   6.219   2.454
 8602SOL    HW126705   1.258   6.173   2.390
 8602SOL    HW226706   1.148   6.151   2.509
 8603SOL     OW26707   4.919   3.585   2.079
 8603SOL    HW126708   4.875   3.569   1.991
 8603SOL    HW226709   4.945   3.682   2.086
 8604SOL     OW26710   6.169   1.788   3.596
 8604SOL    HW126711   6.196   1.791   3.500
 8604SOL    HW226712   6.163   1.882   3.631
 8605SOL     OW26713   2.731   5.154   1.571
 8605SOL    HW126714   2.747   5.232   1.510
 8605SOL    HW226715   2.780   5.074   1.536
 8606SOL     OW26716   4.038   5.184   4.522
 8606SOL    HW126717   3.950   5.142   4.500
 8606SOL    HW226718   4.060   5.167   4.618
 8607SOL     OW26719   2.665   6.235   0.337
 8607SOL    HW126720   2.637   6.331   0.331
 8607SOL    HW226721   2.596   6.177   0.294
 8608SOL     OW26722   5.736   6.589   2.483
 8608SOL    HW126723   5.694   6.615   2.570
 8608SOL    HW226724   5.833   6.613   2.484
 8609SOL     OW26725   5.467   0.127   5.926
 8609SOL    HW126726   5.558   0.144   5.963
 8609SOL    HW226727   5.443   0.199   5.862
 8610SOL     OW26728   6.731   6.451   5.207
 8610SOL    HW126729   6.823   6.432   5.239
 8610SOL    HW226730   6.665   6.396   5.258
 8611SOL     OW26731   1.910   1.979   2.732
 8611SOL    HW126732   1.884   1.931   2.816
 8611SOL    HW226733   1.985   1.931   2.687
 8612SOL     OW26734   5.302   3.270   4.478
 8612SOL    HW126735   5.216   3.221   4.467
 8612SOL    HW226736   5.378   3.207   4.465
 8613SOL     OW26737   1.210   0.288   0.555
 8613SOL    HW126738   1.135   0.354   0.551
 8613SOL    HW226739   1.179   0.205   0.601
 8614SOL     OW26740   1.525   3.350   3.066
 8614SOL    HW126741   1.599   3.412   3.043
 8614SOL    HW226742   1.535   3.319   3.161
 8615SOL     OW26743   4.858   1.774   6.041
 8615SOL    HW126744   4.789   1.710   6.075
 8615SOL    HW226745   4.899   1.822   6.118
 8616SOL     OW26746   1.266   3.337   0.692
 8616SOL    HW126747   1.301   3.303   0.605
 8616SOL    HW226748   1.251   3.436   0.685
 8617SOL     OW26749   6.312   3.287   0.744
 8617SOL    HW126750   6.261   3.360   0.699
 8617SOL    HW226751   6.252   3.236   0.804
 8618SOL     OW26752   3.416   1.464   2.853
 8618SOL    HW126753   3.462   1.541   2.897
 8618SOL    HW226754   3.322   1.459   2.886
 8619SOL     OW26755   3.674   6.435   0.863
 8619SOL    HW126756   3.732   6.508   0.900
 8619SOL    HW226757   3.673   6.441   0.763
 8620SOL     OW26758   6.111   6.169   3.973
 8620SOL    HW126759   6.087   6.120   3.889
 8620SOL    HW226760   6.049   6.141   4.047
 8621SOL     OW26761   4.913   1.059   3.460
 8621SOL    HW126762   4.990   1.038   3.520
 8621SOL    HW226763   4.914   1.156   3.437
 8622SOL     OW26764   5.233   5.111   6.260
 8622SOL    HW126765   5.271   5.193   6.302
 8622SOL    HW226766   5.133   5.119   6.258
 8623SOL     OW26767   5.803   1.984   3.918
 8623SOL    HW126768   5.766   2.073   3.892
 8623SOL    HW226769   5.893   1.972   3.876
 8624SOL     OW26770   6.320   3.101   3.656
 8624SOL    HW126771   6.257   3.108   3.579
 8624SOL    HW226772   6.269   3.092   3.741
 8625SOL     OW26773   3.602   1.367   6.410
 8625SOL    HW126774   3.643   1.435   6.471
 8625SOL    HW226775   3.534   1.411   6.351
 8626SOL     OW26776   3.209   3.651   1.581
 8626SOL    HW126777   3.156   3.598   1.647
 8626SOL    HW226778   3.197   3.748   1.600
 8627SOL     OW26779   3.065   0.432   6.664
 8627SOL    HW126780   3.018   0.495   6.725
 8627SOL    HW226781   3.111   0.362   6.718
 8628SOL     OW26782   6.385   1.471   1.553
 8628SOL    HW126783   6.340   1.390   1.591
 8628SOL    HW226784   6.322   1.516   1.489
 8629SOL     OW26785   1.296   5.970   3.434
 8629SOL    HW126786   1.371   5.911   3.465
 8629SOL    HW226787   1.234   5.916   3.376
 8630SOL     OW26788   5.071   4.954   4.274
 8630SOL    HW126789   5.154   5.009   4.271
 8630SOL    HW226790   5.084   4.877   4.336
 8631SOL     OW26791   4.000   6.566   3.575
 8631SOL    HW126792   4.077   6.626   3.598
 8631SOL    HW226793   3.953   6.601   3.495
 8632SOL     OW26794   3.211   0.772   3.141
 8632SOL    HW126795   3.189   0.693   3.199
 8632SOL    HW226796   3.308   0.795   3.151
 8633SOL     OW26797   6.402   6.619   2.655
 8633SOL    HW126798   6.337   6.678   2.704
 8633SOL    HW226799   6.402   6.644   2.558
 8634SOL     OW26800   6.323   6.170   1.637
 8634SOL    HW126801   6.378   6.167   1.721
 8634SOL    HW226802   6.380   6.198   1.561
 8635SOL     OW26803   6.020   4.023   5.979
 8635SOL    HW126804   6.055   3.939   6.020
 8635SOL    HW226805   5.934   4.049   6.022
 8636SOL     OW26806   5.650   4.935   1.040
 8636SOL    HW126807   5.675   5.009   1.102
 8636SOL    HW226808   5.551   4.940   1.021
 8637SOL     OW26809   0.940   0.493   1.980
 8637SOL    HW126810   0.879   0.573   1.978
 8637SOL    HW226811   0.998   0.493   1.899
 8638SOL     OW26812   5.920   4.351   1.303
 8638SOL    HW126813   5.864   4.413   1.357
 8638SOL    HW226814   6.010   4.391   1.288
 8639SOL     OW26815   5.981   2.476   2.836
 8639SOL    HW126816   6.069   2.440   2.804
 8639SOL    HW226817   5.953   2.425   2.918
 8640SOL     OW26818   4.998   5.867   1.581
 8640SOL    HW126819   5.010   5.877   1.482
 8640SOL    HW226820   4.925   5.928   1.612
 8641SOL     OW26821   5.444   4.407   3.606
 8641SOL    HW126822   5.480   4.323   3.648
 8641SOL    HW226823   5.514   4.448   3.548
 8642SOL     OW26824   4.616   1.358   0.944
 8642SOL    HW126825   4.619   1.276   1.002
 8642SOL    HW226826   4.538   1.414   0.969
 8643SOL     OW26827   4.588   7.000   6.902
 8643SOL    HW126828   4.597   6.914   6.852
 8643SOL    HW226829   4.661   0.043   6.875
 8644SOL     OW26830   6.439   3.071   5.490
 8644SOL    HW126831   6.399   3.035   5.574
 8644SOL    HW226832   6.375   3.134   5.446
 8645SOL     OW26833   6.562   3.684   1.720
 8645SOL    HW126834   6.662   3.674   1.725
 8645SOL    HW226835   6.521   3.658   1.807
 8646SOL     OW26836   4.940   6.185   0.461
 8646SOL    HW126837   4.931   6.232   0.549
 8646SOL    HW226838   4.877   6.226   0.395
 8647SOL     OW26839   5.023   5.163   2.108
 8647SOL    HW126840   5.045   5.261   2.108
 8647SOL    HW226841   4.929   5.150   2.141
 8648SOL     OW26842   5.955   0.553   4.136
 8648SOL    HW126843   5.894   0.528   4.211
 8648SOL    HW226844   5.901   0.596   4.063
 8649SOL     OW26845   6.279   4.147   5.954
 8649SOL    HW126846   6.187   4.111   5.974
 8649SOL    HW226847   6.304   4.212   6.025
 8650SOL     OW26848   0.446   5.574   1.503
 8650SOL    HW126849   0.506   5.637   1.551
 8650SOL    HW226850   0.360   5.621   1.481
 8651SOL     OW26851   4.379   3.427   1.251
 8651SOL    HW126852   4.350   3.350   1.308
 8651SOL    HW226853   4.313   3.501   1.259
 8652SOL     OW26854   0.597   2.347   4.374
 8652SOL    HW126855   0.592   2.354   4.274
 8652SOL    HW226856   0.506   2.359   4.413
 8653SOL     OW26857   5.290   2.995   6.525
 8653SOL    HW126858   5.289   2.935   6.446
 8653SOL    HW226859   5.385   3.008   6.556
 8654SOL     OW26860   1.433   4.932   1.638
 8654SOL    HW126861   1.445   4.913   1.540
 8654SOL    HW226862   1.510   4.894   1.689
 8655SOL     OW26863   5.473   6.057   2.956
 8655SOL    HW126864   5.512   6.014   3.037
 8655SOL    HW226865   5.515   6.017   2.874
 8656SOL     OW26866   6.349   2.513   1.820
 8656SOL    HW126867   6.362   2.569   1.738
 8656SOL    HW226868   6.258   2.472   1.818
 8657SOL     OW26869   2.689   5.252   0.456
 8657SOL    HW126870   2.748   5.322   0.495
 8657SOL    HW226871   2.741   5.167   0.447
 8658SOL     OW26872   0.956   5.715   5.890
 8658SOL    HW126873   1.005   5.670   5.965
 8658SOL    HW226874   0.934   5.809   5.918
 8659SOL     OW26875   3.882   6.933   4.678
 8659SOL    HW126876   3.933   6.937   4.592
 8659SOL    HW226877   3.940   6.966   4.752
 8660SOL     OW26878   4.801   4.610   0.092
 8660SOL    HW126879   4.748   4.606   0.177
 8660SOL    HW226880   4.827   4.705   0.074
 8661SOL     OW26881   6.426   3.101   2.003
 8661SOL    HW126882   6.505   3.162   2.006
 8661SOL    HW226883   6.353   3.138   2.060
 8662SOL     OW26884   0.281   0.963   0.128
 8662SOL    HW126885   0.294   0.937   0.032
 8662SOL    HW226886   0.363   1.010   0.161
 8663SOL     OW26887   2.484   5.400   0.828
 8663SOL    HW126888   2.439   5.449   0.903
 8663SOL    HW226889   2.469   5.450   0.742
 8664SOL     OW26890   4.763   4.767   1.370
 8664SOL    HW126891   4.771   4.866   1.382
 8664SOL    HW226892   4.799   4.742   1.281
 8665SOL     OW26893   5.309   5.316   4.706
 8665SOL    HW126894   5.375   5.372   4.756
 8665SOL    HW226895   5.283   5.363   4.622
 8666SOL     OW26896   6.808   4.679   4.300
 8666SOL    HW126897   6.777   4.587   4.275
 8666SOL    HW226898   6.763   4.708   4.384
 8667SOL     OW26899   5.385   2.558   3.253
 8667SOL    HW126900   5.313   2.492   3.275
 8667SOL    HW226901   5.400   2.559   3.154
 8668SOL     OW26902   3.352   0.835   5.467
 8668SOL    HW126903   3.273   0.893   5.448
 8668SOL    HW226904   3.413   0.882   5.530
 8669SOL     OW26905   3.580   6.815   6.382
 8669SOL    HW126906   3.560   6.837   6.286
 8669SOL    HW226907   3.497   6.824   6.436
 8670SOL     OW26908   4.361   4.614   2.383
 8670SOL    HW126909   4.338   4.524   2.418
 8670SOL    HW226910   4.437   4.606   2.318
 8671SOL     OW26911   5.821   5.915   1.935
 8671SOL    HW126912   5.883   5.986   1.902
 8671SOL    HW226913   5.849   5.826   1.898
 8672SOL     OW26914   3.861   4.948   4.596
 8672SOL    HW126915   3.925   4.940   4.520
 8672SOL    HW226916   3.907   4.928   4.682
 8673SOL     OW26917   4.743   2.226   6.819
 8673SOL    HW126918   4.693   2.311   6.839
 8673SOL    HW226919   4.789   2.195   6.902
 8674SOL     OW26920   0.803   6.953   3.008
 8674SOL    HW126921   0.889   7.004   3.013
 8674SOL    HW226922   0.728   7.008   3.044
 8675SOL     OW26923   2.284   1.581   2.860
 8675SOL    HW126924   2.332   1.603   2.945
 8675SOL    HW226925   2.337   1.615   2.782
 8676SOL     OW26926   4.694   1.352   3.710
 8676SOL    HW126927   4.629   1.427   3.713
 8676SOL    HW226928   4.757   1.359   3.787
 8677SOL     OW26929   1.927   3.670   5.709
 8677SOL    HW126930   1.955   3.598   5.774
 8677SOL    HW226931   1.876   3.741   5.757
 8678SOL     OW26932   1.007   0.695   5.933
 8678SOL    HW126933   1.031   0.754   6.009
 8678SOL    HW226934   1.090   0.658   5.892
 8679SOL     OW26935   6.263   1.905   4.542
 8679SOL    HW126936   6.293   1.810   4.537
 8679SOL    HW226937   6.166   1.909   4.566
 8680SOL     OW26938   1.038   3.367   0.072
 8680SOL    HW126939   1.114   3.305   0.090
 8680SOL    HW226940   1.044   3.446   0.133
 8681SOL     OW26941   4.289   4.046   1.183
 8681SOL    HW126942   4.198   4.086   1.184
 8681SOL    HW226943   4.318   4.026   1.276
 8682SOL     OW26944   1.409   5.870   2.887
 8682SOL    HW126945   1.317   5.887   2.852
 8682SOL    HW226946   1.468   5.840   2.813
 8683SOL     OW26947   4.748   3.232   0.191
 8683SOL    HW126948   4.662   3.276   0.219
 8683SOL    HW226949   4.806   3.218   0.270
 8684SOL     OW26950   6.325   2.454   3.494
 8684SOL    HW126951   6.312   2.403   3.579
 8684SOL    HW226952   6.408   2.422   3.449
 8685SOL     OW26953   0.168   1.771   5.527
 8685SOL    HW126954   0.218   1.697   5.572
 8685SOL    HW226955   0.071   1.748   5.523
 8686SOL     OW26956   6.138   1.217   4.041
 8686SOL    HW126957   6.076   1.171   4.105
 8686SOL    HW226958   6.140   1.167   3.955
 8687SOL     OW26959   3.651   0.867   2.921
 8687SOL    HW126960   3.712   0.941   2.950
 8687SOL    HW226961   3.641   0.870   2.822
 8688SOL     OW26962   0.850   6.709   2.629
 8688SOL    HW126963   0.798   6.654   2.564
 8688SOL    HW226964   0.934   6.742   2.585
 8689SOL     OW26965   5.036   3.982   1.563
 8689SOL    HW126966   5.030   4.046   1.640
 8689SOL    HW226967   5.101   3.910   1.585
 8690SOL     OW26968   1.548   0.831   2.286
 8690SOL    HW126969   1.623   0.864   2.342
 8690SOL    HW226970   1.499   0.758   2.334
 8691SOL     OW26971   6.118   1.281   0.253
 8691SOL    HW126972   6.079   1.311   0.339
 8691SOL    HW226973   6.086   1.188   0.232
 8692SOL     OW26974   1.612   1.113   3.545
 8692SOL    HW126975   1.685   1.093   3.480
 8692SOL    HW226976   1.626   1.061   3.629
 8693SOL     OW26977   5.127   1.994   6.576
 8693SOL    HW126978   5.109   2.000   6.675
 8693SOL    HW226979   5.069   2.060   6.528
 8694SOL     OW26980   4.008   0.079   6.955
 8694SOL    HW126981   3.919   0.075   7.001
 8694SOL    HW226982   3.995   0.066   6.856
 8695SOL     OW26983   4.509   4.339   5.210
 8695SOL    HW126984   4.410   4.343   5.195
 8695SOL    HW226985   4.546   4.432   5.206
 8696SOL     OW26986   2.278   5.451   0.470
 8696SOL    HW126987   2.350   5.494   0.525
 8696SOL    HW226988   2.239   5.374   0.520
 8697SOL     OW26989   5.197   4.984   6.690
 8697SOL    HW126990   5.107   5.029   6.692
 8697SOL    HW226991   5.221   4.962   6.596
 8698SOL     OW26992   5.609   5.810   5.107
 8698SOL    HW126993   5.513   5.792   5.084
 8698SOL    HW226994   5.663   5.729   5.086
 8699SOL     OW26995   1.873   1.170   4.411
 8699SOL    HW126996   1.780   1.142   4.435
 8699SOL    HW226997   1.874   1.267   4.389
 8700SOL     OW26998   2.484   2.011   6.214
 8700SOL    HW126999   2.508   2.089   6.155
 8700SOL    HW227000   2.388   1.987   6.200
 8701SOL     OW27001   1.063   1.010   3.635
 8701SOL    HW127002   1.070   0.984   3.538
 8701SOL    HW227003   1.018   0.937   3.685
 8702SOL     OW27004   4.813   6.589   6.693
 8702SOL    HW127005   4.804   6.492   6.669
 8702SOL    HW227006   4.841   6.598   6.788
 8703SOL     OW27007   1.097   4.981   1.414
 8703SOL    HW127008   1.168   4.913   1.398
 8703SOL    HW227009   1.129   5.070   1.381
 8704SOL     OW27010   1.146   4.504   2.074
 8704SOL    HW127011   1.234   4.459   2.061
 8704SOL    HW227012   1.076   4.436   2.094
 8705SOL     OW27013   4.741   6.361   4.459
 8705SOL    HW127014   4.658   6.367   4.516
 8705SOL    HW227015   4.728   6.289   4.391
 8706SOL     OW27016   4.851   0.615   6.116
 8706SOL    HW127017   4.827   0.625   6.213
 8706SOL    HW227018   4.785   0.554   6.072
 8707SOL     OW27019   3.990   1.943   6.010
 8707SOL    HW127020   4.024   1.899   5.928
 8707SOL    HW227021   4.043   2.025   6.029
 8708SOL     OW27022   4.010   1.521   1.023
 8708SOL    HW127023   4.006   1.585   0.946
 8708SOL    HW227024   3.979   1.431   0.993
 8709SOL     OW27025   5.224   3.392   6.932
 8709SOL    HW127026   5.203   3.342   7.016
 8709SOL    HW227027   5.182   3.482   6.935
 8710SOL     OW27028   6.660   3.651   4.164
 8710SOL    HW127029   6.616   3.570   4.125
 8710SOL    HW227030   6.756   3.653   4.134
 8711SOL     OW27031   1.623   1.104   4.488
 8711SOL    HW127032   1.576   1.127   4.403
 8711SOL    HW227033   1.637   1.005   4.492
 8712SOL     OW27034   3.389   0.302   6.796
 8712SOL    HW127035   3.428   0.340   6.880
 8712SOL    HW227036   3.295   0.274   6.814
 8713SOL     OW27037   6.266   4.882   3.116
 8713SOL    HW127038   6.290   4.845   3.026
 8713SOL    HW227039   6.344   4.933   3.152
 8714SOL     OW27040   1.929   1.502   3.826
 8714SOL    HW127041   1.873   1.441   3.771
 8714SOL    HW227042   1.924   1.595   3.789
 8715SOL     OW27043   5.611   0.996   2.350
 8715SOL    HW127044   5.678   1.053   2.397
 8715SOL    HW227045   5.657   0.940   2.281
 8716SOL     OW27046   0.562   0.966   2.578
 8716SOL    HW127047   0.471   0.960   2.621
 8716SOL    HW227048   0.553   1.000   2.485
 8717SOL     OW27049   4.223   3.687   0.947
 8717SOL    HW127050   4.195   3.593   0.928
 8717SOL    HW227051   4.282   3.688   1.029
 8718SOL     OW27052   0.017   2.832   5.723
 8718SOL    HW127053   0.041   2.750   5.671
 8718SOL    HW227054   0.089   2.851   5.790
 8719SOL     OW27055   6.247   0.729   5.834
 8719SOL    HW127056   6.251   0.826   5.859
 8719SOL    HW227057   6.336   0.687   5.847
 8720SOL     OW27058   5.051   3.264   5.123
 8720SOL    HW127059   5.083   3.192   5.184
 8720SOL    HW227060   5.127   3.294   5.064
 8721SOL     OW27061   6.877   0.663   5.096
 8721SOL    HW127062   6.917   0.684   5.185
 8721SOL    HW227063   6.788   0.619   5.109
 8722SOL     OW27064   3.046   2.892   0.706
 8722SOL    HW127065   2.996   2.914   0.790
 8722SOL    HW227066   3.087   2.976   0.669
 8723SOL     OW27067   0.343   5.744   0.521
 8723SOL    HW127068   0.424   5.802   0.522
 8723SOL    HW227069   0.323   5.713   0.614
 8724SOL     OW27070   4.893   5.678   6.583
 8724SOL    HW127071   4.927   5.625   6.506
 8724SOL    HW227072   4.969   5.703   6.644
 8725SOL     OW27073   2.505   6.448   1.269
 8725SOL    HW127074   2.527   6.394   1.351
 8725SOL    HW227075   2.485   6.386   1.194
 8726SOL     OW27076   0.287   0.421   1.049
 8726SOL    HW127077   0.253   0.329   1.032
 8726SOL    HW227078   0.212   0.477   1.085
 8727SOL     OW27079   5.504   6.426   1.311
 8727SOL    HW127080   5.592   6.414   1.265
 8727SOL    HW227081   5.461   6.510   1.279
 8728SOL     OW27082   2.474   5.979   4.986
 8728SOL    HW127083   2.437   6.059   5.034
 8728SOL    HW227084   2.415   5.900   5.002
 8729SOL     OW27085   4.662   5.542   4.453
 8729SOL    HW127086   4.636   5.533   4.548
 8729SOL    HW227087   4.614   5.619   4.412
 8730SOL     OW27088   6.185   6.016   1.114
 8730SOL    HW127089   6.130   5.933   1.121
 8730SOL    HW227090   6.273   5.995   1.071
 8731SOL     OW27091   0.445   1.690   2.557
 8731SOL    HW127092   0.518   1.649   2.611
 8731SOL    HW227093   0.389   1.748   2.615
 8732SOL     OW27094   6.834   6.113   2.058
 8732SOL    HW127095   6.928   6.123   2.025
 8732SOL    HW227096   6.780   6.066   1.988
 8733SOL     OW27097   6.992   0.527   0.727
 8733SOL    HW127098   6.972   0.464   0.803
 8733SOL    HW227099   6.930   0.507   0.651
 8734SOL     OW27100   6.658   6.236   0.931
 8734SOL    HW127101   6.706   6.285   1.005
 8734SOL    HW227102   6.632   6.302   0.861
 8735SOL     OW27103   0.828   3.172   6.299
 8735SOL    HW127104   0.875   3.249   6.256
 8735SOL    HW227105   0.730   3.179   6.282
 8736SOL     OW27106   0.160   4.947   5.900
 8736SOL    HW127107   0.209   4.991   5.825
 8736SOL    HW227108   0.081   5.002   5.925
 8737SOL     OW27109   3.960   5.939   6.699
 8737SOL    HW127110   3.873   5.894   6.680
 8737SOL    HW227111   4.035   5.873   6.693
 8738SOL     OW27112   0.884   4.147   5.456
 8738SOL    HW127113   0.955   4.185   5.515
 8738SOL    HW227114   0.916   4.063   5.414
 8739SOL     OW27115   1.321   3.637   5.623
 8739SOL    HW127116   1.409   3.642   5.670
 8739SOL    HW227117   1.314   3.714   5.559
 8740SOL     OW27118   1.674   6.485   0.477
 8740SOL    HW127119   1.609   6.427   0.427
 8740SOL    HW227120   1.766   6.467   0.444
 8741SOL     OW27121   1.355   3.669   1.934
 8741SOL    HW127122   1.337   3.766   1.922
 8741SOL    HW227123   1.439   3.657   1.987
 8742SOL     OW27124   4.737   5.298   2.169
 8742SOL    HW127125   4.795   5.305   2.250
 8742SOL    HW227126   4.775   5.354   2.096
 8743SOL     OW27127   2.889   5.059   2.263
 8743SOL    HW127128   2.879   5.104   2.174
 8743SOL    HW227129   2.969   4.999   2.262
 8744SOL     OW27130   2.883   3.491   5.566
 8744SOL    HW127131   2.852   3.448   5.481
 8744SOL    HW227132   2.895   3.421   5.636
 8745SOL     OW27133   5.433   2.190   6.699
 8745SOL    HW127134   5.342   2.179   6.659
 8745SOL    HW227135   5.499   2.212   6.627
 8746SOL     OW27136   5.385   3.503   4.365
 8746SOL    HW127137   5.303   3.543   4.324
 8746SOL    HW227138   5.359   3.441   4.439
 8747SOL     OW27139   0.388   1.537   4.161
 8747SOL    HW127140   0.457   1.466   4.146
 8747SOL    HW227141   0.416   1.596   4.237
 8748SOL     OW27142   2.897   0.025   6.504
 8748SOL    HW127143   2.966   6.976   6.478
 8748SOL    HW227144   2.861   0.003   6.594
 8749SOL     OW27145   4.023   1.437   3.378
 8749SOL    HW127146   3.993   1.342   3.375
 8749SOL    HW227147   4.009   1.479   3.289
 8750SOL     OW27148   1.861   0.566   4.969
 8750SOL    HW127149   1.895   0.658   4.992
 8750SOL    HW227150   1.886   0.544   4.874
 8751SOL     OW27151   1.865   6.501   2.906
 8751SOL    HW127152   1.949   6.453   2.881
 8751SOL    HW227153   1.828   6.461   2.990
 8752SOL     OW27154   2.261   0.950   6.062
 8752SOL    HW127155   2.274   0.945   6.161
 8752SOL    HW227156   2.195   1.022   6.041
 8753SOL     OW27157   5.436   1.473   5.113
 8753SOL    HW127158   5.407   1.450   5.020
 8753SOL    HW227159   5.363   1.523   5.159
 8754SOL     OW27160   1.766   1.121   5.553
 8754SOL    HW127161   1.835   1.089   5.619
 8754SOL    HW227162   1.739   1.045   5.495
 8755SOL     OW27163   2.217   1.964   0.647
 8755SOL    HW127164   2.208   2.046   0.703
 8755SOL    HW227165   2.126   1.934   0.617
 8756SOL     OW27166   2.807   5.375   4.521
 8756SOL    HW127167   2.856   5.415   4.598
 8756SOL    HW227168   2.746   5.303   4.554
 8757SOL     OW27169   3.158   5.225   3.479
 8757SOL    HW127170   3.202   5.220   3.568
 8757SOL    HW227171   3.163   5.319   3.444
 8758SOL     OW27172   4.866   6.714   2.596
 8758SOL    HW127173   4.806   6.773   2.542
 8758SOL    HW227174   4.895   6.762   2.679
 8759SOL     OW27175   5.563   0.391   6.338
 8759SOL    HW127176   5.523   0.299   6.339
 8759SOL    HW227177   5.579   0.419   6.243
 8760SOL     OW27178   1.952   3.083   3.752
 8760SOL    HW127179   1.882   3.143   3.791
 8760SOL    HW227180   2.038   3.133   3.745
 8761SOL     OW27181   5.111   6.151   1.851
 8761SOL    HW127182   5.113   6.070   1.909
 8761SOL    HW227183   5.192   6.207   1.869
 8762SOL     OW27184   1.244   5.194   1.318
 8762SOL    HW127185   1.331   5.206   1.271
 8762SOL    HW227186   1.243   5.250   1.401
 8763SOL     OW27187   0.464   6.068   6.876
 8763SOL    HW127188   0.373   6.100   6.851
 8763SOL    HW227189   0.478   5.976   6.841
 8764SOL     OW27190   3.047   2.036   6.126
 8764SOL    HW127191   3.113   2.102   6.088
 8764SOL    HW227192   2.959   2.081   6.140
 8765SOL     OW27193   5.681   0.307   4.805
 8765SOL    HW127194   5.763   0.278   4.756
 8765SOL    HW227195   5.699   0.303   4.904
 8766SOL     OW27196   2.415   4.464   2.302
 8766SOL    HW127197   2.341   4.531   2.308
 8766SOL    HW227198   2.496   4.506   2.261
 8767SOL     OW27199   4.447   0.430   5.160
 8767SOL    HW127200   4.538   0.449   5.122
 8767SOL    HW227201   4.400   0.516   5.177
 8768SOL     OW27202   0.442   4.005   0.508
 8768SOL    HW127203   0.368   3.956   0.460
 8768SOL    HW227204   0.451   4.097   0.470
 8769SOL     OW27205   1.794   0.707   6.263
 8769SOL    HW127206   1.888   0.742   6.269
 8769SOL    HW227207   1.791   0.613   6.297
 8770SOL     OW27208   5.752   1.553   2.735
 8770SOL    HW127209   5.771   1.615   2.659
 8770SOL    HW227210   5.780   1.595   2.821
 8771SOL     OW27211   2.985   3.227   5.169
 8771SOL    HW127212   3.055   3.158   5.147
 8771SOL    HW227213   2.916   3.186   5.228
 8772SOL     OW27214   6.641   6.532   6.625
 8772SOL    HW127215   6.616   6.575   6.712
 8772SOL    HW227216   6.612   6.591   6.550
 8773SOL     OW27217   2.932   1.521   2.994
 8773SOL    HW127218   2.905   1.426   3.007
 8773SOL    HW227219   3.001   1.546   3.062
 8774SOL     OW27220   1.565   1.356   0.157
 8774SOL    HW127221   1.497   1.366   0.229
 8774SOL    HW227222   1.648   1.315   0.196
 8775SOL     OW27223   6.753   6.361   4.127
 8775SOL    HW127224   6.773   6.272   4.168
 8775SOL    HW227225   6.720   6.424   4.198
 8776SOL     OW27226   2.995   3.765   5.312
 8776SOL    HW127227   3.046   3.742   5.230
 8776SOL    HW227228   3.021   3.857   5.344
 8777SOL     OW27229   6.138   5.779   3.103
 8777SOL    HW127230   6.058   5.805   3.158
 8777SOL    HW227231   6.116   5.790   3.006
 8778SOL     OW27232   1.280   3.232   2.748
 8778SOL    HW127233   1.329   3.161   2.700
 8778SOL    HW227234   1.308   3.233   2.844
 8779SOL     OW27235   1.630   4.895   1.128
 8779SOL    HW127236   1.714   4.948   1.123
 8779SOL    HW227237   1.649   4.800   1.104
 8780SOL     OW27238   2.014   5.598   5.347
 8780SOL    HW127239   2.061   5.562   5.267
 8780SOL    HW227240   1.928   5.548   5.361
 8781SOL     OW27241   1.646   2.377   2.368
 8781SOL    HW127242   1.598   2.440   2.307
 8781SOL    HW227243   1.662   2.291   2.321
 8782SOL     OW27244   5.573   1.197   3.878
 8782SOL    HW127245   5.528   1.279   3.913
 8782SOL    HW227246   5.663   1.188   3.920
 8783SOL     OW27247   6.078   2.463   5.937
 8783SOL    HW127248   6.051   2.472   5.842
 8783SOL    HW227249   6.162   2.409   5.944
 8784SOL     OW27250   5.486   4.237   5.920
 8784SOL    HW127251   5.505   4.223   6.017
 8784SOL    HW227252   5.404   4.186   5.895
 8785SOL     OW27253   5.598   4.014   6.321
 8785SOL    HW127254   5.522   3.949   6.317
 8785SOL    HW227255   5.579   4.091   6.261
 8786SOL     OW27256   1.682   5.887   6.642
 8786SOL    HW127257   1.729   5.952   6.702
 8786SOL    HW227258   1.743   5.809   6.623
 8787SOL     OW27259   1.204   2.509   6.734
 8787SOL    HW127260   1.239   2.416   6.722
 8787SOL    HW227261   1.118   2.520   6.683
 8788SOL     OW27262   1.367   2.020   5.134
 8788SOL    HW127263   1.409   2.081   5.067
 8788SOL    HW227264   1.432   2.005   5.210
 8789SOL     OW27265   6.508   1.087   0.361
 8789SOL    HW127266   6.561   1.003   0.370
 8789SOL    HW227267   6.472   1.113   0.451
 8790SOL     OW27268   4.042   1.328   6.370
 8790SOL    HW127269   4.116   1.366   6.315
 8790SOL    HW227270   4.033   1.379   6.455
 8791SOL     OW27271   5.434   6.124   4.943
 8791SOL    HW127272   5.470   6.059   4.877
 8791SOL    HW227273   5.392   6.074   5.019
 8792SOL     OW27274   5.188   6.710   2.629
 8792SOL    HW127275   5.090   6.698   2.614
 8792SOL    HW227276   5.237   6.704   2.542
 8793SOL     OW27277   0.765   4.555   3.159
 8793SOL    HW127278   0.859   4.549   3.193
 8793SOL    HW227279   0.708   4.488   3.208
 8794SOL     OW27280   2.799   6.483   2.657
 8794SOL    HW127281   2.793   6.384   2.670
 8794SOL    HW227282   2.724   6.513   2.598
 8795SOL     OW27283   2.949   6.517   4.830
 8795SOL    HW127284   2.872   6.461   4.800
 8795SOL    HW227285   3.014   6.461   4.881
 8796SOL     OW27286   4.636   2.304   4.387
 8796SOL    HW127287   4.611   2.285   4.482
 8796SOL    HW227288   4.671   2.221   4.345
 8797SOL     OW27289   0.315   5.524   6.618
 8797SOL    HW127290   0.407   5.524   6.578
 8797SOL    HW227291   0.296   5.613   6.658
 8798SOL     OW27292   3.142   3.495   5.311
 8798SOL    HW127293   3.071   3.534   5.253
 8798SOL    HW227294   3.151   3.550   5.394
 8799SOL     OW27295   3.758   0.835   2.035
 8799SOL    HW127296   3.679   0.810   2.090
 8799SOL    HW227297   3.839   0.839   2.092
 8800SOL     OW27298   4.005   3.769   0.584
 8800SOL    HW127299   4.092   3.727   0.561
 8800SOL    HW227300   4.011   3.812   0.675
 8801SOL     OW27301   2.988   6.563   5.474
 8801SOL    HW127302   3.064   6.628   5.480
 8801SOL    HW227303   2.976   6.519   5.563
 8802SOL     OW27304   1.715   6.465   1.537
 8802SOL    HW127305   1.644   6.473   1.468
 8802SOL    HW227306   1.803   6.493   1.499
 8803SOL     OW27307   3.780   6.198   1.991
 8803SOL    HW127308   3.825   6.191   1.902
 8803SOL    HW227309   3.789   6.292   2.025
 8804SOL     OW27310   2.659   0.681   1.549
 8804SOL    HW127311   2.722   0.759   1.554
 8804SOL    HW227312   2.698   0.604   1.600
 8805SOL     OW27313   0.404   0.425   3.893
 8805SOL    HW127314   0.376   0.369   3.815
 8805SOL    HW227315   0.335   0.496   3.909
 8806SOL     OW27316   2.378   4.892   6.841
 8806SOL    HW127317   2.355   4.841   6.925
 8806SOL    HW227318   2.396   4.987   6.865
 8807SOL     OW27319   2.169   5.391   6.894
 8807SOL    HW127320   2.216   5.325   6.837
 8807SOL    HW227321   2.194   5.377   6.990
 8808SOL     OW27322   5.884   2.618   0.755
 8808SOL    HW127323   5.856   2.671   0.835
 8808SOL    HW227324   5.872   2.672   0.672
 8809SOL     OW27325   6.302   4.427   0.109
 8809SOL    HW127326   6.250   4.349   0.073
 8809SOL    HW227327   6.362   4.462   0.038
 8810SOL     OW27328   5.184   1.406   3.852
 8810SOL    HW127329   5.156   1.482   3.910
 8810SOL    HW227330   5.133   1.409   3.766
 8811SOL     OW27331   0.827   0.947   3.314
 8811SOL    HW127332   0.798   1.004   3.391
 8811SOL    HW227333   0.890   0.999   3.257
 8812SOL     OW27334   2.793   1.002   6.946
 8812SOL    HW127335   2.885   0.965   6.956
 8812SOL    HW227336   2.750   1.011   0.016
 8813SOL     OW27337   1.065   5.635   1.192
 8813SOL    HW127338   1.043   5.570   1.265
 8813SOL    HW227339   0.980   5.675   1.157
 8814SOL     OW27340   5.298   6.921   5.881
 8814SOL    HW127341   5.321   7.013   5.913
 8814SOL    HW227342   5.313   6.916   5.782
 8815SOL     OW27343   6.049   4.558   3.173
 8815SOL    HW127344   6.031   4.605   3.086
 8815SOL    HW227345   6.143   4.527   3.175
 8816SOL     OW27346   0.760   5.667   2.441
 8816SOL    HW127347   0.750   5.570   2.461
 8816SOL    HW227348   0.801   5.713   2.519
 8817SOL     OW27349   2.141   3.859   5.206
 8817SOL    HW127350   2.198   3.928   5.161
 8817SOL    HW227351   2.052   3.854   5.160
 8818SOL     OW27352   6.583   4.871   5.121
 8818SOL    HW127353   6.617   4.800   5.184
 8818SOL    HW227354   6.556   4.952   5.173
 8819SOL     OW27355   0.201   0.908   4.665
 8819SOL    HW127356   0.281   0.952   4.625
 8819SOL    HW227357   0.135   0.887   4.593
 8820SOL     OW27358   1.029   2.658   3.110
 8820SOL    HW127359   0.930   2.652   3.121
 8820SOL    HW227360   1.050   2.704   3.024
 8821SOL     OW27361   1.174   6.658   6.810
 8821SOL    HW127362   1.109   6.701   6.873
 8821SOL    HW227363   1.249   6.618   6.863
 8822SOL     OW27364   1.108   2.665   4.215
 8822SOL    HW127365   1.049   2.584   4.221
 8822SOL    HW227366   1.131   2.682   4.120
 8823SOL     OW27367   2.365   5.145   0.819
 8823SOL    HW127368   2.424   5.108   0.891
 8823SOL    HW227369   2.398   5.235   0.792
 8824SOL     OW27370   4.864   4.017   1.359
 8824SOL    HW127371   4.787   3.955   1.352
 8824SOL    HW227372   4.919   3.992   1.439
 8825SOL     OW27373   2.328   2.044   0.169
 8825SOL    HW127374   2.266   1.973   0.137
 8825SOL    HW227375   2.302   2.071   0.262
 8826SOL     OW27376   5.493   0.070   1.594
 8826SOL    HW127377   5.534   0.018   1.519
 8826SOL    HW227378   5.490   0.167   1.570
 8827SOL     OW27379   6.584   1.553   4.031
 8827SOL    HW127380   6.514   1.484   4.048
 8827SOL    HW227381   6.546   1.644   4.049
 8828SOL     OW27382   1.782   6.030   3.637
 8828SOL    HW127383   1.831   6.114   3.612
 8828SOL    HW227384   1.719   6.049   3.712
 8829SOL     OW27385   0.650   0.346   1.311
 8829SOL    HW127386   0.603   0.374   1.395
 8829SOL    HW227387   0.663   0.425   1.252
 8830SOL     OW27388   1.515   1.413   0.970
 8830SOL    HW127389   1.513   1.473   0.890
 8830SOL    HW227390   1.581   1.339   0.954
 8831SOL     OW27391   6.801   0.756   1.720
 8831SOL    HW127392   6.886   0.704   1.706
 8831SOL    HW227393   6.822   0.854   1.720
 8832SOL     OW27394   6.226   1.378   1.995
 8832SOL    HW127395   6.315   1.423   1.988
 8832SOL    HW227396   6.234   1.298   2.056
 8833SOL     OW27397   0.930   5.255   1.973
 8833SOL    HW127398   0.883   5.240   2.061
 8833SOL    HW227399   0.908   5.346   1.939
 8834SOL     OW27400   6.742   4.602   3.919
 8834SOL    HW127401   6.701   4.560   4.000
 8834SOL    HW227402   6.789   4.533   3.865
 8835SOL     OW27403   0.498   1.436   0.655
 8835SOL    HW127404   0.528   1.523   0.695
 8835SOL    HW227405   0.578   1.386   0.621
 8836SOL     OW27406   4.824   1.531   1.631
 8836SOL    HW127407   4.867   1.602   1.575
 8836SOL    HW227408   4.742   1.568   1.675
 8837SOL     OW27409   0.392   2.660   2.166
 8837SOL    HW127410   0.468   2.720   2.192
 8837SOL    HW227411   0.420   2.605   2.087
 8838SOL     OW27412   1.402   0.133   3.371
 8838SOL    HW127413   1.437   0.219   3.333
 8838SOL    HW227414   1.325   0.152   3.432
 8839SOL     OW27415   5.520   5.101   4.913
 8839SOL    HW127416   5.440   5.160   4.907
 8839SOL    HW227417   5.581   5.135   4.985
 8840SOL     OW27418   4.620   0.689   2.108
 8840SOL    HW127419   4.712   0.662   2.134
 8840SOL    HW227420   4.566   0.607   2.087
 8841SOL     OW27421   3.784   6.784   3.389
 8841SOL    HW127422   3.796   6.854   3.460
 8841SOL    HW227423   3.868   6.775   3.337
 8842SOL     OW27424   1.445   1.626   1.862
 8842SOL    HW127425   1.382   1.640   1.785
 8842SOL    HW227426   1.479   1.714   1.894
 8843SOL     OW27427   6.755   3.027   4.128
 8843SOL    HW127428   6.806   2.965   4.069
 8843SOL    HW227429   6.806   3.042   4.213
 8844SOL     OW27430   5.991   1.802   0.004
 8844SOL    HW127431   6.090   1.811   0.019
 8844SOL    HW227432   5.960   1.875   6.962
 8845SOL     OW27433   5.103   2.437   6.983
 8845SOL    HW127434   5.038   2.361   6.977
 8845SOL    HW227435   5.053   2.522   6.999
 8846SOL     OW27436   3.009   5.013   4.315
 8846SOL    HW127437   3.036   4.967   4.400
 8846SOL    HW227438   2.921   5.059   4.329
 8847SOL     OW27439   0.878   1.543   3.512
 8847SOL    HW127440   0.892   1.473   3.442
 8847SOL    HW227441   0.783   1.540   3.543
 8848SOL     OW27442   0.582   1.503   3.560
 8848SOL    HW127443   0.496   1.474   3.603
 8848SOL    HW227444   0.572   1.501   3.460
 8849SOL     OW27445   3.499   6.975   1.021
 8849SOL    HW127446   3.462   6.954   1.111
 8849SOL    HW227447   3.453   0.036   0.984
 8850SOL     OW27448   3.066   1.792   0.074
 8850SOL    HW127449   3.073   1.723   0.001
 8850SOL    HW227450   3.138   1.861   0.060
 8851SOL     OW27451   1.820   3.932   1.845
 8851SOL    HW127452   1.877   3.850   1.842
 8851SOL    HW227453   1.832   3.984   1.760
 8852SOL     OW27454   1.097   2.454   4.599
 8852SOL    HW127455   1.064   2.395   4.525
 8852SOL    HW227456   1.091   2.550   4.571
 8853SOL     OW27457   4.486   0.521   1.588
 8853SOL    HW127458   4.528   0.441   1.546
 8853SOL    HW227459   4.556   0.576   1.634
 8854SOL     OW27460   6.614   2.239   4.985
 8854SOL    HW127461   6.703   2.258   5.027
 8854SOL    HW227462   6.604   2.140   4.972
 8855SOL     OW27463   4.817   4.621   1.140
 8855SOL    HW127464   4.885   4.580   1.200
 8855SOL    HW227465   4.857   4.635   1.049
 8856SOL     OW27466   6.023   0.957   5.705
 8856SOL    HW127467   6.089   1.016   5.659
 8856SOL    HW227468   6.040   0.959   5.804
 8857SOL     OW27469   0.262   2.145   6.228
 8857SOL    HW127470   0.246   2.085   6.149
 8857SOL    HW227471   0.199   2.120   6.301
 8858SOL     OW27472   6.590   5.591   4.916
 8858SOL    HW127473   6.641   5.513   4.880
 8858SOL    HW227474   6.519   5.560   4.978
 8859SOL     OW27475   0.254   5.693   2.994
 8859SOL    HW127476   0.270   5.749   3.076
 8859SOL    HW227477   0.182   5.735   2.939
 8860SOL     OW27478   6.416   2.701   2.866
 8860SOL    HW127479   6.381   2.783   2.821
 8860SOL    HW227480   6.442   2.634   2.796
 8861SOL     OW27481   2.964   2.579   1.311
 8861SOL    HW127482   2.916   2.638   1.375
 8861SOL    HW227483   3.054   2.555   1.347
 8862SOL     OW27484   4.401   4.610   4.743
 8862SOL    HW127485   4.490   4.652   4.760
 8862SOL    HW227486   4.354   4.594   4.830
 8863SOL     OW27487   1.593   3.526   1.750
 8863SOL    HW127488   1.511   3.480   1.717
 8863SOL    HW227489   1.669   3.461   1.752
 8864SOL     OW27490   6.543   1.961   4.633
 8864SOL    HW127491   6.549   2.024   4.556
 8864SOL    HW227492   6.450   1.963   4.670
 8865SOL     OW27493   2.767   1.439   0.604
 8865SOL    HW127494   2.715   1.479   0.679
 8865SOL    HW227495   2.762   1.340   0.609
 8866SOL     OW27496   6.405   0.141   1.972
 8866SOL    HW127497   6.455   0.161   1.888
 8866SOL    HW227498   6.309   0.166   1.961
 8867SOL     OW27499   5.813   2.302   3.295
 8867SOL    HW127500   5.731   2.348   3.328
 8867SOL    HW227501   5.851   2.244   3.368
 8868SOL     OW27502   0.636   2.789   3.534
 8868SOL    HW127503   0.656   2.747   3.622
 8868SOL    HW227504   0.669   2.884   3.534
 8869SOL     OW27505   4.430   6.903   3.566
 8869SOL    HW127506   4.504   6.872   3.507
 8869SOL    HW227507   4.427   7.003   3.566
 8870SOL     OW27508   1.052   0.407   1.722
 8870SOL    HW127509   0.993   0.462   1.663
 8870SOL    HW227510   1.136   0.458   1.742
 8871SOL     OW27511   0.119   6.497   1.090
 8871SOL    HW127512   0.070   6.422   1.044
 8871SOL    HW227513   0.078   6.584   1.063
 8872SOL     OW27514   6.831   4.818   3.606
 8872SOL    HW127515   6.855   4.891   3.670
 8872SOL    HW227516   6.761   4.760   3.646
 8873SOL     OW27517   1.828   1.675   3.556
 8873SOL    HW127518   1.864   1.676   3.463
 8873SOL    HW227519   1.734   1.710   3.556
 8874SOL     OW27520   2.562   6.112   0.707
 8874SOL    HW127521   2.597   6.206   0.703
 8874SOL    HW227522   2.613   6.060   0.775
 8875SOL     OW27523   6.353   2.909   4.339
 8875SOL    HW127524   6.322   2.814   4.346
 8875SOL    HW227525   6.450   2.911   4.316
 8876SOL     OW27526   4.786   0.321   0.611
 8876SOL    HW127527   4.865   0.260   0.601
 8876SOL    HW227528   4.744   0.335   0.521
 8877SOL     OW27529   0.962   4.470   1.519
 8877SOL    HW127530   1.040   4.412   1.544
 8877SOL    HW227531   0.890   4.458   1.587
 8878SOL     OW27532   4.897   3.783   2.510
 8878SOL    HW127533   4.987   3.816   2.537
 8878SOL    HW227534   4.906   3.708   2.445
 8879SOL     OW27535   0.202   4.506   3.985
 8879SOL    HW127536   0.233   4.446   4.059
 8879SOL    HW227537   0.243   4.477   3.898
 8880SOL     OW27538   4.083   2.094   2.537
 8880SOL    HW127539   4.109   1.998   2.548
 8880SOL    HW227540   4.063   2.113   2.441
 8881SOL     OW27541   3.836   5.198   3.086
 8881SOL    HW127542   3.796   5.108   3.074
 8881SOL    HW227543   3.934   5.189   3.103
 8882SOL     OW27544   4.193   1.604   0.401
 8882SOL    HW127545   4.272   1.623   0.459
 8882SOL    HW227546   4.134   1.537   0.446
 8883SOL     OW27547   0.690   6.736   3.108
 8883SOL    HW127548   0.642   6.681   3.039
 8883SOL    HW227549   0.740   6.810   3.063
 8884SOL     OW27550   4.520   1.726   6.342
 8884SOL    HW127551   4.546   1.704   6.436
 8884SOL    HW227552   4.422   1.746   6.339
 8885SOL     OW27553   5.999   5.014   0.801
 8885SOL    HW127554   5.992   5.060   0.889
 8885SOL    HW227555   6.088   5.034   0.760
 8886SOL     OW27556   4.727   6.341   0.388
 8886SOL    HW127557   4.676   6.418   0.425
 8886SOL    HW227558   4.748   6.358   0.291
 8887SOL     OW27559   4.234   0.569   1.823
 8887SOL    HW127560   4.319   0.529   1.855
 8887SOL    HW227561   4.200   0.517   1.744
 8888SOL     OW27562   3.924   2.075   2.012
 8888SOL    HW127563   3.969   2.078   2.102
 8888SOL    HW227564   3.848   2.141   2.010
 8889SOL     OW27565   1.761   4.729   6.512
 8889SOL    HW127566   1.751   4.676   6.428
 8889SOL    HW227567   1.682   4.790   6.523
 8890SOL     OW27568   1.823   5.867   6.954
 8890SOL    HW127569   1.820   5.947   6.893
 8890SOL    HW227570   1.731   5.828   6.961
 8891SOL     OW27571   5.481   3.456   5.588
 8891SOL    HW127572   5.391   3.417   5.608
 8891SOL    HW227573   5.471   3.529   5.520
 8892SOL     OW27574   2.462   5.078   5.097
 8892SOL    HW127575   2.554   5.078   5.135
 8892SOL    HW227576   2.441   5.168   5.059
 8893SOL     OW27577   0.511   4.531   5.470
 8893SOL    HW127578   0.547   4.507   5.380
 8893SOL    HW227579   0.581   4.514   5.539
 8894SOL     OW27580   5.370   2.602   1.449
 8894SOL    HW127581   5.361   2.619   1.351
 8894SOL    HW227582   5.457   2.557   1.467
 8895SOL     OW27583   0.196   3.534   1.782
 8895SOL    HW127584   0.103   3.536   1.818
 8895SOL    HW227585   0.254   3.593   1.839
 8896SOL     OW27586   0.672   0.919   3.821
 8896SOL    HW127587   0.767   0.891   3.810
 8896SOL    HW227588   0.618   0.888   3.742
 8897SOL     OW27589   1.335   5.003   4.490
 8897SOL    HW127590   1.337   4.978   4.587
 8897SOL    HW227591   1.371   5.095   4.478
 8898SOL     OW27592   5.901   5.014   3.118
 8898SOL    HW127593   5.829   5.082   3.119
 8898SOL    HW227594   5.950   5.015   3.206
 8899SOL     OW27595   2.193   4.641   1.497
 8899SOL    HW127596   2.165   4.561   1.444
 8899SOL    HW227597   2.175   4.724   1.444
 8900SOL     OW27598   4.236   1.856   4.692
 8900SOL    HW127599   4.139   1.838   4.677
 8900SOL    HW227600   4.267   1.926   4.628
 8901SOL     OW27601   1.021   4.905   5.559
 8901SOL    HW127602   1.004   4.807   5.569
 8901SOL    HW227603   0.968   4.955   5.628
 8902SOL     OW27604   0.675   4.636   6.639
 8902SOL    HW127605   0.729   4.574   6.581
 8902SOL    HW227606   0.578   4.621   6.622
 8903SOL     OW27607   0.602   0.586   4.128
 8903SOL    HW127608   0.659   0.539   4.195
 8903SOL    HW227609   0.573   0.522   4.057
 8904SOL     OW27610   6.833   1.410   2.820
 8904SOL    HW127611   6.847   1.328   2.765
 8904SOL    HW227612   6.735   1.424   2.835
 8905SOL     OW27613   1.830   4.779   1.481
 8905SOL    HW127614   1.738   4.775   1.444
 8905SOL    HW227615   1.836   4.721   1.562
 8906SOL     OW27616   6.445   0.703   6.585
 8906SOL    HW127617   6.401   0.748   6.663
 8906SOL    HW227618   6.377   0.654   6.532
 8907SOL     OW27619   2.727   3.067   5.331
 8907SOL    HW127620   2.643   3.028   5.293
 8907SOL    HW227621   2.774   2.998   5.387
 8908SOL     OW27622   1.651   5.633   5.405
 8908SOL    HW127623   1.727   5.603   5.463
 8908SOL    HW227624   1.616   5.720   5.438
 8909SOL     OW27625   2.183   6.181   1.925
 8909SOL    HW127626   2.227   6.093   1.946
 8909SOL    HW227627   2.098   6.165   1.876
 8910SOL     OW27628   0.917   0.805   3.739
 8910SOL    HW127629   0.978   0.740   3.785
 8910SOL    HW227630   0.881   0.763   3.655
 8911SOL     OW27631   5.006   2.656   4.223
 8911SOL    HW127632   4.930   2.592   4.227
 8911SOL    HW227633   4.999   2.711   4.140
 8912SOL     OW27634   3.387   3.106   3.458
 8912SOL    HW127635   3.421   3.160   3.535
 8912SOL    HW227636   3.427   3.140   3.373
 8913SOL     OW27637   4.996   5.611   0.673
 8913SOL    HW127638   5.005   5.611   0.773
 8913SOL    HW227639   5.051   5.537   0.635
 8914SOL     OW27640   4.897   5.159   5.450
 8914SOL    HW127641   4.977   5.220   5.449
 8914SOL    HW227642   4.919   5.075   5.400
 8915SOL     OW27643   2.328   1.238   3.393
 8915SOL    HW127644   2.284   1.150   3.379
 8915SOL    HW227645   2.387   1.259   3.315
 8916SOL     OW27646   5.864   0.308   2.223
 8916SOL    HW127647   5.945   0.336   2.274
 8916SOL    HW227648   5.835   0.383   2.163
 8917SOL     OW27649   5.887   2.486   0.386
 8917SOL    HW127650   5.897   2.466   0.289
 8917SOL    HW227651   5.877   2.585   0.399
 8918SOL     OW27652   1.626   3.436   2.827
 8918SOL    HW127653   1.596   3.346   2.859
 8918SOL    HW227654   1.614   3.442   2.728
 8919SOL     OW27655   6.508   2.260   3.092
 8919SOL    HW127656   6.540   2.167   3.109
 8919SOL    HW227657   6.530   2.287   2.998
 8920SOL     OW27658   0.973   1.831   0.754
 8920SOL    HW127659   0.939   1.790   0.838
 8920SOL    HW227660   0.900   1.887   0.712
 8921SOL     OW27661   0.644   2.506   1.181
 8921SOL    HW127662   0.669   2.434   1.245
 8921SOL    HW227663   0.700   2.498   1.099
 8922SOL     OW27664   2.807   5.049   3.398
 8922SOL    HW127665   2.849   4.965   3.434
 8922SOL    HW227666   2.838   5.127   3.451
 8923SOL     OW27667   2.772   1.706   3.412
 8923SOL    HW127668   2.867   1.675   3.402
 8923SOL    HW227669   2.756   1.782   3.348
 8924SOL     OW27670   6.050   5.191   4.721
 8924SOL    HW127671   6.107   5.148   4.651
 8924SOL    HW227672   5.959   5.210   4.682
 8925SOL     OW27673   0.380   6.301   3.801
 8925SOL    HW127674   0.285   6.322   3.821
 8925SOL    HW227675   0.437   6.326   3.880
 8926SOL     OW27676   5.905   2.331   6.712
 8926SOL    HW127677   5.993   2.333   6.758
 8926SOL    HW227678   5.919   2.325   6.613
 8927SOL     OW27679   1.340   1.753   6.180
 8927SOL    HW127680   1.416   1.818   6.190
 8927SOL    HW227681   1.322   1.738   6.083
 8928SOL     OW27682   0.625   6.594   4.736
 8928SOL    HW127683   0.686   6.517   4.756
 8928SOL    HW227684   0.679   6.677   4.725
 8929SOL     OW27685   6.608   1.349   3.484
 8929SOL    HW127686   6.622   1.266   3.539
 8929SOL    HW227687   6.667   1.345   3.403
 8930SOL     OW27688   2.198   5.428   2.631
 8930SOL    HW127689   2.123   5.379   2.677
 8930SOL    HW227690   2.237   5.495   2.693
 8931SOL     OW27691   4.363   3.201   7.000
 8931SOL    HW127692   4.423   3.239   6.929
 8931SOL    HW227693   4.287   3.263   7.016
 8932SOL     OW27694   0.691   3.506   2.182
 8932SOL    HW127695   0.711   3.595   2.222
 8932SOL    HW227696   0.769   3.477   2.126
 8933SOL     OW27697   4.943   2.508   6.100
 8933SOL    HW127698   4.853   2.510   6.145
 8933SOL    HW227699   4.931   2.482   6.004
 8934SOL     OW27700   2.570   6.155   2.551
 8934SOL    HW127701   2.529   6.183   2.638
 8934SOL    HW227702   2.502   6.166   2.478
 8935SOL     OW27703   0.125   5.739   6.571
 8935SOL    HW127704   0.087   5.765   6.482
 8935SOL    HW227705   0.098   5.645   6.592
 8936SOL     OW27706   4.382   3.361   0.826
 8936SOL    HW127707   4.374   3.262   0.820
 8936SOL    HW227708   4.291   3.402   0.829
 8937SOL     OW27709   6.987   1.282   6.214
 8937SOL    HW127710   6.970   1.340   6.294
 8937SOL    HW227711   0.032   1.328   6.153
 8938SOL     OW27712   4.733   5.521   1.920
 8938SOL    HW127713   4.803   5.560   1.861
 8938SOL    HW227714   4.711   5.428   1.889
 8939SOL     OW27715   5.541   1.819   4.465
 8939SOL    HW127716   5.462   1.864   4.424
 8939SOL    HW227717   5.517   1.725   4.491
 8940SOL     OW27718   5.419   6.692   2.465
 8940SOL    HW127719   5.490   6.747   2.420
 8940SOL    HW227720   5.447   6.596   2.465
 8941SOL     OW27721   4.032   1.960   0.443
 8941SOL    HW127722   4.064   1.901   0.369
 8941SOL    HW227723   4.097   2.036   0.455
 8942SOL     OW27724   1.265   2.353   5.773
 8942SOL    HW127725   1.234   2.381   5.864
 8942SOL    HW227726   1.223   2.412   5.704
 8943SOL     OW27727   5.173   3.643   0.815
 8943SOL    HW127728   5.186   3.711   0.888
 8943SOL    HW227729   5.257   3.637   0.760
 8944SOL     OW27730   4.536   5.357   1.351
 8944SOL    HW127731   4.458   5.322   1.403
 8944SOL    HW227732   4.614   5.371   1.413
 8945SOL     OW27733   2.186   1.339   3.617
 8945SOL    HW127734   2.232   1.311   3.533
 8945SOL    HW227735   2.254   1.379   3.679
 8946SOL     OW27736   3.562   0.987   5.061
 8946SOL    HW127737   3.499   1.008   4.986
 8946SOL    HW227738   3.546   0.894   5.093
 8947SOL     OW27739   3.658   3.535   5.326
 8947SOL    HW127740   3.560   3.553   5.311
 8947SOL    HW227741   3.695   3.603   5.390
 8948SOL     OW27742   5.226   4.570   3.551
 8948SOL    HW127743   5.316   4.541   3.580
 8948SOL    HW227744   5.231   4.607   3.458
 8949SOL     OW27745   1.746   5.705   6.187
 8949SOL    HW127746   1.754   5.723   6.089
 8949SOL    HW227747   1.837   5.705   6.229
 8950SOL     OW27748   4.827   2.990   4.576
 8950SOL    HW127749   4.783   2.963   4.662
 8950SOL    HW227750   4.850   2.908   4.523
 8951SOL     OW27751   2.860   2.045   5.555
 8951SOL    HW127752   2.836   1.968   5.615
 8951SOL    HW227753   2.796   2.049   5.479
 8952SOL     OW27754   5.827   6.953   3.388
 8952SOL    HW127755   5.751   7.019   3.386
 8952SOL    HW227756   5.793   6.864   3.416
 8953SOL     OW27757   1.100   5.263   5.593
 8953SOL    HW127758   1.200   5.267   5.590
 8953SOL    HW227759   1.069   5.273   5.688
 8954SOL     OW27760   2.435   6.569   6.575
 8954SOL    HW127761   2.363   6.500   6.591
 8954SOL    HW227762   2.423   6.644   6.640
 8955SOL     OW27763   6.943   3.716   4.387
 8955SOL    HW127764   0.014   3.675   4.378
 8955SOL    HW227765   6.919   3.723   4.484
 8956SOL     OW27766   0.917   0.647   4.165
 8956SOL    HW127767   0.910   0.558   4.210
 8956SOL    HW227768   0.828   0.674   4.128
 8957SOL     OW27769   3.313   6.141   1.971
 8957SOL    HW127770   3.243   6.077   2.002
 8957SOL    HW227771   3.400   6.121   2.017
 8958SOL     OW27772   2.977   0.642   5.363
 8958SOL    HW127773   2.954   0.731   5.403
 8958SOL    HW227774   2.947   0.640   5.268
 8959SOL     OW27775   4.052   5.194   6.854
 8959SOL    HW127776   4.112   5.124   6.814
 8959SOL    HW227777   3.971   5.150   6.893
 8960SOL     OW27778   4.236   5.920   0.493
 8960SOL    HW127779   4.211   5.862   0.571
 8960SOL    HW227780   4.297   5.869   0.432
 8961SOL     OW27781   0.655   2.887   4.201
 8961SOL    HW127782   0.749   2.918   4.186
 8961SOL    HW227783   0.604   2.892   4.115
 8962SOL     OW27784   4.794   0.552   3.997
 8962SOL    HW127785   4.843   0.633   3.965
 8962SOL    HW227786   4.748   0.574   4.084
 8963SOL     OW27787   1.246   0.944   3.970
 8963SOL    HW127788   1.175   0.906   4.029
 8963SOL    HW227789   1.285   0.871   3.914
 8964SOL     OW27790   0.744   3.006   3.242
 8964SOL    HW127791   0.705   2.938   3.180
 8964SOL    HW227792   0.842   3.014   3.225
 8965SOL     OW27793   1.808   5.246   1.380
 8965SOL    HW127794   1.849   5.200   1.301
 8965SOL    HW227795   1.804   5.344   1.363
 8966SOL     OW27796   3.909   2.154   4.710
 8966SOL    HW127797   3.909   2.243   4.664
 8966SOL    HW227798   3.954   2.162   4.799
 8967SOL     OW27799   5.488   6.609   0.527
 8967SOL    HW127800   5.505   6.527   0.473
 8967SOL    HW227801   5.395   6.607   0.564
 8968SOL     OW27802   6.263   3.980   4.025
 8968SOL    HW127803   6.267   4.067   3.976
 8968SOL    HW227804   6.345   3.926   4.002
 8969SOL     OW27805   6.459   7.004   4.265
 8969SOL    HW127806   6.541   0.009   4.213
 8969SOL    HW227807   6.386   6.978   4.201
 8970SOL     OW27808   2.869   2.724   1.523
 8970SOL    HW127809   2.786   2.752   1.476
 8970SOL    HW227810   2.917   2.804   1.557
 8971SOL     OW27811   3.822   6.535   3.205
 8971SOL    HW127812   3.775   6.571   3.124
 8971SOL    HW227813   3.756   6.520   3.278
 8972SOL     OW27814   4.943   0.446   4.986
 8972SOL    HW127815   4.932   0.414   5.080
 8972SOL    HW227816   5.014   0.516   4.982
 8973SOL     OW27817   2.035   4.746   6.590
 8973SOL    HW127818   2.094   4.667   6.607
 8973SOL    HW227819   1.949   4.715   6.550
 8974SOL     OW27820   0.362   2.497   4.135
 8974SOL    HW127821   0.398   2.579   4.180
 8974SOL    HW227822   0.437   2.434   4.117
 8975SOL     OW27823   3.434   0.762   5.871
 8975SOL    HW127824   3.407   0.689   5.934
 8975SOL    HW227825   3.531   0.753   5.850
 8976SOL     OW27826   1.603   5.736   3.822
 8976SOL    HW127827   1.585   5.834   3.819
 8976SOL    HW227828   1.584   5.696   3.733
 8977SOL     OW27829   5.410   1.527   0.033
 8977SOL    HW127830   5.478   1.455   0.048
 8977SOL    HW227831   5.362   1.547   0.118
 8978SOL     OW27832   5.632   5.012   1.477
 8978SOL    HW127833   5.551   4.953   1.478
 8978SOL    HW227834   5.714   4.957   1.466
 8979SOL     OW27835   0.829   4.582   4.966
 8979SOL    HW127836   0.858   4.633   4.885
 8979SOL    HW227837   0.904   4.579   5.032
 8980SOL     OW27838   2.876   3.383   3.914
 8980SOL    HW127839   2.928   3.448   3.970
 8980SOL    HW227840   2.863   3.298   3.965
 8981SOL     OW27841   2.726   2.017   5.295
 8981SOL    HW127842   2.672   1.977   5.221
 8981SOL    HW227843   2.798   2.074   5.256
 8982SOL     OW27844   3.519   5.139   0.763
 8982SOL    HW127845   3.557   5.049   0.781
 8982SOL    HW227846   3.540   5.166   0.669
 8983SOL     OW27847   4.921   4.379   0.702
 8983SOL    HW127848   4.865   4.388   0.620
 8983SOL    HW227849   4.912   4.462   0.757
 8984SOL     OW27850   1.658   6.710   3.332
 8984SOL    HW127851   1.670   6.644   3.407
 8984SOL    HW227852   1.634   6.799   3.370
 8985SOL     OW27853   3.185   2.910   6.068
 8985SOL    HW127854   3.211   2.819   6.035
 8985SOL    HW227855   3.086   2.917   6.073
 8986SOL     OW27856   2.580   6.055   1.864
 8986SOL    HW127857   2.671   6.081   1.833
 8986SOL    HW227858   2.587   6.007   1.952
 8987SOL     OW27859   5.088   6.503   2.334
 8987SOL    HW127860   4.992   6.511   2.361
 8987SOL    HW227861   5.104   6.413   2.294
 8988SOL     OW27862   0.442   4.479   4.952
 8988SOL    HW127863   0.453   4.445   5.045
 8988SOL    HW227864   0.365   4.543   4.949
 8989SOL     OW27865   2.407   2.239   6.769
 8989SOL    HW127866   2.358   2.238   6.856
 8989SOL    HW227867   2.499   2.201   6.782
 8990SOL     OW27868   0.280   5.080   4.478
 8990SOL    HW127869   0.270   4.987   4.512
 8990SOL    HW227870   0.218   5.094   4.400
 8991SOL     OW27871   1.384   2.622   4.985
 8991SOL    HW127872   1.431   2.629   5.073
 8991SOL    HW227873   1.305   2.562   4.994
 8992SOL     OW27874   6.106   1.939   1.674
 8992SOL    HW127875   6.194   1.891   1.669
 8992SOL    HW227876   6.121   2.032   1.709
 8993SOL     OW27877   4.524   1.980   1.269
 8993SOL    HW127878   4.607   2.025   1.235
 8993SOL    HW227879   4.548   1.892   1.310
 8994SOL     OW27880   1.768   5.489   2.656
 8994SOL    HW127881   1.841   5.433   2.696
 8994SOL    HW227882   1.805   5.580   2.634
 8995SOL     OW27883   0.562   0.455   1.543
 8995SOL    HW127884   0.611   0.440   1.629
 8995SOL    HW227885   0.464   0.440   1.557
 8996SOL     OW27886   4.328   5.669   5.475
 8996SOL    HW127887   4.268   5.736   5.520
 8996SOL    HW227888   4.287   5.640   5.389
 8997SOL     OW27889   6.126   0.198   5.219
 8997SOL    HW127890   6.076   0.142   5.284
 8997SOL    HW227891   6.185   0.140   5.162
 8998SOL     OW27892   6.556   3.881   5.035
 8998SOL    HW127893   6.501   3.927   4.966
 8998SOL    HW227894   6.595   3.797   4.997
 8999SOL     OW27895   4.053   5.676   6.246
 8999SOL    HW127896   4.107   5.660   6.164
 8999SOL    HW227897   4.105   5.645   6.326
 9000SOL     OW27898   0.947   4.342   1.044
 9000SOL    HW127899   0.852   4.320   1.065
 9000SOL    HW227900   0.950   4.410   0.971
 9001SOL     OW27901   1.438   5.632   0.817
 9001SOL    HW127902   1.502   5.617   0.742
 9001SOL    HW227903   1.484   5.616   0.904
 9002SOL     OW27904   6.554   5.652   6.300
 9002SOL    HW127905   6.545   5.746   6.333
 9002SOL    HW227906   6.548   5.650   6.200
 9003SOL     OW27907   4.870   6.731   0.633
 9003SOL    HW127908   4.858   6.732   0.732
 9003SOL    HW227909   4.816   6.804   0.592
 9004SOL     OW27910   6.104   4.836   1.909
 9004SOL    HW127911   6.147   4.772   1.846
 9004SOL    HW227912   6.173   4.872   1.972
 9005SOL     OW27913   4.992   0.937   4.561
 9005SOL    HW127914   4.960   1.016   4.612
 9005SOL    HW227915   4.980   0.854   4.616
 9006SOL     OW27916   3.660   6.281   0.298
 9006SOL    HW127917   3.603   6.211   0.255
 9006SOL    HW227918   3.689   6.348   0.230
 9007SOL     OW27919   0.352   0.703   3.423
 9007SOL    HW127920   0.375   0.610   3.395
 9007SOL    HW227921   0.276   0.700   3.489
 9008SOL     OW27922   6.700   5.349   2.057
 9008SOL    HW127923   6.640   5.358   1.978
 9008SOL    HW227924   6.724   5.252   2.069
 9009SOL     OW27925   3.140   6.634   2.335
 9009SOL    HW127926   3.192   6.586   2.405
 9009SOL    HW227927   3.050   6.592   2.326
 9010SOL     OW27928   1.951   5.312   4.757
 9010SOL    HW127929   1.889   5.333   4.682
 9010SOL    HW227930   1.999   5.395   4.785
 9011SOL     OW27931   2.634   1.994   2.262
 9011SOL    HW127932   2.644   1.926   2.190
 9011SOL    HW227933   2.701   2.067   2.249
 9012SOL     OW27934   2.527   6.506   6.918
 9012SOL    HW127935   2.528   6.410   6.889
 9012SOL    HW227936   2.435   6.531   6.948
 9013SOL     OW27937   2.003   0.404   4.375
 9013SOL    HW127938   2.031   0.500   4.378
 9013SOL    HW227939   2.013   0.369   4.281
 9014SOL     OW27940   5.403   3.441   3.593
 9014SOL    HW127941   5.338   3.408   3.524
 9014SOL    HW227942   5.362   3.516   3.645
 9015SOL     OW27943   3.961   6.771   6.163
 9015SOL    HW127944   3.870   6.786   6.124
 9015SOL    HW227945   4.015   6.713   6.101
 9016SOL     OW27946   5.267   4.351   6.065
 9016SOL    HW127947   5.249   4.395   6.154
 9016SOL    HW227948   5.192   4.289   6.043
 9017SOL     OW27949   2.723   0.193   5.355
 9017SOL    HW127950   2.685   0.101   5.344
 9017SOL    HW227951   2.780   0.195   5.437
 9018SOL     OW27952   3.927   5.173   0.432
 9018SOL    HW127953   3.937   5.150   0.529
 9018SOL    HW227954   3.835   5.207   0.415
 9019SOL     OW27955   0.749   3.530   4.575
 9019SOL    HW127956   0.735   3.537   4.674
 9019SOL    HW227957   0.811   3.603   4.545
 9020SOL     OW27958   5.667   4.598   3.676
 9020SOL    HW127959   5.759   4.630   3.695
 9020SOL    HW227960   5.611   4.604   3.759
 9021SOL     OW27961   6.949   1.061   4.038
 9021SOL    HW127962   6.859   1.030   4.069
 9021SOL    HW227963   6.958   1.160   4.054
 9022SOL     OW27964   4.633   3.699   6.914
 9022SOL    HW127965   4.659   3.629   6.980
 9022SOL    HW227966   4.662   3.789   6.948
 9023SOL     OW27967   0.065   4.802   0.631
 9023SOL    HW127968   6.995   4.781   0.673
 9023SOL    HW227969   0.117   4.862   0.692
 9024SOL     OW27970   2.352   4.951   6.174
 9024SOL    HW127971   2.407   4.876   6.211
 9024SOL    HW227972   2.270   4.963   6.230
 9025SOL     OW27973   0.836   5.992   1.413
 9025SOL    HW127974   0.765   6.029   1.353
 9025SOL    HW227975   0.844   5.893   1.398
 9026SOL     OW27976   5.941   1.168   6.941
 9026SOL    HW127977   5.981   1.110   6.870
 9026SOL    HW227978   5.995   1.252   6.949
 9027SOL     OW27979   0.113   3.891   3.040
 9027SOL    HW127980   0.083   3.801   3.008
 9027SOL    HW227981   0.154   3.941   2.963
 9028SOL     OW27982   3.313   4.809   6.921
 9028SOL    HW127983   3.377   4.816   6.844
 9028SOL    HW227984   3.261   4.894   6.929
 9029SOL     OW27985   4.226   6.139   5.038
 9029SOL    HW127986   4.289   6.215   5.054
 9029SOL    HW227987   4.170   6.123   5.120
 9030SOL     OW27988   2.787   2.229   2.250
 9030SOL    HW127989   2.855   2.235   2.323
 9030SOL    HW227990   2.809   2.295   2.178
 9031SOL     OW27991   5.151   0.181   4.925
 9031SOL    HW127992   5.242   0.216   4.944
 9031SOL    HW227993   5.083   0.237   4.973
 9032SOL     OW27994   5.283   2.970   0.870
 9032SOL    HW127995   5.270   2.975   0.771
 9032SOL    HW227996   5.374   2.935   0.890
 9033SOL     OW27997   1.181   5.997   2.776
 9033SOL    HW127998   1.130   5.995   2.863
 9033SOL    HW227999   1.117   6.012   2.701
 9034SOL     OW28000   4.580   6.659   5.185
 9034SOL    HW128001   4.619   6.740   5.141
 9034SOL    HW228002   4.621   6.577   5.146
 9035SOL     OW28003   3.086   5.236   5.902
 9035SOL    HW128004   3.020   5.310   5.919
 9035SOL    HW228005   3.075   5.165   5.971
 9036SOL     OW28006   0.424   5.302   5.252
 9036SOL    HW128007   0.517   5.314   5.287
 9036SOL    HW228008   0.421   5.323   5.154
 9037SOL     OW28009   0.226   0.606   2.245
 9037SOL    HW128010   0.289   0.576   2.317
 9037SOL    HW228011   0.145   0.547   2.246
 9038SOL     OW28012   3.887   3.294   5.499
 9038SOL    HW128013   3.917   3.218   5.442
 9038SOL    HW228014   3.886   3.378   5.445
 9039SOL     OW28015   4.372   6.141   6.435
 9039SOL    HW128016   4.276   6.127   6.409
 9039SOL    HW228017   4.388   6.104   6.527
 9040SOL     OW28018   1.954   2.023   1.945
 9040SOL    HW128019   2.051   2.034   1.925
 9040SOL    HW228020   1.902   2.030   1.860
 9041SOL     OW28021   5.912   2.094   2.700
 9041SOL    HW128022   6.007   2.122   2.708
 9041SOL    HW228023   5.865   2.111   2.787
 9042SOL     OW28024   5.779   5.639   6.595
 9042SOL    HW128025   5.743   5.626   6.688
 9042SOL    HW228026   5.868   5.596   6.588
 9043SOL     OW28027   2.591   3.197   1.567
 9043SOL    HW128028   2.530   3.123   1.597
 9043SOL    HW228029   2.566   3.226   1.475
 9044SOL     OW28030   1.885   0.819   0.199
 9044SOL    HW128031   1.940   0.747   0.156
 9044SOL    HW228032   1.790   0.811   0.168
 9045SOL     OW28033   3.516   0.676   3.765
 9045SOL    HW128034   3.507   0.723   3.853
 9045SOL    HW228035   3.552   0.584   3.780
 9046SOL     OW28036   4.007   3.791   2.434
 9046SOL    HW128037   3.939   3.800   2.362
 9046SOL    HW228038   3.979   3.719   2.498
 9047SOL     OW28039   0.704   4.562   5.676
 9047SOL    HW128040   0.777   4.564   5.745
 9047SOL    HW228041   0.704   4.649   5.626
 9048SOL     OW28042   6.972   2.084   5.208
 9048SOL    HW128043   6.929   2.065   5.119
 9048SOL    HW228044   0.018   2.011   5.229
 9049SOL     OW28045   1.351   6.914   5.514
 9049SOL    HW128046   1.265   6.901   5.564
 9049SOL    HW228047   1.331   6.954   5.424
 9050SOL     OW28048   0.992   4.546   0.027
 9050SOL    HW128049   0.974   4.582   0.119
 9050SOL    HW228050   1.068   4.480   0.032
 9051SOL     OW28051   2.187   0.868   1.680
 9051SOL    HW128052   2.194   0.967   1.685
 9051SOL    HW228053   2.191   0.830   1.773
 9052SOL     OW28054   2.188   3.083   6.494
 9052SOL    HW128055   2.222   3.085   6.400
 9052SOL    HW228056   2.089   3.098   6.493
 9053SOL     OW28057   0.503   1.372   0.188
 9053SOL    HW128058   0.459   1.436   0.125
 9053SOL    HW228059   0.444   1.359   0.268
 9054SOL     OW28060   1.600   5.707   3.323
 9054SOL    HW128061   1.521   5.703   3.262
 9054SOL    HW228062   1.670   5.644   3.291
 9055SOL     OW28063   0.887   2.638   6.055
 9055SOL    HW128064   0.883   2.539   6.068
 9055SOL    HW228065   0.796   2.671   6.030
 9056SOL     OW28066   5.344   1.657   4.237
 9056SOL    HW128067   5.364   1.733   4.174
 9056SOL    HW228068   5.312   1.578   4.185
 9057SOL     OW28069   5.070   1.425   3.620
 9057SOL    HW128070   4.980   1.384   3.638
 9057SOL    HW228071   5.068   1.468   3.529
 9058SOL     OW28072   2.047   0.115   6.110
 9058SOL    HW128073   1.988   0.146   6.185
 9058SOL    HW228074   1.997   0.049   6.054
 9059SOL     OW28075   1.719   2.294   3.938
 9059SOL    HW128076   1.693   2.386   3.968
 9059SOL    HW228077   1.729   2.235   4.018
 9060SOL     OW28078   5.417   2.349   4.980
 9060SOL    HW128079   5.345   2.291   4.943
 9060SOL    HW228080   5.482   2.372   4.908
 9061SOL     OW28081   2.219   4.659   3.809
 9061SOL    HW128082   2.173   4.612   3.733
 9061SOL    HW228083   2.159   4.660   3.889
 9062SOL     OW28084   1.509   5.998   1.816
 9062SOL    HW128085   1.425   5.944   1.813
 9062SOL    HW228086   1.527   6.037   1.726
 9063SOL     OW28087   3.459   1.537   1.845
 9063SOL    HW128088   3.461   1.633   1.873
 9063SOL    HW228089   3.380   1.491   1.885
 9064SOL     OW28090   4.250   4.142   6.706
 9064SOL    HW128091   4.296   4.111   6.623
 9064SOL    HW228092   4.305   4.214   6.749
 9065SOL     OW28093   2.873   0.929   1.338
 9065SOL    HW128094   2.906   0.963   1.426
 9065SOL    HW228095   2.952   0.901   1.283
 9066SOL     OW28096   4.891   6.678   0.145
 9066SOL    HW128097   4.918   6.773   0.162
 9066SOL    HW228098   4.907   6.655   0.049
 9067SOL     OW28099   0.803   0.183   1.571
 9067SOL    HW128100   0.800   0.244   1.650
 9067SOL    HW228101   0.897   0.179   1.537
 9068SOL     OW28102   1.234   6.024   6.498
 9068SOL    HW128103   1.331   6.001   6.500
 9068SOL    HW228104   1.182   5.955   6.549
 9069SOL     OW28105   1.171   1.993   5.797
 9069SOL    HW128106   1.196   2.086   5.825
 9069SOL    HW228107   1.080   1.994   5.757
 9070SOL     OW28108   1.319   4.441   4.269
 9070SOL    HW128109   1.293   4.375   4.339
 9070SOL    HW228110   1.248   4.512   4.263
 9071SOL     OW28111   4.938   5.081   6.976
 9071SOL    HW128112   4.913   5.161   6.922
 9071SOL    HW228113   5.037   5.064   6.967
 9072SOL     OW28114   5.048   4.168   0.826
 9072SOL    HW128115   4.982   4.120   0.884
 9072SOL    HW228116   5.001   4.240   0.775
 9073SOL     OW28117   2.021   0.279   1.494
 9073SOL    HW128118   2.104   0.280   1.549
 9073SOL    HW228119   1.996   0.184   1.473
 9074SOL     OW28120   0.349   0.836   1.604
 9074SOL    HW128121   0.271   0.776   1.589
 9074SOL    HW228122   0.430   0.798   1.560
 9075SOL     OW28123   0.207   0.204   1.244
 9075SOL    HW128124   0.200   0.134   1.315
 9075SOL    HW228125   0.303   0.220   1.223
 9076SOL     OW28126   1.240   2.701   5.313
 9076SOL    HW128127   1.326   2.697   5.262
 9076SOL    HW228128   1.185   2.620   5.293
 9077SOL     OW28129   5.866   6.105   2.298
 9077SOL    HW128130   5.825   6.117   2.208
 9077SOL    HW228131   5.895   6.193   2.334
 9078SOL     OW28132   4.737   3.233   5.438
 9078SOL    HW128133   4.746   3.250   5.339
 9078SOL    HW228134   4.799   3.160   5.466
 9079SOL     OW28135   2.229   6.835   5.406
 9079SOL    HW128136   2.170   6.887   5.345
 9079SOL    HW228137   2.204   6.855   5.501
 9080SOL     OW28138   4.713   0.902   0.196
 9080SOL    HW128139   4.655   0.944   0.266
 9080SOL    HW228140   4.679   0.811   0.174
 9081SOL     OW28141   5.550   6.958   3.607
 9081SOL    HW128142   5.563   6.913   3.696
 9081SOL    HW228143   5.453   6.954   3.582
 9082SOL     OW28144   2.387   0.502   2.023
 9082SOL    HW128145   2.442   0.461   1.950
 9082SOL    HW228146   2.345   0.586   1.990
 9083SOL     OW28147   4.458   5.174   3.556
 9083SOL    HW128148   4.367   5.142   3.527
 9083SOL    HW228149   4.513   5.194   3.476
 9084SOL     OW28150   3.529   3.578   2.044
 9084SOL    HW128151   3.470   3.503   2.074
 9084SOL    HW228152   3.596   3.544   1.979
 9085SOL     OW28153   1.241   1.956   0.729
 9085SOL    HW128154   1.227   2.031   0.665
 9085SOL    HW228155   1.157   1.903   0.738
 9086SOL     OW28156   6.561   3.487   0.425
 9086SOL    HW128157   6.642   3.469   0.481
 9086SOL    HW228158   6.589   3.518   0.334
 9087SOL     OW28159   5.222   3.629   2.226
 9087SOL    HW128160   5.276   3.550   2.197
 9087SOL    HW228161   5.139   3.599   2.271
 9088SOL     OW28162   6.143   4.761   2.272
 9088SOL    HW128163   6.231   4.789   2.309
 9088SOL    HW228164   6.114   4.676   2.316
 9089SOL     OW28165   3.837   1.130   5.965
 9089SOL    HW128166   3.918   1.150   6.020
 9089SOL    HW228167   3.763   1.191   5.992
 9090SOL     OW28168   6.777   2.060   3.942
 9090SOL    HW128169   6.700   1.996   3.947
 9090SOL    HW228170   6.850   2.020   3.887
 9091SOL     OW28171   4.406   2.773   5.566
 9091SOL    HW128172   4.326   2.754   5.622
 9091SOL    HW228173   4.489   2.760   5.620
 9092SOL     OW28174   6.811   3.585   5.928
 9092SOL    HW128175   6.904   3.557   5.954
 9092SOL    HW228176   6.803   3.584   5.829
 9093SOL     OW28177   2.410   6.377   4.910
 9093SOL    HW128178   2.406   6.418   4.819
 9093SOL    HW228179   2.390   6.447   4.979
 9094SOL     OW28180   1.675   4.033   0.813
 9094SOL    HW128181   1.764   4.072   0.839
 9094SOL    HW228182   1.686   3.935   0.796
 9095SOL     OW28183   0.441   0.131   6.065
 9095SOL    HW128184   0.389   0.205   6.108
 9095SOL    HW228185   0.538   0.154   6.063
 9096SOL     OW28186   6.609   5.710   4.096
 9096SOL    HW128187   6.690   5.702   4.155
 9096SOL    HW228188   6.638   5.717   4.000
 9097SOL     OW28189   0.637   3.827   0.148
 9097SOL    HW128190   0.652   3.792   0.056
 9097SOL    HW228191   0.696   3.906   0.164
 9098SOL     OW28192   1.840   5.362   4.498
 9098SOL    HW128193   1.939   5.361   4.506
 9098SOL    HW228194   1.811   5.446   4.451
 9099SOL     OW28195   2.227   1.842   6.110
 9099SOL    HW128196   2.183   1.821   6.197
 9099SOL    HW228197   2.191   1.782   6.039
 9100SOL     OW28198   2.182   4.862   4.627
 9100SOL    HW128199   2.108   4.928   4.628
 9100SOL    HW228200   2.228   4.861   4.715
 9101SOL     OW28201   6.694   1.874   1.289
 9101SOL    HW128202   6.757   1.948   1.265
 9101SOL    HW228203   6.743   1.787   1.285
 9102SOL     OW28204   3.483   0.702   3.052
 9102SOL    HW128205   3.522   0.618   3.089
 9102SOL    HW228206   3.556   0.760   3.016
 9103SOL     OW28207   6.562   0.379   1.354
 9103SOL    HW128208   6.644   0.376   1.411
 9103SOL    HW228209   6.574   0.319   1.275
 9104SOL     OW28210   5.639   2.207   5.766
 9104SOL    HW128211   5.712   2.191   5.831
 9104SOL    HW228212   5.632   2.130   5.703
 9105SOL     OW28213   2.808   0.619   0.284
 9105SOL    HW128214   2.872   0.550   0.318
 9105SOL    HW228215   2.856   0.706   0.275
 9106SOL     OW28216   2.577   2.990   6.354
 9106SOL    HW128217   2.541   2.906   6.312
 9106SOL    HW228218   2.674   2.979   6.374
 9107SOL     OW28219   3.802   0.707   1.040
 9107SOL    HW128220   3.866   0.630   1.044
 9107SOL    HW228221   3.814   0.765   1.120
 9108SOL     OW28222   6.203   6.537   5.427
 9108SOL    HW128223   6.142   6.616   5.429
 9108SOL    HW228224   6.293   6.565   5.393
 9109SOL     OW28225   5.479   4.171   3.194
 9109SOL    HW128226   5.436   4.259   3.216
 9109SOL    HW228227   5.438   4.135   3.110
 9110SOL     OW28228   1.399   6.430   2.568
 9110SOL    HW128229   1.482   6.392   2.608
 9110SOL    HW228230   1.359   6.362   2.505
 9111SOL     OW28231   4.592   2.670   5.272
 9111SOL    HW128232   4.649   2.670   5.354
 9111SOL    HW228233   4.525   2.596   5.278
 9112SOL     OW28234   0.497   4.685   1.824
 9112SOL    HW128235   0.416   4.730   1.860
 9112SOL    HW228236   0.470   4.611   1.762
 9113SOL     OW28237   5.661   0.156   4.505
 9113SOL    HW128238   5.684   0.142   4.408
 9113SOL    HW228239   5.726   0.107   4.562
 9114SOL     OW28240   0.134   1.062   6.338
 9114SOL    HW128241   0.082   1.129   6.286
 9114SOL    HW228242   0.169   0.991   6.277
 9115SOL     OW28243   5.553   3.894   4.383
 9115SOL    HW128244   5.494   3.853   4.452
 9115SOL    HW228245   5.595   3.822   4.328
 9116SOL     OW28246   0.503   5.361   3.827
 9116SOL    HW128247   0.456   5.355   3.915
 9116SOL    HW228248   0.569   5.436   3.829
 9117SOL     OW28249   2.003   6.804   0.136
 9117SOL    HW128250   1.941   6.882   0.131
 9117SOL    HW228251   2.098   6.837   0.132
 9118SOL     OW28252   6.785   5.049   1.151
 9118SOL    HW128253   6.770   5.148   1.153
 9118SOL    HW228254   6.855   5.028   1.082
 9119SOL     OW28255   3.766   1.562   0.596
 9119SOL    HW128256   3.798   1.655   0.576
 9119SOL    HW228257   3.843   1.499   0.588
 9120SOL     OW28258   6.704   4.284   5.256
 9120SOL    HW128259   6.735   4.209   5.314
 9120SOL    HW228260   6.661   4.354   5.314
 9121SOL     OW28261   4.282   1.043   4.667
 9121SOL    HW128262   4.239   1.019   4.580
 9121SOL    HW228263   4.287   0.961   4.725
 9122SOL     OW28264   0.038   1.754   2.088
 9122SOL    HW128265   0.039   1.842   2.135
 9122SOL    HW228266   0.037   1.768   1.989
 9123SOL     OW28267   0.767   6.215   4.618
 9123SOL    HW128268   0.797   6.287   4.555
 9123SOL    HW228269   0.759   6.253   4.710
 9124SOL     OW28270   3.276   5.447   0.680
 9124SOL    HW128271   3.348   5.449   0.610
 9124SOL    HW228272   3.265   5.353   0.713
 9125SOL     OW28273   4.792   6.589   1.985
 9125SOL    HW128274   4.712   6.616   2.038
 9125SOL    HW228275   4.874   6.596   2.042
 9126SOL     OW28276   3.696   5.279   0.358
 9126SOL    HW128277   3.734   5.328   0.279
 9126SOL    HW228278   3.606   5.244   0.335
 9127SOL     OW28279   6.275   4.403   5.692
 9127SOL    HW128280   6.230   4.435   5.776
 9127SOL    HW228281   6.329   4.322   5.712
 9128SOL     OW28282   5.479   3.763   6.687
 9128SOL    HW128283   5.486   3.663   6.691
 9128SOL    HW228284   5.538   3.797   6.614
 9129SOL     OW28285   0.826   2.938   1.566
 9129SOL    HW128286   0.758   3.005   1.537
 9129SOL    HW228287   0.916   2.964   1.529
 9130SOL     OW28288   2.955   3.804   6.112
 9130SOL    HW128289   3.053   3.799   6.127
 9130SOL    HW228290   2.926   3.729   6.052
 9131SOL     OW28291   6.307   3.453   1.047
 9131SOL    HW128292   6.366   3.376   1.023
 9131SOL    HW228293   6.220   3.444   0.999
 9132SOL     OW28294   0.775   4.281   4.045
 9132SOL    HW128295   0.782   4.339   4.126
 9132SOL    HW228296   0.848   4.305   3.981
 9133SOL     OW28297   5.171   6.830   0.449
 9133SOL    HW128298   5.161   6.777   0.534
 9133SOL    HW228299   5.196   6.768   0.374
 9134SOL     OW28300   4.951   4.254   6.877
 9134SOL    HW128301   5.048   4.266   6.895
 9134SOL    HW228302   4.938   4.195   6.797
 9135SOL     OW28303   6.896   5.365   2.447
 9135SOL    HW128304   6.972   5.391   2.506
 9135SOL    HW228305   6.828   5.438   2.445
 9136SOL     OW28306   0.357   5.128   6.663
 9136SOL    HW128307   0.423   5.053   6.655
 9136SOL    HW228308   0.265   5.092   6.650
 9137SOL     OW28309   5.567   5.394   6.102
 9137SOL    HW128310   5.474   5.358   6.101
 9137SOL    HW228311   5.602   5.398   6.008
 9138SOL     OW28312   1.627   3.906   6.160
 9138SOL    HW128313   1.546   3.901   6.217
 9138SOL    HW228314   1.705   3.867   6.209
 9139SOL     OW28315   0.668   6.654   0.914
 9139SOL    HW128316   0.595   6.689   0.972
 9139SOL    HW228317   0.629   6.621   0.828
 9140SOL     OW28318   0.507   3.974   2.987
 9140SOL    HW128319   0.566   3.956   2.908
 9140SOL    HW228320   0.480   3.887   3.029
 9141SOL     OW28321   0.412   6.156   4.342
 9141SOL    HW128322   0.470   6.113   4.273
 9141SOL    HW228323   0.382   6.245   4.309
 9142SOL     OW28324   1.486   5.328   3.362
 9142SOL    HW128325   1.537   5.320   3.277
 9142SOL    HW228326   1.391   5.303   3.346
 9143SOL     OW28327   5.104   3.290   2.322
 9143SOL    HW128328   5.198   3.293   2.289
 9143SOL    HW228329   5.042   3.267   2.247
 9144SOL     OW28330   2.340   4.426   5.115
 9144SOL    HW128331   2.372   4.506   5.165
 9144SOL    HW228332   2.326   4.451   5.019
 9145SOL     OW28333   2.964   5.945   6.645
 9145SOL    HW128334   3.057   5.913   6.662
 9145SOL    HW228335   2.935   5.919   6.553
 9146SOL     OW28336   5.236   1.769   4.492
 9146SOL    HW128337   5.241   1.868   4.491
 9146SOL    HW228338   5.289   1.731   4.416
 9147SOL     OW28339   4.493   0.071   6.328
 9147SOL    HW128340   4.437   0.027   6.398
 9147SOL    HW228341   4.489   0.170   6.340
 9148SOL     OW28342   3.412   5.536   2.535
 9148SOL    HW128343   3.462   5.477   2.471
 9148SOL    HW228344   3.477   5.589   2.590
 9149SOL     OW28345   1.291   3.993   1.363
 9149SOL    HW128346   1.205   4.001   1.313
 9149SOL    HW228347   1.334   3.905   1.343
 9150SOL     OW28348   3.810   3.565   6.564
 9150SOL    HW128349   3.894   3.615   6.540
 9150SOL    HW228350   3.759   3.618   6.632
 9151SOL     OW28351   2.156   3.978   3.709
 9151SOL    HW128352   2.171   4.065   3.662
 9151SOL    HW228353   2.120   3.911   3.644
 9152SOL     OW28354   1.794   5.253   1.706
 9152SOL    HW128355   1.821   5.228   1.614
 9152SOL    HW228356   1.794   5.172   1.765
 9153SOL     OW28357   0.621   3.643   0.351
 9153SOL    HW128358   0.658   3.690   0.271
 9153SOL    HW228359   0.523   3.660   0.358
 9154SOL     OW28360   4.570   5.169   2.798
 9154SOL    HW128361   4.660   5.128   2.811
 9154SOL    HW228362   4.499   5.100   2.815
 9155SOL     OW28363   0.648   6.565   2.877
 9155SOL    HW128364   0.640   6.552   2.778
 9155SOL    HW228365   0.587   6.502   2.923
 9156SOL     OW28366   6.655   4.458   5.658
 9156SOL    HW128367   6.662   4.558   5.665
 9156SOL    HW228368   6.741   4.420   5.626
 9157SOL     OW28369   1.818   4.899   5.067
 9157SOL    HW128370   1.815   4.975   5.002
 9157SOL    HW228371   1.822   4.935   5.160
 9158SOL     OW28372   0.015   2.544   3.849
 9158SOL    HW128373   6.992   2.455   3.830
 9158SOL    HW228374   0.045   2.546   3.945
 9159SOL     OW28375   2.281   0.968   3.289
 9159SOL    HW128376   2.191   0.963   3.246
 9159SOL    HW228377   2.290   0.895   3.356
 9160SOL     OW28378   0.557   3.481   6.513
 9160SOL    HW128379   0.497   3.411   6.553
 9160SOL    HW228380   0.541   3.486   6.414
 9161SOL     OW28381   5.701   3.091   2.766
 9161SOL    HW128382   5.657   3.057   2.683
 9161SOL    HW228383   5.654   3.173   2.798
 9162SOL     OW28384   5.248   2.154   1.848
 9162SOL    HW128385   5.308   2.182   1.773
 9162SOL    HW228386   5.163   2.117   1.810
 9163SOL     OW28387   1.895   3.502   3.100
 9163SOL    HW128388   1.873   3.556   3.019
 9163SOL    HW228389   1.912   3.407   3.073
 9164SOL     OW28390   3.705   0.848   0.547
 9164SOL    HW128391   3.743   0.756   0.556
 9164SOL    HW228392   3.690   0.887   0.638
 9165SOL     OW28393   6.695   0.073   6.575
 9165SOL    HW128394   6.725   7.000   6.550
 9165SOL    HW228395   6.696   0.083   6.675
 9166SOL     OW28396   4.066   5.682   2.096
 9166SOL    HW128397   4.048   5.780   2.087
 9166SOL    HW228398   3.984   5.636   2.132
 9167SOL     OW28399   0.769   2.686   4.885
 9167SOL    HW128400   0.854   2.717   4.927
 9167SOL    HW228401   0.789   2.615   4.817
 9168SOL     OW28402   5.617   5.767   4.573
 9168SOL    HW128403   5.579   5.836   4.634
 9168SOL    HW228404   5.633   5.807   4.483
 9169SOL     OW28405   5.892   5.865   0.365
 9169SOL    HW128406   5.968   5.898   0.422
 9169SOL    HW228407   5.927   5.841   0.275
 9170SOL     OW28408   1.347   0.189   5.446
 9170SOL    HW128409   1.407   0.148   5.378
 9170SOL    HW228410   1.393   0.191   5.534
 9171SOL     OW28411   4.710   5.882   6.892
 9171SOL    HW128412   4.666   5.887   6.982
 9171SOL    HW228413   4.770   5.801   6.889
 9172SOL     OW28414   5.349   0.599   6.193
 9172SOL    HW128415   5.395   0.538   6.258
 9172SOL    HW228416   5.343   0.555   6.104
 9173SOL     OW28417   5.892   3.871   6.918
 9173SOL    HW128418   5.860   3.841   7.009
 9173SOL    HW228419   5.976   3.822   6.895
 9174SOL     OW28420   6.113   5.123   0.204
 9174SOL    HW128421   6.112   5.154   0.109
 9174SOL    HW228422   6.038   5.058   0.218
 9175SOL     OW28423   2.181   1.084   1.315
 9175SOL    HW128424   2.097   1.081   1.262
 9175SOL    HW228425   2.253   1.128   1.261
 9176SOL     OW28426   1.404   6.878   2.405
 9176SOL    HW128427   1.439   6.787   2.428
 9176SOL    HW228428   1.411   6.893   2.306
 9177SOL     OW28429   0.518   5.762   3.574
 9177SOL    HW128430   0.522   5.784   3.672
 9177SOL    HW228431   0.455   5.686   3.560
 9178SOL     OW28432   1.057   3.600   0.905
 9178SOL    HW128433   1.017   3.510   0.886
 9178SOL    HW228434   1.078   3.646   0.818
 9179SOL     OW28435   3.982   6.006   2.917
 9179SOL    HW128436   3.959   6.103   2.918
 9179SOL    HW228437   3.980   5.972   2.822
 9180SOL     OW28438   0.218   1.282   4.904
 9180SOL    HW128439   0.195   1.185   4.897
 9180SOL    HW228440   0.309   1.292   4.943
 9181SOL     OW28441   3.405   1.911   3.087
 9181SOL    HW128442   3.386   1.845   3.159
 9181SOL    HW228443   3.400   1.866   2.998
 9182SOL     OW28444   6.633   1.427   3.093
 9182SOL    HW128445   6.605   1.517   3.061
 9182SOL    HW228446   6.733   1.420   3.090
 9183SOL     OW28447   3.229   1.855   5.585
 9183SOL    HW128448   3.197   1.931   5.642
 9183SOL    HW228449   3.170   1.846   5.505
 9184SOL     OW28450   2.667   5.952   0.903
 9184SOL    HW128451   2.641   5.863   0.941
 9184SOL    HW228452   2.766   5.962   0.908
 9185SOL     OW28453   0.291   1.232   5.342
 9185SOL    HW128454   0.256   1.186   5.423
 9185SOL    HW228455   0.370   1.289   5.367
 9186SOL     OW28456   5.374   6.548   6.006
 9186SOL    HW128457   5.426   6.613   6.062
 9186SOL    HW228458   5.276   6.564   6.018
 9187SOL     OW28459   5.036   3.432   1.269
 9187SOL    HW128460   5.103   3.411   1.197
 9187SOL    HW228461   4.972   3.501   1.235
 9188SOL     OW28462   1.003   1.081   2.564
 9188SOL    HW128463   0.927   1.094   2.628
 9188SOL    HW228464   0.970   1.093   2.470
 9189SOL     OW28465   2.937   0.561   6.863
 9189SOL    HW128466   2.878   0.508   6.926
 9189SOL    HW228467   3.011   0.604   6.915
 9190SOL     OW28468   3.478   1.342   5.705
 9190SOL    HW128469   3.569   1.385   5.706
 9190SOL    HW228470   3.426   1.373   5.785
 9191SOL     OW28471   5.022   0.137   1.704
 9191SOL    HW128472   4.946   0.194   1.735
 9191SOL    HW228473   5.043   0.159   1.609
 9192SOL     OW28474   4.210   4.772   4.190
 9192SOL    HW128475   4.213   4.678   4.224
 9192SOL    HW228476   4.302   4.809   4.186
 9193SOL     OW28477   4.071   3.900   2.110
 9193SOL    HW128478   4.144   3.964   2.131
 9193SOL    HW228479   3.983   3.947   2.116
 9194SOL     OW28480   2.868   5.543   3.676
 9194SOL    HW128481   2.922   5.602   3.735
 9194SOL    HW228482   2.828   5.469   3.730
 9195SOL     OW28483   0.380   3.385   3.507
 9195SOL    HW128484   0.436   3.466   3.520
 9195SOL    HW228485   0.383   3.328   3.590
 9196SOL     OW28486   5.704   5.305   3.565
 9196SOL    HW128487   5.697   5.247   3.484
 9196SOL    HW228488   5.686   5.400   3.540
 9197SOL     OW28489   4.083   2.198   6.549
 9197SOL    HW128490   4.055   2.263   6.620
 9197SOL    HW228491   4.003   2.170   6.496
 9198SOL     OW28492   6.421   2.567   4.594
 9198SOL    HW128493   6.376   2.573   4.683
 9198SOL    HW228494   6.502   2.509   4.601
 9199SOL     OW28495   0.941   3.639   0.004
 9199SOL    HW128496   0.962   3.541   0.015
 9199SOL    HW228497   1.019   3.684   6.980
 9200SOL     OW28498   4.417   5.920   2.120
 9200SOL    HW128499   4.388   5.938   2.213
 9200SOL    HW228500   4.367   5.979   2.056
 9201SOL     OW28501   0.206   2.591   2.364
 9201SOL    HW128502   0.256   2.631   2.288
 9201SOL    HW228503   0.112   2.571   2.335
 9202SOL     OW28504   1.676   5.935   3.179
 9202SOL    HW128505   1.666   5.848   3.226
 9202SOL    HW228506   1.648   6.009   3.240
 9203SOL     OW28507   5.318   2.176   0.493
 9203SOL    HW128508   5.234   2.230   0.497
 9203SOL    HW228509   5.372   2.192   0.576
 9204SOL     OW28510   4.513   4.632   1.347
 9204SOL    HW128511   4.537   4.547   1.299
 9204SOL    HW228512   4.594   4.688   1.359
 9205SOL     OW28513   4.161   2.504   0.700
 9205SOL    HW128514   4.135   2.431   0.764
 9205SOL    HW228515   4.093   2.577   0.704
 9206SOL     OW28516   6.660   0.508   5.127
 9206SOL    HW128517   6.689   0.416   5.153
 9206SOL    HW228518   6.663   0.517   5.028
 9207SOL     OW28519   5.932   6.238   0.625
 9207SOL    HW128520   5.899   6.281   0.541
 9207SOL    HW228521   5.973   6.149   0.603
 9208SOL     OW28522   6.017   4.253   1.606
 9208SOL    HW128523   6.016   4.191   1.684
 9208SOL    HW228524   5.950   4.224   1.539
 9209SOL     OW28525   4.951   0.741   4.732
 9209SOL    HW128526   5.033   0.714   4.783
 9209SOL    HW228527   4.886   0.785   4.795
 9210SOL     OW28528   1.647   6.909   0.313
 9210SOL    HW128529   1.690   6.819   0.325
 9210SOL    HW228530   1.570   6.917   0.376
 9211SOL     OW28531   5.425   1.171   6.206
 9211SOL    HW128532   5.364   1.106   6.250
 9211SOL    HW228533   5.371   1.239   6.156
 9212SOL     OW28534   6.098   3.687   6.552
 9212SOL    HW128535   6.109   3.645   6.462
 9212SOL    HW228536   6.171   3.754   6.568
 9213SOL     OW28537   0.237   5.511   3.240
 9213SOL    HW128538   0.257   5.553   3.152
 9213SOL    HW228539   0.211   5.415   3.227
 9214SOL     OW28540   1.573   1.298   5.461
 9214SOL    HW128541   1.639   1.368   5.436
 9214SOL    HW228542   1.621   1.216   5.491
 9215SOL     OW28543   6.786   3.881   3.939
 9215SOL    HW128544   6.825   3.789   3.943
 9215SOL    HW228545   6.837   3.936   3.873
 9216SOL     OW28546   1.738   0.128   3.361
 9216SOL    HW128547   1.674   0.188   3.312
 9216SOL    HW228548   1.689   0.047   3.393
 9217SOL     OW28549   3.913   2.695   0.200
 9217SOL    HW128550   3.919   2.792   0.222
 9217SOL    HW228551   3.929   2.640   0.282
 9218SOL     OW28552   5.087   5.742   5.927
 9218SOL    HW128553   5.035   5.764   6.010
 9218SOL    HW228554   5.070   5.810   5.857
 9219SOL     OW28555   3.735   3.335   6.015
 9219SOL    HW128556   3.730   3.246   5.970
 9219SOL    HW228557   3.741   3.407   5.947
 9220SOL     OW28558   0.784   6.819   3.966
 9220SOL    HW128559   0.774   6.904   4.018
 9220SOL    HW228560   0.698   6.768   3.970
 9221SOL     OW28561   2.619   1.429   2.245
 9221SOL    HW128562   2.593   1.349   2.298
 9221SOL    HW228563   2.588   1.512   2.292
 9222SOL     OW28564   2.078   6.077   3.151
 9222SOL    HW128565   2.144   6.034   3.089
 9222SOL    HW228566   2.042   6.008   3.214
 9223SOL     OW28567   6.086   2.334   4.735
 9223SOL    HW128568   6.091   2.319   4.636
 9223SOL    HW228569   6.150   2.406   4.761
 9224SOL     OW28570   1.860   5.737   2.620
 9224SOL    HW128571   1.880   5.778   2.531
 9224SOL    HW228572   1.925   5.772   2.687
 9225SOL     OW28573   0.442   5.953   5.392
 9225SOL    HW128574   0.413   5.948   5.296
 9225SOL    HW228575   0.459   5.861   5.426
 9226SOL     OW28576   0.781   6.871   4.708
 9226SOL    HW128577   0.858   6.874   4.644
 9226SOL    HW228578   0.697   6.893   4.659
 9227SOL     OW28579   4.540   2.733   0.633
 9227SOL    HW128580   4.571   2.656   0.577
 9227SOL    HW228581   4.539   2.706   0.729
 9228SOL     OW28582   3.852   3.549   4.392
 9228SOL    HW128583   3.781   3.619   4.396
 9228SOL    HW228584   3.824   3.477   4.329
 9229SOL     OW28585   0.657   6.123   1.258
 9229SOL    HW128586   0.676   6.127   1.160
 9229SOL    HW228587   0.572   6.173   1.277
 9230SOL     OW28588   3.522   0.171   5.897
 9230SOL    HW128589   3.608   0.220   5.911
 9230SOL    HW228590   3.474   0.209   5.819
 9231SOL     OW28591   5.697   6.655   1.775
 9231SOL    HW128592   5.616   6.609   1.813
 9231SOL    HW228593   5.682   6.674   1.678
 9232SOL     OW28594   1.213   5.180   2.009
 9232SOL    HW128595   1.125   5.224   1.992
 9232SOL    HW228596   1.250   5.145   1.922
 9233SOL     OW28597   1.333   0.066   5.988
 9233SOL    HW128598   1.429   0.060   5.961
 9233SOL    HW228599   1.327   0.109   6.078
 9234SOL     OW28600   3.334   3.977   6.949
 9234SOL    HW128601   3.246   4.004   6.988
 9234SOL    HW228602   3.394   4.057   6.943
 9235SOL     OW28603   1.926   2.551   2.676
 9235SOL    HW128604   1.954   2.456   2.686
 9235SOL    HW228605   1.867   2.577   2.752
 9236SOL     OW28606   1.727   4.129   6.421
 9236SOL    HW128607   1.640   4.081   6.408
 9236SOL    HW228608   1.770   4.145   6.332
 9237SOL     OW28609   6.710   5.669   3.858
 9237SOL    HW128610   6.790   5.715   3.819
 9237SOL    HW228611   6.735   5.575   3.882
 9238SOL     OW28612   2.114   2.815   4.920
 9238SOL    HW128613   2.096   2.783   5.013
 9238SOL    HW228614   2.112   2.915   4.919
 9239SOL     OW28615   2.053   6.029   6.235
 9239SOL    HW128616   2.093   6.120   6.242
 9239SOL    HW228617   1.966   6.027   6.284
 9240SOL     OW28618   3.779   1.393   5.023
 9240SOL    HW128619   3.712   1.396   5.096
 9240SOL    HW228620   3.733   1.374   4.936
 9241SOL     OW28621   5.197   6.382   0.102
 9241SOL    HW128622   5.267   6.362   0.171
 9241SOL    HW228623   5.237   6.370   0.011
 9242SOL     OW28624   2.527   2.513   7.001
 9242SOL    HW128625   2.476   2.509   6.914
 9242SOL    HW228626   2.491   2.443   0.044
 9243SOL     OW28627   2.158   0.174   0.363
 9243SOL    HW128628   2.195   0.109   0.428
 9243SOL    HW228629   2.114   0.250   0.412
 9244SOL     OW28630   3.103   6.403   6.374
 9244SOL    HW128631   3.077   6.421   6.469
 9244SOL    HW228632   3.193   6.443   6.357
 9245SOL     OW28633   0.556   3.995   3.451
 9245SOL    HW128634   0.610   4.043   3.520
 9245SOL    HW228635   0.554   4.049   3.367
 9246SOL     OW28636   4.936   1.281   6.647
 9246SOL    HW128637   4.936   1.323   6.738
 9246SOL    HW228638   4.852   1.307   6.598
 9247SOL     OW28639   3.081   6.347   2.791
 9247SOL    HW128640   3.015   6.317   2.861
 9247SOL    HW228641   3.045   6.427   2.744
 9248SOL     OW28642   2.689   0.064   6.285
 9248SOL    HW128643   2.721   6.999   6.242
 9248SOL    HW228644   2.724   0.069   6.379
 9249SOL     OW28645   3.103   1.774   0.450
 9249SOL    HW128646   3.018   1.805   0.408
 9249SOL    HW228647   3.087   1.690   0.501
 9250SOL     OW28648   0.966   3.403   1.490
 9250SOL    HW128649   1.065   3.409   1.476
 9250SOL    HW228650   0.948   3.365   1.581
 9251SOL     OW28651   4.211   1.230   0.924
 9251SOL    HW128652   4.238   1.153   0.866
 9251SOL    HW228653   4.232   1.316   0.878
 9252SOL     OW28654   5.355   1.407   4.870
 9252SOL    HW128655   5.378   1.457   4.786
 9252SOL    HW228656   5.356   1.309   4.851
 9253SOL     OW28657   2.416   5.432   3.630
 9253SOL    HW128658   2.356   5.365   3.585
 9253SOL    HW228659   2.438   5.401   3.722
 9254SOL     OW28660   6.430   5.829   2.207
 9254SOL    HW128661   6.491   5.908   2.215
 9254SOL    HW228662   6.449   5.781   2.121
 9255SOL     OW28663   0.607   3.066   1.500
 9255SOL    HW128664   0.510   3.050   1.521
 9255SOL    HW228665   0.637   3.152   1.541
 9256SOL     OW28666   1.884   6.370   1.291
 9256SOL    HW128667   1.880   6.435   1.215
 9256SOL    HW228668   1.949   6.403   1.360
 9257SOL     OW28669   6.717   6.444   5.490
 9257SOL    HW128670   6.778   6.469   5.414
 9257SOL    HW228671   6.706   6.345   5.493
 9258SOL     OW28672   4.995   3.708   3.161
 9258SOL    HW128673   5.083   3.737   3.123
 9258SOL    HW228674   4.936   3.788   3.172
 9259SOL     OW28675   1.085   3.110   6.429
 9259SOL    HW128676   1.013   3.086   6.364
 9259SOL    HW228677   1.161   3.046   6.419
 9260SOL     OW28678   5.007   4.998   5.246
 9260SOL    HW128679   5.090   4.947   5.269
 9260SOL    HW228680   5.023   5.053   5.164
 9261SOL     OW28681   1.609   2.838   1.143
 9261SOL    HW128682   1.601   2.739   1.153
 9261SOL    HW228683   1.680   2.859   1.076
 9262SOL     OW28684   6.626   6.486   5.969
 9262SOL    HW128685   6.675   6.409   6.011
 9262SOL    HW228686   6.535   6.495   6.011
 9263SOL     OW28687   2.418   4.591   2.772
 9263SOL    HW128688   2.385   4.505   2.811
 9263SOL    HW228689   2.349   4.626   2.708
 9264SOL     OW28690   6.051   3.794   5.516
 9264SOL    HW128691   6.110   3.836   5.448
 9264SOL    HW228692   6.020   3.864   5.580
 9265SOL     OW28693   4.410   0.365   1.854
 9265SOL    HW128694   4.413   0.265   1.848
 9265SOL    HW228695   4.443   0.404   1.768
 9266SOL     OW28696   0.250   4.687   0.793
 9266SOL    HW128697   0.190   4.691   0.713
 9266SOL    HW228698   0.194   4.681   0.876
 9267SOL     OW28699   6.595   1.149   3.103
 9267SOL    HW128700   6.522   1.135   3.169
 9267SOL    HW228701   6.600   1.247   3.080
 9268SOL     OW28702   0.145   0.007   1.038
 9268SOL    HW128703   0.121   0.083   1.098
 9268SOL    HW228704   0.245   7.016   1.036
 9269SOL     OW28705   3.528   5.986   1.323
 9269SOL    HW128706   3.453   6.043   1.358
 9269SOL    HW228707   3.523   5.895   1.363
 9270SOL     OW28708   2.041   1.508   5.335
 9270SOL    HW128709   2.084   1.419   5.317
 9270SOL    HW228710   2.021   1.552   5.247
 9271SOL     OW28711   1.312   4.964   5.562
 9271SOL    HW128712   1.346   5.057   5.572
 9271SOL    HW228713   1.215   4.960   5.585
 9272SOL     OW28714   6.391   6.721   6.175
 9272SOL    HW128715   6.423   6.784   6.105
 9272SOL    HW228716   6.299   6.746   6.204
 9273SOL     OW28717   6.588   4.079   3.479
 9273SOL    HW128718   6.515   4.087   3.410
 9273SOL    HW228719   6.663   4.025   3.441
 9274SOL     OW28720   6.916   3.230   1.173
 9274SOL    HW128721   6.869   3.297   1.115
 9274SOL    HW228722   7.010   3.261   1.190
 9275SOL     OW28723   4.969   1.891   0.207
 9275SOL    HW128724   4.898   1.932   0.265
 9275SOL    HW228725   4.984   1.796   0.236
 9276SOL     OW28726   1.225   4.159   0.337
 9276SOL    HW128727   1.312   4.207   0.324
 9276SOL    HW228728   1.193   4.124   0.250
 9277SOL     OW28729   3.421   5.997   3.058
 9277SOL    HW128730   3.504   6.052   3.071
 9277SOL    HW228731   3.416   5.968   2.962
 9278SOL     OW28732   1.508   0.004   4.630
 9278SOL    HW128733   1.543   6.945   4.682
 9278SOL    HW228734   1.581   0.040   4.571
 9279SOL     OW28735   3.837   6.120   1.716
 9279SOL    HW128736   3.746   6.094   1.684
 9279SOL    HW228737   3.883   6.041   1.756
 9280SOL     OW28738   1.133   4.687   1.662
 9280SOL    HW128739   1.222   4.678   1.616
 9280SOL    HW228740   1.062   4.705   1.594
 9281SOL     OW28741   1.433   5.885   0.633
 9281SOL    HW128742   1.532   5.888   0.624
 9281SOL    HW228743   1.404   5.790   0.646
 9282SOL     OW28744   1.823   1.000   3.419
 9282SOL    HW128745   1.897   1.067   3.412
 9282SOL    HW228746   1.781   0.988   3.329
 9283SOL     OW28747   5.854   4.915   6.222
 9283SOL    HW128748   5.804   4.890   6.139
 9283SOL    HW228749   5.843   4.843   6.290
 9284SOL     OW28750   3.759   6.350   1.385
 9284SOL    HW128751   3.830   6.317   1.324
 9284SOL    HW228752   3.771   6.309   1.476
 9285SOL     OW28753   6.901   5.672   3.189
 9285SOL    HW128754   6.985   5.688   3.240
 9285SOL    HW228755   6.874   5.756   3.142
 9286SOL     OW28756   5.455   5.948   1.638
 9286SOL    HW128757   5.367   5.909   1.662
 9286SOL    HW228758   5.498   5.988   1.719
 9287SOL     OW28759   4.580   4.475   0.735
 9287SOL    HW128760   4.587   4.418   0.817
 9287SOL    HW228761   4.502   4.444   0.680
 9288SOL     OW28762   3.603   0.990   3.212
 9288SOL    HW128763   3.570   1.063   3.152
 9288SOL    HW228764   3.531   0.965   3.277
 9289SOL     OW28765   4.261   5.990   2.346
 9289SOL    HW128766   4.249   5.927   2.422
 9289SOL    HW228767   4.318   6.067   2.375
 9290SOL     OW28768   5.600   0.607   3.481
 9290SOL    HW128769   5.559   0.528   3.526
 9290SOL    HW228770   5.628   0.583   3.389
 9291SOL     OW28771   0.082   4.993   5.490
 9291SOL    HW128772   0.112   5.008   5.396
 9291SOL    HW228773   0.155   4.948   5.541
 9292SOL     OW28774   1.616   2.194   0.024
 9292SOL    HW128775   1.710   2.170   0.049
 9292SOL    HW228776   1.603   2.292   0.035
 9293SOL     OW28777   4.075   1.253   6.082
 9293SOL    HW128778   4.085   1.347   6.048
 9293SOL    HW228779   4.164   1.220   6.112
 9294SOL     OW28780   5.605   6.088   5.909
 9294SOL    HW128781   5.609   6.089   6.009
 9294SOL    HW228782   5.698   6.091   5.872
 9295SOL     OW28783   6.149   0.255   2.827
 9295SOL    HW128784   6.062   0.225   2.867
 9295SOL    HW228785   6.223   0.197   2.861
 9296SOL     OW28786   2.575   3.129   5.752
 9296SOL    HW128787   2.555   3.191   5.676
 9296SOL    HW228788   2.670   3.139   5.779
 9297SOL     OW28789   6.938   5.445   1.881
 9297SOL    HW128790   6.926   5.420   1.977
 9297SOL    HW228791   6.982   5.369   1.832
 9298SOL     OW28792   6.782   4.893   0.030
 9298SOL    HW128793   6.794   4.837   6.968
 9298SOL    HW228794   6.690   4.931   0.031
 9299SOL     OW28795   3.323   2.044   4.126
 9299SOL    HW128796   3.395   2.085   4.182
 9299SOL    HW228797   3.234   2.066   4.165
 9300SOL     OW28798   2.712   5.906   5.910
 9300SOL    HW128799   2.810   5.905   5.932
 9300SOL    HW228800   2.696   5.849   5.830
 9301SOL     OW28801   0.195   3.326   4.197
 9301SOL    HW128802   0.162   3.308   4.290
 9301SOL    HW228803   0.201   3.240   4.146
 9302SOL     OW28804   3.077   6.112   4.012
 9302SOL    HW128805   3.100   6.127   4.108
 9302SOL    HW228806   3.017   6.032   4.005
 9303SOL     OW28807   3.054   3.863   6.811
 9303SOL    HW128808   3.063   3.934   6.741
 9303SOL    HW228809   2.964   3.820   6.802
 9304SOL     OW28810   6.054   5.518   6.581
 9304SOL    HW128811   6.022   5.428   6.551
 9304SOL    HW228812   6.119   5.553   6.514
 9305SOL     OW28813   2.490   1.986   0.899
 9305SOL    HW128814   2.416   1.969   0.964
 9305SOL    HW228815   2.523   1.899   0.862
 9306SOL     OW28816   6.624   6.279   3.882
 9306SOL    HW128817   6.563   6.201   3.867
 9306SOL    HW228818   6.640   6.291   3.980
 9307SOL     OW28819   1.498   4.179   0.702
 9307SOL    HW128820   1.546   4.242   0.641
 9307SOL    HW228821   1.564   4.121   0.749
 9308SOL     OW28822   2.340   3.295   0.957
 9308SOL    HW128823   2.388   3.379   0.980
 9308SOL    HW228824   2.289   3.262   1.036
 9309SOL     OW28825   3.428   5.096   6.220
 9309SOL    HW128826   3.366   5.167   6.186
 9309SOL    HW228827   3.479   5.130   6.299
 9310SOL     OW28828   6.318   6.463   5.901
 9310SOL    HW128829   6.252   6.440   5.830
 9310SOL    HW228830   6.365   6.548   5.877
 9311SOL     OW28831   5.710   4.669   6.924
 9311SOL    HW128832   5.735   4.634   7.014
 9311SOL    HW228833   5.772   4.633   6.855
 9312SOL     OW28834   6.312   3.599   3.968
 9312SOL    HW128835   6.262   3.619   4.052
 9312SOL    HW228836   6.250   3.554   3.903
 9313SOL     OW28837   0.689   0.437   1.808
 9313SOL    HW128838   0.651   0.369   1.871
 9313SOL    HW228839   0.713   0.520   1.858
 9314SOL     OW28840   5.388   4.899   1.555
 9314SOL    HW128841   5.352   4.817   1.598
 9314SOL    HW228842   5.349   4.980   1.599
 9315SOL     OW28843   5.396   5.535   5.750
 9315SOL    HW128844   5.436   5.624   5.726
 9315SOL    HW228845   5.332   5.547   5.826
 9316SOL     OW28846   5.652   5.566   6.833
 9316SOL    HW128847   5.664   5.487   6.893
 9316SOL    HW228848   5.656   5.650   6.887
 9317SOL     OW28849   2.672   6.915   3.138
 9317SOL    HW128850   2.743   6.924   3.208
 9317SOL    HW228851   2.695   6.841   3.076
 9318SOL     OW28852   3.336   0.300   3.495
 9318SOL    HW128853   3.331   0.289   3.594
 9318SOL    HW228854   3.301   0.218   3.450
 9319SOL     OW28855   3.945   2.284   0.723
 9319SOL    HW128856   3.988   2.304   0.635
 9319SOL    HW228857   3.894   2.364   0.754
 9320SOL     OW28858   6.499   6.746   6.758
 9320SOL    HW128859   6.429   6.722   6.824
 9320SOL    HW228860   6.474   6.832   6.713
 9321SOL     OW28861   1.453   2.153   4.559
 9321SOL    HW128862   1.548   2.182   4.560
 9321SOL    HW228863   1.422   2.142   4.465
 9322SOL     OW28864   5.583   3.713   0.325
 9322SOL    HW128865   5.540   3.633   0.283
 9322SOL    HW228866   5.512   3.776   0.357
 9323SOL     OW28867   0.879   2.738   4.619
 9323SOL    HW128868   0.907   2.806   4.688
 9323SOL    HW228869   0.960   2.698   4.577
 9324SOL     OW28870   1.054   4.505   1.265
 9324SOL    HW128871   1.016   4.492   1.357
 9324SOL    HW228872   1.019   4.434   1.204
 9325SOL     OW28873   0.096   4.524   2.844
 9325SOL    HW128874   0.142   4.490   2.762
 9325SOL    HW228875   0.117   4.464   2.921
 9326SOL     OW28876   4.013   4.739   0.964
 9326SOL    HW128877   4.088   4.761   1.027
 9326SOL    HW228878   3.929   4.728   1.016
 9327SOL     OW28879   1.868   1.730   3.267
 9327SOL    HW128880   1.783   1.754   3.220
 9327SOL    HW228881   1.926   1.810   3.274
 9328SOL     OW28882   0.933   0.498   3.602
 9328SOL    HW128883   0.874   0.570   3.566
 9328SOL    HW228884   0.970   0.444   3.526
 9329SOL     OW28885   1.445   5.059   5.974
 9329SOL    HW128886   1.425   5.028   6.067
 9329SOL    HW228887   1.359   5.081   5.928
 9330SOL     OW28888   0.920   6.268   0.952
 9330SOL    HW128889   0.865   6.185   0.957
 9330SOL    HW228890   0.972   6.268   0.866
 9331SOL     OW28891   2.406   5.344   4.691
 9331SOL    HW128892   2.336   5.272   4.694
 9331SOL    HW228893   2.385   5.409   4.618
 9332SOL     OW28894   6.285   5.848   0.551
 9332SOL    HW128895   6.370   5.876   0.506
 9332SOL    HW228896   6.306   5.812   0.642
 9333SOL     OW28897   1.144   5.750   0.876
 9333SOL    HW128898   1.151   5.826   0.940
 9333SOL    HW228899   1.231   5.701   0.873
 9334SOL     OW28900   0.499   6.125   0.484
 9334SOL    HW128901   0.409   6.116   0.443
 9334SOL    HW228902   0.555   6.188   0.430
 9335SOL     OW28903   0.038   3.981   0.771
 9335SOL    HW128904   0.077   4.006   0.682
 9335SOL    HW228905   6.981   4.042   0.793
 9336SOL     OW28906   3.882   5.459   5.741
 9336SOL    HW128907   3.859   5.432   5.647
 9336SOL    HW228908   3.799   5.483   5.790
 9337SOL     OW28909   3.220   1.796   4.628
 9337SOL    HW128910   3.130   1.819   4.590
 9337SOL    HW228911   3.283   1.773   4.554
 9338SOL     OW28912   4.083   6.942   1.208
 9338SOL    HW128913   4.070   6.929   1.109
 9338SOL    HW228914   4.089   6.852   1.252
 9339SOL     OW28915   0.386   3.580   4.515
 9339SOL    HW128916   0.413   3.484   4.520
 9339SOL    HW228917   0.413   3.626   4.599
 9340SOL     OW28918   2.565   4.617   2.123
 9340SOL    HW128919   2.646   4.593   2.070
 9340SOL    HW228920   2.545   4.714   2.112
 9341SOL     OW28921   5.276   5.629   1.555
 9341SOL    HW128922   5.250   5.691   1.628
 9341SOL    HW228923   5.376   5.615   1.556
 9342SOL     OW28924   3.106   0.538   4.882
 9342SOL    HW128925   3.152   0.490   4.956
 9342SOL    HW228926   3.042   0.476   4.836
 9343SOL     OW28927   5.395   3.875   1.349
 9343SOL    HW128928   5.450   3.863   1.432
 9343SOL    HW228929   5.330   3.950   1.362
 9344SOL     OW28930   5.562   6.373   4.940
 9344SOL    HW128931   5.512   6.288   4.922
 9344SOL    HW228932   5.536   6.408   5.030
 9345SOL     OW28933   6.908   4.645   6.161
 9345SOL    HW128934   6.863   4.708   6.224
 9345SOL    HW228935   7.005   4.665   6.156
 9346SOL     OW28936   5.040   0.800   1.946
 9346SOL    HW128937   5.045   0.755   2.035
 9346SOL    HW228938   5.070   0.895   1.956
 9347SOL     OW28939   4.476   6.752   1.967
 9347SOL    HW128940   4.453   6.843   2.003
 9347SOL    HW228941   4.512   6.761   1.874
 9348SOL     OW28942   2.574   5.142   1.803
 9348SOL    HW128943   2.624   5.137   1.717
 9348SOL    HW228944   2.637   5.163   1.878
 9349SOL     OW28945   0.322   4.878   1.244
 9349SOL    HW128946   0.290   4.834   1.328
 9349SOL    HW228947   0.279   4.968   1.235
 9350SOL     OW28948   6.357   0.361   6.864
 9350SOL    HW128949   6.399   0.284   6.911
 9350SOL    HW228950   6.301   0.328   6.789
 9351SOL     OW28951   4.500   4.093   6.145
 9351SOL    HW128952   4.409   4.060   6.119
 9351SOL    HW228953   4.561   4.015   6.159
 9352SOL     OW28954   2.455   1.919   6.909
 9352SOL    HW128955   2.472   1.860   6.988
 9352SOL    HW228956   2.358   1.944   6.906
 9353SOL     OW28957   1.103   2.990   2.312
 9353SOL    HW128958   1.026   3.009   2.374
 9353SOL    HW228959   1.160   3.072   2.303
 9354SOL     OW28960   5.710   2.116   2.368
 9354SOL    HW128961   5.795   2.078   2.332
 9354SOL    HW228962   5.642   2.121   2.295
 9355SOL     OW28963   0.323   1.681   2.158
 9355SOL    HW128964   0.363   1.632   2.081
 9355SOL    HW228965   0.255   1.747   2.125
 9356SOL     OW28966   4.442   2.454   2.103
 9356SOL    HW128967   4.372   2.522   2.126
 9356SOL    HW228968   4.417   2.366   2.141
 9357SOL     OW28969   2.209   4.374   0.004
 9357SOL    HW128970   2.208   4.455   6.965
 9357SOL    HW228971   2.225   4.293   6.968
 9358SOL     OW28972   5.362   4.485   3.098
 9358SOL    HW128973   5.318   4.409   3.146
 9358SOL    HW228974   5.324   4.492   3.006
 9359SOL     OW28975   4.223   5.059   5.296
 9359SOL    HW128976   4.188   4.973   5.333
 9359SOL    HW228977   4.152   5.104   5.243
 9360SOL     OW28978   1.070   0.263   5.666
 9360SOL    HW128979   1.013   0.345   5.669
 9360SOL    HW228980   1.031   0.197   5.602
 9361SOL     OW28981   1.339   1.217   2.447
 9361SOL    HW128982   1.318   1.138   2.504
 9361SOL    HW228983   1.338   1.191   2.351
 9362SOL     OW28984   1.172   1.581   3.049
 9362SOL    HW128985   1.163   1.660   2.987
 9362SOL    HW228986   1.248   1.524   3.018
 9363SOL     OW28987   1.405   6.151   2.295
 9363SOL    HW128988   1.444   6.132   2.205
 9363SOL    HW228989   1.479   6.170   2.360
 9364SOL     OW28990   5.391   4.117   0.957
 9364SOL    HW128991   5.441   4.123   0.870
 9364SOL    HW228992   5.337   4.201   0.970
 9365SOL     OW28993   2.118   1.742   4.391
 9365SOL    HW128994   2.182   1.755   4.316
 9365SOL    HW228995   2.168   1.729   4.477
 9366SOL     OW28996   3.024   1.299   1.425
 9366SOL    HW128997   3.101   1.362   1.410
 9366SOL    HW228998   2.973   1.328   1.506
 9367SOL     OW28999   5.378   6.731   4.311
 9367SOL    HW129000   5.389   6.796   4.235
 9367SOL    HW229001   5.299   6.672   4.293
 9368SOL     OW29002   5.776   2.812   0.903
 9368SOL    HW129003   5.828   2.842   0.983
 9368SOL    HW229004   5.713   2.739   0.930
 9369SOL     OW29005   0.130   1.871   5.280
 9369SOL    HW129006   0.201   1.911   5.223
 9369SOL    HW229007   0.173   1.829   5.361
 9370SOL     OW29008   5.616   5.761   2.058
 9370SOL    HW129009   5.632   5.763   2.157
 9370SOL    HW229010   5.699   5.791   2.011
 9371SOL     OW29011   1.957   6.717   0.421
 9371SOL    HW129012   1.939   6.619   0.417
 9371SOL    HW229013   1.962   6.754   0.328
 9372SOL     OW29014   5.604   5.279   0.593
 9372SOL    HW129015   5.602   5.376   0.571
 9372SOL    HW229016   5.516   5.251   0.630
 9373SOL     OW29017   4.781   2.947   4.234
 9373SOL    HW129018   4.757   2.858   4.194
 9373SOL    HW229019   4.730   2.961   4.319
 9374SOL     OW29020   5.544   3.824   6.931
 9374SOL    HW129021   5.491   3.795   6.851
 9374SOL    HW229022   5.600   3.903   6.906
 9375SOL     OW29023   6.456   6.903   4.527
 9375SOL    HW129024   6.461   6.914   4.428
 9375SOL    HW229025   6.364   6.928   4.558
 9376SOL     OW29026   2.612   3.395   1.766
 9376SOL    HW129027   2.604   3.309   1.717
 9376SOL    HW229028   2.524   3.417   1.809
 9377SOL     OW29029   6.842   4.356   3.838
 9377SOL    HW129030   6.782   4.296   3.785
 9377SOL    HW229031   6.928   4.309   3.856
 9378SOL     OW29032   4.435   6.045   1.083
 9378SOL    HW129033   4.476   6.110   1.019
 9378SOL    HW229034   4.398   5.967   1.033
 9379SOL     OW29035   4.652   4.790   5.423
 9379SOL    HW129036   4.677   4.694   5.437
 9379SOL    HW229037   4.566   4.809   5.469
 9380SOL     OW29038   6.833   5.502   5.542
 9380SOL    HW129039   6.820   5.543   5.452
 9380SOL    HW229040   6.931   5.500   5.564
 9381SOL     OW29041   0.823   0.844   0.392
 9381SOL    HW129042   0.821   0.820   0.295
 9381SOL    HW229043   0.863   0.934   0.404
 9382SOL     OW29044   5.711   1.943   2.582
 9382SOL    HW129045   5.699   2.024   2.524
 9382SOL    HW229046   5.789   1.957   2.643
 9383SOL     OW29047   6.781   5.173   6.781
 9383SOL    HW129048   6.763   5.225   6.864
 9383SOL    HW229049   6.871   5.129   6.787
 9384SOL     OW29050   3.848   6.919   2.585
 9384SOL    HW129051   3.798   6.833   2.573
 9384SOL    HW229052   3.927   6.920   2.523
 9385SOL     OW29053   3.832   6.345   3.592
 9385SOL    HW129054   3.921   6.390   3.604
 9385SOL    HW229055   3.776   6.362   3.673
 9386SOL     OW29056   3.363   0.211   4.890
 9386SOL    HW129057   3.434   0.148   4.923
 9386SOL    HW229058   3.406   0.298   4.866
 9387SOL     OW29059   4.901   5.942   0.606
 9387SOL    HW129060   4.895   5.895   0.517
 9387SOL    HW229061   4.853   6.029   0.600
 9388SOL     OW29062   6.644   6.852   1.674
 9388SOL    HW129063   6.616   6.885   1.584
 9388SOL    HW229064   6.616   6.917   1.744
 9389SOL     OW29065   3.285   1.032   0.468
 9389SOL    HW129066   3.293   1.128   0.442
 9389SOL    HW229067   3.247   1.026   0.560
 9390SOL     OW29068   3.649   5.627   1.017
 9390SOL    HW129069   3.717   5.667   1.078
 9390SOL    HW229070   3.558   5.658   1.043
 9391SOL     OW29071   5.834   0.575   3.906
 9391SOL    HW129072   5.780   0.620   3.834
 9391SOL    HW229073   5.919   0.539   3.866
 9392SOL     OW29074   0.809   6.825   5.279
 9392SOL    HW129075   0.775   6.811   5.372
 9392SOL    HW229076   0.908   6.840   5.281
 9393SOL     OW29077   4.521   1.674   5.856
 9393SOL    HW129078   4.464   1.683   5.774
 9393SOL    HW229079   4.462   1.677   5.937
 9394SOL     OW29080   6.304   1.592   2.192
 9394SOL    HW129081   6.361   1.671   2.216
 9394SOL    HW229082   6.310   1.523   2.264
 9395SOL     OW29083   1.886   2.674   6.682
 9395SOL    HW129084   1.822   2.746   6.709
 9395SOL    HW229085   1.870   2.593   6.738
 9396SOL     OW29086   0.257   1.126   5.899
 9396SOL    HW129087   0.330   1.108   5.966
 9396SOL    HW229088   0.215   1.040   5.872
 9397SOL     OW29089   2.026   1.887   1.102
 9397SOL    HW129090   1.992   1.793   1.099
 9397SOL    HW229091   1.954   1.949   1.072
 9398SOL     OW29092   2.716   1.622   1.854
 9398SOL    HW129093   2.782   1.563   1.901
 9398SOL    HW229094   2.634   1.571   1.833
 9399SOL     OW29095   0.298   0.844   5.567
 9399SOL    HW129096   0.264   0.761   5.524
 9399SOL    HW229097   0.397   0.851   5.552
 9400SOL     OW29098   3.763   1.324   3.932
 9400SOL    HW129099   3.714   1.355   3.850
 9400SOL    HW229100   3.730   1.375   4.012
 9401SOL     OW29101   4.226   6.523   4.202
 9401SOL    HW129102   4.252   6.619   4.213
 9401SOL    HW229103   4.210   6.482   4.292
 9402SOL     OW29104   2.524   4.575   5.955
 9402SOL    HW129105   2.585   4.511   6.000
 9402SOL    HW229106   2.571   4.617   5.877
 9403SOL     OW29107   5.759   0.076   4.265
 9403SOL    HW129108   5.725   0.092   4.173
 9403SOL    HW229109   5.806   7.007   4.269
 9404SOL     OW29110   1.673   4.476   4.992
 9404SOL    HW129111   1.750   4.491   4.929
 9404SOL    HW229112   1.640   4.563   5.027
 9405SOL     OW29113   0.485   0.712   1.424
 9405SOL    HW129114   0.524   0.629   1.466
 9405SOL    HW229115   0.554   0.755   1.366
 9406SOL     OW29116   6.542   1.470   4.662
 9406SOL    HW129117   6.561   1.484   4.760
 9406SOL    HW229118   6.615   1.414   4.622
 9407SOL     OW29119   3.415   5.546   3.376
 9407SOL    HW129120   3.359   5.571   3.297
 9407SOL    HW229121   3.504   5.590   3.368
 9408SOL     OW29122   3.730   2.211   6.581
 9408SOL    HW129123   3.730   2.279   6.507
 9408SOL    HW229124   3.803   2.233   6.646
 9409SOL     OW29125   6.280   3.783   3.724
 9409SOL    HW129126   6.377   3.790   3.703
 9409SOL    HW229127   6.269   3.766   3.822
 9410SOL     OW29128   4.253   6.872   1.749
 9410SOL    HW129129   4.247   6.803   1.821
 9410SOL    HW229130   4.296   6.833   1.668
 9411SOL     OW29131   5.593   5.136   2.121
 9411SOL    HW129132   5.531   5.068   2.081
 9411SOL    HW229133   5.687   5.111   2.102
 9412SOL     OW29134   6.979   2.027   3.490
 9412SOL    HW129135   6.960   2.105   3.431
 9412SOL    HW229136   0.023   1.965   3.444
 9413SOL     OW29137   3.765   5.542   3.211
 9413SOL    HW129138   3.849   5.559   3.159
 9413SOL    HW229139   3.780   5.466   3.274
 9414SOL     OW29140   2.305   0.258   2.170
 9414SOL    HW129141   2.238   0.196   2.130
 9414SOL    HW229142   2.312   0.341   2.115
 9415SOL     OW29143   1.362   0.024   2.171
 9415SOL    HW129144   1.279   0.016   2.117
 9415SOL    HW229145   1.354   0.101   2.234
 9416SOL     OW29146   1.358   2.058   1.369
 9416SOL    HW129147   1.388   2.152   1.356
 9416SOL    HW229148   1.384   2.027   1.461
 9417SOL     OW29149   1.177   0.473   4.863
 9417SOL    HW129150   1.179   0.506   4.957
 9417SOL    HW229151   1.248   0.404   4.850
 9418SOL     OW29152   4.340   4.236   0.994
 9418SOL    HW129153   4.324   4.161   1.058
 9418SOL    HW229154   4.325   4.202   0.900
 9419SOL     OW29155   2.555   5.917   3.896
 9419SOL    HW129156   2.484   5.848   3.887
 9419SOL    HW229157   2.645   5.873   3.897
 9420SOL     OW29158   1.987   0.626   3.181
 9420SOL    HW129159   2.053   0.692   3.217
 9420SOL    HW229160   1.932   0.590   3.256
 9421SOL     OW29161   1.667   4.978   5.508
 9421SOL    HW129162   1.636   5.046   5.575
 9421SOL    HW229163   1.638   4.887   5.536
 9422SOL     OW29164   3.893   1.054   3.050
 9422SOL    HW129165   3.823   1.084   3.115
 9422SOL    HW229166   3.960   1.127   3.037
 9423SOL     OW29167   4.551   6.896   4.694
 9423SOL    HW129168   4.471   6.840   4.670
 9423SOL    HW229169   4.540   6.933   4.786
 9424SOL     OW29170   3.116   5.758   3.327
 9424SOL    HW129171   3.024   5.719   3.331
 9424SOL    HW229172   3.131   5.816   3.407
 9425SOL     OW29173   0.721   5.423   2.500
 9425SOL    HW129174   0.638   5.368   2.492
 9425SOL    HW229175   0.800   5.363   2.517
 9426SOL     OW29176   3.439   5.933   0.675
 9426SOL    HW129177   3.500   5.857   0.698
 9426SOL    HW229178   3.405   5.975   0.759
 9427SOL     OW29179   2.626   5.147   4.007
 9427SOL    HW129180   2.559   5.104   4.067
 9427SOL    HW229181   2.717   5.109   4.027
 9428SOL     OW29182   4.567   6.680   2.451
 9428SOL    HW129183   4.493   6.744   2.432
 9428SOL    HW229184   4.528   6.594   2.485
 9429SOL     OW29185   0.436   3.515   2.929
 9429SOL    HW129186   0.486   3.432   2.953
 9429SOL    HW229187   0.339   3.492   2.914
 9430SOL     OW29188   6.504   6.608   1.775
 9430SOL    HW129189   6.424   6.636   1.722
 9430SOL    HW229190   6.582   6.667   1.751
 9431SOL     OW29191   6.738   4.627   0.403
 9431SOL    HW129192   6.671   4.626   0.477
 9431SOL    HW229193   6.826   4.661   0.437
 9432SOL     OW29194   6.667   6.981   4.092
 9432SOL    HW129195   6.597   6.996   4.022
 9432SOL    HW229196   6.757   7.004   4.055
 9433SOL     OW29197   2.742   5.554   3.931
 9433SOL    HW129198   2.819   5.586   3.987
 9433SOL    HW229199   2.658   5.600   3.961
 9434SOL     OW29200   6.411   4.645   3.307
 9434SOL    HW129201   6.433   4.581   3.381
 9434SOL    HW229202   6.452   4.734   3.327
 9435SOL     OW29203   2.395   2.367   5.395
 9435SOL    HW129204   2.396   2.319   5.307
 9435SOL    HW229205   2.489   2.395   5.418
 9436SOL     OW29206   3.696   1.714   5.654
 9436SOL    HW129207   3.721   1.619   5.674
 9436SOL    HW229208   3.772   1.759   5.607
 9437SOL     OW29209   0.556   6.047   4.549
 9437SOL    HW129210   0.514   6.110   4.483
 9437SOL    HW229211   0.646   6.081   4.576
 9438SOL     OW29212   0.286   6.426   1.788
 9438SOL    HW129213   0.208   6.379   1.746
 9438SOL    HW229214   0.286   6.408   1.887
 9439SOL     OW29215   1.720   3.112   1.113
 9439SOL    HW129216   1.710   3.081   1.208
 9439SOL    HW229217   1.735   3.032   1.054
 9440SOL     OW29218   3.170   5.988   3.466
 9440SOL    HW129219   3.124   6.057   3.522
 9440SOL    HW229220   3.262   5.973   3.502
 9441SOL     OW29221   1.320   5.588   5.553
 9441SOL    HW129222   1.312   5.633   5.464
 9441SOL    HW229223   1.235   5.600   5.605
 9442SOL     OW29224   0.881   3.724   1.087
 9442SOL    HW129225   0.954   3.700   1.022
 9442SOL    HW229226   0.833   3.805   1.054
 9443SOL     OW29227   1.606   2.301   1.228
 9443SOL    HW129228   1.587   2.276   1.133
 9443SOL    HW229229   1.520   2.320   1.276
 9444SOL     OW29230   1.304   4.389   5.717
 9444SOL    HW129231   1.398   4.356   5.713
 9444SOL    HW229232   1.304   4.487   5.735
 9445SOL     OW29233   5.919   2.364   2.163
 9445SOL    HW129234   5.951   2.299   2.095
 9445SOL    HW229235   5.977   2.359   2.245
 9446SOL     OW29236   5.794   4.586   0.157
 9446SOL    HW129237   5.740   4.534   0.224
 9446SOL    HW229238   5.860   4.526   0.113
 9447SOL     OW29239   5.960   0.927   1.758
 9447SOL    HW129240   5.870   0.970   1.752
 9447SOL    HW229241   5.956   0.835   1.719
 9448SOL     OW29242   5.963   6.203   0.320
 9448SOL    HW129243   5.927   6.151   0.243
 9448SOL    HW229244   6.042   6.155   0.358
 9449SOL     OW29245   5.722   5.575   4.962
 9449SOL    HW129246   5.800   5.637   4.953
 9449SOL    HW229247   5.698   5.540   4.871
 9450SOL     OW29248   2.196   6.063   3.812
 9450SOL    HW129249   2.108   6.109   3.824
 9450SOL    HW229250   2.238   6.048   3.902
 9451SOL     OW29251   4.012   3.964   5.247
 9451SOL    HW129252   3.991   4.050   5.201
 9451SOL    HW229253   4.102   3.969   5.290
 9452SOL     OW29254   3.729   4.354   0.455
 9452SOL    HW129255   3.789   4.334   0.377
 9452SOL    HW229256   3.634   4.347   0.426
 9453SOL     OW29257   3.849   5.932   1.289
 9453SOL    HW129258   3.805   6.019   1.315
 9453SOL    HW229259   3.817   5.904   1.199
 9454SOL     OW29260   2.064   2.393   5.894
 9454SOL    HW129261   2.118   2.332   5.834
 9454SOL    HW229262   2.027   2.468   5.839
 9455SOL     OW29263   1.827   2.216   2.110
 9455SOL    HW129264   1.847   2.147   2.040
 9455SOL    HW229265   1.729   2.214   2.132
 9456SOL     OW29266   1.216   3.035   0.226
 9456SOL    HW129267   1.263   3.122   0.238
 9456SOL    HW229268   1.232   3.000   0.134
 9457SOL     OW29269   6.004   3.640   0.200
 9457SOL    HW129270   6.073   3.670   0.135
 9457SOL    HW229271   5.967   3.719   0.249
 9458SOL     OW29272   1.250   5.970   3.902
 9458SOL    HW129273   1.321   5.934   3.963
 9458SOL    HW229274   1.294   6.021   3.828
 9459SOL     OW29275   4.281   6.360   0.462
 9459SOL    HW129276   4.274   6.283   0.526
 9459SOL    HW229277   4.365   6.411   0.480
 9460SOL     OW29278   1.576   3.931   5.594
 9460SOL    HW129279   1.536   3.979   5.517
 9460SOL    HW229280   1.524   3.952   5.677
 9461SOL     OW29281   1.327   0.389   2.679
 9461SOL    HW129282   1.305   0.303   2.725
 9461SOL    HW229283   1.250   0.416   2.622
 9462SOL     OW29284   0.533   3.132   3.682
 9462SOL    HW129285   0.553   3.220   3.726
 9462SOL    HW229286   0.616   3.099   3.637
 9463SOL     OW29287   5.124   2.361   6.247
 9463SOL    HW129288   5.036   2.374   6.201
 9463SOL    HW229289   5.180   2.443   6.236
 9464SOL     OW29290   4.041   6.404   6.472
 9464SOL    HW129291   4.051   6.323   6.530
 9464SOL    HW229292   4.121   6.415   6.414
 9465SOL     OW29293   4.438   6.117   4.446
 9465SOL    HW129294   4.366   6.071   4.394
 9465SOL    HW229295   4.398   6.193   4.497
 9466SOL     OW29296   3.393   1.940   6.686
 9466SOL    HW129297   3.477   1.933   6.740
 9466SOL    HW229298   3.319   1.973   6.743
 9467SOL     OW29299   1.498   2.962   2.165
 9467SOL    HW129300   1.592   2.978   2.137
 9467SOL    HW229301   1.443   2.934   2.086
 9468SOL     OW29302   0.563   2.445   5.800
 9468SOL    HW129303   0.514   2.363   5.829
 9468SOL    HW229304   0.629   2.471   5.871
 9469SOL     OW29305   0.327   4.176   2.438
 9469SOL    HW129306   0.312   4.269   2.473
 9469SOL    HW229307   0.293   4.109   2.503
 9470SOL     OW29308   6.834   3.697   1.738
 9470SOL    HW129309   6.894   3.751   1.678
 9470SOL    HW229310   6.858   3.600   1.730
 9471SOL     OW29311   0.318   2.600   5.797
 9471SOL    HW129312   0.411   2.568   5.812
 9471SOL    HW229313   0.320   2.692   5.757
 9472SOL     OW29314   6.689   2.148   5.354
 9472SOL    HW129315   6.631   2.070   5.329
 9472SOL    HW229316   6.765   2.155   5.290
 9473SOL     OW29317   2.479   5.202   5.426
 9473SOL    HW129318   2.543   5.126   5.438
 9473SOL    HW229319   2.391   5.167   5.392
 9474SOL     OW29320   3.856   5.531   3.799
 9474SOL    HW129321   3.885   5.623   3.771
 9474SOL    HW229322   3.879   5.516   3.895
 9475SOL     OW29323   2.018   3.245   1.399
 9475SOL    HW129324   2.012   3.155   1.442
 9475SOL    HW229325   2.025   3.234   1.300
 9476SOL     OW29326   2.538   3.654   5.471
 9476SOL    HW129327   2.618   3.662   5.413
 9476SOL    HW229328   2.478   3.733   5.457
 9477SOL     OW29329   0.946   2.059   0.366
 9477SOL    HW129330   0.998   2.141   0.343
 9477SOL    HW229331   0.914   2.064   0.460
 9478SOL     OW29332   5.661   3.545   6.296
 9478SOL    HW129333   5.654   3.611   6.221
 9478SOL    HW229334   5.715   3.584   6.370
 9479SOL     OW29335   5.454   4.689   5.201
 9479SOL    HW129336   5.407   4.620   5.255
 9479SOL    HW229337   5.550   4.662   5.188
 9480SOL     OW29338   6.857   3.510   6.264
 9480SOL    HW129339   6.923   3.453   6.214
 9480SOL    HW229340   6.889   3.604   6.266
 9481SOL     OW29341   0.335   2.351   2.747
 9481SOL    HW129342   0.342   2.406   2.664
 9481SOL    HW229343   0.327   2.254   2.723
 9482SOL     OW29344   4.626   1.057   2.123
 9482SOL    HW129345   4.645   0.994   2.048
 9482SOL    HW229346   4.615   1.005   2.208
 9483SOL     OW29347   1.431   1.141   0.726
 9483SOL    HW129348   1.335   1.148   0.699
 9483SOL    HW229349   1.481   1.221   0.694
 9484SOL     OW29350   6.130   0.356   3.516
 9484SOL    HW129351   6.184   0.376   3.434
 9484SOL    HW229352   6.042   0.403   3.510
 9485SOL     OW29353   0.260   0.060   2.882
 9485SOL    HW129354   0.268   0.137   2.945
 9485SOL    HW229355   0.352   0.031   2.854
 9486SOL     OW29356   2.915   6.886   2.108
 9486SOL    HW129357   2.922   6.979   2.071
 9486SOL    HW229358   2.822   6.869   2.138
 9487SOL     OW29359   3.211   3.351   3.382
 9487SOL    HW129360   3.274   3.407   3.328
 9487SOL    HW229361   3.252   3.332   3.471
 9488SOL     OW29362   1.651   0.846   1.745
 9488SOL    HW129363   1.715   0.878   1.814
 9488SOL    HW229364   1.699   0.834   1.658
 9489SOL     OW29365   3.009   4.714   0.404
 9489SOL    HW129366   3.056   4.749   0.485
 9489SOL    HW229367   2.967   4.626   0.425
 9490SOL     OW29368   4.926   1.614   0.193
 9490SOL    HW129369   4.828   1.630   0.187
 9490SOL    HW229370   4.967   1.619   0.101
 9491SOL     OW29371   5.658   6.088   6.179
 9491SOL    HW129372   5.601   6.098   6.261
 9491SOL    HW229373   5.730   6.021   6.197
 9492SOL     OW29374   2.548   4.922   1.298
 9492SOL    HW129375   2.629   4.869   1.322
 9492SOL    HW229376   2.530   4.989   1.370
 9493SOL     OW29377   5.221   6.329   2.800
 9493SOL    HW129378   5.304   6.337   2.854
 9493SOL    HW229379   5.146   6.379   2.844
 9494SOL     OW29380   3.818   3.282   6.562
 9494SOL    HW129381   3.801   3.229   6.645
 9494SOL    HW229382   3.823   3.379   6.584
 9495SOL     OW29383   5.632   2.583   4.178
 9495SOL    HW129384   5.578   2.664   4.152
 9495SOL    HW229385   5.719   2.612   4.216
 9496SOL     OW29386   6.531   4.563   6.998
 9496SOL    HW129387   6.591   4.485   7.015
 9496SOL    HW229388   6.535   4.626   0.056
 9497SOL     OW29389   1.139   6.306   6.073
 9497SOL    HW129390   1.154   6.388   6.128
 9497SOL    HW229391   1.130   6.227   6.134
 9498SOL     OW29392   4.310   6.963   6.503
 9498SOL    HW129393   4.295   6.901   6.581
 9498SOL    HW229394   4.238   6.949   6.435
 9499SOL     OW29395   4.872   3.966   5.749
 9499SOL    HW129396   4.891   3.982   5.846
 9499SOL    HW229397   4.814   3.886   5.739
 9500SOL     OW29398   4.632   5.850   0.837
 9500SOL    HW129399   4.640   5.929   0.897
 9500SOL    HW229400   4.577   5.875   0.757
 9501SOL     OW29401   3.378   1.632   5.098
 9501SOL    HW129402   3.347   1.623   5.193
 9501SOL    HW229403   3.478   1.642   5.096
 9502SOL     OW29404   3.443   3.417   5.606
 9502SOL    HW129405   3.371   3.360   5.566
 9502SOL    HW229406   3.422   3.513   5.591
 9503SOL     OW29407   1.190   6.863   1.823
 9503SOL    HW129408   1.225   6.871   1.729
 9503SOL    HW229409   1.262   6.826   1.882
 9504SOL     OW29410   0.316   3.083   0.732
 9504SOL    HW129411   0.320   2.992   0.690
 9504SOL    HW229412   0.405   3.127   0.724
 9505SOL     OW29413   5.321   3.534   2.960
 9505SOL    HW129414   5.229   3.512   2.929
 9505SOL    HW229415   5.330   3.633   2.968
 9506SOL     OW29416   6.451   2.233   1.445
 9506SOL    HW129417   6.534   2.288   1.439
 9506SOL    HW229418   6.399   2.240   1.360
 9507SOL     OW29419   1.453   3.045   4.922
 9507SOL    HW129420   1.472   3.044   5.020
 9507SOL    HW229421   1.531   3.007   4.872
 9508SOL     OW29422   4.839   1.291   5.737
 9508SOL    HW129423   4.876   1.364   5.679
 9508SOL    HW229424   4.907   1.219   5.747
 9509SOL     OW29425   3.551   7.013   6.117
 9509SOL    HW129426   3.532   0.059   6.044
 9509SOL    HW229427   3.624   6.951   6.089
 9510SOL     OW29428   6.619   3.962   2.979
 9510SOL    HW129429   6.626   4.061   2.970
 9510SOL    HW229430   6.524   3.934   2.967
 9511SOL     OW29431   2.293   1.608   1.235
 9511SOL    HW129432   2.216   1.622   1.297
 9511SOL    HW229433   2.377   1.594   1.288
 9512SOL     OW29434   1.487   4.125   5.401
 9512SOL    HW129435   1.522   4.189   5.333
 9512SOL    HW229436   1.401   4.159   5.438
 9513SOL     OW29437   2.545   4.527   4.333
 9513SOL    HW129438   2.508   4.442   4.370
 9513SOL    HW229439   2.605   4.570   4.400
 9514SOL     OW29440   3.242   2.806   5.587
 9514SOL    HW129441   3.271   2.815   5.491
 9514SOL    HW229442   3.164   2.745   5.593
 9515SOL     OW29443   2.280   5.741   5.468
 9515SOL    HW129444   2.270   5.643   5.486
 9515SOL    HW229445   2.189   5.782   5.461
 9516SOL     OW29446   5.969   4.389   4.752
 9516SOL    HW129447   5.910   4.433   4.684
 9516SOL    HW229448   6.050   4.352   4.708
 9517SOL     OW29449   0.792   5.182   2.743
 9517SOL    HW129450   0.714   5.238   2.769
 9517SOL    HW229451   0.828   5.212   2.655
 9518SOL     OW29452   1.302   2.982   5.821
 9518SOL    HW129453   1.348   2.991   5.732
 9518SOL    HW229454   1.367   2.944   5.888
 9519SOL     OW29455   3.173   3.548   3.616
 9519SOL    HW129456   3.076   3.526   3.628
 9519SOL    HW229457   3.181   3.637   3.570
 9520SOL     OW29458   5.295   0.909   6.696
 9520SOL    HW129459   5.215   0.961   6.666
 9520SOL    HW229460   5.304   0.916   6.795
 9521SOL     OW29461   3.929   1.253   0.989
 9521SOL    HW129462   3.856   1.288   0.931
 9521SOL    HW229463   4.011   1.237   0.934
 9522SOL     OW29464   3.773   6.980   1.062
 9522SOL    HW129465   3.777   6.902   1.124
 9522SOL    HW229466   3.679   7.015   1.058
 9523SOL     OW29467   2.629   4.965   4.733
 9523SOL    HW129468   2.681   4.907   4.670
 9523SOL    HW229469   2.560   4.910   4.780
 9524SOL     OW29470   1.879   3.892   0.151
 9524SOL    HW129471   1.932   3.811   0.125
 9524SOL    HW229472   1.906   3.921   0.243
 9525SOL     OW29473   2.433   3.053   6.584
 9525SOL    HW129474   2.336   3.063   6.561
 9525SOL    HW229475   2.485   3.036   6.501
 9526SOL     OW29476   5.466   5.057   6.113
 9526SOL    HW129477   5.522   5.003   6.177
 9526SOL    HW229478   5.370   5.037   6.130
 9527SOL     OW29479   3.875   6.542   4.410
 9527SOL    HW129480   3.809   6.578   4.476
 9527SOL    HW229481   3.965   6.584   4.427
 9528SOL     OW29482   4.936   2.385   0.375
 9528SOL    HW129483   4.925   2.348   0.283
 9528SOL    HW229484   4.929   2.484   0.372
 9529SOL     OW29485   5.712   0.603   2.197
 9529SOL    HW129486   5.626   0.555   2.177
 9529SOL    HW229487   5.739   0.585   2.292
 9530SOL     OW29488   1.006   5.670   3.625
 9530SOL    HW129489   1.085   5.688   3.685
 9530SOL    HW229490   0.955   5.592   3.660
 9531SOL     OW29491   3.121   5.898   1.630
 9531SOL    HW129492   3.144   5.807   1.596
 9531SOL    HW229493   3.083   5.891   1.722
 9532SOL     OW29494   0.086   5.221   4.711
 9532SOL    HW129495   0.096   5.271   4.625
 9532SOL    HW229496   0.126   5.130   4.701
 9533SOL     OW29497   1.003   4.028   3.763
 9533SOL    HW129498   1.012   3.993   3.670
 9533SOL    HW229499   1.082   4.086   3.784
 9534SOL     OW29500   4.820   5.968   4.037
 9534SOL    HW129501   4.861   6.036   3.976
 9534SOL    HW229502   4.877   5.957   4.119
 9535SOL     OW29503   0.094   1.787   4.411
 9535SOL    HW129504   0.073   1.875   4.452
 9535SOL    HW229505   0.024   1.720   4.437
 9536SOL     OW29506   3.893   3.699   5.567
 9536SOL    HW129507   3.967   3.643   5.604
 9536SOL    HW229508   3.911   3.717   5.470
 9537SOL     OW29509   0.129   0.948   3.928
 9537SOL    HW129510   0.042   0.985   3.958
 9537SOL    HW229511   0.186   1.021   3.891
 9538SOL     OW29512   5.359   0.590   5.210
 9538SOL    HW129513   5.397   0.511   5.257
 9538SOL    HW229514   5.431   0.659   5.197
 9539SOL     OW29515   3.674   3.811   2.187
 9539SOL    HW129516   3.634   3.776   2.102
 9539SOL    HW229517   3.621   3.777   2.265
 9540SOL     OW29518   4.008   4.907   3.183
 9540SOL    HW129519   3.989   4.915   3.281
 9540SOL    HW229520   3.922   4.902   3.132
 9541SOL     OW29521   1.494   5.907   5.876
 9541SOL    HW129522   1.437   5.870   5.949
 9541SOL    HW229523   1.448   5.987   5.835
 9542SOL     OW29524   6.394   3.830   2.924
 9542SOL    HW129525   6.324   3.774   2.968
 9542SOL    HW229526   6.392   3.814   2.825
 9543SOL     OW29527   2.278   0.562   5.623
 9543SOL    HW129528   2.272   0.550   5.722
 9543SOL    HW229529   2.355   0.509   5.587
 9544SOL     OW29530   6.358   3.540   4.430
 9544SOL    HW129531   6.295   3.471   4.395
 9544SOL    HW229532   6.315   3.630   4.425
 9545SOL     OW29533   6.568   4.277   2.134
 9545SOL    HW129534   6.543   4.305   2.042
 9545SOL    HW229535   6.634   4.342   2.172
 9546SOL     OW29536   2.897   2.933   0.929
 9546SOL    HW129537   2.937   2.869   0.995
 9546SOL    HW229538   2.800   2.944   0.948
 9547SOL     OW29539   4.170   0.596   3.447
 9547SOL    HW129540   4.253   0.543   3.427
 9547SOL    HW229541   4.191   0.694   3.445
 9548SOL     OW29542   0.477   4.850   5.833
 9548SOL    HW129543   0.422   4.923   5.791
 9548SOL    HW229544   0.573   4.863   5.810
 9549SOL     OW29545   4.636   1.155   1.696
 9549SOL    HW129546   4.689   1.194   1.771
 9549SOL    HW229547   4.538   1.167   1.714
 9550SOL     OW29548   6.535   2.769   1.524
 9550SOL    HW129549   6.441   2.775   1.558
 9550SOL    HW229550   6.597   2.813   1.588
 9551SOL     OW29551   6.015   2.916   6.501
 9551SOL    HW129552   5.988   2.822   6.521
 9551SOL    HW229553   6.021   2.969   6.586
 9552SOL     OW29554   2.793   1.798   6.837
 9552SOL    HW129555   2.858   1.722   6.832
 9552SOL    HW229556   2.700   1.763   6.830
 9553SOL     OW29557   5.560   1.278   0.027
 9553SOL    HW129558   5.526   1.253   6.956
 9553SOL    HW229559   5.612   1.201   0.065
 9554SOL     OW29560   2.903   1.174   4.882
 9554SOL    HW129561   2.889   1.271   4.863
 9554SOL    HW229562   2.815   1.127   4.889
 9555SOL     OW29563   0.228   6.290   3.346
 9555SOL    HW129564   0.188   6.263   3.259
 9555SOL    HW229565   0.324   6.313   3.333
 9556SOL     OW29566   2.145   4.214   6.482
 9556SOL    HW129567   2.108   4.168   6.563
 9556SOL    HW229568   2.233   4.173   6.457
 9557SOL     OW29569   5.839   0.811   0.938
 9557SOL    HW129570   5.752   0.840   0.977
 9557SOL    HW229571   5.901   0.890   0.934
 9558SOL     OW29572   4.810   6.115   5.860
 9558SOL    HW129573   4.768   6.163   5.783
 9558SOL    HW229574   4.895   6.161   5.886
 9559SOL     OW29575   2.246   4.475   0.398
 9559SOL    HW129576   2.338   4.488   0.360
 9559SOL    HW229577   2.179   4.520   0.340
 9560SOL     OW29578   3.067   0.182   2.297
 9560SOL    HW129579   3.138   0.252   2.308
 9560SOL    HW229580   2.977   0.224   2.306
 9561SOL     OW29581   6.982   0.672   0.272
 9561SOL    HW129582   6.962   0.769   0.288
 9561SOL    HW229583   0.041   0.664   0.211
 9562SOL     OW29584   1.684   5.973   2.904
 9562SOL    HW129585   1.675   5.959   3.003
 9562SOL    HW229586   1.619   5.915   2.856
 9563SOL     OW29587   0.719   5.704   6.614
 9563SOL    HW129588   0.802   5.699   6.670
 9563SOL    HW229589   0.745   5.725   6.519
 9564SOL     OW29590   1.283   1.248   1.016
 9564SOL    HW129591   1.351   1.320   0.998
 9564SOL    HW229592   1.328   1.159   1.017
 9565SOL     OW29593   2.113   2.233   4.343
 9565SOL    HW129594   2.079   2.310   4.290
 9565SOL    HW229595   2.195   2.196   4.300
 9566SOL     OW29596   3.131   0.198   6.864
 9566SOL    HW129597   3.121   0.174   6.961
 9566SOL    HW229598   3.056   0.156   6.812
 9567SOL     OW29599   0.133   4.397   1.284
 9567SOL    HW129600   0.039   4.426   1.271
 9567SOL    HW229601   0.186   4.416   1.201
 9568SOL     OW29602   4.356   1.602   6.084
 9568SOL    HW129603   4.328   1.630   6.176
 9568SOL    HW229604   4.413   1.520   6.090
 9569SOL     OW29605   5.620   0.292   1.869
 9569SOL    HW129606   5.630   0.210   1.926
 9569SOL    HW229607   5.672   0.279   1.784
 9570SOL     OW29608   0.961   3.695   2.236
 9570SOL    HW129609   0.975   3.794   2.239
 9570SOL    HW229610   0.896   3.668   2.306
 9571SOL     OW29611   1.724   1.323   6.625
 9571SOL    HW129612   1.744   1.255   6.554
 9571SOL    HW229613   1.762   1.292   6.712
 9572SOL     OW29614   2.304   4.904   4.347
 9572SOL    HW129615   2.278   4.876   4.439
 9572SOL    HW229616   2.295   4.827   4.285
 9573SOL     OW29617   5.694   6.871   4.520
 9573SOL    HW129618   5.741   6.895   4.435
 9573SOL    HW229619   5.718   6.777   4.545
 9574SOL     OW29620   4.621   3.142   0.504
 9574SOL    HW129621   4.602   3.239   0.516
 9574SOL    HW229622   4.536   3.090   0.512
 9575SOL     OW29623   5.328   6.769   1.904
 9575SOL    HW129624   5.261   6.843   1.898
 9575SOL    HW229625   5.412   6.798   1.858
 9576SOL     OW29626   1.156   1.282   5.620
 9576SOL    HW129627   1.066   1.263   5.581
 9576SOL    HW229628   1.226   1.233   5.569
 9577SOL     OW29629   6.794   4.885   3.321
 9577SOL    HW129630   6.849   4.968   3.320
 9577SOL    HW229631   6.783   4.854   3.415
 9578SOL     OW29632   2.150   3.324   2.789
 9578SOL    HW129633   2.056   3.301   2.764
 9578SOL    HW229634   2.213   3.286   2.721
 9579SOL     OW29635   5.622   5.489   2.194
 9579SOL    HW129636   5.596   5.520   2.103
 9579SOL    HW229637   5.551   5.513   2.260
 9580SOL     OW29638   4.882   3.890   3.781
 9580SOL    HW129639   4.963   3.943   3.805
 9580SOL    HW229640   4.836   3.860   3.865
 9581SOL     OW29641   4.969   1.921   6.261
 9581SOL    HW129642   5.057   1.876   6.274
 9581SOL    HW229643   4.965   2.004   6.317
 9582SOL     OW29644   4.683   6.474   4.996
 9582SOL    HW129645   4.652   6.385   4.963
 9582SOL    HW229646   4.731   6.522   4.923
 9583SOL     OW29647   3.094   5.103   1.333
 9583SOL    HW129648   3.183   5.144   1.349
 9583SOL    HW229649   3.029   5.172   1.301
 9584SOL     OW29650   2.785   5.353   4.274
 9584SOL    HW129651   2.794   5.377   4.371
 9584SOL    HW229652   2.722   5.276   4.265
 9585SOL     OW29653   4.338   6.851   0.932
 9585SOL    HW129654   4.400   6.917   0.975
 9585SOL    HW229655   4.383   6.763   0.922
 9586SOL     OW29656   3.191   5.122   3.223
 9586SOL    HW129657   3.288   5.140   3.206
 9586SOL    HW229658   3.160   5.178   3.299
 9587SOL     OW29659   3.560   6.671   0.177
 9587SOL    HW129660   3.596   6.580   0.157
 9587SOL    HW229661   3.460   6.667   0.182
 9588SOL     OW29662   6.480   5.842   0.221
 9588SOL    HW129663   6.537   5.762   0.242
 9588SOL    HW229664   6.505   5.878   0.131
 9589SOL     OW29665   1.552   1.924   6.207
 9589SOL    HW129666   1.509   2.007   6.242
 9589SOL    HW229667   1.651   1.930   6.221
 9590SOL     OW29668   6.379   0.785   1.158
 9590SOL    HW129669   6.305   0.721   1.141
 9590SOL    HW229670   6.375   0.816   1.253
 9591SOL     OW29671   5.310   0.802   0.178
 9591SOL    HW129672   5.224   0.760   0.149
 9591SOL    HW229673   5.319   0.792   0.278
 9592SOL     OW29674   2.681   5.812   5.639
 9592SOL    HW129675   2.594   5.859   5.626
 9592SOL    HW229676   2.737   5.821   5.557
 9593SOL     OW29677   2.151   2.245   3.610
 9593SOL    HW129678   2.060   2.278   3.636
 9593SOL    HW229679   2.218   2.273   3.679
 9594SOL     OW29680   0.191   6.540   3.477
 9594SOL    HW129681   0.182   6.619   3.417
 9594SOL    HW229682   0.192   6.456   3.423
 9595SOL     OW29683   0.502   3.637   3.466
 9595SOL    HW129684   0.436   3.701   3.426
 9595SOL    HW229685   0.566   3.687   3.524
 9596SOL     OW29686   1.867   6.836   0.637
 9596SOL    HW129687   1.787   6.780   0.655
 9596SOL    HW229688   1.916   6.799   0.557
 9597SOL     OW29689   1.001   3.696   1.975
 9597SOL    HW129690   1.052   3.615   1.948
 9597SOL    HW229691   0.985   3.695   2.073
 9598SOL     OW29692   2.226   4.457   4.065
 9598SOL    HW129693   2.167   4.403   4.005
 9598SOL    HW229694   2.315   4.469   4.021
 9599SOL     OW29695   4.556   0.074   4.476
 9599SOL    HW129696   4.538   0.058   4.574
 9599SOL    HW229697   4.625   0.009   4.445
 9600SOL     OW29698   3.837   1.160   0.537
 9600SOL    HW129699   3.806   1.228   0.470
 9600SOL    HW229700   3.758   1.110   0.572
 9601SOL     OW29701   0.821   3.453   0.349
 9601SOL    HW129702   0.913   3.468   0.312
 9601SOL    HW229703   0.774   3.540   0.360
 9602SOL     OW29704   4.342   4.262   5.550
 9602SOL    HW129705   4.263   4.212   5.585
 9602SOL    HW229706   4.395   4.203   5.489
 9603SOL     OW29707   5.070   6.909   6.025
 9603SOL    HW129708   5.002   6.982   6.031
 9603SOL    HW229709   5.142   6.935   5.961
 9604SOL     OW29710   4.730   6.791   1.338
 9604SOL    HW129711   4.681   6.875   1.359
 9604SOL    HW229712   4.818   6.813   1.297
 9605SOL     OW29713   5.269   5.105   1.729
 9605SOL    HW129714   5.300   5.192   1.767
 9605SOL    HW229715   5.186   5.076   1.776
 9606SOL     OW29716   1.192   1.351   6.380
 9606SOL    HW129717   1.120   1.388   6.439
 9606SOL    HW229718   1.187   1.394   6.290
 9607SOL     OW29719   1.757   2.351   6.662
 9607SOL    HW129720   1.835   2.288   6.667
 9607SOL    HW229721   1.737   2.371   6.566
 9608SOL     OW29722   6.054   2.271   4.451
 9608SOL    HW129723   6.000   2.186   4.455
 9608SOL    HW229724   6.042   2.313   4.361
 9609SOL     OW29725   4.899   3.166   0.635
 9609SOL    HW129726   4.928   3.215   0.552
 9609SOL    HW229727   4.800   3.171   0.643
 9610SOL     OW29728   0.906   4.744   2.943
 9610SOL    HW129729   0.952   4.773   3.026
 9610SOL    HW229730   0.919   4.814   2.872
 9611SOL     OW29731   2.256   0.746   0.392
 9611SOL    HW129732   2.158   0.730   0.393
 9611SOL    HW229733   2.279   0.821   0.454
 9612SOL     OW29734   0.269   1.819   3.668
 9612SOL    HW129735   0.178   1.793   3.701
 9612SOL    HW229736   0.338   1.787   3.732
 9613SOL     OW29737   6.276   4.642   4.028
 9613SOL    HW129738   6.186   4.685   4.021
 9613SOL    HW229739   6.345   4.713   4.045
 9614SOL     OW29740   4.068   2.129   2.938
 9614SOL    HW129741   4.087   2.034   2.911
 9614SOL    HW229742   4.153   2.181   2.935
 9615SOL     OW29743   1.638   4.445   0.905
 9615SOL    HW129744   1.683   4.358   0.925
 9615SOL    HW229745   1.609   4.447   0.809
 9616SOL     OW29746   4.442   3.534   5.944
 9616SOL    HW129747   4.397   3.565   6.027
 9616SOL    HW229748   4.373   3.514   5.874
 9617SOL     OW29749   1.564   3.409   2.528
 9617SOL    HW129750   1.550   3.328   2.470
 9617SOL    HW229751   1.489   3.474   2.513
 9618SOL     OW29752   2.471   2.528   0.531
 9618SOL    HW129753   2.497   2.436   0.499
 9618SOL    HW229754   2.543   2.593   0.505
 9619SOL     OW29755   2.203   0.550   6.866
 9619SOL    HW129756   2.225   0.467   6.815
 9619SOL    HW229757   2.287   0.599   6.889
 9620SOL     OW29758   5.245   1.046   4.946
 9620SOL    HW129759   5.287   1.023   4.858
 9620SOL    HW229760   5.310   1.096   5.003
 9621SOL     OW29761   1.592   3.980   3.262
 9621SOL    HW129762   1.627   3.925   3.186
 9621SOL    HW229763   1.517   3.932   3.306
 9622SOL     OW29764   4.505   0.147   0.148
 9622SOL    HW129765   4.494   0.052   0.121
 9622SOL    HW229766   4.505   0.205   0.067
 9623SOL     OW29767   1.615   3.761   6.847
 9623SOL    HW129768   1.576   3.674   6.876
 9623SOL    HW229769   1.570   3.835   6.897
 9624SOL     OW29770   6.698   3.210   3.623
 9624SOL    HW129771   6.753   3.139   3.666
 9624SOL    HW229772   6.634   3.169   3.558
 9625SOL     OW29773   5.646   6.345   1.649
 9625SOL    HW129774   5.560   6.393   1.632
 9625SOL    HW229775   5.647   6.310   1.743
 9626SOL     OW29776   3.295   0.476   0.367
 9626SOL    HW129777   3.347   0.391   0.381
 9626SOL    HW229778   3.333   0.527   0.290
 9627SOL     OW29779   0.794   0.025   6.986
 9627SOL    HW129780   0.880   0.042   6.938
 9627SOL    HW229781   0.797   0.069   0.056
 9628SOL     OW29782   3.619   0.141   1.793
 9628SOL    HW129783   3.561   0.067   1.760
 9628SOL    HW229784   3.563   0.222   1.812
 9629SOL     OW29785   2.467   0.092   1.077
 9629SOL    HW129786   2.428   0.094   0.985
 9629SOL    HW229787   2.395   0.104   1.144
 9630SOL     OW29788   0.419   2.268   6.432
 9630SOL    HW129789   0.400   2.202   6.505
 9630SOL    HW229790   0.358   2.250   6.355
 9631SOL     OW29791   6.798   5.950   0.382
 9631SOL    HW129792   6.829   5.866   0.337
 9631SOL    HW229793   6.773   6.018   0.312
 9632SOL     OW29794   1.596   5.781   2.719
 9632SOL    HW129795   1.694   5.790   2.738
 9632SOL    HW229796   1.579   5.699   2.666
 9633SOL     OW29797   0.002   5.362   6.714
 9633SOL    HW129798   6.981   5.389   6.626
 9633SOL    HW229799   0.015   5.263   6.715
 9634SOL     OW29800   0.241   6.032   5.926
 9634SOL    HW129801   0.283   6.000   5.841
 9634SOL    HW229802   0.313   6.053   5.992
 9635SOL     OW29803   6.924   5.826   5.400
 9635SOL    HW129804   6.920   5.857   5.305
 9635SOL    HW229805   6.835   5.842   5.443
 9636SOL     OW29806   4.444   1.610   0.585
 9636SOL    HW129807   4.483   1.696   0.618
 9636SOL    HW229808   4.517   1.552   0.550
 9637SOL     OW29809   2.312   0.752   6.557
 9637SOL    HW129810   2.342   0.658   6.572
 9637SOL    HW229811   2.305   0.799   6.645
 9638SOL     OW29812   6.654   2.520   6.306
 9638SOL    HW129813   6.561   2.534   6.270
 9638SOL    HW229814   6.689   2.432   6.274
 9639SOL     OW29815   3.526   0.492   2.649
 9639SOL    HW129816   3.458   0.566   2.652
 9639SOL    HW229817   3.549   0.465   2.742
 9640SOL     OW29818   1.130   1.777   2.875
 9640SOL    HW129819   1.131   1.858   2.816
 9640SOL    HW229820   1.071   1.707   2.835
 9641SOL     OW29821   5.759   5.671   6.318
 9641SOL    HW129822   5.755   5.616   6.401
 9641SOL    HW229823   5.672   5.665   6.269
 9642SOL     OW29824   3.145   6.367   3.163
 9642SOL    HW129825   3.122   6.447   3.107
 9642SOL    HW229826   3.242   6.346   3.153
 9643SOL     OW29827   4.236   5.005   2.627
 9643SOL    HW129828   4.180   4.926   2.600
 9643SOL    HW229829   4.318   4.972   2.674
 9644SOL     OW29830   2.404   0.948   0.646
 9644SOL    HW129831   2.353   1.020   0.598
 9644SOL    HW229832   2.403   0.967   0.744
 9645SOL     OW29833   2.929   5.376   4.761
 9645SOL    HW129834   2.887   5.287   4.742
 9645SOL    HW229835   2.937   5.389   4.860
 9646SOL     OW29836   3.517   5.177   3.817
 9646SOL    HW129837   3.568   5.100   3.778
 9646SOL    HW229838   3.528   5.178   3.916
 9647SOL     OW29839   6.671   3.067   6.149
 9647SOL    HW129840   6.700   3.049   6.055
 9647SOL    HW229841   6.746   3.043   6.211
 9648SOL     OW29842   4.551   3.801   0.888
 9648SOL    HW129843   4.479   3.787   0.955
 9648SOL    HW229844   4.635   3.756   0.919
 9649SOL     OW29845   2.074   5.110   1.976
 9649SOL    HW129846   2.140   5.107   2.051
 9649SOL    HW229847   1.989   5.152   2.008
 9650SOL     OW29848   1.411   0.453   1.336
 9650SOL    HW129849   1.489   0.452   1.399
 9650SOL    HW229850   1.337   0.507   1.376
 9651SOL     OW29851   0.585   1.909   0.055
 9651SOL    HW129852   0.519   1.862   7.016
 9651SOL    HW229853   0.597   1.857   0.140
 9652SOL     OW29854   1.226   5.071   1.745
 9652SOL    HW129855   1.138   5.028   1.726
 9652SOL    HW229856   1.300   5.007   1.725
 9653SOL     OW29857   6.123   6.005   4.450
 9653SOL    HW129858   6.041   6.060   4.469
 9653SOL    HW229859   6.100   5.933   4.385
 9654SOL     OW29860   2.167   3.109   2.279
 9654SOL    HW129861   2.209   3.048   2.347
 9654SOL    HW229862   2.177   3.204   2.309
 9655SOL     OW29863   6.265   2.120   7.018
 9655SOL    HW129864   6.223   2.152   6.933
 9655SOL    HW229865   6.214   2.157   0.077
 9656SOL     OW29866   2.653   1.541   3.181
 9656SOL    HW129867   2.729   1.567   3.121
 9656SOL    HW229868   2.674   1.569   3.274
 9657SOL     OW29869   6.896   0.641   4.823
 9657SOL    HW129870   6.994   0.650   4.807
 9657SOL    HW229871   6.877   0.648   4.921
 9658SOL     OW29872   5.889   1.459   2.396
 9658SOL    HW129873   5.958   1.475   2.325
 9658SOL    HW229874   5.848   1.546   2.422
 9659SOL     OW29875   1.261   4.866   6.825
 9659SOL    HW129876   1.232   4.928   6.898
 9659SOL    HW229877   1.195   4.871   6.750
 9660SOL     OW29878   1.079   4.991   0.437
 9660SOL    HW129879   1.103   4.924   0.368
 9660SOL    HW229880   0.985   4.976   0.467
 9661SOL     OW29881   4.086   0.713   0.531
 9661SOL    HW129882   4.116   0.620   0.508
 9661SOL    HW229883   3.986   0.716   0.531
 9662SOL     OW29884   5.713   2.251   3.820
 9662SOL    HW129885   5.692   2.211   3.731
 9662SOL    HW229886   5.648   2.324   3.840
 9663SOL     OW29887   2.701   5.748   2.487
 9663SOL    HW129888   2.789   5.742   2.441
 9663SOL    HW229889   2.631   5.701   2.433
 9664SOL     OW29890   2.995   6.038   1.441
 9664SOL    HW129891   3.015   5.972   1.513
 9664SOL    HW229892   3.032   6.128   1.467
 9665SOL     OW29893   5.646   4.052   3.675
 9665SOL    HW129894   5.729   3.998   3.683
 9665SOL    HW229895   5.617   4.055   3.579
 9666SOL     OW29896   5.965   4.676   4.887
 9666SOL    HW129897   5.952   4.578   4.871
 9666SOL    HW229898   5.923   4.728   4.813
 9667SOL     OW29899   3.062   3.973   3.224
 9667SOL    HW129900   3.115   4.023   3.292
 9667SOL    HW229901   2.967   4.005   3.224
 9668SOL     OW29902   7.015   1.645   5.186
 9668SOL    HW129903   0.032   1.727   5.230
 9668SOL    HW229904   6.966   1.590   5.254
 9669SOL     OW29905   1.874   6.589   0.051
 9669SOL    HW129906   1.783   6.589   0.094
 9669SOL    HW229907   1.929   6.663   0.089
 9670SOL     OW29908   6.464   4.088   6.802
 9670SOL    HW129909   6.376   4.043   6.788
 9670SOL    HW229910   6.492   4.079   6.897
 9671SOL     OW29911   6.777   1.052   0.148
 9671SOL    HW129912   6.872   1.046   0.179
 9671SOL    HW229913   6.716   1.034   0.225
 9672SOL     OW29914   0.726   6.451   5.323
 9672SOL    HW129915   0.667   6.371   5.328
 9672SOL    HW229916   0.687   6.525   5.378
 9673SOL     OW29917   2.354   2.582   5.950
 9673SOL    HW129918   2.315   2.638   6.024
 9673SOL    HW229919   2.354   2.635   5.865
 9674SOL     OW29920   2.351   6.271   2.120
 9674SOL    HW129921   2.301   6.335   2.178
 9674SOL    HW229922   2.296   6.248   2.040
 9675SOL     OW29923   0.002   2.249   2.239
 9675SOL    HW129924   0.098   2.242   2.268
 9675SOL    HW229925   7.014   2.315   2.164
 9676SOL     OW29926   6.770   2.894   4.586
 9676SOL    HW129927   6.672   2.886   4.604
 9676SOL    HW229928   6.798   2.824   4.521
 9677SOL     OW29929   1.599   3.499   5.732
 9677SOL    HW129930   1.601   3.582   5.789
 9677SOL    HW229931   1.534   3.434   5.771
 9678SOL     OW29932   3.714   3.719   2.830
 9678SOL    HW129933   3.686   3.804   2.876
 9678SOL    HW229934   3.638   3.684   2.775
 9679SOL     OW29935   0.713   4.229   0.981
 9679SOL    HW129936   0.626   4.215   1.028
 9679SOL    HW229937   0.696   4.262   0.888
 9680SOL     OW29938   5.012   5.055   2.777
 9680SOL    HW129939   5.065   5.119   2.722
 9680SOL    HW229940   4.917   5.054   2.745
 9681SOL     OW29941   0.543   0.848   4.047
 9681SOL    HW129942   0.529   0.750   4.055
 9681SOL    HW229943   0.598   0.868   3.966
 9682SOL     OW29944   0.838   4.111   2.405
 9682SOL    HW129945   0.744   4.126   2.375
 9682SOL    HW229946   0.840   4.099   2.504
 9683SOL     OW29947   4.305   7.009   5.149
 9683SOL    HW129948   4.210   6.980   5.138
 9683SOL    HW229949   4.307   0.075   5.202
 9684SOL     OW29950   0.783   4.292   3.445
 9684SOL    HW129951   0.843   4.364   3.481
 9684SOL    HW229952   0.716   4.332   3.383
 9685SOL     OW29953   1.619   1.729   6.577
 9685SOL    HW129954   1.595   1.821   6.548
 9685SOL    HW229955   1.567   1.705   6.659
 9686SOL     OW29956   5.732   2.512   1.740
 9686SOL    HW129957   5.787   2.577   1.687
 9686SOL    HW229958   5.720   2.547   1.833
 9687SOL     OW29959   3.224   0.906   4.595
 9687SOL    HW129960   3.143   0.863   4.634
 9687SOL    HW229961   3.225   1.003   4.619
 9688SOL     OW29962   5.449   1.577   4.593
 9688SOL    HW129963   5.353   1.554   4.612
 9688SOL    HW229964   5.486   1.512   4.527
 9689SOL     OW29965   2.556   5.354   5.077
 9689SOL    HW129966   2.617   5.409   5.020
 9689SOL    HW229967   2.610   5.305   5.146
 9690SOL     OW29968   6.355   3.723   0.176
 9690SOL    HW129969   6.369   3.793   0.246
 9690SOL    HW229970   6.435   3.665   0.171
 9691SOL     OW29971   1.572   4.968   0.581
 9691SOL    HW129972   1.588   4.977   0.483
 9691SOL    HW229973   1.483   5.007   0.604
 9692SOL     OW29974   3.063   5.638   0.494
 9692SOL    HW129975   3.156   5.669   0.514
 9692SOL    HW229976   3.039   5.662   0.400
 9693SOL     OW29977   5.871   5.599   1.487
 9693SOL    HW129978   5.810   5.670   1.522
 9693SOL    HW229979   5.845   5.575   1.394
 9694SOL     OW29980   0.787   1.493   0.402
 9694SOL    HW129981   0.840   1.521   0.322
 9694SOL    HW229982   0.835   1.520   0.485
 9695SOL     OW29983   6.570   4.721   0.186
 9695SOL    HW129984   6.637   4.760   0.250
 9695SOL    HW229985   6.493   4.783   0.177
 9696SOL     OW29986   4.099   4.165   0.322
 9696SOL    HW129987   4.030   4.122   0.379
 9696SOL    HW229988   4.057   4.238   0.268
 9697SOL     OW29989   0.445   6.006   6.536
 9697SOL    HW129990   0.434   5.981   6.633
 9697SOL    HW229991   0.358   5.993   6.489
 9698SOL     OW29992   4.887   1.695   5.386
 9698SOL    HW129993   4.807   1.750   5.411
 9698SOL    HW229994   4.963   1.755   5.360
 9699SOL     OW29995   1.296   2.269   6.729
 9699SOL    HW129996   1.393   2.251   6.742
 9699SOL    HW229997   1.243   2.205   6.785
 9700SOL     OW29998   3.730   2.986   3.516
 9700SOL    HW129999   3.710   2.918   3.446
 9700SOL    HW230000   3.821   3.024   3.501
 9701SOL     OW30001   4.883   4.898   4.071
 9701SOL    HW130002   4.865   4.814   4.020
 9701SOL    HW230003   4.969   4.890   4.121
 9702SOL     OW30004   5.510   0.279   0.718
 9702SOL    HW130005   5.437   0.346   0.733
 9702SOL    HW230006   5.469   0.188   0.709
 9703SOL     OW30007   2.652   5.814   4.260
 9703SOL    HW130008   2.721   5.764   4.207
 9703SOL    HW230009   2.682   5.908   4.273
 9704SOL     OW30010   2.292   1.749   4.113
 9704SOL    HW130011   2.241   1.681   4.061
 9704SOL    HW230012   2.281   1.839   4.071
 9705SOL     OW30013   3.750   4.116   0.696
 9705SOL    HW130014   3.746   4.153   0.789
 9705SOL    HW230015   3.690   4.169   0.636
 9706SOL     OW30016   0.215   2.521   3.478
 9706SOL    HW130017   0.278   2.537   3.401
 9706SOL    HW230018   0.144   2.457   3.449
 9707SOL     OW30019   3.061   5.331   1.556
 9707SOL    HW130020   3.025   5.261   1.618
 9707SOL    HW230021   3.153   5.305   1.526
 9708SOL     OW30022   1.865   1.943   1.684
 9708SOL    HW130023   1.809   1.902   1.612
 9708SOL    HW230024   1.961   1.923   1.667
 9709SOL     OW30025   1.722   6.505   3.545
 9709SOL    HW130026   1.682   6.565   3.614
 9709SOL    HW230027   1.748   6.418   3.587
 9710SOL     OW30028   1.281   0.306   3.749
 9710SOL    HW130029   1.380   0.311   3.732
 9710SOL    HW230030   1.265   0.277   3.843
 9711SOL     OW30031   1.485   3.182   6.445
 9711SOL    HW130032   1.479   3.259   6.382
 9711SOL    HW230033   1.581   3.160   6.463
 9712SOL     OW30034   5.035   3.397   4.597
 9712SOL    HW130035   5.036   3.324   4.528
 9712SOL    HW230036   4.988   3.364   4.679
 9713SOL     OW30037   0.236   5.223   3.024
 9713SOL    HW130038   0.251   5.130   3.056
 9713SOL    HW230039   0.144   5.230   2.986
 9714SOL     OW30040   2.648   1.776   2.477
 9714SOL    HW130041   2.649   1.866   2.433
 9714SOL    HW230042   2.738   1.756   2.513
 9715SOL     OW30043   6.177   5.920   6.059
 9715SOL    HW130044   6.129   5.838   6.088
 9715SOL    HW230045   6.135   6.001   6.100
 9716SOL     OW30046   3.295   0.915   6.043
 9716SOL    HW130047   3.346   0.891   6.126
 9716SOL    HW230048   3.329   0.861   5.966
 9717SOL     OW30049   5.688   5.142   3.342
 9717SOL    HW130050   5.604   5.186   3.310
 9717SOL    HW230051   5.679   5.043   3.335
 9718SOL     OW30052   5.493   2.958   1.887
 9718SOL    HW130053   5.591   2.954   1.907
 9718SOL    HW230054   5.467   3.052   1.867
 9719SOL     OW30055   0.125   1.386   0.003
 9719SOL    HW130056   0.118   1.309   6.958
 9719SOL    HW230057   0.220   1.419   0.005
 9720SOL     OW30058   0.618   0.661   0.675
 9720SOL    HW130059   0.680   0.737   0.658
 9720SOL    HW230060   0.661   0.576   0.644
 9721SOL     OW30061   0.409   2.407   3.640
 9721SOL    HW130062   0.310   2.405   3.636
 9721SOL    HW230063   0.447   2.357   3.562
 9722SOL     OW30064   0.042   0.233   4.669
 9722SOL    HW130065   6.983   0.239   4.608
 9722SOL    HW230066   0.121   0.277   4.627
 9723SOL     OW30067   6.440   0.540   3.920
 9723SOL    HW130068   6.387   0.545   4.004
 9723SOL    HW230069   6.504   0.464   3.925
 9724SOL     OW30070   3.879   2.643   1.669
 9724SOL    HW130071   3.916   2.736   1.662
 9724SOL    HW230072   3.783   2.643   1.641
 9725SOL     OW30073   3.640   3.222   5.632
 9725SOL    HW130074   3.712   3.263   5.576
 9725SOL    HW230075   3.577   3.294   5.662
 9726SOL     OW30076   4.800   6.041   4.634
 9726SOL    HW130077   4.706   6.064   4.658
 9726SOL    HW230078   4.802   6.002   4.541
 9727SOL     OW30079   0.934   0.638   6.815
 9727SOL    HW130080   0.907   0.545   6.840
 9727SOL    HW230081   0.860   0.681   6.764
 9728SOL     OW30082   3.303   6.157   6.463
 9728SOL    HW130083   3.247   6.238   6.480
 9728SOL    HW230084   3.266   6.106   6.385
 9729SOL     OW30085   3.216   5.218   2.809
 9729SOL    HW130086   3.212   5.125   2.773
 9729SOL    HW230087   3.182   5.218   2.904
 9730SOL     OW30088   5.228   3.783   2.810
 9730SOL    HW130089   5.207   3.863   2.754
 9730SOL    HW230090   5.173   3.705   2.779
 9731SOL     OW30091   4.976   4.902   0.883
 9731SOL    HW130092   5.002   4.860   0.970
 9731SOL    HW230093   5.049   4.963   0.853
 9732SOL     OW30094   4.532   6.406   4.634
 9732SOL    HW130095   4.613   6.391   4.690
 9732SOL    HW230096   4.454   6.431   4.692
 9733SOL     OW30097   4.932   4.571   4.543
 9733SOL    HW130098   5.016   4.610   4.506
 9733SOL    HW230099   4.935   4.471   4.534
 9734SOL     OW30100   6.305   2.072   5.883
 9734SOL    HW130101   6.348   2.073   5.793
 9734SOL    HW230102   6.206   2.060   5.873
 9735SOL     OW30103   3.080   4.977   0.817
 9735SOL    HW130104   3.153   5.046   0.812
 9735SOL    HW230105   3.071   4.944   0.910
 9736SOL     OW30106   3.430   1.585   1.544
 9736SOL    HW130107   3.416   1.593   1.643
 9736SOL    HW230108   3.344   1.602   1.496
 9737SOL     OW30109   4.275   1.622   4.553
 9737SOL    HW130110   4.257   1.693   4.622
 9737SOL    HW230111   4.190   1.602   4.504
 9738SOL     OW30112   2.209   0.802   1.940
 9738SOL    HW130113   2.126   0.797   1.996
 9738SOL    HW230114   2.276   0.862   1.984
 9739SOL     OW30115   5.399   4.383   2.301
 9739SOL    HW130116   5.487   4.427   2.321
 9739SOL    HW230117   5.415   4.301   2.246
 9740SOL     OW30118   6.737   3.040   2.869
 9740SOL    HW130119   6.722   2.966   2.935
 9740SOL    HW230120   6.657   3.101   2.869
 9741SOL     OW30121   3.658   2.050   2.535
 9741SOL    HW130122   3.567   2.062   2.576
 9741SOL    HW230123   3.719   2.122   2.568
 9742SOL     OW30124   3.879   1.503   3.681
 9742SOL    HW130125   3.896   1.589   3.729
 9742SOL    HW230126   3.954   1.484   3.617
 9743SOL     OW30127   1.379   0.860   5.498
 9743SOL    HW130128   1.281   0.851   5.482
 9743SOL    HW230129   1.404   0.813   5.583
 9744SOL     OW30130   2.616   0.053   1.466
 9744SOL    HW130131   2.703   0.069   1.419
 9744SOL    HW230132   2.549   0.121   1.437
 9745SOL     OW30133   0.441   0.745   4.457
 9745SOL    HW130134   0.445   0.837   4.497
 9745SOL    HW230135   0.521   0.693   4.484
 9746SOL     OW30136   6.225   6.981   4.608
 9746SOL    HW130137   6.132   7.004   4.579
 9746SOL    HW230138   6.253   0.024   4.681
 9747SOL     OW30139   0.158   6.910   6.225
 9747SOL    HW130140   0.161   6.810   6.224
 9747SOL    HW230141   0.241   6.946   6.184
 9748SOL     OW30142   1.606   4.257   4.822
 9748SOL    HW130143   1.693   4.213   4.843
 9748SOL    HW230144   1.599   4.344   4.870
 9749SOL     OW30145   0.473   5.260   4.564
 9749SOL    HW130146   0.556   5.233   4.612
 9749SOL    HW230147   0.412   5.182   4.554
 9750SOL     OW30148   2.604   5.373   2.264
 9750SOL    HW130149   2.700   5.391   2.242
 9750SOL    HW230150   2.589   5.389   2.361
 9751SOL     OW30151   1.068   2.283   0.543
 9751SOL    HW130152   0.982   2.236   0.563
 9751SOL    HW230153   1.050   2.377   0.516
 9752SOL     OW30154   3.298   6.934   5.917
 9752SOL    HW130155   3.280   0.010   5.891
 9752SOL    HW230156   3.373   6.898   5.862
 9753SOL     OW30157   6.640   6.605   0.011
 9753SOL    HW130158   6.550   6.595   0.051
 9753SOL    HW230159   6.682   6.514   7.019
 9754SOL     OW30160   6.664   3.586   6.937
 9754SOL    HW130161   6.585   3.544   6.893
 9754SOL    HW230162   6.744   3.528   6.924
 9755SOL     OW30163   4.024   5.726   4.966
 9755SOL    HW130164   3.937   5.747   4.921
 9755SOL    HW230165   4.035   5.785   5.046
 9756SOL     OW30166   4.631   3.061   6.359
 9756SOL    HW130167   4.559   3.081   6.292
 9756SOL    HW230168   4.716   3.107   6.332
 9757SOL     OW30169   6.170   0.855   3.906
 9757SOL    HW130170   6.268   0.851   3.925
 9757SOL    HW230171   6.119   0.842   3.991
 9758SOL     OW30172   3.465   0.637   0.225
 9758SOL    HW130173   3.563   0.636   0.243
 9758SOL    HW230174   3.441   0.722   0.177
 9759SOL     OW30175   2.896   5.872   1.842
 9759SOL    HW130176   2.805   5.831   1.846
 9759SOL    HW230177   2.892   5.967   1.874
 9760SOL     OW30178   5.282   4.109   6.404
 9760SOL    HW130179   5.214   4.179   6.422
 9760SOL    HW230180   5.260   4.061   6.319
 9761SOL     OW30181   4.905   5.399   2.657
 9761SOL    HW130182   4.832   5.462   2.682
 9761SOL    HW230183   4.961   5.379   2.737
 9762SOL     OW30184   3.541   0.789   2.196
 9762SOL    HW130185   3.442   0.785   2.181
 9762SOL    HW230186   3.559   0.824   2.288
 9763SOL     OW30187   2.115   1.839   1.624
 9763SOL    HW130188   2.165   1.753   1.631
 9763SOL    HW230189   2.148   1.903   1.694
 9764SOL     OW30190   0.571   2.318   4.098
 9764SOL    HW130191   0.579   2.218   4.095
 9764SOL    HW230192   0.563   2.353   4.005
 9765SOL     OW30193   0.564   0.891   5.918
 9765SOL    HW130194   0.545   0.923   5.825
 9765SOL    HW230195   0.540   0.962   5.984
 9766SOL     OW30196   2.645   0.711   2.212
 9766SOL    HW130197   2.712   0.668   2.272
 9766SOL    HW230198   2.633   0.806   2.239
 9767SOL     OW30199   4.407   0.349   5.555
 9767SOL    HW130200   4.403   0.313   5.462
 9767SOL    HW230201   4.323   0.399   5.576
 9768SOL     OW30202   4.636   2.285   3.217
 9768SOL    HW130203   4.717   2.277   3.275
 9768SOL    HW230204   4.641   2.218   3.143
 9769SOL     OW30205   0.712   2.378   0.604
 9769SOL    HW130206   0.749   2.397   0.513
 9769SOL    HW230207   0.613   2.391   0.603
 9770SOL     OW30208   0.845   2.743   5.202
 9770SOL    HW130209   0.869   2.838   5.220
 9770SOL    HW230210   0.781   2.738   5.125
 9771SOL     OW30211   1.887   6.802   3.874
 9771SOL    HW130212   1.975   6.755   3.876
 9771SOL    HW230213   1.871   6.840   3.783
 9772SOL     OW30214   5.798   6.668   1.397
 9772SOL    HW130215   5.816   6.574   1.428
 9772SOL    HW230216   5.779   6.667   1.299
 9773SOL     OW30217   4.965   5.417   4.100
 9773SOL    HW130218   4.948   5.334   4.152
 9773SOL    HW230219   4.911   5.416   4.016
 9774SOL     OW30220   6.613   5.002   4.659
 9774SOL    HW130221   6.703   4.992   4.618
 9774SOL    HW230222   6.552   5.049   4.595
 9775SOL     OW30223   2.930   1.856   4.820
 9775SOL    HW130224   3.011   1.852   4.761
 9775SOL    HW230225   2.948   1.918   4.897
 9776SOL     OW30226   0.499   4.312   4.616
 9776SOL    HW130227   0.561   4.388   4.599
 9776SOL    HW230228   0.500   4.288   4.713
 9777SOL     OW30229   4.869   6.179   6.432
 9777SOL    HW130230   4.956   6.227   6.416
 9777SOL    HW230231   4.803   6.206   6.361
 9778SOL     OW30232   3.642   1.027   4.629
 9778SOL    HW130233   3.563   1.008   4.688
 9778SOL    HW230234   3.613   1.026   4.533
 9779SOL     OW30235   3.441   2.225   6.682
 9779SOL    HW130236   3.395   2.143   6.648
 9779SOL    HW230237   3.534   2.229   6.646
 9780SOL     OW30238   2.054   3.660   1.302
 9780SOL    HW130239   2.095   3.747   1.273
 9780SOL    HW230240   1.963   3.677   1.340
 9781SOL     OW30241   0.610   0.180   4.374
 9781SOL    HW130242   0.693   0.162   4.322
 9781SOL    HW230243   0.530   0.149   4.322
 9782SOL     OW30244   6.456   6.944   1.149
 9782SOL    HW130245   6.417   6.987   1.067
 9782SOL    HW230246   6.505   6.861   1.122
 9783SOL     OW30247   6.074   6.919   3.574
 9783SOL    HW130248   6.112   7.009   3.598
 9783SOL    HW230249   6.014   6.928   3.495
 9784SOL     OW30250   4.729   0.174   4.742
 9784SOL    HW130251   4.737   0.138   4.649
 9784SOL    HW230252   4.808   0.143   4.796
 9785SOL     OW30253   0.990   1.977   1.107
 9785SOL    HW130254   1.042   1.975   1.193
 9785SOL    HW230255   0.954   1.886   1.088
 9786SOL     OW30256   1.998   0.505   3.697
 9786SOL    HW130257   2.056   0.424   3.705
 9786SOL    HW230258   1.994   0.534   3.601
 9787SOL     OW30259   5.712   3.990   1.730
 9787SOL    HW130260   5.737   4.049   1.653
 9787SOL    HW230261   5.775   3.913   1.736
 9788SOL     OW30262   6.922   0.219   6.510
 9788SOL    HW130263   6.838   0.183   6.552
 9788SOL    HW230264   6.939   0.173   6.424
 9789SOL     OW30265   1.844   4.427   4.677
 9789SOL    HW130266   1.856   4.340   4.723
 9789SOL    HW230267   1.896   4.498   4.724
 9790SOL     OW30268   0.096   1.158   3.565
 9790SOL    HW130269   0.076   1.152   3.467
 9790SOL    HW230270   0.150   1.078   3.592
 9791SOL     OW30271   1.566   2.751   0.795
 9791SOL    HW130272   1.502   2.828   0.803
 9791SOL    HW230273   1.562   2.695   0.878
 9792SOL     OW30274   4.428   5.615   1.920
 9792SOL    HW130275   4.527   5.620   1.908
 9792SOL    HW230276   4.384   5.682   1.860
 9793SOL     OW30277   5.277   6.108   2.395
 9793SOL    HW130278   5.368   6.076   2.418
 9793SOL    HW230279   5.258   6.194   2.443
 9794SOL     OW30280   3.713   3.747   6.766
 9794SOL    HW130281   3.705   3.828   6.708
 9794SOL    HW230282   3.669   3.764   6.854
 9795SOL     OW30283   1.535   4.556   2.943
 9795SOL    HW130284   1.575   4.474   2.902
 9795SOL    HW230285   1.575   4.638   2.901
 9796SOL     OW30286   4.093   4.919   6.507
 9796SOL    HW130287   4.050   4.833   6.534
 9796SOL    HW230288   4.026   4.993   6.514
 9797SOL     OW30289   6.106   3.351   5.460
 9797SOL    HW130290   6.115   3.303   5.547
 9797SOL    HW230291   6.164   3.432   5.461
 9798SOL     OW30292   3.291   1.172   2.245
 9798SOL    HW130293   3.376   1.176   2.191
 9798SOL    HW230294   3.263   1.265   2.270
 9799SOL     OW30295   4.113   3.297   3.253
 9799SOL    HW130296   4.073   3.360   3.319
 9799SOL    HW230297   4.200   3.263   3.289
 9800SOL     OW30298   3.844   6.794   0.526
 9800SOL    HW130299   3.874   6.838   0.610
 9800SOL    HW230300   3.923   6.766   0.472
 9801SOL     OW30301   5.873   4.953   1.309
 9801SOL    HW130302   5.915   4.888   1.373
 9801SOL    HW230303   5.896   4.927   1.215
 9802SOL     OW30304   0.856   5.500   2.234
 9802SOL    HW130305   0.816   5.572   2.291
 9802SOL    HW230306   0.806   5.414   2.249
 9803SOL     OW30307   5.871   0.265   6.662
 9803SOL    HW130308   5.832   0.272   6.754
 9803SOL    HW230309   5.858   0.352   6.613
 9804SOL     OW30310   4.652   5.384   4.156
 9804SOL    HW130311   4.750   5.395   4.138
 9804SOL    HW230312   4.634   5.395   4.254
 9805SOL     OW30313   3.610   3.904   0.790
 9805SOL    HW130314   3.610   3.903   0.890
 9805SOL    HW230315   3.658   3.986   0.758
 9806SOL     OW30316   6.859   1.356   2.389
 9806SOL    HW130317   6.805   1.272   2.394
 9806SOL    HW230318   6.929   1.354   2.461
 9807SOL     OW30319   2.169   3.399   1.180
 9807SOL    HW130320   2.169   3.361   1.273
 9807SOL    HW230321   2.088   3.456   1.168
 9808SOL     OW30322   2.658   2.479   3.474
 9808SOL    HW130323   2.605   2.423   3.411
 9808SOL    HW230324   2.616   2.569   3.482
 9809SOL     OW30325   0.073   0.244   4.183
 9809SOL    HW130326   0.028   0.324   4.141
 9809SOL    HW230327   0.163   0.270   4.216
 9810SOL     OW30328   4.556   1.688   2.548
 9810SOL    HW130329   4.502   1.663   2.467
 9810SOL    HW230330   4.530   1.629   2.624
 9811SOL     OW30331   1.487   0.728   3.281
 9811SOL    HW130332   1.461   0.820   3.253
 9811SOL    HW230333   1.548   0.688   3.213
 9812SOL     OW30334   5.550   2.804   6.465
 9812SOL    HW130335   5.499   2.846   6.390
 9812SOL    HW230336   5.626   2.750   6.428
 9813SOL     OW30337   6.182   4.696   0.465
 9813SOL    HW130338   6.166   4.662   0.372
 9813SOL    HW230339   6.101   4.682   0.521
 9814SOL     OW30340   6.456   1.469   6.051
 9814SOL    HW130341   6.460   1.409   5.971
 9814SOL    HW230342   6.382   1.535   6.039
 9815SOL     OW30343   6.768   5.065   2.048
 9815SOL    HW130344   6.833   5.078   2.122
 9815SOL    HW230345   6.800   4.993   1.987
 9816SOL     OW30346   6.836   2.045   4.972
 9816SOL    HW130347   6.877   2.036   4.881
 9816SOL    HW230348   6.762   1.980   4.982
 9817SOL     OW30349   2.510   1.462   0.496
 9817SOL    HW130350   2.605   1.452   0.525
 9817SOL    HW230351   2.450   1.438   0.572
 9818SOL     OW30352   0.404   0.189   2.516
 9818SOL    HW130353   0.332   0.121   2.528
 9818SOL    HW230354   0.429   0.195   2.419
 9819SOL     OW30355   5.519   1.241   4.710
 9819SOL    HW130356   5.587   1.223   4.782
 9819SOL    HW230357   5.452   1.167   4.709
 9820SOL     OW30358   3.532   0.468   6.620
 9820SOL    HW130359   3.479   0.411   6.684
 9820SOL    HW230360   3.520   0.564   6.644
 9821SOL     OW30361   4.948   4.075   6.676
 9821SOL    HW130362   4.872   4.056   6.614
 9821SOL    HW230363   5.031   4.030   6.642
 9822SOL     OW30364   3.053   6.095   3.715
 9822SOL    HW130365   3.123   6.024   3.715
 9822SOL    HW230366   3.059   6.149   3.800
 9823SOL     OW30367   4.507   5.498   3.563
 9823SOL    HW130368   4.419   5.461   3.534
 9823SOL    HW230369   4.498   5.534   3.656
 9824SOL     OW30370   1.230   5.921   5.608
 9824SOL    HW130371   1.314   5.962   5.642
 9824SOL    HW230372   1.168   5.994   5.577
 9825SOL     OW30373   0.772   6.228   4.258
 9825SOL    HW130374   0.784   6.271   4.347
 9825SOL    HW230375   0.756   6.299   4.189
 9826SOL     OW30376   1.731   5.749   5.899
 9826SOL    HW130377   1.645   5.797   5.882
 9826SOL    HW230378   1.806   5.815   5.904
 9827SOL     OW30379   1.357   4.864   2.035
 9827SOL    HW130380   1.360   4.964   2.033
 9827SOL    HW230381   1.275   4.832   1.990
 9828SOL     OW30382   4.781   2.068   4.277
 9828SOL    HW130383   4.874   2.058   4.312
 9828SOL    HW230384   4.778   2.045   4.180
 9829SOL     OW30385   5.502   4.098   5.611
 9829SOL    HW130386   5.466   4.182   5.568
 9829SOL    HW230387   5.450   4.079   5.694
 9830SOL     OW30388   5.822   1.366   3.173
 9830SOL    HW130389   5.823   1.294   3.103
 9830SOL    HW230390   5.784   1.450   3.134
 9831SOL     OW30391   0.960   5.233   1.679
 9831SOL    HW130392   1.047   5.238   1.727
 9831SOL    HW230393   0.930   5.138   1.672
 9832SOL     OW30394   5.314   5.768   5.248
 9832SOL    HW130395   5.250   5.844   5.252
 9832SOL    HW230396   5.363   5.761   5.335
 9833SOL     OW30397   3.913   2.996   4.325
 9833SOL    HW130398   3.921   2.999   4.425
 9833SOL    HW230399   3.996   3.034   4.284
 9834SOL     OW30400   3.466   5.798   6.462
 9834SOL    HW130401   3.475   5.871   6.395
 9834SOL    HW230402   3.440   5.713   6.417
 9835SOL     OW30403   3.643   3.262   3.814
 9835SOL    HW130404   3.650   3.272   3.715
 9835SOL    HW230405   3.563   3.313   3.847
 9836SOL     OW30406   6.226   2.749   5.917
 9836SOL    HW130407   6.300   2.780   5.977
 9836SOL    HW230408   6.206   2.653   5.936
 9837SOL     OW30409   5.938   0.747   4.365
 9837SOL    HW130410   5.974   0.697   4.286
 9837SOL    HW230411   5.987   0.834   4.374
 9838SOL     OW30412   0.848   5.780   1.070
 9838SOL    HW130413   0.769   5.803   1.127
 9838SOL    HW230414   0.818   5.761   0.977
 9839SOL     OW30415   3.598   6.112   3.776
 9839SOL    HW130416   3.611   6.054   3.857
 9839SOL    HW230417   3.501   6.128   3.762
 9840SOL     OW30418   6.024   2.224   6.276
 9840SOL    HW130419   6.105   2.189   6.325
 9840SOL    HW230420   6.019   2.323   6.287
 9841SOL     OW30421   0.095   5.744   2.275
 9841SOL    HW130422   0.133   5.667   2.223
 9841SOL    HW230423   7.016   5.749   2.259
 9842SOL     OW30424   3.659   0.280   0.182
 9842SOL    HW130425   3.737   0.335   0.151
 9842SOL    HW230426   3.662   0.190   0.140
 9843SOL     OW30427   0.584   0.149   0.611
 9843SOL    HW130428   0.490   0.164   0.580
 9843SOL    HW230429   0.585   0.130   0.709
 9844SOL     OW30430   5.010   1.400   4.886
 9844SOL    HW130431   5.102   1.361   4.888
 9844SOL    HW230432   4.957   1.358   4.813
 9845SOL     OW30433   1.246   3.644   2.238
 9845SOL    HW130434   1.270   3.666   2.144
 9845SOL    HW230435   1.151   3.673   2.256
 9846SOL     OW30436   5.970   2.484   2.589
 9846SOL    HW130437   5.962   2.483   2.689
 9846SOL    HW230438   5.987   2.577   2.558
 9847SOL     OW30439   4.005   4.298   6.735
 9847SOL    HW130440   4.085   4.325   6.788
 9847SOL    HW230441   4.033   4.241   6.658
 9848SOL     OW30442   3.107   3.658   5.525
 9848SOL    HW130443   3.062   3.574   5.556
 9848SOL    HW230444   3.051   3.703   5.456
 9849SOL     OW30445   1.570   1.451   2.092
 9849SOL    HW130446   1.471   1.447   2.078
 9849SOL    HW230447   1.603   1.542   2.070
 9850SOL     OW30448   1.831   0.547   4.074
 9850SOL    HW130449   1.924   0.513   4.090
 9850SOL    HW230450   1.779   0.478   4.024
 9851SOL     OW30451   3.212   5.636   4.053
 9851SOL    HW130452   3.140   5.567   4.060
 9851SOL    HW230453   3.298   5.598   4.088
 9852SOL     OW30454   2.421   0.388   6.770
 9852SOL    HW130455   2.480   0.462   6.738
 9852SOL    HW230456   2.476   0.311   6.801
 9853SOL     OW30457   0.077   3.686   3.877
 9853SOL    HW130458   0.063   3.766   3.936
 9853SOL    HW230459   0.105   3.608   3.932
 9854SOL     OW30460   6.446   4.015   0.053
 9854SOL    HW130461   6.421   3.968   0.138
 9854SOL    HW230462   6.545   4.020   0.046
 9855SOL     OW30463   1.106   6.288   0.746
 9855SOL    HW130464   1.125   6.190   0.735
 9855SOL    HW230465   1.184   6.332   0.792
 9856SOL     OW30466   4.784   4.539   3.247
 9856SOL    HW130467   4.854   4.564   3.179
 9856SOL    HW230468   4.700   4.512   3.200
 9857SOL     OW30469   4.712   6.863   5.573
 9857SOL    HW130470   4.803   6.897   5.599
 9857SOL    HW230471   4.657   6.851   5.656
 9858SOL     OW30472   0.183   5.204   2.407
 9858SOL    HW130473   0.156   5.271   2.477
 9858SOL    HW230474   0.176   5.112   2.445
 9859SOL     OW30475   0.341   6.008   2.943
 9859SOL    HW130476   0.359   5.956   3.027
 9859SOL    HW230477   0.242   6.011   2.927
 9860SOL     OW30478   1.232   3.301   3.405
 9860SOL    HW130479   1.193   3.280   3.315
 9860SOL    HW230480   1.332   3.296   3.399
 9861SOL     OW30481   3.845   2.029   4.307
 9861SOL    HW130482   3.878   1.944   4.268
 9861SOL    HW230483   3.918   2.070   4.363
 9862SOL     OW30484   1.697   2.845   6.744
 9862SOL    HW130485   1.605   2.810   6.759
 9862SOL    HW230486   1.740   2.863   6.833
 9863SOL     OW30487   3.605   6.020   1.604
 9863SOL    HW130488   3.603   6.012   1.504
 9863SOL    HW230489   3.512   6.008   1.640
 9864SOL     OW30490   2.891   5.998   5.255
 9864SOL    HW130491   2.980   6.015   5.212
 9864SOL    HW230492   2.861   6.080   5.304
 9865SOL     OW30493   2.568   5.586   5.734
 9865SOL    HW130494   2.586   5.505   5.679
 9865SOL    HW230495   2.616   5.665   5.694
 9866SOL     OW30496   6.997   5.768   5.711
 9866SOL    HW130497   7.000   5.842   5.643
 9866SOL    HW230498   0.018   5.685   5.673
 9867SOL     OW30499   4.952   1.253   2.330
 9867SOL    HW130500   4.943   1.348   2.359
 9867SOL    HW230501   4.940   1.247   2.231
 9868SOL     OW30502   2.093   4.855   3.340
 9868SOL    HW130503   2.126   4.841   3.246
 9868SOL    HW230504   2.101   4.768   3.390
 9869SOL     OW30505   5.319   1.561   2.719
 9869SOL    HW130506   5.362   1.643   2.681
 9869SOL    HW230507   5.247   1.529   2.657
 9870SOL     OW30508   2.095   3.006   2.718
 9870SOL    HW130509   2.114   2.909   2.734
 9870SOL    HW230510   2.094   3.055   2.806
 9871SOL     OW30511   6.189   5.082   3.431
 9871SOL    HW130512   6.194   4.988   3.398
 9871SOL    HW230513   6.263   5.099   3.495
 9872SOL     OW30514   0.794   6.417   4.865
 9872SOL    HW130515   0.768   6.361   4.944
 9872SOL    HW230516   0.894   6.424   4.861
 9873SOL     OW30517   0.424   1.002   5.293
 9873SOL    HW130518   0.464   0.987   5.203
 9873SOL    HW230519   0.360   1.079   5.289
 9874SOL     OW30520   0.035   1.706   3.754
 9874SOL    HW130521   6.993   1.656   3.693
 9874SOL    HW230522   0.013   1.804   3.752
 9875SOL     OW30523   5.826   6.045   1.302
 9875SOL    HW130524   5.818   6.043   1.202
 9875SOL    HW230525   5.739   6.017   1.343
 9876SOL     OW30526   0.484   0.334   3.125
 9876SOL    HW130527   0.395   0.287   3.118
 9876SOL    HW230528   0.468   0.431   3.145
 9877SOL     OW30529   1.696   5.740   5.172
 9877SOL    HW130530   1.690   5.667   5.240
 9877SOL    HW230531   1.609   5.746   5.122
 9878SOL     OW30532   4.468   4.035   0.594
 9878SOL    HW130533   4.443   3.938   0.598
 9878SOL    HW230534   4.532   4.056   0.668
 9879SOL     OW30535   5.424   5.628   4.202
 9879SOL    HW130536   5.383   5.710   4.161
 9879SOL    HW230537   5.517   5.617   4.167
 9880SOL     OW30538   2.649   1.480   0.832
 9880SOL    HW130539   2.593   1.397   0.833
 9880SOL    HW230540   2.591   1.559   0.850
 9881SOL     OW30541   6.320   0.068   2.924
 9881SOL    HW130542   6.419   0.059   2.909
 9881SOL    HW230543   6.297   0.033   3.014
 9882SOL     OW30544   3.567   4.100   4.208
 9882SOL    HW130545   3.523   4.049   4.134
 9882SOL    HW230546   3.533   4.067   4.296
 9883SOL     OW30547   1.390   6.127   3.023
 9883SOL    HW130548   1.406   6.045   2.969
 9883SOL    HW230549   1.319   6.183   2.980
 9884SOL     OW30550   3.309   2.445   5.333
 9884SOL    HW130551   3.291   2.404   5.423
 9884SOL    HW230552   3.238   2.417   5.269
 9885SOL     OW30553   5.046   1.802   5.128
 9885SOL    HW130554   5.113   1.872   5.152
 9885SOL    HW230555   5.023   1.811   5.031
 9886SOL     OW30556   2.826   6.302   1.638
 9886SOL    HW130557   2.760   6.326   1.567
 9886SOL    HW230558   2.918   6.300   1.599
 9887SOL     OW30559   3.863   1.324   0.287
 9887SOL    HW130560   3.779   1.277   0.259
 9887SOL    HW230561   3.942   1.274   0.252
 9888SOL     OW30562   6.297   6.713   4.260
 9888SOL    HW130563   6.245   6.788   4.218
 9888SOL    HW230564   6.394   6.726   4.242
 9889SOL     OW30565   0.175   5.994   2.292
 9889SOL    HW130566   0.137   5.905   2.269
 9889SOL    HW230567   0.274   5.993   2.277
 9890SOL     OW30568   1.850   3.286   3.311
 9890SOL    HW130569   1.916   3.226   3.265
 9890SOL    HW230570   1.791   3.329   3.243
 9891SOL     OW30571   3.471   0.356   1.898
 9891SOL    HW130572   3.397   0.332   1.961
 9891SOL    HW230573   3.548   0.393   1.950
 9892SOL     OW30574   2.352   5.956   3.100
 9892SOL    HW130575   2.395   6.038   3.137
 9892SOL    HW230576   2.340   5.889   3.173
 9893SOL     OW30577   5.856   4.530   4.543
 9893SOL    HW130578   5.861   4.488   4.453
 9893SOL    HW230579   5.761   4.556   4.562
 9894SOL     OW30580   4.475   4.121   5.369
 9894SOL    HW130581   4.487   4.175   5.286
 9894SOL    HW230582   4.560   4.072   5.389
 9895SOL     OW30583   4.535   2.512   5.907
 9895SOL    HW130584   4.571   2.580   5.842
 9895SOL    HW230585   4.562   2.537   5.999
 9896SOL     OW30586   4.083   3.924   6.706
 9896SOL    HW130587   4.093   3.854   6.776
 9896SOL    HW230588   4.150   3.996   6.720
 9897SOL     OW30589   1.524   1.340   2.587
 9897SOL    HW130590   1.458   1.320   2.514
 9897SOL    HW230591   1.571   1.256   2.613
 9898SOL     OW30592   0.104   5.593   0.057
 9898SOL    HW130593   0.202   5.576   0.068
 9898SOL    HW230594   0.063   5.516   0.008
 9899SOL     OW30595   3.814   5.065   0.938
 9899SOL    HW130596   3.840   5.095   0.846
 9899SOL    HW230597   3.745   4.993   0.931
 9900SOL     OW30598   2.544   5.735   3.121
 9900SOL    HW130599   2.467   5.795   3.100
 9900SOL    HW230600   2.516   5.669   3.191
 9901SOL     OW30601   2.851   1.191   6.000
 9901SOL    HW130602   2.848   1.285   5.966
 9901SOL    HW230603   2.919   1.139   5.949
 9902SOL     OW30604   4.403   4.686   0.335
 9902SOL    HW130605   4.412   4.781   0.363
 9902SOL    HW230606   4.346   4.680   0.253
 9903SOL     OW30607   2.540   1.212   0.903
 9903SOL    HW130608   2.453   1.164   0.890
 9903SOL    HW230609   2.610   1.147   0.931
 9904SOL     OW30610   6.444   6.158   1.924
 9904SOL    HW130611   6.366   6.191   1.977
 9904SOL    HW230612   6.435   6.060   1.908
 9905SOL     OW30613   2.252   6.938   0.136
 9905SOL    HW130614   2.211   0.001   0.174
 9905SOL    HW230615   2.347   6.931   0.167
 9906SOL     OW30616   3.721   3.811   6.176
 9906SOL    HW130617   3.639   3.764   6.146
 9906SOL    HW230618   3.703   3.857   6.264
 9907SOL     OW30619   0.890   6.764   3.299
 9907SOL    HW130620   0.845   6.730   3.217
 9907SOL    HW230621   0.909   6.688   3.362
 9908SOL     OW30622   6.439   3.101   5.910
 9908SOL    HW130623   6.433   3.196   5.940
 9908SOL    HW230624   6.425   3.041   5.989
 9909SOL     OW30625   2.522   6.250   3.231
 9909SOL    HW130626   2.425   6.267   3.246
 9909SOL    HW230627   2.571   6.338   3.233
 9910SOL     OW30628   0.990   5.731   0.630
 9910SOL    HW130629   1.016   5.683   0.714
 9910SOL    HW230630   1.072   5.764   0.584
 9911SOL     OW30631   3.228   4.968   2.102
 9911SOL    HW130632   3.327   4.976   2.092
 9911SOL    HW230633   3.194   4.893   2.045
 9912SOL     OW30634   5.876   6.429   0.439
 9912SOL    HW130635   5.888   6.528   0.435
 9912SOL    HW230636   5.933   6.386   0.369
 9913SOL     OW30637   6.369   1.841   2.529
 9913SOL    HW130638   6.440   1.771   2.522
 9913SOL    HW230639   6.403   1.918   2.583
 9914SOL     OW30640   1.945   5.551   3.842
 9914SOL    HW130641   1.865   5.501   3.877
 9914SOL    HW230642   2.028   5.511   3.881
 9915SOL     OW30643   6.039   5.357   3.713
 9915SOL    HW130644   6.014   5.390   3.803
 9915SOL    HW230645   6.139   5.360   3.702
 9916SOL     OW30646   1.638   3.397   0.801
 9916SOL    HW130647   1.627   3.337   0.722
 9916SOL    HW230648   1.582   3.479   0.788
 9917SOL     OW30649   1.865   3.922   4.303
 9917SOL    HW130650   1.891   4.015   4.277
 9917SOL    HW230651   1.914   3.856   4.246
 9918SOL     OW30652   1.890   2.109   3.845
 9918SOL    HW130653   1.830   2.176   3.888
 9918SOL    HW230654   1.985   2.126   3.873
 9919SOL     OW30655   0.758   6.192   1.568
 9919SOL    HW130656   0.790   6.133   1.494
 9919SOL    HW230657   0.776   6.288   1.545
 9920SOL     OW30658   3.136   1.046   3.081
 9920SOL    HW130659   3.046   1.049   3.037
 9920SOL    HW230660   3.156   0.952   3.110
 9921SOL     OW30661   4.858   0.724   2.328
 9921SOL    HW130662   4.884   0.635   2.291
 9921SOL    HW230663   4.933   0.789   2.315
 9922SOL     OW30664   6.198   3.098   2.184
 9922SOL    HW130665   6.213   3.194   2.207
 9922SOL    HW230666   6.230   3.040   2.259
 9923SOL     OW30667   5.799   6.922   6.658
 9923SOL    HW130668   5.827   7.004   6.608
 9923SOL    HW230669   5.835   6.925   6.751
 9924SOL     OW30670   5.625   0.133   3.403
 9924SOL    HW130671   5.561   0.201   3.368
 9924SOL    HW230672   5.577   0.070   3.463
 9925SOL     OW30673   4.076   2.192   4.921
 9925SOL    HW130674   4.132   2.275   4.930
 9925SOL    HW230675   3.995   2.200   4.980
 9926SOL     OW30676   1.580   1.237   5.827
 9926SOL    HW130677   1.651   1.267   5.764
 9926SOL    HW230678   1.618   1.170   5.891
 9927SOL     OW30679   2.207   4.119   4.119
 9927SOL    HW130680   2.146   4.192   4.149
 9927SOL    HW230681   2.253   4.079   4.198
 9928SOL     OW30682   6.683   2.873   3.084
 9928SOL    HW130683   6.746   2.887   3.160
 9928SOL    HW230684   6.683   2.776   3.059
 9929SOL     OW30685   1.455   5.006   5.286
 9929SOL    HW130686   1.529   4.987   5.351
 9929SOL    HW230687   1.367   4.992   5.331
 9930SOL     OW30688   6.751   6.083   6.648
 9930SOL    HW130689   6.776   6.114   6.556
 9930SOL    HW230690   6.656   6.051   6.647
 9931SOL     OW30691   1.607   4.325   0.228
 9931SOL    HW130692   1.528   4.274   0.196
 9931SOL    HW230693   1.691   4.283   0.193
 9932SOL     OW30694   1.635   1.925   1.259
 9932SOL    HW130695   1.612   2.022   1.256
 9932SOL    HW230696   1.610   1.882   1.171
 9933SOL     OW30697   1.523   2.051   3.670
 9933SOL    HW130698   1.482   2.124   3.616
 9933SOL    HW230699   1.615   2.032   3.635
 9934SOL     OW30700   4.914   0.122   6.029
 9934SOL    HW130701   4.944   0.201   5.975
 9934SOL    HW230702   4.819   0.134   6.056
 9935SOL     OW30703   3.443   2.905   0.072
 9935SOL    HW130704   3.531   2.857   0.079
 9935SOL    HW230705   3.386   2.858   0.004
 9936SOL     OW30706   4.840   5.883   0.351
 9936SOL    HW130707   4.761   5.941   0.336
 9936SOL    HW230708   4.810   5.788   0.363
 9937SOL     OW30709   1.385   0.088   4.931
 9937SOL    HW130710   1.470   0.042   4.906
 9937SOL    HW230711   1.359   0.151   4.857
 9938SOL     OW30712   0.965   1.920   3.185
 9938SOL    HW130713   0.926   1.918   3.278
 9938SOL    HW230714   0.902   1.874   3.123
 9939SOL     OW30715   3.001   3.748   0.855
 9939SOL    HW130716   3.036   3.674   0.912
 9939SOL    HW230717   2.919   3.718   0.807
 9940SOL     OW30718   6.451   1.057   2.864
 9940SOL    HW130719   6.510   0.991   2.912
 9940SOL    HW230720   6.450   1.036   2.766
 9941SOL     OW30721   6.141   3.479   0.611
 9941SOL    HW130722   6.175   3.522   0.527
 9941SOL    HW230723   6.138   3.547   0.684
 9942SOL     OW30724   5.968   5.124   2.463
 9942SOL    HW130725   5.886   5.177   2.443
 9942SOL    HW230726   6.023   5.116   2.380
 9943SOL     OW30727   1.254   4.722   5.218
 9943SOL    HW130728   1.301   4.706   5.305
 9943SOL    HW230729   1.170   4.669   5.215
 9944SOL     OW30730   2.351   5.609   6.351
 9944SOL    HW130731   2.343   5.577   6.445
 9944SOL    HW230732   2.331   5.707   6.348
 9945SOL     OW30733   6.158   3.163   5.743
 9945SOL    HW130734   6.090   3.229   5.776
 9945SOL    HW230735   6.125   3.070   5.762
 9946SOL     OW30736   5.944   1.844   0.833
 9946SOL    HW130737   6.014   1.824   0.764
 9946SOL    HW230738   5.979   1.911   0.898
 9947SOL     OW30739   0.239   0.241   3.060
 9947SOL    HW130740   0.175   0.246   3.137
 9947SOL    HW230741   0.212   0.307   2.991
 9948SOL     OW30742   4.928   0.944   5.181
 9948SOL    HW130743   4.887   0.949   5.272
 9948SOL    HW230744   5.003   0.878   5.182
 9949SOL     OW30745   6.777   2.858   2.669
 9949SOL    HW130746   6.870   2.861   2.632
 9949SOL    HW230747   6.762   2.939   2.726
 9950SOL     OW30748   5.662   3.878   6.539
 9950SOL    HW130749   5.636   3.948   6.472
 9950SOL    HW230750   5.687   3.922   6.625
 9951SOL     OW30751   6.591   2.188   2.287
 9951SOL    HW130752   6.640   2.119   2.341
 9951SOL    HW230753   6.494   2.187   2.311
 9952SOL     OW30754   1.549   4.934   1.382
 9952SOL    HW130755   1.544   5.030   1.410
 9952SOL    HW230756   1.591   4.927   1.292
 9953SOL     OW30757   6.236   4.329   4.981
 9953SOL    HW130758   6.155   4.351   4.928
 9953SOL    HW230759   6.220   4.350   5.078
 9954SOL     OW30760   4.320   2.202   1.539
 9954SOL    HW130761   4.313   2.123   1.599
 9954SOL    HW230762   4.292   2.176   1.446
 9955SOL     OW30763   6.225   5.252   1.812
 9955SOL    HW130764   6.160   5.328   1.814
 9955SOL    HW230765   6.242   5.226   1.717
 9956SOL     OW30766   1.384   4.058   3.541
 9956SOL    HW130767   1.408   4.003   3.460
 9956SOL    HW230768   1.450   4.040   3.614
 9957SOL     OW30769   6.062   6.846   0.734
 9957SOL    HW130770   6.090   6.942   0.724
 9957SOL    HW230771   6.003   6.821   0.657
 9958SOL     OW30772   6.331   6.208   5.461
 9958SOL    HW130773   6.279   6.126   5.437
 9958SOL    HW230774   6.366   6.200   5.554
 9959SOL     OW30775   6.505   5.650   6.941
 9959SOL    HW130776   6.470   5.560   6.964
 9959SOL    HW230777   6.605   5.648   6.942
 9960SOL     OW30778   6.276   0.011   6.192
 9960SOL    HW130779   6.231   0.066   6.122
 9960SOL    HW230780   6.375   0.018   6.182
 9961SOL     OW30781   3.171   6.592   0.437
 9961SOL    HW130782   3.156   6.616   0.533
 9961SOL    HW230783   3.085   6.602   0.386
 9962SOL     OW30784   3.601   0.798   1.526
 9962SOL    HW130785   3.550   0.712   1.525
 9962SOL    HW230786   3.618   0.826   1.620
 9963SOL     OW30787   0.400   0.270   6.485
 9963SOL    HW130788   0.484   0.247   6.436
 9963SOL    HW230789   0.384   0.203   6.558
 9964SOL     OW30790   4.591   5.475   5.318
 9964SOL    HW130791   4.548   5.385   5.329
 9964SOL    HW230792   4.654   5.490   5.395
 9965SOL     OW30793   2.077   5.561   4.646
 9965SOL    HW130794   2.094   5.474   4.600
 9965SOL    HW230795   2.076   5.634   4.579
 9966SOL     OW30796   1.863   4.336   2.009
 9966SOL    HW130797   1.790   4.390   1.967
 9966SOL    HW230798   1.823   4.258   2.057
 9967SOL     OW30799   6.444   0.603   2.448
 9967SOL    HW130800   6.442   0.650   2.360
 9967SOL    HW230801   6.401   0.660   2.518
 9968SOL     OW30802   4.617   6.176   0.629
 9968SOL    HW130803   4.517   6.174   0.627
 9968SOL    HW230804   4.651   6.234   0.555
 9969SOL     OW30805   0.445   6.626   3.289
 9969SOL    HW130806   0.516   6.695   3.300
 9969SOL    HW230807   0.379   6.657   3.220
 9970SOL     OW30808   0.768   3.517   1.224
 9970SOL    HW130809   0.819   3.598   1.197
 9970SOL    HW230810   0.782   3.500   1.322
 9971SOL     OW30811   0.058   5.455   5.875
 9971SOL    HW130812   7.015   5.389   5.917
 9971SOL    HW230813   0.014   5.544   5.870
 9972SOL     OW30814   3.094   4.586   5.826
 9972SOL    HW130815   3.047   4.613   5.742
 9972SOL    HW230816   3.163   4.655   5.849
 9973SOL     OW30817   3.085   2.216   2.772
 9973SOL    HW130818   3.081   2.118   2.756
 9973SOL    HW230819   3.168   2.254   2.731
 9974SOL     OW30820   0.697   3.427   3.349
 9974SOL    HW130821   0.652   3.362   3.288
 9974SOL    HW230822   0.628   3.481   3.397
 9975SOL     OW30823   1.015   4.852   6.692
 9975SOL    HW130824   0.967   4.821   6.610
 9975SOL    HW230825   0.958   4.837   6.772
 9976SOL     OW30826   4.396   5.822   5.118
 9976SOL    HW130827   4.368   5.876   5.197
 9976SOL    HW230828   4.434   5.883   5.048
 9977SOL     OW30829   4.261   0.043   6.093
 9977SOL    HW130830   4.312   7.001   6.154
 9977SOL    HW230831   4.231   0.123   6.144
 9978SOL     OW30832   6.390   3.007   6.899
 9978SOL    HW130833   6.332   3.074   6.945
 9978SOL    HW230834   6.479   3.048   6.880
 9979SOL     OW30835   3.865   3.923   3.650
 9979SOL    HW130836   3.790   3.960   3.706
 9979SOL    HW230837   3.929   3.874   3.710
 9980SOL     OW30838   0.182   6.619   6.682
 9980SOL    HW130839   0.218   6.647   6.771
 9980SOL    HW230840   0.246   6.648   6.610
 9981SOL     OW30841   5.586   0.904   1.066
 9981SOL    HW130842   5.623   0.960   1.139
 9981SOL    HW230843   5.487   0.920   1.058
 9982SOL     OW30844   2.595   1.935   5.058
 9982SOL    HW130845   2.587   1.973   4.966
 9982SOL    HW230846   2.589   1.836   5.054
 9983SOL     OW30847   0.750   3.051   1.905
 9983SOL    HW130848   0.691   2.981   1.863
 9983SOL    HW230849   0.697   3.134   1.919
 9984SOL     OW30850   1.303   4.846   1.293
 9984SOL    HW130851   1.313   4.760   1.344
 9984SOL    HW230852   1.391   4.894   1.292
 9985SOL     OW30853   4.794   4.558   5.858
 9985SOL    HW130854   4.740   4.554   5.942
 9985SOL    HW230855   4.891   4.549   5.880
 9986SOL     OW30856   5.702   4.017   6.792
 9986SOL    HW130857   5.782   3.969   6.830
 9986SOL    HW230858   5.708   4.114   6.816
 9987SOL     OW30859   5.079   1.848   0.577
 9987SOL    HW130860   5.113   1.783   0.510
 9987SOL    HW230861   4.984   1.871   0.556
 9988SOL     OW30862   5.497   6.663   3.932
 9988SOL    HW130863   5.408   6.681   3.973
 9988SOL    HW230864   5.567   6.717   3.979
 9989SOL     OW30865   6.494   5.672   1.993
 9989SOL    HW130866   6.576   5.648   1.942
 9989SOL    HW230867   6.483   5.608   2.070
 9990SOL     OW30868   0.080   5.821   2.833
 9990SOL    HW130869   0.009   5.891   2.824
 9990SOL    HW230870   0.113   5.795   2.742
 9991SOL     OW30871   2.047   3.408   1.788
 9991SOL    HW130872   1.958   3.372   1.816
 9991SOL    HW230873   2.102   3.430   1.868
 9992SOL     OW30874   2.181   4.246   0.527
 9992SOL    HW130875   2.255   4.233   0.594
 9992SOL    HW230876   2.190   4.336   0.484
 9993SOL     OW30877   3.429   0.126   4.262
 9993SOL    HW130878   3.385   0.198   4.209
 9993SOL    HW230879   3.455   0.163   4.352
 9994SOL     OW30880   5.894   4.806   5.446
 9994SOL    HW130881   5.826   4.763   5.506
 9994SOL    HW230882   5.862   4.803   5.352
 9995SOL     OW30883   4.170   2.099   6.145
 9995SOL    HW130884   4.249   2.044   6.118
 9995SOL    HW230885   4.201   2.188   6.180
 9996SOL     OW30886   2.634   4.748   1.011
 9996SOL    HW130887   2.704   4.807   1.052
 9996SOL    HW230888   2.655   4.735   0.914
 9997SOL     OW30889   5.512   0.380   2.794
 9997SOL    HW130890   5.515   0.281   2.778
 9997SOL    HW230891   5.466   0.425   2.717
 9998SOL     OW30892   5.265   3.676   2.524
 9998SOL    HW130893   5.217   3.653   2.440
 9998SOL    HW230894   5.304   3.768   2.516
 9999SOL     OW30895   0.497   0.031   5.020
 9999SOL    HW130896   0.452   6.962   5.010
 9999SOL    HW230897   0.429   0.101   5.041
10000SOL     OW30898   4.558   3.312   1.670
10000SOL    HW130899   4.592   3.223   1.702
10000SOL    HW230900   4.613   3.344   1.593
10001SOL     OW30901   3.815   6.951   1.401
10001SOL    HW130902   3.867   0.017   1.413
10001SOL    HW230903   3.728   6.958   1.450
10002SOL     OW30904   2.062   6.807   2.962
10002SOL    HW130905   1.969   6.822   2.995
10002SOL    HW230906   2.079   6.868   2.884
10003SOL     OW30907   0.348   1.336   2.602
10003SOL    HW130908   0.305   1.401   2.539
10003SOL    HW230909   0.362   1.381   2.691
10004SOL     OW30910   6.945   2.849   3.280
10004SOL    HW130911   6.918   2.944   3.300
10004SOL    HW230912   0.013   2.830   3.324
10005SOL     OW30913   2.701   6.039   2.332
10005SOL    HW130914   2.628   6.052   2.399
10005SOL    HW230915   2.740   6.128   2.308
10006SOL     OW30916   5.504   1.882   6.191
10006SOL    HW130917   5.505   1.883   6.091
10006SOL    HW230918   5.415   1.849   6.222
10007SOL     OW30919   1.687   5.063   3.558
10007SOL    HW130920   1.620   5.005   3.603
10007SOL    HW230921   1.661   5.075   3.462
10008SOL     OW30922   3.841   0.870   6.048
10008SOL    HW130923   3.932   0.849   6.011
10008SOL    HW230924   3.818   0.965   6.026
10009SOL     OW30925   1.511   5.329   2.019
10009SOL    HW130926   1.557   5.331   2.108
10009SOL    HW230927   1.513   5.236   1.983
10010SOL     OW30928   2.075   5.047   0.688
10010SOL    HW130929   2.058   5.002   0.601
10010SOL    HW230930   2.145   4.997   0.738
10011SOL     OW30931   3.319   3.523   6.860
10011SOL    HW130932   3.244   3.566   6.909
10011SOL    HW230933   3.320   3.553   6.765
10012SOL     OW30934   5.894   1.633   2.988
10012SOL    HW130935   5.936   1.625   3.078
10012SOL    HW230936   5.963   1.660   2.921
10013SOL     OW30937   0.326   6.231   5.493
10013SOL    HW130938   0.418   6.220   5.530
10013SOL    HW230939   0.297   6.145   5.451
10014SOL     OW30940   1.365   1.141   2.799
10014SOL    HW130941   1.450   1.110   2.844
10014SOL    HW230942   1.361   1.102   2.707
10015SOL     OW30943   4.153   0.766   0.024
10015SOL    HW130944   4.238   0.769   0.077
10015SOL    HW230945   4.157   0.835   6.971
10016SOL     OW30946   3.017   0.906   4.893
10016SOL    HW130947   2.993   0.822   4.843
10016SOL    HW230948   2.991   0.985   4.838
10017SOL     OW30949   3.550   1.644   3.001
10017SOL    HW130950   3.537   1.631   3.100
10017SOL    HW230951   3.647   1.663   2.983
10018SOL     OW30952   0.383   4.779   5.234
10018SOL    HW130953   0.340   4.866   5.208
10018SOL    HW230954   0.328   4.735   5.304
10019SOL     OW30955   6.650   1.957   2.481
10019SOL    HW130956   6.675   1.998   2.569
10019SOL    HW230957   6.710   1.879   2.462
10020SOL     OW30958   6.638   0.855   2.922
10020SOL    HW130959   6.653   0.773   2.976
10020SOL    HW230960   6.660   0.836   2.826
10021SOL     OW30961   2.017   3.693   1.734
10021SOL    HW130962   1.929   3.652   1.713
10021SOL    HW230963   2.089   3.646   1.684
10022SOL     OW30964   1.112   6.719   6.078
10022SOL    HW130965   1.059   6.737   5.995
10022SOL    HW230966   1.143   6.805   6.118
10023SOL     OW30967   0.840   1.290   5.302
10023SOL    HW130968   0.805   1.322   5.214
10023SOL    HW230969   0.939   1.281   5.297
10024SOL     OW30970   1.971   4.215   3.607
10024SOL    HW130971   1.909   4.173   3.673
10024SOL    HW230972   1.944   4.310   3.591
10025SOL     OW30973   0.628   3.028   1.238
10025SOL    HW130974   0.612   3.071   1.327
10025SOL    HW230975   0.691   2.951   1.250
10026SOL     OW30976   6.797   1.160   4.457
10026SOL    HW130977   6.752   1.219   4.523
10026SOL    HW230978   6.892   1.190   4.443
10027SOL     OW30979   3.341   1.154   5.923
10027SOL    HW130980   3.360   1.154   5.825
10027SOL    HW230981   3.360   1.063   5.960
10028SOL     OW30982   3.824   6.685   2.196
10028SOL    HW130983   3.885   6.736   2.136
10028SOL    HW230984   3.876   6.620   2.250
10029SOL     OW30985   0.098   5.140   4.234
10029SOL    HW130986   0.134   5.084   4.159
10029SOL    HW230987   7.018   5.149   4.224
10030SOL     OW30988   2.902   6.782   4.162
10030SOL    HW130989   2.899   6.684   4.183
10030SOL    HW230990   2.887   6.796   4.064
10031SOL     OW30991   1.571   0.062   3.748
10031SOL    HW130992   1.558   0.160   3.732
10031SOL    HW230993   1.490   0.024   3.791
10032SOL     OW30994   2.952   6.150   4.430
10032SOL    HW130995   3.029   6.134   4.369
10032SOL    HW230996   2.974   6.118   4.522
10033SOL     OW30997   2.420   1.365   4.946
10033SOL    HW130998   2.486   1.385   5.019
10033SOL    HW230999   2.420   1.266   4.928
10034SOL     OW31000   2.380   1.007   1.976
10034SOL    HW131001   2.321   1.046   1.904
10034SOL    HW231002   2.476   1.019   1.951
10035SOL     OW31003   0.491   2.855   2.293
10035SOL    HW131004   0.572   2.853   2.352
10035SOL    HW231005   0.489   2.941   2.241
10036SOL     OW31006   0.363   1.548   0.013
10036SOL    HW131007   0.358   1.632   0.067
10036SOL    HW231008   0.401   1.569   6.942
10037SOL     OW31009   6.216   0.487   6.122
10037SOL    HW131010   6.138   0.545   6.096
10037SOL    HW231011   6.286   0.542   6.165
10038SOL     OW31012   4.615   6.774   6.708
10038SOL    HW131013   4.683   6.709   6.674
10038SOL    HW231014   4.618   6.857   6.653
10039SOL     OW31015   0.252   5.105   1.443
10039SOL    HW131016   0.216   5.187   1.487
10039SOL    HW231017   0.221   5.024   1.493
10040SOL     OW31018   2.820   0.474   0.571
10040SOL    HW131019   2.901   0.459   0.514
10040SOL    HW231020   2.830   0.558   0.624
10041SOL     OW31021   5.752   4.628   5.588
10041SOL    HW131022   5.656   4.655   5.604
10041SOL    HW231023   5.755   4.553   5.522
10042SOL     OW31024   6.202   0.711   4.954
10042SOL    HW131025   6.106   0.684   4.959
10042SOL    HW231026   6.253   0.642   4.901
10043SOL     OW31027   0.601   0.303   2.884
10043SOL    HW131028   0.535   0.320   2.957
10043SOL    HW231029   0.574   0.220   2.834
10044SOL     OW31030   2.896   2.210   6.843
10044SOL    HW131031   2.914   2.132   6.783
10044SOL    HW231032   2.974   2.271   6.844
10045SOL     OW31033   4.037   6.974   4.438
10045SOL    HW131034   4.136   6.988   4.430
10045SOL    HW231035   3.991   0.003   4.364
10046SOL     OW31036   6.813   2.333   1.505
10046SOL    HW131037   6.802   2.308   1.601
10046SOL    HW231038   6.735   2.388   1.476
10047SOL     OW31039   1.313   3.193   3.008
10047SOL    HW131040   1.341   3.097   3.010
10047SOL    HW231041   1.390   3.251   3.037
10048SOL     OW31042   3.377   2.253   1.745
10048SOL    HW131043   3.354   2.186   1.674
10048SOL    HW231044   3.476   2.266   1.748
10049SOL     OW31045   1.209   5.503   4.935
10049SOL    HW131046   1.170   5.427   4.883
10049SOL    HW231047   1.308   5.492   4.942
10050SOL     OW31048   5.793   1.244   5.253
10050SOL    HW131049   5.740   1.167   5.220
10050SOL    HW231050   5.799   1.314   5.182
10051SOL     OW31051   6.137   1.694   0.653
10051SOL    HW131052   6.226   1.650   0.665
10051SOL    HW231053   6.134   1.740   0.564
10052SOL     OW31054   1.915   5.187   0.899
10052SOL    HW131055   1.920   5.165   0.801
10052SOL    HW231056   1.902   5.285   0.911
10053SOL     OW31057   2.823   6.460   3.424
10053SOL    HW131058   2.811   6.559   3.419
10053SOL    HW231059   2.920   6.440   3.441
10054SOL     OW31060   4.654   4.861   3.786
10054SOL    HW131061   4.687   4.955   3.773
10054SOL    HW231062   4.588   4.839   3.714
10055SOL     OW31063   5.145   3.252   0.152
10055SOL    HW131064   5.051   3.247   0.119
10055SOL    HW231065   5.170   3.166   0.197
10056SOL     OW31066   4.839   3.899   2.900
10056SOL    HW131067   4.845   3.888   2.999
10056SOL    HW231068   4.840   3.809   2.856
10057SOL     OW31069   2.557   2.448   2.775
10057SOL    HW131070   2.634   2.419   2.718
10057SOL    HW231071   2.475   2.455   2.719
10058SOL     OW31072   0.937   4.811   3.859
10058SOL    HW131073   0.955   4.909   3.870
10058SOL    HW231074   0.928   4.768   3.949
10059SOL     OW31075   4.548   6.674   1.707
10059SOL    HW131076   4.536   6.688   1.609
10059SOL    HW231077   4.541   6.576   1.728
10060SOL     OW31078   2.487   2.554   2.300
10060SOL    HW131079   2.518   2.488   2.368
10060SOL    HW231080   2.517   2.525   2.209
10061SOL     OW31081   0.054   1.974   5.862
10061SOL    HW131082   0.114   1.919   5.804
10061SOL    HW231083   6.979   1.964   5.832
10062SOL     OW31084   5.214   5.785   2.925
10062SOL    HW131085   5.125   5.750   2.893
10062SOL    HW231086   5.217   5.884   2.912
10063SOL     OW31087   0.906   2.562   2.002
10063SOL    HW131088   0.894   2.528   1.908
10063SOL    HW231089   0.875   2.657   2.008
10064SOL     OW31090   5.008   5.082   5.711
10064SOL    HW131091   4.968   5.036   5.632
10064SOL    HW231092   4.988   5.030   5.794
10065SOL     OW31093   0.052   0.437   2.857
10065SOL    HW131094   0.093   0.464   2.770
10065SOL    HW231095   6.997   0.372   2.840
10066SOL     OW31096   0.188   0.667   3.899
10066SOL    HW131097   0.166   0.616   3.982
10066SOL    HW231098   0.195   0.765   3.920
10067SOL     OW31099   4.794   6.406   3.508
10067SOL    HW131100   4.779   6.307   3.497
10067SOL    HW231101   4.874   6.433   3.455
10068SOL     OW31102   5.190   3.320   5.606
10068SOL    HW131103   5.170   3.232   5.650
10068SOL    HW231104   5.161   3.395   5.667
10069SOL     OW31105   5.043   1.644   3.973
10069SOL    HW131106   4.995   1.680   3.893
10069SOL    HW231107   5.038   1.710   4.048
10070SOL     OW31108   1.393   0.257   4.450
10070SOL    HW131109   1.432   0.335   4.400
10070SOL    HW231110   1.444   0.174   4.427
10071SOL     OW31111   5.122   4.723   5.083
10071SOL    HW131112   5.167   4.647   5.129
10071SOL    HW231113   5.154   4.809   5.122
10072SOL     OW31114   1.228   6.609   4.067
10072SOL    HW131115   1.140   6.613   4.116
10072SOL    HW231116   1.273   6.698   4.072
10073SOL     OW31117   6.886   5.772   6.438
10073SOL    HW131118   6.797   5.816   6.430
10073SOL    HW231119   6.912   5.731   6.351
10074SOL     OW31120   2.158   0.055   5.056
10074SOL    HW131121   2.142   0.114   4.977
10074SOL    HW231122   2.228   0.097   5.115
10075SOL     OW31123   1.097   2.714   4.472
10075SOL    HW131124   1.099   2.719   4.372
10075SOL    HW231125   1.176   2.761   4.509
10076SOL     OW31126   5.777   0.333   3.678
10076SOL    HW131127   5.684   0.355   3.649
10076SOL    HW231128   5.839   0.405   3.646
10077SOL     OW31129   2.798   1.649   5.704
10077SOL    HW131130   2.839   1.721   5.760
10077SOL    HW231131   2.707   1.627   5.740
10078SOL     OW31132   5.563   6.407   5.231
10078SOL    HW131133   5.639   6.404   5.295
10078SOL    HW231134   5.477   6.402   5.282
10079SOL     OW31135   0.362   2.965   6.197
10079SOL    HW131136   0.459   2.950   6.180
10079SOL    HW231137   0.318   2.877   6.221
10080SOL     OW31138   1.231   2.981   5.371
10080SOL    HW131139   1.216   3.050   5.300
10080SOL    HW231140   1.248   2.892   5.328
10081SOL     OW31141   0.349   1.278   0.430
10081SOL    HW131142   0.372   1.321   0.517
10081SOL    HW231143   0.332   1.180   0.445
10082SOL     OW31144   6.914   0.526   0.471
10082SOL    HW131145   6.941   0.578   0.390
10082SOL    HW231146   6.945   0.431   0.463
10083SOL     OW31147   5.277   1.367   4.194
10083SOL    HW131148   5.326   1.396   4.276
10083SOL    HW231149   5.204   1.303   4.219
10084SOL     OW31150   2.405   0.362   6.236
10084SOL    HW131151   2.406   0.459   6.213
10084SOL    HW231152   2.499   0.327   6.235
10085SOL     OW31153   1.211   5.008   2.675
10085SOL    HW131154   1.200   5.100   2.639
10085SOL    HW231155   1.306   4.993   2.701
10086SOL     OW31156   6.728   2.969   1.995
10086SOL    HW131157   6.712   3.060   2.033
10086SOL    HW231158   6.715   2.901   2.066
10087SOL     OW31159   2.116   1.240   3.118
10087SOL    HW131160   2.213   1.265   3.126
10087SOL    HW231161   2.061   1.301   3.175
10088SOL     OW31162   5.842   0.017   4.679
10088SOL    HW131163   5.782   6.958   4.659
10088SOL    HW231164   5.852   0.026   4.778
10089SOL     OW31165   2.171   2.570   1.878
10089SOL    HW131166   2.219   2.528   1.955
10089SOL    HW231167   2.077   2.535   1.874
10090SOL     OW31168   0.836   5.536   1.971
10090SOL    HW131169   0.857   5.629   1.939
10090SOL    HW231170   0.850   5.531   2.070
10091SOL     OW31171   0.400   1.723   4.361
10091SOL    HW131172   0.320   1.727   4.420
10091SOL    HW231173   0.479   1.693   4.414
10092SOL     OW31174   1.953   2.985   5.661
10092SOL    HW131175   2.031   3.005   5.602
10092SOL    HW231176   1.877   2.952   5.605
10093SOL     OW31177   6.824   6.348   6.141
10093SOL    HW131178   6.901   6.288   6.119
10093SOL    HW231179   6.854   6.443   6.144
10094SOL     OW31180   1.602   0.356   1.853
10094SOL    HW131181   1.531   0.425   1.857
10094SOL    HW231182   1.640   0.340   1.944
10095SOL     OW31183   0.271   2.034   5.079
10095SOL    HW131184   0.250   1.986   4.994
10095SOL    HW231185   0.254   2.132   5.068
10096SOL     OW31186   6.724   5.560   2.480
10096SOL    HW131187   6.774   5.620   2.542
10096SOL    HW231188   6.636   5.603   2.456
10097SOL     OW31189   1.073   2.746   5.806
10097SOL    HW131190   1.015   2.731   5.886
10097SOL    HW231191   1.135   2.822   5.822
10098SOL     OW31192   3.814   5.368   6.643
10098SOL    HW131193   3.726   5.398   6.607
10098SOL    HW231194   3.810   5.367   6.743
10099SOL     OW31195   0.511   4.237   4.354
10099SOL    HW131196   0.476   4.247   4.448
10099SOL    HW231197   0.607   4.208   4.357
10100SOL     OW31198   4.948   0.061   5.692
10100SOL    HW131199   4.999   0.147   5.695
10100SOL    HW231200   4.997   7.015   5.635
10101SOL     OW31201   6.850   4.547   2.636
10101SOL    HW131202   6.870   4.451   2.655
10101SOL    HW231203   6.826   4.593   2.721
10102SOL     OW31204   3.952   0.685   4.116
10102SOL    HW131205   3.913   0.767   4.160
10102SOL    HW231206   4.031   0.654   4.169
10103SOL     OW31207   0.617   2.687   0.419
10103SOL    HW131208   0.556   2.757   0.457
10103SOL    HW231209   0.574   2.597   0.427
10104SOL     OW31210   2.447   5.938   5.634
10104SOL    HW131211   2.413   5.849   5.602
10104SOL    HW231212   2.405   5.960   5.722
10105SOL     OW31213   3.451   0.446   7.004
10105SOL    HW131214   3.472   0.541   6.981
10105SOL    HW231215   3.494   0.423   0.072
10106SOL     OW31216   4.489   5.289   0.946
10106SOL    HW131217   4.563   5.222   0.948
10106SOL    HW231218   4.527   5.381   0.957
10107SOL     OW31219   5.417   0.945   5.993
10107SOL    HW131220   5.440   1.029   5.943
10107SOL    HW231221   5.466   0.868   5.952
10108SOL     OW31222   5.116   6.286   6.443
10108SOL    HW131223   5.195   6.264   6.385
10108SOL    HW231224   5.130   6.246   6.534
10109SOL     OW31225   4.737   5.562   2.796
10109SOL    HW131226   4.819   5.603   2.835
10109SOL    HW231227   4.671   5.544   2.869
10110SOL     OW31228   3.274   1.772   6.130
10110SOL    HW131229   3.271   1.836   6.053
10110SOL    HW231230   3.234   1.815   6.211
10111SOL     OW31231   6.617   2.509   1.431
10111SOL    HW131232   6.579   2.590   1.477
10111SOL    HW231233   6.617   2.524   1.332
10112SOL     OW31234   4.556   3.432   6.244
10112SOL    HW131235   4.510   3.379   6.315
10112SOL    HW231236   4.520   3.407   6.154
10113SOL     OW31237   3.559   6.745   0.919
10113SOL    HW131238   3.544   6.832   0.966
10113SOL    HW231239   3.656   6.722   0.920
10114SOL     OW31240   4.535   1.303   1.902
10114SOL    HW131241   4.463   1.256   1.851
10114SOL    HW231242   4.556   1.251   1.985
10115SOL     OW31243   1.241   1.849   4.567
10115SOL    HW131244   1.194   1.763   4.585
10115SOL    HW231245   1.331   1.847   4.611
10116SOL     OW31246   0.547   0.455   0.923
10116SOL    HW131247   0.581   0.372   0.880
10116SOL    HW231248   0.465   0.434   0.977
10117SOL     OW31249   4.592   6.819   5.826
10117SOL    HW131250   4.608   6.910   5.864
10117SOL    HW231251   4.647   6.753   5.876
10118SOL     OW31252   5.914   5.587   2.384
10118SOL    HW131253   5.938   5.555   2.293
10118SOL    HW231254   5.967   5.537   2.453
10119SOL     OW31255   1.956   6.960   6.395
10119SOL    HW131256   2.044   6.937   6.435
10119SOL    HW231257   1.889   6.889   6.417
10120SOL     OW31258   5.638   3.395   3.416
10120SOL    HW131259   5.605   3.406   3.510
10120SOL    HW231260   5.580   3.448   3.354
10121SOL     OW31261   5.933   4.673   3.764
10121SOL    HW131262   5.956   4.694   3.859
10121SOL    HW231263   5.959   4.750   3.706
10122SOL     OW31264   5.253   2.775   0.573
10122SOL    HW131265   5.225   2.728   0.489
10122SOL    HW231266   5.172   2.793   0.629
10123SOL     OW31267   0.231   6.881   6.845
10123SOL    HW131268   0.152   6.856   6.789
10123SOL    HW231269   0.247   6.979   6.840
10124SOL     OW31270   3.074   3.983   0.692
10124SOL    HW131271   3.072   3.891   0.731
10124SOL    HW231272   3.033   4.048   0.756
10125SOL     OW31273   2.315   0.483   0.385
10125SOL    HW131274   2.315   0.582   0.375
10125SOL    HW231275   2.406   0.452   0.414
10126SOL     OW31276   6.003   5.228   6.192
10126SOL    HW131277   6.044   5.312   6.157
10126SOL    HW231278   5.990   5.163   6.117
10127SOL     OW31279   4.030   4.833   5.081
10127SOL    HW131280   3.963   4.785   5.136
10127SOL    HW231281   3.993   4.921   5.053
10128SOL     OW31282   1.107   1.267   1.279
10128SOL    HW131283   1.168   1.236   1.206
10128SOL    HW231284   1.161   1.283   1.362
10129SOL     OW31285   5.281   2.531   2.934
10129SOL    HW131286   5.236   2.446   2.905
10129SOL    HW231287   5.212   2.603   2.944
10130SOL     OW31288   6.086   6.025   1.433
10130SOL    HW131289   6.122   6.118   1.444
10130SOL    HW231290   6.002   6.028   1.379
10131SOL     OW31291   0.495   0.042   0.213
10131SOL    HW131292   0.475   0.106   0.138
10131SOL    HW231293   0.530   6.975   0.175
10132SOL     OW31294   2.590   6.583   2.489
10132SOL    HW131295   2.534   6.596   2.571
10132SOL    HW231296   2.640   6.667   2.469
10133SOL     OW31297   6.222   4.665   2.843
10133SOL    HW131298   6.286   4.643   2.917
10133SOL    HW231299   6.153   4.594   2.837
10134SOL     OW31300   0.335   1.486   1.743
10134SOL    HW131301   0.316   1.582   1.722
10134SOL    HW231302   0.259   1.429   1.711
10135SOL     OW31303   3.088   5.907   2.760
10135SOL    HW131304   3.060   5.982   2.821
10135SOL    HW231305   3.044   5.919   2.671
10136SOL     OW31306   6.328   6.763   2.403
10136SOL    HW131307   6.297   6.697   2.335
10136SOL    HW231308   6.356   6.848   2.356
10137SOL     OW31309   5.622   5.064   4.647
10137SOL    HW131310   5.609   5.082   4.745
10137SOL    HW231311   5.535   5.073   4.599
10138SOL     OW31312   5.989   2.864   5.869
10138SOL    HW131313   6.075   2.816   5.888
10138SOL    HW231314   5.973   2.933   5.939
10139SOL     OW31315   3.725   2.929   3.161
10139SOL    HW131316   3.789   2.990   3.209
10139SOL    HW231317   3.647   2.909   3.220
10140SOL     OW31318   1.068   4.931   4.217
10140SOL    HW131319   1.137   4.994   4.252
10140SOL    HW231320   0.992   4.926   4.281
10141SOL     OW31321   2.282   0.737   3.579
10141SOL    HW131322   2.286   0.793   3.661
10141SOL    HW231323   2.198   0.756   3.529
10142SOL     OW31324   5.358   5.685   4.571
10142SOL    HW131325   5.422   5.740   4.625
10142SOL    HW231326   5.407   5.606   4.533
10143SOL     OW31327   4.478   6.325   1.477
10143SOL    HW131328   4.486   6.420   1.445
10143SOL    HW231329   4.499   6.263   1.402
10144SOL     OW31330   2.553   4.803   2.707
10144SOL    HW131331   2.614   4.768   2.636
10144SOL    HW231332   2.489   4.732   2.735
10145SOL     OW31333   2.661   0.320   6.176
10145SOL    HW131334   2.669   0.226   6.208
10145SOL    HW231335   2.704   0.329   6.085
10146SOL     OW31336   4.822   4.861   4.462
10146SOL    HW131337   4.796   4.910   4.379
10146SOL    HW231338   4.805   4.763   4.449
10147SOL     OW31339   4.974   5.905   4.243
10147SOL    HW131340   5.041   5.861   4.303
10147SOL    HW231341   4.891   5.926   4.295
10148SOL     OW31342   6.358   5.740   0.803
10148SOL    HW131343   6.295   5.662   0.797
10148SOL    HW231344   6.371   5.765   0.899
10149SOL     OW31345   4.063   2.923   1.518
10149SOL    HW131346   4.126   2.882   1.452
10149SOL    HW231347   3.983   2.960   1.470
10150SOL     OW31348   5.552   4.252   0.745
10150SOL    HW131349   5.513   4.322   0.804
10150SOL    HW231350   5.649   4.271   0.730
10151SOL     OW31351   0.415   5.449   5.692
10151SOL    HW131352   0.509   5.457   5.659
10151SOL    HW231353   0.395   5.522   5.757
10152SOL     OW31354   0.854   5.582   4.056
10152SOL    HW131355   0.903   5.498   4.080
10152SOL    HW231356   0.920   5.651   4.025
10153SOL     OW31357   5.199   5.370   3.852
10153SOL    HW131358   5.154   5.282   3.869
10153SOL    HW231359   5.159   5.414   3.772
10154SOL     OW31360   6.754   5.978   5.762
10154SOL    HW131361   6.729   5.924   5.682
10154SOL    HW231362   6.779   6.070   5.734
10155SOL     OW31363   3.609   1.288   6.010
10155SOL    HW131364   3.513   1.263   6.003
10155SOL    HW231365   3.618   1.387   6.000
10156SOL     OW31366   5.626   0.141   2.272
10156SOL    HW131367   5.706   0.195   2.294
10156SOL    HW231368   5.622   0.126   2.173
10157SOL     OW31369   4.927   0.794   3.925
10157SOL    HW131370   4.933   0.782   3.826
10157SOL    HW231371   5.019   0.797   3.964
10158SOL     OW31372   4.831   2.835   5.856
10158SOL    HW131373   4.927   2.828   5.828
10158SOL    HW231374   4.826   2.861   5.952
10159SOL     OW31375   1.712   1.062   5.976
10159SOL    HW131376   1.696   1.122   6.055
10159SOL    HW231377   1.707   0.967   6.005
10160SOL     OW31378   0.237   5.933   3.746
10160SOL    HW131379   0.226   6.007   3.680
10160SOL    HW231380   0.333   5.926   3.772
10161SOL     OW31381   2.925   5.859   4.822
10161SOL    HW131382   2.899   5.845   4.918
10161SOL    HW231383   2.842   5.858   4.765
10162SOL     OW31384   3.089   2.986   6.355
10162SOL    HW131385   3.093   2.888   6.375
10162SOL    HW231386   3.154   3.008   6.283
10163SOL     OW31387   0.864   3.466   5.548
10163SOL    HW131388   0.794   3.476   5.478
10163SOL    HW231389   0.940   3.529   5.528
10164SOL     OW31390   1.418   2.453   6.338
10164SOL    HW131391   1.382   2.454   6.245
10164SOL    HW231392   1.377   2.529   6.390
10165SOL     OW31393   0.348   2.057   3.041
10165SOL    HW131394   0.309   2.054   3.133
10165SOL    HW231395   0.448   2.048   3.047
10166SOL     OW31396   0.454   0.959   2.078
10166SOL    HW131397   0.496   1.034   2.128
10166SOL    HW231398   0.359   0.949   2.107
10167SOL     OW31399   4.829   0.742   0.694
10167SOL    HW131400   4.845   0.782   0.604
10167SOL    HW231401   4.916   0.734   0.743
10168SOL     OW31402   6.615   4.692   4.529
10168SOL    HW131403   6.560   4.761   4.576
10168SOL    HW231404   6.571   4.603   4.538
10169SOL     OW31405   6.405   4.096   4.926
10169SOL    HW131406   6.346   4.168   4.965
10169SOL    HW231407   6.500   4.114   4.951
10170SOL     OW31408   1.386   4.147   5.003
10170SOL    HW131409   1.420   4.189   4.919
10170SOL    HW231410   1.347   4.057   4.981
10171SOL     OW31411   5.720   2.641   6.278
10171SOL    HW131412   5.803   2.635   6.333
10171SOL    HW231413   5.725   2.573   6.204
10172SOL     OW31414   4.809   0.547   4.595
10172SOL    HW131415   4.812   0.465   4.651
10172SOL    HW231416   4.854   0.622   4.644
10173SOL     OW31417   2.099   2.729   2.767
10173SOL    HW131418   2.052   2.741   2.854
10173SOL    HW231419   2.059   2.651   2.718
10174SOL     OW31420   6.602   4.452   0.938
10174SOL    HW131421   6.613   4.397   0.855
10174SOL    HW231422   6.514   4.432   0.980
10175SOL     OW31423   5.586   2.456   5.535
10175SOL    HW131424   5.650   2.532   5.522
10175SOL    HW231425   5.627   2.372   5.501
10176SOL     OW31426   2.248   3.214   0.677
10176SOL    HW131427   2.313   3.289   0.666
10176SOL    HW231428   2.235   3.195   0.775
10177SOL     OW31429   1.894   0.224   5.341
10177SOL    HW131430   1.957   0.291   5.381
10177SOL    HW231431   1.864   0.256   5.251
10178SOL     OW31432   5.634   2.873   4.978
10178SOL    HW131433   5.570   2.943   4.946
10178SOL    HW231434   5.700   2.852   4.906
10179SOL     OW31435   0.031   3.127   0.293
10179SOL    HW131436   0.093   3.193   0.334
10179SOL    HW231437   6.965   3.173   0.266
10180SOL     OW31438   1.971   6.365   6.113
10180SOL    HW131439   1.880   6.345   6.149
10180SOL    HW231440   1.967   6.367   6.013
10181SOL     OW31441   6.130   3.723   2.417
10181SOL    HW131442   6.105   3.635   2.457
10181SOL    HW231443   6.212   3.713   2.361
10182SOL     OW31444   4.252   1.489   0.811
10182SOL    HW131445   4.168   1.543   0.798
10182SOL    HW231446   4.311   1.502   0.732
10183SOL     OW31447   1.895   1.506   6.225
10183SOL    HW131448   1.868   1.494   6.129
10183SOL    HW231449   1.813   1.526   6.279
10184SOL     OW31450   4.878   0.468   0.094
10184SOL    HW131451   4.911   0.541   0.035
10184SOL    HW231452   4.833   0.398   0.039
10185SOL     OW31453   4.451   1.194   0.344
10185SOL    HW131454   4.536   1.219   0.297
10185SOL    HW231455   4.451   1.096   0.362
10186SOL     OW31456   4.837   2.300   2.915
10186SOL    HW131457   4.851   2.343   2.826
10186SOL    HW231458   4.780   2.218   2.903
10187SOL     OW31459   1.032   2.409   2.387
10187SOL    HW131460   1.060   2.398   2.482
10187SOL    HW231461   1.073   2.493   2.350
10188SOL     OW31462   4.170   5.342   0.402
10188SOL    HW131463   4.091   5.284   0.424
10188SOL    HW231464   4.138   5.430   0.368
10189SOL     OW31465   1.230   6.893   4.993
10189SOL    HW131466   1.286   6.975   4.986
10189SOL    HW231467   1.146   6.914   5.044
10190SOL     OW31468   5.562   2.691   0.060
10190SOL    HW131469   5.650   2.712   0.017
10190SOL    HW231470   5.498   2.766   0.043
10191SOL     OW31471   6.927   4.500   6.539
10191SOL    HW131472   6.939   4.488   6.637
10191SOL    HW231473   6.848   4.559   6.522
10192SOL     OW31474   3.509   1.733   0.052
10192SOL    HW131475   3.464   1.671   0.116
10192SOL    HW231476   3.603   1.750   0.083
10193SOL     OW31477   4.700   4.400   0.504
10193SOL    HW131478   4.658   4.443   0.584
10193SOL    HW231479   4.720   4.304   0.525
10194SOL     OW31480   5.105   2.545   4.934
10194SOL    HW131481   5.030   2.492   4.975
10194SOL    HW231482   5.173   2.566   5.003
10195SOL     OW31483   5.909   4.386   1.869
10195SOL    HW131484   5.818   4.388   1.828
10195SOL    HW231485   5.943   4.292   1.873
10196SOL     OW31486   0.374   1.873   4.150
10196SOL    HW131487   0.386   1.820   4.234
10196SOL    HW231488   0.459   1.922   4.130
10197SOL     OW31489   5.558   0.392   6.979
10197SOL    HW131490   5.557   0.470   6.916
10197SOL    HW231491   5.490   0.407   0.032
10198SOL     OW31492   4.264   6.942   3.270
10198SOL    HW131493   4.359   6.913   3.265
10198SOL    HW231494   4.207   6.878   3.218
10199SOL     OW31495   0.857   2.199   5.431
10199SOL    HW131496   0.815   2.157   5.350
10199SOL    HW231497   0.797   2.272   5.465
10200SOL     OW31498   5.119   2.341   2.012
10200SOL    HW131499   5.142   2.282   1.934
10200SOL    HW231500   5.022   2.334   2.033
10201SOL     OW31501   1.914   3.676   0.640
10201SOL    HW131502   1.950   3.645   0.552
10201SOL    HW231503   1.932   3.606   0.710
10202SOL     OW31504   5.172   0.572   3.584
10202SOL    HW131505   5.146   0.581   3.680
10202SOL    HW231506   5.208   0.480   3.568
10203SOL     OW31507   6.828   2.817   5.332
10203SOL    HW131508   6.888   2.898   5.337
10203SOL    HW231509   6.883   2.735   5.346
10204SOL     OW31510   5.365   4.568   6.293
10204SOL    HW131511   5.392   4.483   6.339
10204SOL    HW231512   5.429   4.587   6.219
10205SOL     OW31513   0.331   1.379   6.632
10205SOL    HW131514   0.430   1.363   6.634
10205SOL    HW231515   0.305   1.414   6.542
10206SOL     OW31516   1.854   1.947   4.478
10206SOL    HW131517   1.839   1.855   4.443
10206SOL    HW231518   1.945   1.953   4.518
10207SOL     OW31519   2.422   2.416   5.680
10207SOL    HW131520   2.386   2.366   5.758
10207SOL    HW231521   2.439   2.353   5.604
10208SOL     OW31522   6.815   0.054   5.842
10208SOL    HW131523   6.757   6.997   5.812
10208SOL    HW231524   6.899   0.017   5.882
10209SOL     OW31525   6.961   6.428   5.345
10209SOL    HW131526   6.966   6.343   5.397
10209SOL    HW231527   6.997   6.503   5.400
10210SOL     OW31528   3.871   0.719   1.801
10210SOL    HW131529   3.831   0.765   1.880
10210SOL    HW231530   3.915   0.786   1.741
10211SOL     OW31531   4.883   5.267   6.257
10211SOL    HW131532   4.847   5.237   6.345
10211SOL    HW231533   4.827   5.342   6.222
10212SOL     OW31534   0.498   0.751   6.843
10212SOL    HW131535   0.417   0.809   6.831
10212SOL    HW231536   0.474   0.672   6.899
10213SOL     OW31537   6.878   3.014   1.353
10213SOL    HW131538   6.870   3.096   1.297
10213SOL    HW231539   6.975   2.999   1.376
10214SOL     OW31540   1.429   2.828   0.084
10214SOL    HW131541   1.462   2.920   0.062
10214SOL    HW231542   1.498   2.780   0.139
10215SOL     OW31543   3.284   4.100   2.447
10215SOL    HW131544   3.297   4.176   2.383
10215SOL    HW231545   3.289   4.133   2.541
10216SOL     OW31546   0.095   6.647   1.996
10216SOL    HW131547   0.095   6.735   1.949
10216SOL    HW231548   0.070   6.661   2.092
10217SOL     OW31549   4.287   1.625   5.004
10217SOL    HW131550   4.294   1.596   5.099
10217SOL    HW231551   4.196   1.662   4.987
10218SOL     OW31552   1.075   2.881   2.814
10218SOL    HW131553   1.171   2.876   2.840
10218SOL    HW231554   1.055   2.813   2.744
10219SOL     OW31555   6.611   6.459   2.607
10219SOL    HW131556   6.574   6.371   2.575
10219SOL    HW231557   6.538   6.511   2.652
10220SOL     OW31558   3.546   3.406   6.962
10220SOL    HW131559   3.491   3.464   6.902
10220SOL    HW231560   3.543   3.442   0.036
10221SOL     OW31561   1.215   5.347   3.193
10221SOL    HW131562   1.193   5.287   3.271
10221SOL    HW231563   1.134   5.356   3.135
10222SOL     OW31564   3.130   3.863   3.576
10222SOL    HW131565   3.150   3.947   3.524
10222SOL    HW231566   3.046   3.822   3.541
10223SOL     OW31567   2.623   6.709   0.904
10223SOL    HW131568   2.524   6.698   0.891
10223SOL    HW231569   2.647   6.687   0.998
10224SOL     OW31570   6.890   3.274   2.942
10224SOL    HW131571   6.842   3.193   2.909
10224SOL    HW231572   6.980   3.247   2.977
10225SOL     OW31573   1.811   3.806   5.966
10225SOL    HW131574   1.879   3.868   5.927
10225SOL    HW231575   1.810   3.816   6.065
10226SOL     OW31576   4.309   4.393   0.020
10226SOL    HW131577   4.264   4.354   0.100
10226SOL    HW231578   4.318   4.492   0.031
10227SOL     OW31579   5.147   4.047   1.133
10227SOL    HW131580   5.199   4.074   1.052
10227SOL    HW231581   5.184   4.093   1.214
10228SOL     OW31582   5.549   0.494   0.479
10228SOL    HW131583   5.463   0.464   0.520
10228SOL    HW231584   5.620   0.428   0.500
10229SOL     OW31585   0.522   1.886   4.662
10229SOL    HW131586   0.472   1.800   4.676
10229SOL    HW231587   0.566   1.913   4.748
10230SOL     OW31588   6.653   6.071   1.636
10230SOL    HW131589   6.723   6.035   1.575
10230SOL    HW231590   6.655   6.022   1.723
10231SOL     OW31591   0.448   3.894   2.199
10231SOL    HW131592   0.363   3.946   2.206
10231SOL    HW231593   0.492   3.913   2.111
10232SOL     OW31594   4.542   4.795   2.499
10232SOL    HW131595   4.589   4.775   2.585
10232SOL    HW231596   4.468   4.729   2.486
10233SOL     OW31597   3.186   3.940   5.818
10233SOL    HW131598   3.271   3.913   5.773
10233SOL    HW231599   3.109   3.924   5.757
10234SOL     OW31600   0.636   0.803   2.268
10234SOL    HW131601   0.552   0.828   2.220
10234SOL    HW231602   0.620   0.805   2.366
10235SOL     OW31603   1.117   1.174   2.943
10235SOL    HW131604   1.207   1.168   2.900
10235SOL    HW231605   1.069   1.087   2.934
10236SOL     OW31606   0.637   0.797   2.944
10236SOL    HW131607   0.710   0.818   2.879
10236SOL    HW231608   0.550   0.830   2.909
10237SOL     OW31609   6.778   3.708   5.533
10237SOL    HW131610   6.873   3.730   5.512
10237SOL    HW231611   6.750   3.756   5.616
10238SOL     OW31612   2.957   6.762   1.331
10238SOL    HW131613   2.977   6.825   1.256
10238SOL    HW231614   2.924   6.813   1.410
10239SOL     OW31615   1.152   2.476   5.040
10239SOL    HW131616   1.137   2.453   5.136
10239SOL    HW231617   1.095   2.553   5.014
10240SOL     OW31618   2.069   5.901   1.435
10240SOL    HW131619   2.059   5.892   1.336
10240SOL    HW231620   2.014   5.831   1.481
10241SOL     OW31621   4.163   3.560   1.687
10241SOL    HW131622   4.073   3.543   1.648
10241SOL    HW231623   4.153   3.607   1.775
10242SOL     OW31624   0.336   3.628   1.242
10242SOL    HW131625   0.313   3.723   1.220
10242SOL    HW231626   0.399   3.627   1.320
10243SOL     OW31627   3.462   5.348   2.020
10243SOL    HW131628   3.492   5.273   1.960
10243SOL    HW231629   3.478   5.435   1.974
10244SOL     OW31630   2.402   4.962   1.540
10244SOL    HW131631   2.457   4.882   1.563
10244SOL    HW231632   2.353   4.994   1.621
10245SOL     OW31633   6.049   4.093   1.259
10245SOL    HW131634   6.022   4.187   1.237
10245SOL    HW231635   6.144   4.091   1.287
10246SOL     OW31636   3.684   3.266   3.541
10246SOL    HW131637   3.710   3.320   3.461
10246SOL    HW231638   3.710   3.171   3.527
10247SOL     OW31639   0.751   3.275   4.563
10247SOL    HW131640   0.775   3.371   4.571
10247SOL    HW231641   0.755   3.248   4.467
10248SOL     OW31642   0.239   1.451   4.590
10248SOL    HW131643   0.230   1.453   4.491
10248SOL    HW231644   0.320   1.397   4.615
10249SOL     OW31645   2.708   4.491   5.756
10249SOL    HW131646   2.755   4.555   5.817
10249SOL    HW231647   2.774   4.449   5.694
10250SOL     OW31648   3.133   3.102   0.545
10250SOL    HW131649   3.173   3.049   0.470
10250SOL    HW231650   3.048   3.145   0.514
10251SOL     OW31651   0.977   0.790   4.602
10251SOL    HW131652   1.044   0.716   4.594
10251SOL    HW231653   0.948   0.798   4.697
10252SOL     OW31654   5.043   4.512   5.924
10252SOL    HW131655   5.105   4.584   5.954
10252SOL    HW231656   5.082   4.465   5.845
10253SOL     OW31657   3.735   5.796   6.608
10253SOL    HW131658   3.736   5.704   6.649
10253SOL    HW231659   3.647   5.812   6.563
10254SOL     OW31660   6.368   1.265   6.255
10254SOL    HW131661   6.384   1.348   6.202
10254SOL    HW231662   6.439   1.198   6.234
10255SOL     OW31663   3.933   4.492   1.679
10255SOL    HW131664   3.984   4.578   1.672
10255SOL    HW231665   3.997   4.415   1.669
10256SOL     OW31666   2.968   1.378   4.549
10256SOL    HW131667   3.067   1.374   4.566
10256SOL    HW231668   2.952   1.418   4.458
10257SOL     OW31669   3.336   5.756   3.149
10257SOL    HW131670   3.368   5.842   3.108
10257SOL    HW231671   3.248   5.771   3.193
10258SOL     OW31672   2.989   1.806   2.332
10258SOL    HW131673   2.958   1.901   2.331
10258SOL    HW231674   3.030   1.786   2.421
10259SOL     OW31675   1.352   4.053   4.004
10259SOL    HW131676   1.424   3.993   3.969
10259SOL    HW231677   1.383   4.098   4.087
10260SOL     OW31678   0.662   0.462   3.352
10260SOL    HW131679   0.636   0.528   3.281
10260SOL    HW231680   0.579   0.426   3.395
10261SOL     OW31681   0.349   3.880   1.195
10261SOL    HW131682   0.305   3.916   1.112
10261SOL    HW231683   0.324   3.936   1.273
10262SOL     OW31684   3.790   1.009   0.150
10262SOL    HW131685   3.762   0.925   0.196
10262SOL    HW231686   3.723   1.081   0.168
10263SOL     OW31687   5.516   0.102   3.063
10263SOL    HW131688   5.586   0.038   3.092
10263SOL    HW231689   5.497   0.089   2.965
10264SOL     OW31690   6.594   0.331   6.226
10264SOL    HW131691   6.609   0.407   6.289
10264SOL    HW231692   6.682   0.292   6.199
10265SOL     OW31693   2.008   1.327   2.275
10265SOL    HW131694   2.085   1.366   2.326
10265SOL    HW231695   1.982   1.390   2.202
10266SOL     OW31696   2.680   3.793   1.338
10266SOL    HW131697   2.778   3.807   1.345
10266SOL    HW231698   2.634   3.830   1.419
10267SOL     OW31699   6.671   0.404   0.940
10267SOL    HW131700   6.612   0.409   0.860
10267SOL    HW231701   6.625   0.354   1.014
10268SOL     OW31702   3.160   5.547   2.611
10268SOL    HW131703   3.132   5.481   2.541
10268SOL    HW231704   3.255   5.573   2.597
10269SOL     OW31705   2.336   1.434   0.087
10269SOL    HW131706   2.436   1.428   0.077
10269SOL    HW231707   2.313   1.446   0.184
10270SOL     OW31708   2.697   0.437   4.214
10270SOL    HW131709   2.739   0.513   4.163
10270SOL    HW231710   2.769   0.377   4.249
10271SOL     OW31711   2.182   1.257   6.955
10271SOL    HW131712   2.194   1.185   0.004
10271SOL    HW231713   2.230   1.340   6.986
10272SOL     OW31714   5.778   6.527   4.974
10272SOL    HW131715   5.712   6.457   4.946
10272SOL    HW231716   5.847   6.486   5.033
10273SOL     OW31717   1.799   5.542   3.257
10273SOL    HW131718   1.823   5.445   3.259
10273SOL    HW231719   1.824   5.581   3.168
10274SOL     OW31720   0.823   3.726   5.185
10274SOL    HW131721   0.725   3.705   5.186
10274SOL    HW231722   0.860   3.708   5.094
10275SOL     OW31723   7.012   1.145   2.296
10275SOL    HW131724   6.914   1.154   2.312
10275SOL    HW231725   0.036   1.235   2.298
10276SOL     OW31726   3.041   5.118   5.409
10276SOL    HW131727   2.973   5.053   5.442
10276SOL    HW231728   3.029   5.134   5.311
10277SOL     OW31729   0.836   5.115   3.614
10277SOL    HW131730   0.745   5.081   3.639
10277SOL    HW231731   0.899   5.039   3.608
10278SOL     OW31732   6.294   0.176   4.740
10278SOL    HW131733   6.308   0.258   4.796
10278SOL    HW231734   6.315   0.197   4.644
10279SOL     OW31735   1.113   4.648   4.285
10279SOL    HW131736   1.081   4.591   4.209
10279SOL    HW231737   1.097   4.744   4.264
10280SOL     OW31738   6.210   5.312   0.707
10280SOL    HW131739   6.258   5.321   0.794
10280SOL    HW231740   6.164   5.399   0.685
10281SOL     OW31741   6.022   0.326   4.918
10281SOL    HW131742   6.117   0.303   4.939
10281SOL    HW231743   6.008   0.322   4.819
10282SOL     OW31744   4.510   2.557   3.181
10282SOL    HW131745   4.560   2.471   3.171
10282SOL    HW231746   4.554   2.614   3.250
10283SOL     OW31747   0.137   2.110   0.704
10283SOL    HW131748   0.090   2.102   0.792
10283SOL    HW231749   0.234   2.090   0.716
10284SOL     OW31750   0.479   4.933   4.997
10284SOL    HW131751   0.408   4.995   4.961
10284SOL    HW231752   0.536   4.901   4.922
10285SOL     OW31753   6.925   6.544   6.417
10285SOL    HW131754   6.935   6.606   6.494
10285SOL    HW231755   6.949   6.591   6.332
10286SOL     OW31756   2.956   1.116   2.394
10286SOL    HW131757   2.949   1.191   2.329
10286SOL    HW231758   3.024   1.050   2.362
10287SOL     OW31759   0.497   5.939   2.609
10287SOL    HW131760   0.427   5.931   2.538
10287SOL    HW231761   0.515   5.848   2.649
10288SOL     OW31762   4.146   5.902   4.084
10288SOL    HW131763   4.148   5.888   3.984
10288SOL    HW231764   4.216   5.969   4.109
10289SOL     OW31765   3.864   6.186   6.846
10289SOL    HW131766   3.914   6.273   6.842
10289SOL    HW231767   3.928   6.110   6.835
10290SOL     OW31768   3.239   3.360   2.493
10290SOL    HW131769   3.244   3.453   2.457
10290SOL    HW231770   3.298   3.300   2.438
10291SOL     OW31771   3.015   2.196   2.382
10291SOL    HW131772   3.100   2.205   2.434
10291SOL    HW231773   3.035   2.184   2.285
10292SOL     OW31774   0.269   0.069   5.856
10292SOL    HW131775   0.204   0.002   5.892
10292SOL    HW231776   0.329   0.101   5.929
10293SOL     OW31777   0.999   3.290   5.145
10293SOL    HW131778   0.917   3.338   5.112
10293SOL    HW231779   1.009   3.305   5.244
10294SOL     OW31780   1.641   6.792   1.820
10294SOL    HW131781   1.638   6.890   1.835
10294SOL    HW231782   1.646   6.773   1.722
10295SOL     OW31783   1.674   1.178   0.965
10295SOL    HW131784   1.746   1.109   0.964
10295SOL    HW231785   1.611   1.162   0.889
10296SOL     OW31786   6.419   2.292   5.399
10296SOL    HW131787   6.470   2.209   5.377
10296SOL    HW231788   6.414   2.351   5.318
10297SOL     OW31789   4.793   0.937   0.964
10297SOL    HW131790   4.734   0.864   0.930
10297SOL    HW231791   4.880   0.935   0.914
10298SOL     OW31792   1.099   1.804   1.696
10298SOL    HW131793   1.042   1.884   1.712
10298SOL    HW231794   1.061   1.749   1.622
10299SOL     OW31795   5.029   0.003   2.392
10299SOL    HW131796   4.938   7.008   2.428
10299SOL    HW231797   5.060   6.940   2.344
10300SOL     OW31798   1.330   2.929   0.813
10300SOL    HW131799   1.279   2.875   0.880
10300SOL    HW231800   1.319   3.026   0.833
10301SOL     OW31801   4.145   1.328   0.226
10301SOL    HW131802   4.196   1.329   0.312
10301SOL    HW231803   4.169   1.408   0.172
10302SOL     OW31804   3.338   6.312   5.581
10302SOL    HW131805   3.265   6.260   5.537
10302SOL    HW231806   3.365   6.268   5.666
10303SOL     OW31807   0.547   4.242   4.868
10303SOL    HW131808   0.502   4.200   4.947
10303SOL    HW231809   0.512   4.335   4.855
10304SOL     OW31810   5.183   6.279   1.570
10304SOL    HW131811   5.252   6.349   1.591
10304SOL    HW231812   5.190   6.254   1.473
10305SOL     OW31813   2.750   3.696   5.273
10305SOL    HW131814   2.843   3.714   5.304
10305SOL    HW231815   2.752   3.652   5.183
10306SOL     OW31816   4.284   0.773   0.954
10306SOL    HW131817   4.224   0.811   1.025
10306SOL    HW231818   4.297   0.841   0.882
10307SOL     OW31819   1.807   0.309   5.086
10307SOL    HW131820   1.818   0.242   5.012
10307SOL    HW231821   1.799   0.401   5.047
10308SOL     OW31822   2.739   4.448   1.605
10308SOL    HW131823   2.657   4.402   1.639
10308SOL    HW231824   2.811   4.443   1.674
10309SOL     OW31825   0.094   1.320   5.188
10309SOL    HW131826   0.085   1.252   5.115
10309SOL    HW231827   0.182   1.307   5.235
10310SOL     OW31828   3.557   4.056   6.369
10310SOL    HW131829   3.490   4.081   6.299
10310SOL    HW231830   3.526   3.975   6.417
10311SOL     OW31831   5.760   6.148   6.844
10311SOL    HW131832   5.681   6.208   6.834
10311SOL    HW231833   5.833   6.178   6.784
10312SOL     OW31834   3.163   6.954   2.334
10312SOL    HW131835   3.114   0.020   2.314
10312SOL    HW231836   3.101   6.877   2.324
10313SOL     OW31837   5.050   6.678   3.067
10313SOL    HW131838   4.982   6.712   3.132
10313SOL    HW231839   5.127   6.743   3.064
10314SOL     OW31840   0.992   6.757   0.918
10314SOL    HW131841   0.988   6.786   0.823
10314SOL    HW231842   0.912   6.700   0.939
10315SOL     OW31843   5.008   4.438   3.692
10315SOL    HW131844   4.977   4.483   3.775
10315SOL    HW231845   5.071   4.498   3.643
10316SOL     OW31846   1.122   1.631   0.404
10316SOL    HW131847   1.071   1.688   0.340
10316SOL    HW231848   1.207   1.677   0.430
10317SOL     OW31849   3.900   6.407   4.879
10317SOL    HW131850   3.823   6.416   4.943
10317SOL    HW231851   3.898   6.483   4.814
10318SOL     OW31852   6.258   0.019   0.322
10318SOL    HW131853   6.334   0.035   0.260
10318SOL    HW231854   6.211   6.953   0.297
10319SOL     OW31855   0.836   4.460   4.229
10319SOL    HW131856   0.823   4.469   4.328
10319SOL    HW231857   0.831   4.550   4.186
10320SOL     OW31858   6.380   0.324   2.557
10320SOL    HW131859   6.315   0.356   2.626
10320SOL    HW231860   6.407   0.401   2.498
10321SOL     OW31861   5.896   2.320   3.030
10321SOL    HW131862   5.834   2.245   3.006
10321SOL    HW231863   5.887   2.341   3.127
10322SOL     OW31864   4.625   4.464   4.931
10322SOL    HW131865   4.687   4.387   4.951
10322SOL    HW231866   4.533   4.442   4.962
10323SOL     OW31867   1.551   4.546   6.033
10323SOL    HW131868   1.523   4.635   5.996
10323SOL    HW231869   1.591   4.491   5.961
10324SOL     OW31870   2.857   3.643   3.003
10324SOL    HW131871   2.857   3.742   3.009
10324SOL    HW231872   2.863   3.615   2.907
10325SOL     OW31873   5.464   5.931   4.756
10325SOL    HW131874   5.422   5.888   4.836
10325SOL    HW231875   5.392   5.960   4.692
10326SOL     OW31876   5.506   3.478   0.204
10326SOL    HW131877   5.495   3.451   0.108
10326SOL    HW231878   5.473   3.404   0.263
10327SOL     OW31879   1.617   5.500   6.606
10327SOL    HW131880   1.704   5.543   6.628
10327SOL    HW231881   1.624   5.455   6.516
10328SOL     OW31882   5.566   2.665   2.539
10328SOL    HW131883   5.552   2.566   2.541
10328SOL    HW231884   5.499   2.709   2.600
10329SOL     OW31885   3.638   1.930   1.698
10329SOL    HW131886   3.656   2.027   1.682
10329SOL    HW231887   3.680   1.877   1.624
10330SOL     OW31888   5.188   7.014   1.516
10330SOL    HW131889   5.124   6.971   1.579
10330SOL    HW231890   5.267   0.029   1.566
10331SOL     OW31891   5.333   5.297   5.994
10331SOL    HW131892   5.278   5.338   5.921
10331SOL    HW231893   5.277   5.285   6.076
10332SOL     OW31894   1.806   1.925   6.305
10332SOL    HW131895   1.836   2.020   6.303
10332SOL    HW231896   1.864   1.872   6.366
10333SOL     OW31897   1.361   3.758   4.499
10333SOL    HW131898   1.443   3.730   4.450
10333SOL    HW231899   1.374   3.741   4.597
10334SOL     OW31900   3.365   1.218   4.308
10334SOL    HW131901   3.381   1.225   4.210
10334SOL    HW231902   3.404   1.133   4.342
10335SOL     OW31903   2.005   3.082   4.657
10335SOL    HW131904   2.043   3.086   4.749
10335SOL    HW231905   1.953   3.166   4.638
10336SOL     OW31906   5.656   6.569   3.699
10336SOL    HW131907   5.736   6.583   3.759
10336SOL    HW231908   5.572   6.584   3.752
10337SOL     OW31909   6.398   6.109   0.195
10337SOL    HW131910   6.426   6.146   0.107
10337SOL    HW231911   6.412   6.010   0.195
10338SOL     OW31912   0.933   6.411   2.079
10338SOL    HW131913   1.014   6.451   2.036
10338SOL    HW231914   0.857   6.475   2.073
10339SOL     OW31915   5.401   2.616   5.629
10339SOL    HW131916   5.423   2.694   5.570
10339SOL    HW231917   5.447   2.535   5.594
10340SOL     OW31918   2.393   4.121   6.453
10340SOL    HW131919   2.415   4.208   6.497
10340SOL    HW231920   2.462   4.100   6.383
10341SOL     OW31921   2.655   4.733   3.343
10341SOL    HW131922   2.621   4.781   3.262
10341SOL    HW231923   2.652   4.794   3.421
10342SOL     OW31924   0.702   1.184   3.796
10342SOL    HW131925   0.615   1.222   3.765
10342SOL    HW231926   0.692   1.085   3.809
10343SOL     OW31927   3.933   5.207   1.944
10343SOL    HW131928   3.907   5.120   1.902
10343SOL    HW231929   4.002   5.252   1.887
10344SOL     OW31930   5.009   6.720   6.536
10344SOL    HW131931   4.977   6.811   6.510
10344SOL    HW231932   4.947   6.682   6.606
10345SOL     OW31933   1.239   3.914   4.927
10345SOL    HW131934   1.242   3.928   4.828
10345SOL    HW231935   1.211   3.820   4.946
10346SOL     OW31936   0.448   5.904   0.274
10346SOL    HW131937   0.368   5.960   0.294
10346SOL    HW231938   0.419   5.810   0.253
10347SOL     OW31939   5.995   1.795   4.925
10347SOL    HW131940   6.016   1.867   4.990
10347SOL    HW231941   6.078   1.743   4.904
10348SOL     OW31942   0.538   4.920   1.081
10348SOL    HW131943   0.459   4.892   1.136
10348SOL    HW231944   0.593   4.985   1.134
10349SOL     OW31945   6.809   6.320   6.777
10349SOL    HW131946   6.786   6.232   6.734
10349SOL    HW231947   6.795   6.393   6.711
10350SOL     OW31948   3.840   0.489   6.195
10350SOL    HW131949   3.807   0.461   6.105
10350SOL    HW231950   3.848   0.409   6.254
10351SOL     OW31951   4.362   5.763   5.850
10351SOL    HW131952   4.338   5.836   5.915
10351SOL    HW231953   4.449   5.784   5.807
10352SOL     OW31954   4.330   4.937   6.198
10352SOL    HW131955   4.302   4.841   6.203
10352SOL    HW231956   4.284   4.989   6.269
10353SOL     OW31957   0.540   3.230   5.128
10353SOL    HW131958   0.584   3.145   5.102
10353SOL    HW231959   0.462   3.248   5.068
10354SOL     OW31960   5.318   1.747   0.745
10354SOL    HW131961   5.391   1.785   0.688
10354SOL    HW231962   5.232   1.793   0.723
10355SOL     OW31963   1.159   4.187   2.873
10355SOL    HW131964   1.231   4.215   2.809
10355SOL    HW231965   1.195   4.190   2.966
10356SOL     OW31966   0.367   2.634   5.005
10356SOL    HW131967   0.418   2.585   4.934
10356SOL    HW231968   0.365   2.579   5.089
10357SOL     OW31969   2.925   2.963   6.105
10357SOL    HW131970   2.941   3.028   6.179
10357SOL    HW231971   2.826   2.954   6.089
10358SOL     OW31972   0.348   0.668   2.629
10358SOL    HW131973   0.354   0.735   2.555
10358SOL    HW231974   0.393   0.583   2.602
10359SOL     OW31975   0.772   1.453   0.863
10359SOL    HW131976   0.821   1.368   0.844
10359SOL    HW231977   0.678   1.432   0.892
10360SOL     OW31978   0.135   4.698   3.670
10360SOL    HW131979   0.057   4.657   3.623
10360SOL    HW231980   0.113   4.710   3.767
10361SOL     OW31981   2.439   5.050   0.558
10361SOL    HW131982   2.499   5.118   0.516
10361SOL    HW231983   2.395   5.090   0.638
10362SOL     OW31984   1.042   4.560   5.183
10362SOL    HW131985   0.980   4.563   5.261
10362SOL    HW231986   1.094   4.474   5.185
10363SOL     OW31987   5.483   6.928   4.115
10363SOL    HW131988   5.541   6.982   4.055
10363SOL    HW231989   5.387   6.947   4.095
10364SOL     OW31990   1.221   4.108   0.721
10364SOL    HW131991   1.318   4.129   0.734
10364SOL    HW231992   1.167   4.191   0.730
10365SOL     OW31993   5.232   5.088   7.009
10365SOL    HW131994   5.319   5.073   0.037
10365SOL    HW231995   5.246   5.150   6.932
10366SOL     OW31996   3.986   6.798   4.131
10366SOL    HW131997   4.060   6.786   4.198
10366SOL    HW231998   4.019   6.772   4.041
10367SOL     OW31999   6.353   1.301   2.812
10367SOL    HW132000   6.394   1.211   2.829
10367SOL    HW232001   6.295   1.327   2.889
10368SOL     OW32002   2.241   0.184   1.197
10368SOL    HW132003   2.198   0.272   1.218
10368SOL    HW232004   2.182   0.110   1.230
10369SOL     OW32005   4.200   2.859   6.396
10369SOL    HW132006   4.298   2.844   6.388
10369SOL    HW232007   4.184   2.938   6.456
10370SOL     OW32008   3.276   0.656   5.647
10370SOL    HW132009   3.300   0.708   5.565
10370SOL    HW232010   3.326   0.692   5.726
10371SOL     OW32011   4.676   6.600   5.449
10371SOL    HW132012   4.702   6.681   5.501
10371SOL    HW232013   4.636   6.628   5.362
10372SOL     OW32014   0.518   0.855   3.602
10372SOL    HW132015   0.488   0.770   3.559
10372SOL    HW232016   0.546   0.920   3.531
10373SOL     OW32017   1.441   5.992   5.256
10373SOL    HW132018   1.458   5.931   5.179
10373SOL    HW232019   1.479   5.953   5.339
10374SOL     OW32020   3.578   1.551   3.278
10374SOL    HW132021   3.615   1.644   3.281
10374SOL    HW232022   3.588   1.508   3.367
10375SOL     OW32023   0.045   2.105   1.200
10375SOL    HW132024   0.119   2.080   1.262
10375SOL    HW232025   6.984   2.131   1.254
10376SOL     OW32026   6.023   0.248   4.039
10376SOL    HW132027   6.025   0.334   4.090
10376SOL    HW232028   6.034   0.267   3.941
10377SOL     OW32029   7.019   6.409   3.607
10377SOL    HW132030   0.068   6.470   3.568
10377SOL    HW232031   0.001   6.321   3.559
10378SOL     OW32032   6.163   6.398   5.652
10378SOL    HW132033   6.241   6.336   5.640
10378SOL    HW232034   6.162   6.466   5.579
10379SOL     OW32035   4.248   1.442   3.711
10379SOL    HW132036   4.208   1.498   3.783
10379SOL    HW232037   4.273   1.353   3.749
10380SOL     OW32038   3.317   0.324   4.103
10380SOL    HW132039   3.280   0.252   4.044
10380SOL    HW232040   3.292   0.414   4.065
10381SOL     OW32041   3.530   5.417   4.737
10381SOL    HW132042   3.603   5.407   4.803
10381SOL    HW232043   3.507   5.328   4.697
10382SOL     OW32044   0.192   5.360   1.639
10382SOL    HW132045   0.191   5.455   1.606
10382SOL    HW232046   0.280   5.341   1.682
10383SOL     OW32047   5.697   3.398   1.053
10383SOL    HW132048   5.735   3.490   1.044
10383SOL    HW232049   5.717   3.362   1.144
10384SOL     OW32050   5.786   0.923   6.819
10384SOL    HW132051   5.715   0.917   6.749
10384SOL    HW232052   5.815   0.831   6.845
10385SOL     OW32053   0.341   2.935   6.736
10385SOL    HW132054   0.296   2.865   6.791
10385SOL    HW232055   0.377   3.007   6.796
10386SOL     OW32056   0.254   1.981   6.023
10386SOL    HW132057   0.180   1.998   5.958
10386SOL    HW232058   0.293   1.891   6.007
10387SOL     OW32059   1.695   3.905   2.997
10387SOL    HW132060   1.716   3.808   2.984
10387SOL    HW232061   1.618   3.930   2.938
10388SOL     OW32062   1.477   4.601   2.396
10388SOL    HW132063   1.397   4.662   2.394
10388SOL    HW232064   1.513   4.591   2.303
10389SOL     OW32065   1.175   5.438   3.489
10389SOL    HW132066   1.091   5.492   3.478
10389SOL    HW232067   1.247   5.497   3.525
10390SOL     OW32068   2.157   3.418   3.193
10390SOL    HW132069   2.191   3.512   3.198
10390SOL    HW232070   2.115   3.403   3.103
10391SOL     OW32071   3.850   5.893   4.198
10391SOL    HW132072   3.940   5.903   4.156
10391SOL    HW232073   3.849   5.943   4.285
10392SOL     OW32074   6.533   5.368   5.919
10392SOL    HW132075   6.574   5.292   5.970
10392SOL    HW232076   6.555   5.358   5.822
10393SOL     OW32077   0.627   1.600   4.469
10393SOL    HW132078   0.699   1.579   4.403
10393SOL    HW232079   0.668   1.640   4.551
10394SOL     OW32080   2.854   0.448   0.919
10394SOL    HW132081   2.914   0.376   0.885
10394SOL    HW232082   2.759   0.415   0.919
10395SOL     OW32083   1.525   0.485   3.966
10395SOL    HW132084   1.586   0.474   3.888
10395SOL    HW232085   1.481   0.575   3.961
10396SOL     OW32086   0.159   0.372   4.932
10396SOL    HW132087   0.179   0.380   4.834
10396SOL    HW232088   0.175   0.460   4.977
10397SOL     OW32089   4.375   2.222   2.240
10397SOL    HW132090   4.373   2.152   2.311
10397SOL    HW232091   4.301   2.205   2.175
10398SOL     OW32092   7.001   2.879   2.260
10398SOL    HW132093   6.999   2.779   2.273
10398SOL    HW232094   0.055   2.903   2.197
10399SOL     OW32095   6.747   3.286   5.878
10399SOL    HW132096   6.785   3.360   5.822
10399SOL    HW232097   6.696   3.324   5.954
10400SOL     OW32098   1.815   5.125   2.535
10400SOL    HW132099   1.836   5.199   2.470
10400SOL    HW232100   1.852   5.039   2.500
10401SOL     OW32101   1.479   5.542   1.288
10401SOL    HW132102   1.397   5.502   1.247
10401SOL    HW232103   1.464   5.556   1.386
10402SOL     OW32104   1.185   2.104   4.578
10402SOL    HW132105   1.274   2.144   4.603
10402SOL    HW232106   1.186   2.007   4.599
10403SOL     OW32107   5.537   1.239   3.190
10403SOL    HW132108   5.477   1.317   3.171
10403SOL    HW232109   5.584   1.255   3.277
10404SOL     OW32110   6.165   0.376   4.378
10404SOL    HW132111   6.068   0.355   4.366
10404SOL    HW232112   6.180   0.416   4.469
10405SOL     OW32113   3.191   6.917   6.505
10405SOL    HW132114   3.233   6.954   6.422
10405SOL    HW232115   3.205   6.980   6.581
10406SOL     OW32116   1.063   6.413   4.881
10406SOL    HW132117   1.108   6.424   4.793
10406SOL    HW232118   1.112   6.465   4.951
10407SOL     OW32119   3.155   1.074   6.577
10407SOL    HW132120   3.226   1.140   6.553
10407SOL    HW232121   3.186   1.019   6.655
10408SOL     OW32122   3.383   0.180   2.984
10408SOL    HW132123   3.288   0.147   2.978
10408SOL    HW232124   3.397   0.223   3.073
10409SOL     OW32125   0.067   5.117   2.162
10409SOL    HW132126   0.154   5.147   2.202
10409SOL    HW232127   0.013   5.198   2.137
10410SOL     OW32128   5.318   5.703   0.801
10410SOL    HW132129   5.333   5.607   0.825
10410SOL    HW232130   5.230   5.734   0.837
10411SOL     OW32131   2.499   4.959   2.028
10411SOL    HW132132   2.533   5.035   2.083
10411SOL    HW232133   2.576   4.907   1.991
10412SOL     OW32134   0.547   3.428   6.250
10412SOL    HW132135   0.460   3.461   6.214
10412SOL    HW232136   0.574   3.345   6.200
10413SOL     OW32137   6.414   1.172   4.284
10413SOL    HW132138   6.403   1.255   4.229
10413SOL    HW232139   6.457   1.101   4.228
10414SOL     OW32140   5.803   6.444   5.376
10414SOL    HW132141   5.894   6.402   5.384
10414SOL    HW232142   5.742   6.404   5.444
10415SOL     OW32143   0.092   4.633   3.258
10415SOL    HW132144   0.036   4.615   3.338
10415SOL    HW232145   0.064   4.720   3.216
10416SOL     OW32146   5.132   0.733   0.417
10416SOL    HW132147   5.230   0.722   0.435
10416SOL    HW232148   5.085   0.647   0.433
10417SOL     OW32149   4.717   4.677   4.702
10417SOL    HW132150   4.671   4.754   4.657
10417SOL    HW232151   4.768   4.624   4.635
10418SOL     OW32152   6.118   3.238   0.448
10418SOL    HW132153   6.119   3.319   0.507
10418SOL    HW232154   6.212   3.211   0.427
10419SOL     OW32155   1.006   0.003   4.812
10419SOL    HW132156   0.915   6.984   4.828
10419SOL    HW232157   1.050   0.020   4.900
10420SOL     OW32158   6.461   4.178   3.900
10420SOL    HW132159   6.368   4.212   3.889
10420SOL    HW232160   6.490   4.186   3.995
10421SOL     OW32161   0.194   3.602   4.347
10421SOL    HW132162   0.204   3.538   4.271
10421SOL    HW232163   0.264   3.584   4.416
10422SOL     OW32164   5.812   3.012   5.701
10422SOL    HW132165   5.850   3.104   5.717
10422SOL    HW232166   5.852   2.948   5.766
10423SOL     OW32167   2.297   5.480   2.064
10423SOL    HW132168   2.358   5.505   2.140
10423SOL    HW232169   2.348   5.484   1.978
10424SOL     OW32170   4.848   0.834   1.726
10424SOL    HW132171   4.910   0.797   1.795
10424SOL    HW232172   4.787   0.901   1.769
10425SOL     OW32173   0.497   4.404   0.546
10425SOL    HW132174   0.523   4.361   0.459
10425SOL    HW232175   0.402   4.382   0.566
10426SOL     OW32176   6.579   1.890   6.809
10426SOL    HW132177   6.674   1.872   6.834
10426SOL    HW232178   6.539   1.953   6.875
10427SOL     OW32179   5.897   0.320   4.344
10427SOL    HW132180   5.829   0.393   4.332
10427SOL    HW232181   5.864   0.235   4.304
10428SOL     OW32182   1.691   0.776   4.751
10428SOL    HW132183   1.658   0.713   4.822
10428SOL    HW232184   1.705   0.867   4.792
10429SOL     OW32185   1.882   4.644   1.710
10429SOL    HW132186   1.936   4.699   1.773
10429SOL    HW232187   1.909   4.548   1.719
10430SOL     OW32188   3.273   0.879   4.196
10430SOL    HW132189   3.330   0.868   4.277
10430SOL    HW232190   3.188   0.925   4.221
10431SOL     OW32191   4.314   2.386   3.679
10431SOL    HW132192   4.386   2.454   3.660
10431SOL    HW232193   4.225   2.430   3.673
10432SOL     OW32194   1.195   4.568   0.967
10432SOL    HW132195   1.139   4.525   0.897
10432SOL    HW232196   1.209   4.504   1.043
10433SOL     OW32197   3.275   6.337   4.653
10433SOL    HW132198   3.236   6.405   4.591
10433SOL    HW232199   3.267   6.246   4.612
10434SOL     OW32200   4.438   2.051   0.497
10434SOL    HW132201   4.478   1.984   0.435
10434SOL    HW232202   4.368   2.008   0.554
10435SOL     OW32203   2.582   1.405   1.668
10435SOL    HW132204   2.572   1.448   1.578
10435SOL    HW232205   2.624   1.315   1.657
10436SOL     OW32206   1.192   4.053   5.643
10436SOL    HW132207   1.157   4.144   5.624
10436SOL    HW232208   1.121   3.998   5.686
10437SOL     OW32209   6.831   6.909   4.877
10437SOL    HW132210   6.758   6.969   4.844
10437SOL    HW232211   6.904   6.906   4.809
10438SOL     OW32212   7.008   5.940   6.690
10438SOL    HW132213   6.911   5.954   6.672
10438SOL    HW232214   0.017   5.851   6.655
10439SOL     OW32215   5.695   5.420   5.186
10439SOL    HW132216   5.701   5.476   5.104
10439SOL    HW232217   5.750   5.337   5.174
10440SOL     OW32218   6.042   2.554   1.325
10440SOL    HW132219   6.030   2.473   1.267
10440SOL    HW232220   6.085   2.528   1.411
10441SOL     OW32221   4.934   1.357   6.044
10441SOL    HW132222   4.932   1.288   5.971
10441SOL    HW232223   4.876   1.434   6.018
10442SOL     OW32224   2.122   0.781   5.742
10442SOL    HW132225   2.055   0.724   5.790
10442SOL    HW232226   2.168   0.725   5.673
10443SOL     OW32227   0.665   0.891   0.134
10443SOL    HW132228   0.724   0.887   0.054
10443SOL    HW232229   0.608   0.974   0.130
10444SOL     OW32230   4.586   5.300   3.768
10444SOL    HW132231   4.552   5.258   3.684
10444SOL    HW232232   4.512   5.305   3.835
10445SOL     OW32233   1.361   3.545   3.883
10445SOL    HW132234   1.356   3.616   3.954
10445SOL    HW232235   1.370   3.589   3.793
10446SOL     OW32236   2.914   4.815   4.797
10446SOL    HW132237   2.857   4.781   4.722
10446SOL    HW232238   2.905   4.753   4.876
10447SOL     OW32239   1.628   2.197   2.921
10447SOL    HW132240   1.680   2.113   2.905
10447SOL    HW232241   1.615   2.245   2.834
10448SOL     OW32242   0.948   4.936   2.743
10448SOL    HW132243   0.887   5.012   2.763
10448SOL    HW232244   1.035   4.971   2.709
10449SOL     OW32245   3.785   5.148   4.388
10449SOL    HW132246   3.760   5.240   4.419
10449SOL    HW232247   3.712   5.084   4.411
10450SOL     OW32248   0.337   2.270   4.487
10450SOL    HW132249   0.247   2.284   4.446
10450SOL    HW232250   0.368   2.177   4.467
10451SOL     OW32251   2.342   1.706   4.969
10451SOL    HW132252   2.273   1.669   4.907
10451SOL    HW232253   2.330   1.805   4.977
10452SOL     OW32254   6.978   2.275   4.497
10452SOL    HW132255   6.886   2.256   4.463
10452SOL    HW232256   6.989   2.374   4.510
10453SOL     OW32257   3.125   5.862   4.226
10453SOL    HW132258   3.182   5.934   4.266
10453SOL    HW232259   3.182   5.794   4.181
10454SOL     OW32260   6.949   1.397   6.748
10454SOL    HW132261   6.909   1.483   6.717
10454SOL    HW232262   0.008   1.417   6.807
10455SOL     OW32263   0.821   5.805   2.674
10455SOL    HW132264   0.748   5.837   2.735
10455SOL    HW232265   0.909   5.815   2.720
10456SOL     OW32266   1.028   5.372   5.859
10456SOL    HW132267   0.954   5.420   5.812
10456SOL    HW232268   1.093   5.439   5.896
10457SOL     OW32269   4.388   1.641   1.021
10457SOL    HW132270   4.347   1.730   1.045
10457SOL    HW232271   4.338   1.601   0.944
10458SOL     OW32272   1.571   0.067   0.089
10458SOL    HW132273   1.627   0.147   0.112
10458SOL    HW232274   1.601   7.009   0.144
10459SOL     OW32275   5.050   6.076   0.920
10459SOL    HW132276   4.996   6.152   0.881
10459SOL    HW232277   5.140   6.110   0.945
10460SOL     OW32278   6.554   1.051   6.301
10460SOL    HW132279   6.629   1.013   6.246
10460SOL    HW232280   6.475   0.990   6.294
10461SOL     OW32281   6.608   4.029   5.950
10461SOL    HW132282   6.548   4.106   5.968
10461SOL    HW232283   6.695   4.062   5.913
10462SOL     OW32284   4.486   3.831   0.189
10462SOL    HW132285   4.450   3.745   0.154
10462SOL    HW232286   4.410   3.891   0.215
10463SOL     OW32287   4.767   2.681   5.038
10463SOL    HW132288   4.808   2.590   5.049
10463SOL    HW232289   4.740   2.716   5.128
10464SOL     OW32290   6.404   4.575   1.920
10464SOL    HW132291   6.402   4.662   1.871
10464SOL    HW232292   6.311   4.539   1.927
10465SOL     OW32293   5.207   4.327   0.964
10465SOL    HW132294   5.138   4.272   0.919
10465SOL    HW232295   5.237   4.400   0.903
10466SOL     OW32296   5.964   4.035   5.657
10466SOL    HW132297   5.997   4.046   5.751
10466SOL    HW232298   5.996   4.112   5.602
10467SOL     OW32299   0.446   3.527   6.869
10467SOL    HW132300   0.545   3.524   6.885
10467SOL    HW232301   0.406   3.438   6.890
10468SOL     OW32302   1.215   4.193   3.768
10468SOL    HW132303   1.269   4.168   3.848
10468SOL    HW232304   1.264   4.168   3.685
10469SOL     OW32305   1.069   0.602   3.900
10469SOL    HW132306   1.035   0.511   3.877
10469SOL    HW232307   1.044   0.624   3.995
10470SOL     OW32308   2.566   3.834   1.605
10470SOL    HW132309   2.623   3.762   1.645
10470SOL    HW232310   2.477   3.836   1.652
10471SOL     OW32311   2.212   4.511   5.902
10471SOL    HW132312   2.242   4.605   5.922
10471SOL    HW232313   2.292   4.454   5.884
10472SOL     OW32314   3.721   4.993   5.944
10472SOL    HW132315   3.809   5.035   5.920
10472SOL    HW232316   3.716   4.982   6.043
10473SOL     OW32317   6.130   5.495   0.418
10473SOL    HW132318   6.059   5.428   0.441
10473SOL    HW232319   6.133   5.566   0.488
10474SOL     OW32320   6.264   6.010   4.975
10474SOL    HW132321   6.212   6.090   4.943
10474SOL    HW232322   6.252   5.935   4.910
10475SOL     OW32323   0.096   5.894   1.586
10475SOL    HW132324   0.140   5.925   1.671
10475SOL    HW232325   0.012   5.946   1.572
10476SOL     OW32326   5.175   6.600   1.291
10476SOL    HW132327   5.130   6.621   1.377
10476SOL    HW232328   5.266   6.641   1.291
10477SOL     OW32329   6.951   5.817   3.763
10477SOL    HW132330   6.921   5.820   3.668
10477SOL    HW232331   6.949   5.910   3.801
10478SOL     OW32332   6.797   0.817   6.880
10478SOL    HW132333   6.833   0.755   6.950
10478SOL    HW232334   6.729   0.769   6.825
10479SOL     OW32335   6.934   4.270   2.631
10479SOL    HW132336   6.875   4.202   2.675
10479SOL    HW232337   6.999   4.223   2.571
10480SOL     OW32338   2.453   1.022   3.095
10480SOL    HW132339   2.496   0.932   3.088
10480SOL    HW232340   2.368   1.014   3.148
10481SOL     OW32341   6.436   0.919   1.689
10481SOL    HW132342   6.509   0.983   1.710
10481SOL    HW232343   6.449   0.835   1.742
10482SOL     OW32344   4.778   4.114   4.443
10482SOL    HW132345   4.746   4.144   4.533
10482SOL    HW232346   4.767   4.015   4.435
10483SOL     OW32347   5.989   0.641   6.491
10483SOL    HW132348   6.015   0.664   6.585
10483SOL    HW232349   5.889   0.637   6.483
10484SOL     OW32350   6.175   0.307   1.932
10484SOL    HW132351   6.078   0.314   1.953
10484SOL    HW232352   6.223   0.386   1.971
10485SOL     OW32353   5.552   3.138   6.072
10485SOL    HW132354   5.633   3.192   6.047
10485SOL    HW232355   5.470   3.183   6.036
10486SOL     OW32356   6.185   3.244   2.645
10486SOL    HW132357   6.157   3.159   2.689
10486SOL    HW232358   6.285   3.250   2.644
10487SOL     OW32359   3.690   6.701   2.974
10487SOL    HW132360   3.757   6.756   2.924
10487SOL    HW232361   3.605   6.753   2.986
10488SOL     OW32362   4.134   4.303   6.426
10488SOL    HW132363   4.113   4.215   6.468
10488SOL    HW232364   4.150   4.290   6.328
10489SOL     OW32365   1.924   5.258   5.145
10489SOL    HW132366   1.888   5.176   5.189
10489SOL    HW232367   2.012   5.237   5.101
10490SOL     OW32368   5.909   0.045   4.949
10490SOL    HW132369   5.983   0.107   4.925
10490SOL    HW232370   5.947   6.980   4.989
10491SOL     OW32371   6.652   5.836   4.860
10491SOL    HW132372   6.615   5.753   4.902
10491SOL    HW232373   6.614   5.846   4.768
10492SOL     OW32374   5.301   4.122   5.781
10492SOL    HW132375   5.217   4.166   5.747
10492SOL    HW232376   5.292   4.023   5.772
10493SOL     OW32377   3.221   1.365   0.179
10493SOL    HW132378   3.193   1.286   0.125
10493SOL    HW232379   3.141   1.421   0.201
10494SOL     OW32380   5.157   1.550   5.109
10494SOL    HW132381   5.086   1.503   5.057
10494SOL    HW232382   5.125   1.642   5.133
10495SOL     OW32383   1.004   0.058   6.827
10495SOL    HW132384   1.074   0.007   6.776
10495SOL    HW232385   1.014   0.155   6.808
10496SOL     OW32386   6.751   6.728   5.306
10496SOL    HW132387   6.761   6.647   5.248
10496SOL    HW232388   6.825   6.792   5.286
10497SOL     OW32389   2.128   1.401   6.712
10497SOL    HW132390   2.200   1.427   6.649
10497SOL    HW232391   2.156   1.319   6.763
10498SOL     OW32392   2.956   5.357   5.533
10498SOL    HW132393   3.004   5.303   5.464
10498SOL    HW232394   2.903   5.429   5.488
10499SOL     OW32395   3.073   5.680   2.930
10499SOL    HW132396   2.985   5.707   2.970
10499SOL    HW232397   3.092   5.737   2.851
10500SOL     OW32398   2.204   1.786   0.154
10500SOL    HW132399   2.193   1.714   0.085
10500SOL    HW232400   2.263   1.753   0.228
10501SOL     OW32401   1.909   3.655   3.320
10501SOL    HW132402   1.893   3.608   3.407
10501SOL    HW232403   1.899   3.590   3.245
10502SOL     OW32404   3.214   6.725   4.909
10502SOL    HW132405   3.157   6.692   4.983
10502SOL    HW232406   3.161   6.787   4.851
10503SOL     OW32407   2.569   3.202   6.765
10503SOL    HW132408   2.585   3.163   6.855
10503SOL    HW232409   2.498   3.149   6.718
10504SOL     OW32410   2.086   3.600   0.437
10504SOL    HW132411   2.177   3.631   0.411
10504SOL    HW232412   2.088   3.502   0.457
10505SOL     OW32413   0.583   6.079   0.090
10505SOL    HW132414   0.534   6.079   0.003
10505SOL    HW232415   0.516   6.080   0.165
10506SOL     OW32416   6.891   5.163   5.544
10506SOL    HW132417   6.857   5.128   5.631
10506SOL    HW232418   6.976   5.117   5.520
10507SOL     OW32419   2.903   0.784   3.371
10507SOL    HW132420   2.896   0.835   3.285
10507SOL    HW232421   2.831   0.714   3.374
10508SOL     OW32422   5.492   5.203   2.979
10508SOL    HW132423   5.588   5.231   2.976
10508SOL    HW232424   5.457   5.214   3.072
10509SOL     OW32425   2.202   1.033   5.404
10509SOL    HW132426   2.280   0.984   5.445
10509SOL    HW232427   2.188   1.119   5.452
10510SOL     OW32428   5.716   0.553   6.530
10510SOL    HW132429   5.662   0.627   6.571
10510SOL    HW232430   5.658   0.499   6.469
10511SOL     OW32431   6.721   2.759   1.836
10511SOL    HW132432   6.763   2.761   1.745
10511SOL    HW232433   6.741   2.845   1.884
10512SOL     OW32434   2.141   0.220   6.596
10512SOL    HW132435   2.066   0.224   6.662
10512SOL    HW232436   2.146   0.306   6.546
10513SOL     OW32437   0.188   2.385   0.701
10513SOL    HW132438   0.143   2.433   0.776
10513SOL    HW232439   0.164   2.288   0.704
10514SOL     OW32440   1.677   3.000   1.414
10514SOL    HW132441   1.584   2.965   1.408
10514SOL    HW232442   1.742   2.924   1.418
10515SOL     OW32443   0.310   2.941   4.864
10515SOL    HW132444   0.396   2.902   4.831
10515SOL    HW232445   0.282   2.894   4.948
10516SOL     OW32446   2.609   6.920   0.658
10516SOL    HW132447   2.600   6.852   0.730
10516SOL    HW232448   2.702   6.956   0.656
10517SOL     OW32449   0.573   2.407   3.848
10517SOL    HW132450   0.666   2.419   3.813
10517SOL    HW232451   0.510   2.395   3.771
10518SOL     OW32452   0.491   6.359   3.311
10518SOL    HW132453   0.492   6.458   3.325
10518SOL    HW232454   0.582   6.322   3.329
10519SOL     OW32455   4.151   2.665   5.673
10519SOL    HW132456   4.127   2.662   5.576
10519SOL    HW232457   4.068   2.667   5.728
10520SOL     OW32458   3.109   4.903   6.433
10520SOL    HW132459   3.088   4.847   6.513
10520SOL    HW232460   3.068   4.993   6.444
10521SOL     OW32461   6.249   5.292   2.272
10521SOL    HW132462   6.224   5.226   2.201
10521SOL    HW232463   6.180   5.365   2.275
10522SOL     OW32464   6.170   0.050   2.640
10522SOL    HW132465   6.192   6.977   2.671
10522SOL    HW232466   6.156   0.109   2.720
10523SOL     OW32467   5.914   6.330   6.363
10523SOL    HW132468   5.996   6.376   6.330
10523SOL    HW232469   5.940   6.262   6.432
10524SOL     OW32470   4.490   1.023   4.904
10524SOL    HW132471   4.411   1.082   4.923
10524SOL    HW232472   4.458   0.931   4.880
10525SOL     OW32473   2.402   6.986   5.265
10525SOL    HW132474   2.356   6.917   5.320
10525SOL    HW232475   2.351   0.052   5.270
10526SOL     OW32476   4.520   5.931   2.728
10526SOL    HW132477   4.493   5.890   2.640
10526SOL    HW232478   4.461   5.897   2.800
10527SOL     OW32479   2.384   2.710   4.109
10527SOL    HW132480   2.286   2.691   4.104
10527SOL    HW232481   2.425   2.697   4.019
10528SOL     OW32482   6.151   4.689   6.055
10528SOL    HW132483   6.117   4.647   6.139
10528SOL    HW232484   6.108   4.779   6.043
10529SOL     OW32485   6.861   5.677   5.022
10529SOL    HW132486   6.801   5.682   4.942
10529SOL    HW232487   6.922   5.598   5.013
10530SOL     OW32488   1.468   1.766   4.813
10530SOL    HW132489   1.532   1.818   4.756
10530SOL    HW232490   1.477   1.668   4.792
10531SOL     OW32491   2.614   2.363   4.535
10531SOL    HW132492   2.532   2.306   4.535
10531SOL    HW232493   2.604   2.434   4.605
10532SOL     OW32494   3.221   3.353   4.526
10532SOL    HW132495   3.186   3.260   4.516
10532SOL    HW232496   3.226   3.397   4.436
10533SOL     OW32497   3.637   0.657   6.335
10533SOL    HW132498   3.650   0.750   6.368
10533SOL    HW232499   3.726   0.615   6.317
10534SOL     OW32500   5.643   4.400   1.719
10534SOL    HW132501   5.637   4.350   1.632
10534SOL    HW232502   5.557   4.388   1.770
10535SOL     OW32503   0.179   1.081   1.946
10535SOL    HW132504   0.258   1.090   1.885
10535SOL    HW232505   0.130   1.169   1.949
10536SOL     OW32506   5.940   5.832   3.360
10536SOL    HW132507   5.972   5.739   3.344
10536SOL    HW232508   5.870   5.831   3.431
10537SOL     OW32509   6.283   5.599   1.613
10537SOL    HW132510   6.222   5.675   1.592
10537SOL    HW232511   6.249   5.515   1.570
10538SOL     OW32512   4.524   3.384   6.842
10538SOL    HW132513   4.478   3.471   6.824
10538SOL    HW232514   4.570   3.354   6.759
10539SOL     OW32515   1.060   2.926   4.798
10539SOL    HW132516   1.078   2.855   4.866
10539SOL    HW232517   1.052   3.014   4.845
10540SOL     OW32518   3.743   0.676   0.272
10540SOL    HW132519   3.827   0.626   0.252
10540SOL    HW232520   3.759   0.739   0.349
10541SOL     OW32521   3.318   2.531   1.702
10541SOL    HW132522   3.225   2.545   1.669
10541SOL    HW232523   3.342   2.434   1.693
10542SOL     OW32524   1.641   2.135   0.473
10542SOL    HW132525   1.626   2.234   0.478
10542SOL    HW232526   1.617   2.093   0.560
10543SOL     OW32527   2.592   0.467   4.478
10543SOL    HW132528   2.515   0.511   4.523
10543SOL    HW232529   2.581   0.472   4.379
10544SOL     OW32530   0.380   2.170   1.182
10544SOL    HW132531   0.319   2.114   1.239
10544SOL    HW232532   0.327   2.237   1.131
10545SOL     OW32533   4.115   1.437   3.081
10545SOL    HW132534   4.112   1.441   2.981
10545SOL    HW232535   4.141   1.344   3.110
10546SOL     OW32536   4.905   0.851   5.632
10546SOL    HW132537   4.823   0.871   5.579
10546SOL    HW232538   4.924   0.753   5.629
10547SOL     OW32539   4.534   6.290   1.994
10547SOL    HW132540   4.608   6.328   2.049
10547SOL    HW232541   4.540   6.326   1.900
10548SOL     OW32542   4.786   4.009   5.200
10548SOL    HW132543   4.865   3.999   5.139
10548SOL    HW232544   4.796   4.092   5.254
10549SOL     OW32545   0.951   1.595   1.849
10549SOL    HW132546   0.893   1.621   1.772
10549SOL    HW232547   1.043   1.633   1.836
10550SOL     OW32548   4.462   6.999   4.919
10550SOL    HW132549   4.399   6.977   4.994
10550SOL    HW232550   4.481   0.077   4.919
10551SOL     OW32551   1.611   3.010   6.178
10551SOL    HW132552   1.670   2.931   6.158
10551SOL    HW232553   1.574   3.001   6.270
10552SOL     OW32554   3.210   1.667   5.317
10552SOL    HW132555   3.150   1.690   5.240
10552SOL    HW232556   3.160   1.682   5.403
10553SOL     OW32557   2.581   5.154   6.609
10553SOL    HW132558   2.649   5.081   6.623
10553SOL    HW232559   2.593   5.224   6.680
10554SOL     OW32560   6.053   3.339   6.070
10554SOL    HW132561   6.107   3.272   6.119
10554SOL    HW232562   6.107   3.377   5.995
10555SOL     OW32563   3.388   2.810   1.287
10555SOL    HW132564   3.358   2.715   1.287
10555SOL    HW232565   3.396   2.843   1.381
10556SOL     OW32566   1.440   4.488   3.947
10556SOL    HW132567   1.461   4.574   3.994
10556SOL    HW232568   1.346   4.461   3.966
10557SOL     OW32569   5.615   1.562   3.061
10557SOL    HW132570   5.597   1.486   2.997
10557SOL    HW232571   5.547   1.634   3.047
10558SOL     OW32572   5.764   5.780   5.474
10558SOL    HW132573   5.792   5.854   5.535
10558SOL    HW232574   5.844   5.739   5.432
10559SOL     OW32575   4.442   2.754   0.938
10559SOL    HW132576   4.458   2.808   1.020
10559SOL    HW232577   4.461   2.658   0.957
10560SOL     OW32578   6.911   2.039   4.217
10560SOL    HW132579   6.881   1.976   4.146
10560SOL    HW232580   6.834   2.062   4.277
10561SOL     OW32581   2.180   3.766   6.516
10561SOL    HW132582   2.208   3.670   6.516
10561SOL    HW232583   2.261   3.824   6.509
10562SOL     OW32584   4.548   1.806   0.729
10562SOL    HW132585   4.470   1.865   0.749
10562SOL    HW232586   4.587   1.773   0.815
10563SOL     OW32587   1.588   2.756   2.680
10563SOL    HW132588   1.608   2.832   2.618
10563SOL    HW232589   1.508   2.706   2.647
10564SOL     OW32590   0.039   1.951   2.499
10564SOL    HW132591   0.034   1.852   2.514
10564SOL    HW232592   6.986   1.997   2.550
10565SOL     OW32593   5.121   1.701   4.797
10565SOL    HW132594   5.133   1.626   4.731
10565SOL    HW232595   5.158   1.673   4.886
10566SOL     OW32596   5.302   5.324   6.861
10566SOL    HW132597   5.275   5.420   6.874
10566SOL    HW232598   5.287   5.297   6.766
10567SOL     OW32599   2.718   5.791   4.642
10567SOL    HW132600   2.630   5.837   4.657
10567SOL    HW232601   2.711   5.730   4.563
10568SOL     OW32602   3.412   0.919   3.392
10568SOL    HW132603   3.324   0.874   3.405
10568SOL    HW232604   3.451   0.944   3.481
10569SOL     OW32605   6.774   2.350   3.762
10569SOL    HW132606   6.722   2.435   3.749
10569SOL    HW232607   6.778   2.329   3.860
10570SOL     OW32608   0.858   3.994   1.005
10570SOL    HW132609   0.813   4.082   1.018
10570SOL    HW232610   0.844   3.962   0.911
10571SOL     OW32611   6.823   6.588   4.674
10571SOL    HW132612   6.882   6.667   4.684
10571SOL    HW232613   6.798   6.552   4.764
10572SOL     OW32614   6.447   3.798   2.093
10572SOL    HW132615   6.507   3.879   2.093
10572SOL    HW232616   6.473   3.738   2.017
10573SOL     OW32617   6.221   5.277   5.453
10573SOL    HW132618   6.168   5.249   5.373
10573SOL    HW232619   6.299   5.215   5.464
10574SOL     OW32620   1.155   2.241   2.623
10574SOL    HW132621   1.228   2.309   2.617
10574SOL    HW232622   1.194   2.153   2.651
10575SOL     OW32623   6.952   6.612   6.162
10575SOL    HW132624   6.963   6.599   6.063
10575SOL    HW232625   6.876   6.675   6.178
10576SOL     OW32626   0.808   5.690   3.400
10576SOL    HW132627   0.739   5.619   3.412
10576SOL    HW232628   0.862   5.698   3.484
10577SOL     OW32629   0.166   2.686   6.017
10577SOL    HW132630   0.074   2.668   6.050
10577SOL    HW232631   0.193   2.615   5.952
10578SOL     OW32632   4.973   0.587   5.444
10578SOL    HW132633   5.022   0.614   5.362
10578SOL    HW232634   4.876   0.611   5.434
10579SOL     OW32635   5.749   6.387   1.202
10579SOL    HW132636   5.775   6.394   1.298
10579SOL    HW232637   5.811   6.325   1.155
10580SOL     OW32638   0.717   5.305   0.186
10580SOL    HW132639   0.713   5.319   0.087
10580SOL    HW232640   0.665   5.377   0.232
10581SOL     OW32641   4.314   2.259   2.890
10581SOL    HW132642   4.338   2.224   2.799
10581SOL    HW232643   4.357   2.348   2.903
10582SOL     OW32644   3.548   4.325   6.825
10582SOL    HW132645   3.534   4.226   6.829
10582SOL    HW232646   3.462   4.370   6.803
10583SOL     OW32647   4.699   1.154   1.128
10583SOL    HW132648   4.722   1.104   1.045
10583SOL    HW232649   4.628   1.104   1.179
10584SOL     OW32650   5.571   6.757   1.526
10584SOL    HW132651   5.635   6.765   1.451
10584SOL    HW232652   5.477   6.757   1.490
10585SOL     OW32653   2.774   4.563   6.689
10585SOL    HW132654   2.867   4.563   6.724
10585SOL    HW232655   2.743   4.468   6.676
10586SOL     OW32656   5.103   2.384   1.511
10586SOL    HW132657   5.105   2.465   1.454
10586SOL    HW232658   5.011   2.372   1.548
10587SOL     OW32659   0.030   2.985   0.568
10587SOL    HW132660   0.071   3.029   0.648
10587SOL    HW232661   0.077   3.016   0.485
10588SOL     OW32662   1.314   4.967   3.591
10588SOL    HW132663   1.401   4.930   3.625
10588SOL    HW232664   1.290   5.048   3.644
10589SOL     OW32665   5.794   0.912   4.559
10589SOL    HW132666   5.847   0.842   4.512
10589SOL    HW232667   5.725   0.869   4.618
10590SOL     OW32668   1.481   0.413   5.102
10590SOL    HW132669   1.456   0.320   5.076
10590SOL    HW232670   1.467   0.426   5.200
10591SOL     OW32671   1.435   2.197   1.900
10591SOL    HW132672   1.367   2.124   1.905
10591SOL    HW232673   1.418   2.263   1.974
10592SOL     OW32674   4.965   1.030   6.353
10592SOL    HW132675   4.987   1.123   6.327
10592SOL    HW232676   4.896   0.993   6.291
10593SOL     OW32677   1.796   3.864   2.242
10593SOL    HW132678   1.844   3.815   2.169
10593SOL    HW232679   1.718   3.809   2.273
10594SOL     OW32680   1.223   1.471   4.416
10594SOL    HW132681   1.222   1.381   4.372
10594SOL    HW232682   1.174   1.537   4.359
10595SOL     OW32683   1.822   5.924   4.596
10595SOL    HW132684   1.840   5.877   4.510
10595SOL    HW232685   1.876   5.882   4.669
10596SOL     OW32686   2.814   1.210   1.205
10596SOL    HW132687   2.857   1.272   1.271
10596SOL    HW232688   2.834   1.116   1.231
10597SOL     OW32689   1.433   1.127   3.837
10597SOL    HW132690   1.518   1.176   3.855
10597SOL    HW232691   1.406   1.076   3.919
10598SOL     OW32692   2.704   0.750   0.967
10598SOL    HW132693   2.632   0.705   1.020
10598SOL    HW232694   2.686   0.739   0.870
10599SOL     OW32695   5.066   0.154   6.297
10599SOL    HW132696   4.978   0.131   6.257
10599SOL    HW232697   5.139   0.117   6.239
10600SOL     OW32698   1.809   3.211   4.940
10600SOL    HW132699   1.748   3.272   4.888
10600SOL    HW232700   1.893   3.261   4.964
10601SOL     OW32701   3.958   6.087   5.501
10601SOL    HW132702   3.950   5.993   5.468
10601SOL    HW232703   4.003   6.087   5.590
10602SOL     OW32704   4.557   2.322   1.863
10602SOL    HW132705   4.509   2.350   1.780
10602SOL    HW232706   4.533   2.384   1.938
10603SOL     OW32707   0.737   5.498   5.151
10603SOL    HW132708   0.736   5.401   5.125
10603SOL    HW232709   0.643   5.532   5.153
10604SOL     OW32710   0.476   4.245   6.158
10604SOL    HW132711   0.533   4.327   6.151
10604SOL    HW232712   0.444   4.234   6.252
10605SOL     OW32713   1.068   5.415   6.390
10605SOL    HW132714   1.026   5.378   6.473
10605SOL    HW232715   1.134   5.349   6.354
10606SOL     OW32716   1.135   1.181   1.922
10606SOL    HW132717   1.158   1.098   1.973
10606SOL    HW232718   1.082   1.242   1.982
10607SOL     OW32719   6.015   3.665   6.812
10607SOL    HW132720   5.916   3.653   6.822
10607SOL    HW232721   6.038   3.678   6.716
10608SOL     OW32722   5.772   6.176   2.687
10608SOL    HW132723   5.728   6.216   2.607
10608SOL    HW232724   5.746   6.080   2.695
10609SOL     OW32725   4.164   6.315   2.759
10609SOL    HW132726   4.184   6.302   2.662
10609SOL    HW232727   4.219   6.251   2.814
10610SOL     OW32728   2.238   4.502   4.876
10610SOL    HW132729   2.227   4.431   4.807
10610SOL    HW232730   2.167   4.571   4.865
10611SOL     OW32731   4.990   2.185   5.781
10611SOL    HW132732   5.061   2.167   5.849
10611SOL    HW232733   4.948   2.274   5.798
10612SOL     OW32734   2.506   0.419   1.771
10612SOL    HW132735   2.466   0.390   1.684
10612SOL    HW232736   2.603   0.436   1.758
10613SOL     OW32737   0.791   6.294   0.042
10613SOL    HW132738   0.740   6.379   0.028
10613SOL    HW232739   0.733   6.216   0.019
10614SOL     OW32740   0.367   0.832   2.860
10614SOL    HW132741   0.377   0.780   2.775
10614SOL    HW232742   0.352   0.768   2.936
10615SOL     OW32743   0.360   6.665   5.442
10615SOL    HW132744   0.391   6.630   5.354
10615SOL    HW232745   0.342   6.763   5.435
10616SOL     OW32746   3.799   5.776   1.605
10616SOL    HW132747   3.782   5.728   1.519
10616SOL    HW232748   3.746   5.860   1.607
10617SOL     OW32749   6.454   1.882   6.565
10617SOL    HW132750   6.503   1.869   6.651
10617SOL    HW232751   6.438   1.793   6.522
10618SOL     OW32752   6.597   3.975   0.815
10618SOL    HW132753   6.589   3.878   0.837
10618SOL    HW232754   6.551   4.029   0.885
10619SOL     OW32755   7.012   3.439   3.329
10619SOL    HW132756   0.047   3.512   3.372
10619SOL    HW232757   0.054   3.368   3.295
10620SOL     OW32758   1.413   5.161   3.959
10620SOL    HW132759   1.387   5.254   3.934
10620SOL    HW232760   1.345   5.097   3.925
10621SOL     OW32761   3.429   0.343   0.720
10621SOL    HW132762   3.439   0.439   0.744
10621SOL    HW232763   3.346   0.330   0.667
10622SOL     OW32764   3.854   1.839   0.601
10622SOL    HW132765   3.835   1.872   0.694
10622SOL    HW232766   3.936   1.883   0.566
10623SOL     OW32767   0.482   1.341   4.542
10623SOL    HW132768   0.530   1.427   4.525
10623SOL    HW232769   0.460   1.297   4.454
10624SOL     OW32770   2.609   1.526   4.471
10624SOL    HW132771   2.542   1.481   4.412
10624SOL    HW232772   2.701   1.495   4.445
10625SOL     OW32773   1.163   2.821   1.010
10625SOL    HW132774   1.169   2.760   1.090
10625SOL    HW232775   1.085   2.882   1.021
10626SOL     OW32776   0.776   2.415   2.935
10626SOL    HW132777   0.770   2.464   2.848
10626SOL    HW232778   0.870   2.417   2.968
10627SOL     OW32779   3.899   5.614   4.465
10627SOL    HW132780   3.858   5.628   4.555
10627SOL    HW232781   3.860   5.533   4.422
10628SOL     OW32782   6.816   6.567   4.971
10628SOL    HW132783   6.787   6.530   5.059
10628SOL    HW232784   6.906   6.611   4.981
10629SOL     OW32785   2.711   4.306   6.658
10629SOL    HW132786   2.753   4.257   6.581
10629SOL    HW232787   2.742   4.265   6.744
10630SOL     OW32788   5.668   1.376   1.750
10630SOL    HW132789   5.643   1.463   1.708
10630SOL    HW232790   5.593   1.346   1.810
10631SOL     OW32791   1.361   6.945   4.365
10631SOL    HW132792   1.325   6.940   4.458
10631SOL    HW232793   1.456   6.977   4.368
10632SOL     OW32794   6.530   2.710   6.878
10632SOL    HW132795   6.435   2.683   6.894
10632SOL    HW232796   6.546   2.800   6.917
10633SOL     OW32797   1.381   5.255   6.706
10633SOL    HW132798   1.381   5.354   6.721
10633SOL    HW232799   1.389   5.208   6.794
10634SOL     OW32800   3.601   6.818   2.297
10634SOL    HW132801   3.571   6.875   2.220
10634SOL    HW232802   3.687   6.773   2.273
10635SOL     OW32803   1.044   0.637   1.219
10635SOL    HW132804   1.110   0.590   1.159
10635SOL    HW232805   1.063   0.735   1.218
10636SOL     OW32806   5.128   2.089   6.831
10636SOL    HW132807   5.191   2.051   6.898
10636SOL    HW232808   5.084   2.170   6.868
10637SOL     OW32809   3.118   3.850   6.475
10637SOL    HW132810   3.155   3.840   6.383
10637SOL    HW232811   3.029   3.805   6.481
10638SOL     OW32812   6.485   1.082   5.886
10638SOL    HW132813   6.391   1.049   5.893
10638SOL    HW232814   6.484   1.178   5.861
10639SOL     OW32815   3.608   2.114   5.053
10639SOL    HW132816   3.559   2.148   4.973
10639SOL    HW232817   3.546   2.060   5.110
10640SOL     OW32818   4.526   6.537   0.498
10640SOL    HW132819   4.562   6.593   0.424
10640SOL    HW232820   4.465   6.592   0.555
10641SOL     OW32821   3.238   6.787   6.903
10641SOL    HW132822   3.250   6.769   7.000
10641SOL    HW232823   3.168   6.725   6.867
10642SOL     OW32824   0.682   5.970   1.731
10642SOL    HW132825   0.697   6.038   1.659
10642SOL    HW232826   0.648   6.016   1.814
10643SOL     OW32827   3.375   3.688   5.544
10643SOL    HW132828   3.417   3.728   5.462
10643SOL    HW232829   3.275   3.691   5.534
10644SOL     OW32830   4.131   1.496   5.980
10644SOL    HW132831   4.108   1.548   5.898
10644SOL    HW232832   4.208   1.539   6.027
10645SOL     OW32833   2.057   0.671   3.898
10645SOL    HW132834   1.990   0.643   3.968
10645SOL    HW232835   2.043   0.617   3.816
10646SOL     OW32836   6.730   5.174   6.493
10646SOL    HW132837   6.752   5.195   6.588
10646SOL    HW232838   6.720   5.259   6.441
10647SOL     OW32839   6.942   5.926   0.839
10647SOL    HW132840   0.001   5.966   0.888
10647SOL    HW232841   6.970   5.902   0.746
10648SOL     OW32842   5.103   4.120   6.068
10648SOL    HW132843   5.057   4.046   6.020
10648SOL    HW232844   5.055   4.139   6.154
10649SOL     OW32845   6.817   5.021   6.282
10649SOL    HW132846   6.783   5.076   6.359
10649SOL    HW232847   6.885   4.956   6.315
10650SOL     OW32848   1.999   6.873   5.931
10650SOL    HW132849   2.059   6.793   5.927
10650SOL    HW232850   1.904   6.843   5.921
10651SOL     OW32851   1.632   0.923   5.406
10651SOL    HW132852   1.548   0.910   5.459
10651SOL    HW232853   1.618   0.888   5.313
10652SOL     OW32854   4.860   0.280   0.290
10652SOL    HW132855   4.866   0.359   0.229
10652SOL    HW232856   4.928   0.212   0.263
10653SOL     OW32857   6.212   3.746   4.420
10653SOL    HW132858   6.143   3.804   4.463
10653SOL    HW232859   6.220   3.772   4.323
10654SOL     OW32860   4.742   0.411   1.343
10654SOL    HW132861   4.733   0.492   1.401
10654SOL    HW232862   4.733   0.438   1.247
10655SOL     OW32863   2.570   6.021   1.202
10655SOL    HW132864   2.633   6.032   1.278
10655SOL    HW232865   2.619   5.986   1.122
10656SOL     OW32866   6.970   2.530   6.119
10656SOL    HW132867   6.945   2.561   6.211
10656SOL    HW232868   0.032   2.473   6.124
10657SOL     OW32869   6.379   0.231   0.478
10657SOL    HW132870   6.477   0.213   0.469
10657SOL    HW232871   6.328   0.173   0.415
10658SOL     OW32872   6.910   6.317   3.863
10658SOL    HW132873   6.938   6.344   3.771
10658SOL    HW232874   6.817   6.280   3.859
10659SOL     OW32875   5.380   1.108   1.513
10659SOL    HW132876   5.344   1.029   1.563
10659SOL    HW232877   5.332   1.117   1.426
10660SOL     OW32878   4.628   5.088   5.452
10660SOL    HW132879   4.718   5.108   5.490
10660SOL    HW232880   4.637   5.028   5.373
10661SOL     OW32881   0.048   1.325   1.977
10661SOL    HW132882   0.049   1.385   2.057
10661SOL    HW232883   0.014   1.377   1.898
10662SOL     OW32884   0.537   1.980   0.773
10662SOL    HW132885   0.581   2.061   0.812
10662SOL    HW232886   0.460   1.952   0.831
10663SOL     OW32887   1.264   2.457   1.817
10663SOL    HW132888   1.180   2.507   1.795
10663SOL    HW232889   1.267   2.437   1.915
10664SOL     OW32890   2.328   5.398   6.179
10664SOL    HW132891   2.342   5.472   6.245
10664SOL    HW232892   2.405   5.395   6.116
10665SOL     OW32893   5.528   1.925   6.816
10665SOL    HW132894   5.475   2.000   6.776
10665SOL    HW232895   5.597   1.962   6.878
10666SOL     OW32896   0.448   6.650   0.290
10666SOL    HW132897   0.364   6.678   0.243
10666SOL    HW232898   0.511   6.610   0.223
10667SOL     OW32899   3.114   2.092   5.722
10667SOL    HW132900   3.015   2.081   5.732
10667SOL    HW232901   3.133   2.158   5.649
10668SOL     OW32902   1.412   0.232   6.310
10668SOL    HW132903   1.411   0.267   6.216
10668SOL    HW232904   1.318   0.223   6.343
10669SOL     OW32905   2.076   5.841   6.558
10669SOL    HW132906   2.163   5.824   6.603
10669SOL    HW232907   2.071   5.936   6.528
10670SOL     OW32908   5.911   4.225   4.957
10670SOL    HW132909   5.939   4.139   4.913
10670SOL    HW232910   5.923   4.300   4.892
10671SOL     OW32911   2.227   3.076   3.546
10671SOL    HW132912   2.210   3.144   3.618
10671SOL    HW232913   2.248   2.988   3.588
10672SOL     OW32914   6.755   2.235   0.482
10672SOL    HW132915   6.760   2.236   0.382
10672SOL    HW232916   6.787   2.146   0.516
10673SOL     OW32917   3.522   4.201   3.539
10673SOL    HW132918   3.497   4.109   3.569
10673SOL    HW232919   3.542   4.258   3.620
10674SOL     OW32920   4.165   1.603   2.458
10674SOL    HW132921   4.120   1.524   2.500
10674SOL    HW232922   4.163   1.594   2.359
10675SOL     OW32923   1.161   1.872   5.408
10675SOL    HW132924   1.182   1.969   5.400
10675SOL    HW232925   1.247   1.820   5.409
10676SOL     OW32926   6.275   0.777   6.776
10676SOL    HW132927   6.196   0.715   6.770
10676SOL    HW232928   6.264   0.837   6.856
10677SOL     OW32929   5.232   1.200   6.971
10677SOL    HW132930   5.203   1.224   0.044
10677SOL    HW232931   5.243   1.283   6.916
10678SOL     OW32932   1.790   5.167   3.780
10678SOL    HW132933   1.733   5.243   3.812
10678SOL    HW232934   1.760   5.139   3.689
10679SOL     OW32935   5.738   5.360   3.830
10679SOL    HW132936   5.731   5.324   3.737
10679SOL    HW232937   5.647   5.382   3.864
10680SOL     OW32938   0.208   2.676   3.732
10680SOL    HW132939   0.252   2.653   3.645
10680SOL    HW232940   0.144   2.604   3.758
10681SOL     OW32941   0.807   3.192   0.098
10681SOL    HW132942   0.777   3.166   0.190
10681SOL    HW232943   0.872   3.268   0.104
10682SOL     OW32944   6.366   2.159   3.911
10682SOL    HW132945   6.280   2.182   3.958
10682SOL    HW232946   6.421   2.100   3.970
10683SOL     OW32947   0.445   0.447   4.543
10683SOL    HW132948   0.544   0.433   4.537
10683SOL    HW232949   0.425   0.533   4.589
10684SOL     OW32950   5.196   5.833   0.604
10684SOL    HW132951   5.098   5.816   0.618
10684SOL    HW232952   5.248   5.788   0.676
10685SOL     OW32953   6.514   2.336   3.352
10685SOL    HW132954   6.524   2.307   3.257
10685SOL    HW232955   6.563   2.272   3.412
10686SOL     OW32956   4.932   4.285   1.448
10686SOL    HW132957   4.908   4.195   1.411
10686SOL    HW232958   4.877   4.302   1.530
10687SOL     OW32959   0.230   5.454   1.032
10687SOL    HW132960   0.285   5.454   1.116
10687SOL    HW232961   0.291   5.453   0.953
10688SOL     OW32962   1.291   4.758   0.809
10688SOL    HW132963   1.383   4.787   0.833
10688SOL    HW232964   1.261   4.686   0.872
10689SOL     OW32965   0.301   0.391   1.566
10689SOL    HW132966   0.287   0.398   1.468
10689SOL    HW232967   0.249   0.463   1.612
10690SOL     OW32968   3.625   0.537   3.243
10690SOL    HW132969   3.684   0.456   3.244
10690SOL    HW232970   3.590   0.554   3.335
10691SOL     OW32971   5.627   1.265   1.413
10691SOL    HW132972   5.640   1.364   1.409
10691SOL    HW232973   5.544   1.244   1.465
10692SOL     OW32974   5.807   6.212   3.596
10692SOL    HW132975   5.747   6.257   3.663
10692SOL    HW232976   5.756   6.143   3.546
10693SOL     OW32977   4.491   2.558   4.356
10693SOL    HW132978   4.513   2.460   4.356
10693SOL    HW232979   4.401   2.571   4.314
10694SOL     OW32980   2.914   6.182   0.162
10694SOL    HW132981   2.833   6.215   0.211
10694SOL    HW232982   2.959   6.111   0.216
10695SOL     OW32983   6.022   2.668   5.651
10695SOL    HW132984   5.989   2.732   5.721
10695SOL    HW232985   6.074   2.718   5.582
10696SOL     OW32986   6.516   0.382   0.734
10696SOL    HW132987   6.471   0.298   0.702
10696SOL    HW232988   6.478   0.461   0.686
10697SOL     OW32989   2.558   5.770   2.725
10697SOL    HW132990   2.608   5.770   2.638
10697SOL    HW232991   2.591   5.844   2.783
10698SOL     OW32992   3.935   0.022   3.989
10698SOL    HW132993   3.919   6.949   4.022
10698SOL    HW232994   3.942   0.021   3.889
10699SOL     OW32995   0.151   3.555   3.527
10699SOL    HW132996   0.246   3.524   3.526
10699SOL    HW232997   0.144   3.638   3.581
10700SOL     OW32998   0.984   3.253   2.674
10700SOL    HW132999   0.928   3.198   2.736
10700SOL    HW233000   1.078   3.258   2.708
10701SOL     OW33001   2.573   6.818   1.412
10701SOL    HW133002   2.595   6.899   1.467
10701SOL    HW233003   2.606   6.736   1.459
10702SOL     OW33004   4.931   2.270   0.912
10702SOL    HW133005   4.855   2.229   0.862
10702SOL    HW233006   4.997   2.200   0.938
10703SOL     OW33007   3.756   3.704   4.062
10703SOL    HW133008   3.728   3.633   3.997
10703SOL    HW233009   3.833   3.756   4.024
10704SOL     OW33010   5.559   5.568   1.492
10704SOL    HW133011   5.598   5.476   1.501
10704SOL    HW233012   5.571   5.618   1.578
10705SOL     OW33013   1.201   3.004   6.968
10705SOL    HW133014   1.145   3.074   6.925
10705SOL    HW233015   1.205   2.923   6.908
10706SOL     OW33016   3.282   3.640   0.704
10706SOL    HW133017   3.187   3.611   0.717
10706SOL    HW233018   3.301   3.717   0.766
10707SOL     OW33019   6.249   0.266   6.393
10707SOL    HW133020   6.169   0.206   6.402
10707SOL    HW233021   6.332   0.210   6.390
10708SOL     OW33022   4.801   2.843   1.355
10708SOL    HW133023   4.835   2.897   1.278
10708SOL    HW233024   4.784   2.902   1.433
10709SOL     OW33025   0.922   1.046   6.505
10709SOL    HW133026   0.948   1.030   6.601
10709SOL    HW233027   1.003   1.038   6.447
10710SOL     OW33028   6.850   6.866   3.618
10710SOL    HW133029   6.842   6.767   3.631
10710SOL    HW233030   6.936   6.898   3.657
10711SOL     OW33031   1.818   4.072   5.654
10711SOL    HW133032   1.740   4.012   5.639
10711SOL    HW233033   1.871   4.041   5.733
10712SOL     OW33034   3.754   1.956   6.171
10712SOL    HW133035   3.697   1.874   6.169
10712SOL    HW233036   3.838   1.940   6.118
10713SOL     OW33037   2.855   0.162   0.154
10713SOL    HW133038   2.825   0.087   0.214
10713SOL    HW233039   2.955   0.161   0.147
10714SOL     OW33040   5.167   5.773   4.397
10714SOL    HW133041   5.102   5.700   4.375
10714SOL    HW233042   5.244   5.736   4.447
10715SOL     OW33043   5.740   6.907   2.737
10715SOL    HW133044   5.749   6.934   2.641
10715SOL    HW233045   5.735   6.807   2.743
10716SOL     OW33046   7.012   1.991   2.219
10716SOL    HW133047   6.992   2.089   2.212
10716SOL    HW233048   0.004   1.967   2.315
10717SOL     OW33049   0.532   6.892   1.637
10717SOL    HW133050   0.473   6.943   1.700
10717SOL    HW233051   0.547   6.946   1.554
10718SOL     OW33052   6.516   5.066   5.292
10718SOL    HW133053   6.575   5.145   5.311
10718SOL    HW233054   6.502   5.014   5.376
10719SOL     OW33055   3.223   6.375   3.628
10719SOL    HW133056   3.285   6.304   3.660
10719SOL    HW233057   3.178   6.345   3.544
10720SOL     OW33058   0.615   3.216   6.084
10720SOL    HW133059   0.621   3.268   5.999
10720SOL    HW233060   0.664   3.130   6.074
10721SOL     OW33061   5.441   1.419   3.986
10721SOL    HW133062   5.390   1.403   4.071
10721SOL    HW233063   5.379   1.409   3.908
10722SOL     OW33064   0.857   5.301   0.821
10722SOL    HW133065   0.833   5.213   0.780
10722SOL    HW233066   0.955   5.304   0.839
10723SOL     OW33067   0.125   3.823   6.136
10723SOL    HW133068   0.078   3.859   6.055
10723SOL    HW233069   0.196   3.758   6.107
10724SOL     OW33070   3.902   6.473   5.878
10724SOL    HW133071   3.877   6.542   5.809
10724SOL    HW233072   3.973   6.511   5.937
10725SOL     OW33073   6.917   0.361   5.221
10725SOL    HW133074   6.949   0.454   5.206
10725SOL    HW233075   6.910   0.313   5.133
10726SOL     OW33076   6.577   0.592   3.625
10726SOL    HW133077   6.615   0.529   3.692
10726SOL    HW233078   6.490   0.628   3.659
10727SOL     OW33079   5.291   5.649   6.381
10727SOL    HW133080   5.356   5.673   6.309
10727SOL    HW233081   5.338   5.650   6.470
10728SOL     OW33082   5.461   6.170   4.470
10728SOL    HW133083   5.468   6.231   4.391
10728SOL    HW233084   5.466   6.224   4.554
10729SOL     OW33085   6.508   3.149   4.120
10729SOL    HW133086   6.518   3.199   4.206
10729SOL    HW233087   6.591   3.096   4.103
10730SOL     OW33088   1.328   6.169   4.140
10730SOL    HW133089   1.299   6.225   4.062
10730SOL    HW233090   1.248   6.143   4.194
10731SOL     OW33091   5.024   4.312   4.815
10731SOL    HW133092   5.053   4.363   4.896
10731SOL    HW233093   5.057   4.359   4.733
10732SOL     OW33094   5.559   5.963   2.705
10732SOL    HW133095   5.599   5.875   2.729
10732SOL    HW233096   5.471   5.948   2.660
10733SOL     OW33097   0.740   1.986   5.976
10733SOL    HW133098   0.780   1.936   6.052
10733SOL    HW233099   0.699   1.922   5.911
10734SOL     OW33100   0.328   0.644   4.179
10734SOL    HW133101   0.425   0.621   4.167
10734SOL    HW233102   0.319   0.712   4.252
10735SOL     OW33103   0.309   0.814   2.409
10735SOL    HW133104   0.277   0.765   2.328
10735SOL    HW233105   0.278   0.908   2.405
10736SOL     OW33106   5.634   5.918   4.346
10736SOL    HW133107   5.556   5.981   4.347
10736SOL    HW233108   5.642   5.877   4.255
10737SOL     OW33109   6.193   0.910   0.322
10737SOL    HW133110   6.269   0.927   0.260
10737SOL    HW233111   6.115   0.965   0.295
10738SOL     OW33112   0.623   6.399   2.097
10738SOL    HW133113   0.526   6.408   2.076
10738SOL    HW233114   0.671   6.483   2.071
10739SOL     OW33115   5.115   2.485   3.931
10739SOL    HW133116   5.157   2.514   3.844
10739SOL    HW233117   5.076   2.565   3.977
10740SOL     OW33118   2.930   0.859   6.330
10740SOL    HW133119   2.843   0.905   6.345
10740SOL    HW233120   3.000   0.926   6.308
10741SOL     OW33121   2.228   3.113   4.020
10741SOL    HW133122   2.287   3.174   4.073
10741SOL    HW233123   2.179   3.052   4.083
10742SOL     OW33124   0.043   0.398   2.280
10742SOL    HW133125   6.974   0.405   2.327
10742SOL    HW233126   0.073   0.303   2.279
10743SOL     OW33127   3.734   2.707   5.756
10743SOL    HW133128   3.797   2.727   5.831
10743SOL    HW233129   3.712   2.792   5.707
10744SOL     OW33130   1.530   1.383   0.577
10744SOL    HW133131   1.515   1.459   0.640
10744SOL    HW233132   1.621   1.389   0.537
10745SOL     OW33133   3.733   5.563   2.093
10745SOL    HW133134   3.723   5.464   2.087
10745SOL    HW233135   3.757   5.600   2.003
10746SOL     OW33136   2.546   5.699   6.028
10746SOL    HW133137   2.450   5.718   6.007
10746SOL    HW233138   2.602   5.776   5.999
10747SOL     OW33139   6.646   0.543   4.826
10747SOL    HW133140   6.639   0.446   4.852
10747SOL    HW233141   6.739   0.563   4.797
10748SOL     OW33142   3.734   6.192   2.588
10748SOL    HW133143   3.653   6.243   2.618
10748SOL    HW233144   3.769   6.232   2.503
10749SOL     OW33145   5.166   2.643   2.398
10749SOL    HW133146   5.198   2.631   2.491
10749SOL    HW233147   5.192   2.734   2.366
10750SOL     OW33148   3.233   1.336   4.498
10750SOL    HW133149   3.285   1.274   4.439
10750SOL    HW233150   3.285   1.420   4.513
10751SOL     OW33151   5.988   6.061   3.753
10751SOL    HW133152   5.927   6.123   3.704
10751SOL    HW233153   6.036   6.003   3.688
10752SOL     OW33154   0.176   6.022   6.422
10752SOL    HW133155   0.110   6.032   6.347
10752SOL    HW233156   0.126   6.008   6.508
10753SOL     OW33157   5.151   6.731   5.166
10753SOL    HW133158   5.127   6.806   5.104
10753SOL    HW233159   5.096   6.739   5.249
10754SOL     OW33160   6.843   5.700   2.163
10754SOL    HW133161   6.811   5.606   2.172
10754SOL    HW233162   6.786   5.760   2.219
10755SOL     OW33163   0.829   1.803   2.295
10755SOL    HW133164   0.732   1.827   2.298
10755SOL    HW233165   0.866   1.824   2.204
10756SOL     OW33166   0.580   0.187   6.813
10756SOL    HW133167   0.660   0.142   6.774
10756SOL    HW233168   0.563   0.273   6.764
10757SOL     OW33169   0.053   2.435   2.025
10757SOL    HW133170   7.008   2.419   1.950
10757SOL    HW233171   0.068   2.534   2.036
10758SOL     OW33172   0.139   1.453   0.962
10758SOL    HW133173   0.051   1.498   0.976
10758SOL    HW233174   0.186   1.495   0.885
10759SOL     OW33175   3.363   5.299   5.128
10759SOL    HW133176   3.410   5.245   5.057
10759SOL    HW233177   3.279   5.252   5.155
10760SOL     OW33178   0.886   4.814   6.953
10760SOL    HW133179   0.930   4.730   6.987
10760SOL    HW233180   0.854   4.868   0.010
10761SOL     OW33181   1.703   1.528   6.405
10761SOL    HW133182   1.683   1.612   6.456
10761SOL    HW233183   1.728   1.455   6.469
10762SOL     OW33184   1.596   5.985   1.223
10762SOL    HW133185   1.581   6.079   1.256
10762SOL    HW233186   1.577   5.981   1.125
10763SOL     OW33187   4.895   1.523   2.428
10763SOL    HW133188   4.869   1.578   2.507
10763SOL    HW233189   4.821   1.525   2.360
10764SOL     OW33190   5.133   6.236   4.270
10764SOL    HW133191   5.068   6.164   4.244
10764SOL    HW233192   5.113   6.267   4.363
10765SOL     OW33193   6.792   2.954   1.652
10765SOL    HW133194   6.863   2.987   1.714
10765SOL    HW233195   6.777   3.021   1.580
10766SOL     OW33196   3.344   5.546   6.755
10766SOL    HW133197   3.283   5.540   6.834
10766SOL    HW233198   3.319   5.626   6.700
10767SOL     OW33199   1.498   5.128   6.496
10767SOL    HW133200   1.459   5.182   6.570
10767SOL    HW233201   1.592   5.158   6.479
10768SOL     OW33202   5.807   6.096   0.095
10768SOL    HW133203   5.861   6.102   0.011
10768SOL    HW233204   5.710   6.084   0.071
10769SOL     OW33205   3.261   3.695   4.579
10769SOL    HW133206   3.350   3.735   4.602
10769SOL    HW233207   3.232   3.634   4.652
10770SOL     OW33208   4.555   0.276   4.297
10770SOL    HW133209   4.578   0.210   4.369
10770SOL    HW233210   4.603   0.251   4.213
10771SOL     OW33211   4.971   6.257   5.553
10771SOL    HW133212   4.996   6.348   5.518
10771SOL    HW233213   5.023   6.187   5.504
10772SOL     OW33214   5.109   3.119   4.113
10772SOL    HW133215   5.140   3.210   4.086
10772SOL    HW233216   5.011   3.111   4.096
10773SOL     OW33217   0.970   4.155   0.397
10773SOL    HW133218   1.068   4.173   0.386
10773SOL    HW233219   0.944   4.171   0.492
10774SOL     OW33220   6.451   3.091   0.613
10774SOL    HW133221   6.407   3.157   0.674
10774SOL    HW233222   6.432   2.998   0.644
10775SOL     OW33223   1.958   4.638   6.151
10775SOL    HW133224   1.874   4.615   6.201
10775SOL    HW233225   2.004   4.554   6.123
10776SOL     OW33226   7.009   3.645   2.977
10776SOL    HW133227   6.949   3.672   2.902
10776SOL    HW233228   6.955   3.626   3.059
10777SOL     OW33229   0.799   6.299   2.317
10777SOL    HW133230   0.898   6.308   2.309
10777SOL    HW233231   0.756   6.321   2.230
10778SOL     OW33232   4.912   6.973   3.613
10778SOL    HW133233   4.901   6.924   3.527
10778SOL    HW233234   4.942   6.909   3.684
10779SOL     OW33235   5.745   2.690   5.511
10779SOL    HW133236   5.725   2.777   5.467
10779SOL    HW233237   5.748   2.702   5.611
10780SOL     OW33238   1.060   5.747   5.005
10780SOL    HW133239   1.118   5.669   4.982
10780SOL    HW233240   0.977   5.715   5.050
10781SOL     OW33241   5.977   2.122   5.648
10781SOL    HW133242   6.026   2.208   5.664
10781SOL    HW233243   5.958   2.077   5.736
10782SOL     OW33244   1.250   3.421   4.986
10782SOL    HW133245   1.241   3.369   4.902
10782SOL    HW233246   1.214   3.368   5.063
10783SOL     OW33247   1.605   3.753   3.940
10783SOL    HW133248   1.591   3.794   4.031
10783SOL    HW233249   1.568   3.660   3.939
10784SOL     OW33250   4.940   5.195   4.283
10784SOL    HW133251   5.003   5.117   4.277
10784SOL    HW233252   4.847   5.165   4.266
10785SOL     OW33253   1.821   5.543   1.860
10785SOL    HW133254   1.778   5.470   1.807
10785SOL    HW233255   1.753   5.613   1.882
10786SOL     OW33256   4.808   1.313   2.664
10786SOL    HW133257   4.865   1.302   2.582
10786SOL    HW233258   4.730   1.371   2.642
10787SOL     OW33259   2.837   1.527   3.870
10787SOL    HW133260   2.925   1.572   3.853
10787SOL    HW233261   2.847   1.428   3.861
10788SOL     OW33262   1.401   3.053   6.751
10788SOL    HW133263   1.319   3.046   6.808
10788SOL    HW233264   1.458   3.128   6.784
10789SOL     OW33265   6.615   2.352   2.872
10789SOL    HW133266   6.692   2.414   2.880
10789SOL    HW233267   6.559   2.378   2.793
10790SOL     OW33268   6.649   2.836   5.117
10790SOL    HW133269   6.656   2.917   5.058
10790SOL    HW233270   6.689   2.857   5.206
10791SOL     OW33271   2.149   3.015   3.014
10791SOL    HW133272   2.160   3.079   3.090
10791SOL    HW233273   2.200   2.932   3.033
10792SOL     OW33274   3.863   1.078   2.288
10792SOL    HW133275   3.933   1.045   2.350
10792SOL    HW233276   3.906   1.125   2.211
10793SOL     OW33277   3.711   2.145   3.784
10793SOL    HW133278   3.620   2.104   3.776
10793SOL    HW233279   3.730   2.163   3.881
10794SOL     OW33280   4.267   2.953   0.001
10794SOL    HW133281   4.284   2.960   0.100
10794SOL    HW233282   4.309   3.030   6.974
10795SOL     OW33283   6.264   2.388   3.116
10795SOL    HW133284   6.345   2.331   3.130
10795SOL    HW233285   6.198   2.371   3.190
10796SOL     OW33286   6.703   2.071   6.514
10796SOL    HW133287   6.643   2.003   6.558
10796SOL    HW233288   6.706   2.153   6.571
10797SOL     OW33289   5.771   4.311   6.789
10797SOL    HW133290   5.685   4.338   6.747
10797SOL    HW233291   5.842   4.305   6.719
10798SOL     OW33292   2.324   5.784   0.581
10798SOL    HW133293   2.295   5.765   0.675
10798SOL    HW233294   2.246   5.813   0.527
10799SOL     OW33295   1.889   1.400   3.316
10799SOL    HW133296   1.799   1.440   3.334
10799SOL    HW233297   1.959   1.470   3.328
10800SOL     OW33298   1.003   0.398   5.213
10800SOL    HW133299   1.057   0.315   5.227
10800SOL    HW233300   0.906   0.376   5.219
10801SOL     OW33301   3.168   6.201   6.917
10801SOL    HW133302   3.086   6.258   6.925
10801SOL    HW233303   3.166   6.153   6.829
10802SOL     OW33304   0.403   4.782   3.317
10802SOL    HW133305   0.401   4.690   3.277
10802SOL    HW233306   0.338   4.787   3.393
10803SOL     OW33307   0.071   3.915   4.936
10803SOL    HW133308   0.054   4.001   4.983
10803SOL    HW233309   0.040   3.839   4.994
10804SOL     OW33310   4.519   5.156   6.520
10804SOL    HW133311   4.427   5.148   6.482
10804SOL    HW233312   4.584   5.108   6.461
10805SOL     OW33313   5.448   5.754   0.141
10805SOL    HW133314   5.492   5.732   0.228
10805SOL    HW233315   5.518   5.780   0.074
10806SOL     OW33316   6.063   3.076   5.272
10806SOL    HW133317   6.051   3.144   5.344
10806SOL    HW233318   6.158   3.075   5.241
10807SOL     OW33319   4.555   2.484   5.040
10807SOL    HW133320   4.582   2.558   5.102
10807SOL    HW233321   4.549   2.519   4.947
10808SOL     OW33322   0.755   2.521   0.929
10808SOL    HW133323   0.837   2.479   0.891
10808SOL    HW233324   0.764   2.621   0.927
10809SOL     OW33325   0.580   1.192   2.927
10809SOL    HW133326   0.588   1.120   2.996
10809SOL    HW233327   0.485   1.200   2.897
10810SOL     OW33328   1.946   2.205   6.389
10810SOL    HW133329   1.943   2.301   6.417
10810SOL    HW233330   1.911   2.196   6.296
10811SOL     OW33331   4.270   5.114   6.397
10811SOL    HW133332   4.234   5.034   6.445
10811SOL    HW233333   4.240   5.198   6.444
10812SOL     OW33334   6.726   3.216   2.217
10812SOL    HW133335   6.673   3.275   2.157
10812SOL    HW233336   6.697   3.230   2.312
10813SOL     OW33337   3.349   6.390   2.100
10813SOL    HW133338   3.422   6.457   2.087
10813SOL    HW233339   3.365   6.311   2.042
10814SOL     OW33340   1.979   6.047   4.323
10814SOL    HW133341   1.909   6.117   4.337
10814SOL    HW233342   1.942   5.973   4.267
10815SOL     OW33343   5.355   2.764   5.872
10815SOL    HW133344   5.403   2.733   5.954
10815SOL    HW233345   5.374   2.701   5.796
10816SOL     OW33346   2.380   2.779   1.014
10816SOL    HW133347   2.310   2.815   0.952
10816SOL    HW233348   2.346   2.697   1.059
10817SOL     OW33349   3.710   1.460   1.761
10817SOL    HW133350   3.625   1.494   1.799
10817SOL    HW233351   3.749   1.528   1.698
10818SOL     OW33352   4.492   3.669   5.442
10818SOL    HW133353   4.505   3.572   5.424
10818SOL    HW233354   4.580   3.716   5.436
10819SOL     OW33355   2.076   3.162   5.220
10819SOL    HW133356   2.169   3.189   5.245
10819SOL    HW233357   2.044   3.219   5.144
10820SOL     OW33358   0.440   6.591   5.197
10820SOL    HW133359   0.513   6.637   5.147
10820SOL    HW233360   0.463   6.494   5.207
10821SOL     OW33361   6.963   0.550   6.816
10821SOL    HW133362   6.875   0.588   6.788
10821SOL    HW233363   6.948   0.473   6.879
10822SOL     OW33364   0.078   5.525   5.582
10822SOL    HW133365   0.092   5.457   5.653
10822SOL    HW233366   0.120   5.493   5.497
10823SOL     OW33367   2.797   2.427   0.440
10823SOL    HW133368   2.708   2.384   0.428
10823SOL    HW233369   2.810   2.449   0.537
10824SOL     OW33370   4.925   1.581   4.583
10824SOL    HW133371   4.846   1.596   4.643
10824SOL    HW233372   4.933   1.656   4.518
10825SOL     OW33373   4.353   1.115   1.759
10825SOL    HW133374   4.383   1.019   1.764
10825SOL    HW233375   4.262   1.119   1.720
10826SOL     OW33376   0.768   3.501   0.886
10826SOL    HW133377   0.767   3.540   0.978
10826SOL    HW233378   0.674   3.493   0.852
10827SOL     OW33379   6.643   2.560   5.213
10827SOL    HW133380   6.614   2.646   5.173
10827SOL    HW233381   6.713   2.518   5.156
10828SOL     OW33382   3.002   4.542   6.829
10828SOL    HW133383   3.018   4.590   6.915
10828SOL    HW233384   3.001   4.443   6.845
10829SOL     OW33385   1.899   3.722   1.040
10829SOL    HW133386   1.935   3.673   1.120
10829SOL    HW233387   1.882   3.657   0.966
10830SOL     OW33388   5.965   7.001   4.003
10830SOL    HW133389   5.987   0.070   4.045
10830SOL    HW233390   5.931   6.938   4.073
10831SOL     OW33391   5.655   2.995   2.486
10831SOL    HW133392   5.614   2.926   2.426
10831SOL    HW233393   5.733   2.954   2.534
10832SOL     OW33394   1.724   3.014   2.019
10832SOL    HW133395   1.814   2.986   2.051
10832SOL    HW233396   1.700   2.962   1.936
10833SOL     OW33397   3.173   0.105   4.428
10833SOL    HW133398   3.149   0.017   4.388
10833SOL    HW233399   3.232   0.155   4.365
10834SOL     OW33400   0.119   2.227   5.520
10834SOL    HW133401   0.024   2.206   5.542
10834SOL    HW233402   0.123   2.275   5.433
10835SOL     OW33403   0.706   1.255   0.578
10835SOL    HW133404   0.663   1.180   0.528
10835SOL    HW233405   0.713   1.335   0.519
10836SOL     OW33406   0.008   1.520   1.340
10836SOL    HW133407   6.940   1.558   1.370
10836SOL    HW233408   7.011   1.446   1.275
10837SOL     OW33409   1.572   5.579   0.590
10837SOL    HW133410   1.671   5.573   0.576
10837SOL    HW233411   1.528   5.499   0.549
10838SOL     OW33412   6.538   6.069   1.198
10838SOL    HW133413   6.638   6.062   1.198
10838SOL    HW233414   6.505   6.072   1.104
10839SOL     OW33415   2.542   1.799   6.670
10839SOL    HW133416   2.528   1.862   6.746
10839SOL    HW233417   2.610   1.837   6.607
10840SOL     OW33418   0.994   1.103   3.187
10840SOL    HW133419   1.046   1.118   3.103
10840SOL    HW233420   0.974   1.192   3.230
10841SOL     OW33421   4.644   4.576   0.308
10841SOL    HW133422   4.662   4.502   0.373
10841SOL    HW233423   4.548   4.604   0.316
10842SOL     OW33424   5.648   1.751   1.749
10842SOL    HW133425   5.565   1.719   1.703
10842SOL    HW233426   5.663   1.698   1.832
10843SOL     OW33427   0.908   2.008   1.428
10843SOL    HW133428   0.850   1.978   1.352
10843SOL    HW233429   0.998   1.966   1.419
10844SOL     OW33430   4.396   6.819   3.814
10844SOL    HW133431   4.454   6.867   3.879
10844SOL    HW233432   4.431   6.833   3.721
10845SOL     OW33433   2.296   3.554   1.428
10845SOL    HW133434   2.317   3.595   1.516
10845SOL    HW233435   2.206   3.585   1.397
10846SOL     OW33436   3.421   2.321   1.442
10846SOL    HW133437   3.510   2.331   1.398
10846SOL    HW233438   3.401   2.224   1.456
10847SOL     OW33439   5.106   1.893   5.420
10847SOL    HW133440   5.162   1.810   5.415
10847SOL    HW233441   5.126   1.952   5.342
10848SOL     OW33442   2.058   0.540   6.451
10848SOL    HW133443   2.032   0.575   6.541
10848SOL    HW233444   2.156   0.518   6.451
10849SOL     OW33445   0.624   3.985   5.125
10849SOL    HW133446   0.701   3.967   5.064
10849SOL    HW233447   0.649   4.057   5.190
10850SOL     OW33448   5.696   0.747   3.151
10850SOL    HW133449   5.789   0.768   3.119
10850SOL    HW233450   5.643   0.831   3.156
10851SOL     OW33451   4.810   2.966   0.392
10851SOL    HW133452   4.751   2.895   0.353
10851SOL    HW233453   4.754   3.041   0.426
10852SOL     OW33454   5.718   1.564   5.963
10852SOL    HW133455   5.784   1.498   5.926
10852SOL    HW233456   5.666   1.520   6.037
10853SOL     OW33457   1.922   6.755   5.601
10853SOL    HW133458   1.844   6.815   5.587
10853SOL    HW233459   1.997   6.807   5.642
10854SOL     OW33460   5.541   6.918   6.875
10854SOL    HW133461   5.504   7.005   6.909
10854SOL    HW233462   5.639   6.916   6.889
10855SOL     OW33463   1.024   5.734   0.020
10855SOL    HW133464   0.980   5.683   0.094
10855SOL    HW233465   0.974   5.819   0.003
10856SOL     OW33466   4.721   6.979   6.495
10856SOL    HW133467   4.795   6.948   6.436
10856SOL    HW233468   4.646   7.014   6.439
10857SOL     OW33469   6.140   6.576   4.939
10857SOL    HW133470   6.175   6.525   5.018
10857SOL    HW233471   6.117   6.513   4.866
10858SOL     OW33472   1.986   2.741   1.093
10858SOL    HW133473   2.028   2.768   1.180
10858SOL    HW233474   2.021   2.650   1.067
10859SOL     OW33475   2.309   5.120   1.763
10859SOL    HW133476   2.407   5.123   1.782
10859SOL    HW233477   2.261   5.086   1.845
10860SOL     OW33478   5.420   1.428   2.000
10860SOL    HW133479   5.352   1.500   1.989
10860SOL    HW233480   5.416   1.365   1.922
10861SOL     OW33481   2.757   4.760   0.745
10861SOL    HW133482   2.692   4.722   0.679
10861SOL    HW233483   2.739   4.857   0.758
10862SOL     OW33484   3.896   4.692   5.257
10862SOL    HW133485   3.826   4.728   5.319
10862SOL    HW233486   3.885   4.593   5.248
10863SOL     OW33487   0.182   6.938   3.957
10863SOL    HW133488   0.124   6.872   3.908
10863SOL    HW233489   0.187   6.913   4.054
10864SOL     OW33490   3.013   3.614   2.740
10864SOL    HW133491   2.972   3.694   2.695
10864SOL    HW233492   3.101   3.640   2.779
10865SOL     OW33493   3.369   2.085   2.247
10865SOL    HW133494   3.380   2.184   2.244
10865SOL    HW233495   3.422   2.043   2.173
10866SOL     OW33496   0.309   3.342   4.973
10866SOL    HW133497   0.214   3.374   4.979
10866SOL    HW233498   0.370   3.421   4.980
10867SOL     OW33499   4.967   3.311   0.437
10867SOL    HW133500   5.062   3.340   0.427
10867SOL    HW233501   4.910   3.390   0.458
10868SOL     OW33502   0.043   7.013   5.997
10868SOL    HW133503   0.076   6.952   6.069
10868SOL    HW233504   7.004   0.064   6.037
10869NA      NA33505   6.663   1.007   6.925
10870NA      NA33506   4.742   4.665   4.939
10871NA      NA33507   0.780   4.533   2.929
10872NA      NA33508   6.626   3.437   3.620
10873NA      NA33509   4.398   2.330   5.120
10874NA      NA33510   2.543   3.444   6.740
10875NA      NA33511   1.718   5.469   0.118
10876NA      NA33512   4.208   4.927   2.084
10877NA      NA33513   5.385   3.705   1.191
10878NA      NA33514   3.488   2.030   0.433
10879NA      NA33515   4.989   6.236   1.680
10880NA      NA33516   2.675   6.462   4.569
10881NA      NA33517   3.143   5.467   2.833
10882NA      NA33518   4.464   4.851   5.794
   7.01934   7.01934   7.01934
