Generated by trjconv : CNT in water t= 200.00000
33518
    1C        C    1   2.850   2.777   4.749
    1C        C    2   2.901   2.723   4.869
    1C        C    3   2.842   2.774   4.985
    1C        C    4   2.860   2.786   4.262
    1C        C    5   2.908   2.735   4.385
    1C        C    6   2.852   2.779   4.507
    1C        C    7   3.016   2.641   4.626
    1C        C    8   2.903   2.725   4.628
    1C        C    9   3.081   2.610   4.748
    1C        C   10   3.015   2.639   4.869
    1C        C   11   3.186   2.496   4.978
    1C        C   12   3.065   2.567   4.978
    1C        C   13   2.857   2.781   3.775
    1C        C   14   2.905   2.729   3.898
    1C        C   15   2.853   2.776   4.020
    1C        C   16   3.021   2.646   4.142
    1C        C   17   2.910   2.733   4.141
    1C        C   18   3.081   2.610   4.264
    1C        C   19   3.022   2.652   4.386
    1C        C   20   3.215   2.559   4.505
    1C        C   21   3.085   2.613   4.506
    1C        C   22   3.282   2.533   4.627
    1C        C   23   3.210   2.550   4.747
    1C        C   24   3.414   2.479   4.865
    1C        C   25   3.274   2.505   4.866
    1C        C   26   3.492   2.475   4.982
    1C        C   27   2.853   2.772   3.284
    1C        C   28   2.908   2.732   3.408
    1C        C   29   2.858   2.781   3.531
    1C        C   30   3.024   2.651   3.651
    1C        C   31   2.908   2.732   3.653
    1C        C   32   3.084   2.615   3.774
    1C        C   33   3.019   2.645   3.896
    1C        C   34   3.210   2.554   4.016
    1C        C   35   3.081   2.611   4.018
    1C        C   36   3.277   2.532   4.138
    1C        C   37   3.211   2.555   4.261
    1C        C   38   3.418   2.501   4.380
    1C        C   39   3.281   2.533   4.383
    1C        C   40   3.489   2.498   4.502
    1C        C   41   3.419   2.499   4.625
    1C        C   42   3.632   2.479   4.742
    1C        C   43   3.489   2.476   4.745
    1C        C   44   3.705   2.487   4.863
    1C        C   45   3.631   2.482   4.982
    1C        C   46   2.843   2.763   2.794
    1C        C   47   2.897   2.716   2.916
    1C        C   48   2.849   2.767   3.039
    1C        C   49   3.022   2.646   3.163
    1C        C   50   2.905   2.725   3.162
    1C        C   51   3.082   2.611   3.286
    1C        C   52   3.023   2.650   3.409
    1C        C   53   3.212   2.550   3.528
    1C        C   54   3.085   2.612   3.530
    1C        C   55   3.278   2.528   3.651
    1C        C   56   3.211   2.554   3.773
    1C        C   57   3.418   2.506   3.896
    1C        C   58   3.279   2.529   3.895
    1C        C   59   3.489   2.497   4.017
    1C        C   60   3.416   2.504   4.138
    1C        C   61   3.630   2.495   4.260
    1C        C   62   3.489   2.493   4.258
    1C        C   63   3.703   2.506   4.381
    1C        C   64   3.630   2.501   4.502
    1C        C   65   3.839   2.538   4.621
    1C        C   66   3.703   2.501   4.623
    1C        C   67   3.906   2.555   4.744
    1C        C   68   3.842   2.519   4.865
    1C        C   69   4.050   2.586   4.982
    1C        C   70   3.922   2.529   4.980
    1C        C   71   2.820   2.734   2.312
    1C        C   72   2.887   2.699   2.432
    1C        C   73   2.834   2.751   2.552
    1C        C   74   3.011   2.631   2.675
    1C        C   75   2.893   2.708   2.674
    1C        C   76   3.075   2.599   2.796
    1C        C   77   3.015   2.638   2.918
    1C        C   78   3.209   2.552   3.039
    1C        C   79   3.080   2.608   3.040
    1C        C   80   3.274   2.526   3.162
    1C        C   81   3.208   2.548   3.284
    1C        C   82   3.415   2.494   3.403
    1C        C   83   3.277   2.525   3.406
    1C        C   84   3.483   2.488   3.526
    1C        C   85   3.416   2.501   3.650
    1C        C   86   3.628   2.497   3.769
    1C        C   87   3.487   2.495   3.773
    1C        C   88   3.698   2.509   3.891
    1C        C   89   3.631   2.500   4.015
    1C        C   90   3.837   2.543   4.136
    1C        C   91   3.700   2.507   4.138
    1C        C   92   3.907   2.566   4.257
    1C        C   93   3.840   2.539   4.379
    1C        C   94   4.032   2.632   4.502
    1C        C   95   3.906   2.567   4.500
    1C        C   96   4.091   2.671   4.624
    1C        C   97   4.033   2.621   4.743
    1C        C   98   4.188   2.764   4.865
    1C        C   99   4.098   2.653   4.865
    1C        C  100   4.211   2.841   4.980
    1C        C  101   2.826   2.737   2.070
    1C        C  102   2.984   2.592   2.196
    1C        C  103   2.872   2.681   2.191
    1C        C  104   3.064   2.574   2.312
    1C        C  105   3.006   2.623   2.431
    1C        C  106   3.201   2.538   2.552
    1C        C  107   3.072   2.595   2.553
    1C        C  108   3.272   2.518   2.672
    1C        C  109   3.205   2.543   2.794
    1C        C  110   3.413   2.500   2.914
    1C        C  111   3.274   2.526   2.916
    1C        C  112   3.482   2.493   3.037
    1C        C  113   3.413   2.498   3.159
    1C        C  114   3.627   2.492   3.279
    1C        C  115   3.486   2.490   3.280
    1C        C  116   3.695   2.500   3.403
    1C        C  117   3.624   2.494   3.525
    1C        C  118   3.833   2.540   3.648
    1C        C  119   3.697   2.501   3.646
    1C        C  120   3.899   2.566   3.770
    1C        C  121   3.835   2.543   3.893
    1C        C  122   4.026   2.639   4.014
    1C        C  123   3.903   2.570   4.014
    1C        C  124   4.089   2.672   4.136
    1C        C  125   4.032   2.630   4.258
    1C        C  126   4.196   2.766   4.379
    1C        C  127   4.089   2.673   4.380
    1C        C  128   4.241   2.823   4.500
    1C        C  129   4.190   2.772   4.621
    1C        C  130   4.318   2.938   4.743
    1C        C  131   4.236   2.822   4.744
    1C        C  132   4.348   3.006   4.863
    1C        C  133   4.275   2.964   4.974
    1C        C  134   3.171   2.472   2.088
    1C        C  135   3.038   2.516   2.088
    1C        C  136   3.262   2.476   2.195
    1C        C  137   3.194   2.518   2.312
    1C        C  138   3.407   2.476   2.431
    1C        C  139   3.269   2.506   2.431
    1C        C  140   3.483   2.477   2.550
    1C        C  141   3.411   2.489   2.671
    1C        C  142   3.624   2.498   2.792
    1C        C  143   3.484   2.487   2.792
    1C        C  144   3.697   2.502   2.914
    1C        C  145   3.624   2.492   3.034
    1C        C  146   3.832   2.538   3.156
    1C        C  147   3.695   2.500   3.156
    1C        C  148   3.897   2.564   3.279
    1C        C  149   3.831   2.538   3.401
    1C        C  150   4.022   2.629   3.523
    1C        C  151   3.897   2.563   3.523
    1C        C  152   4.082   2.669   3.644
    1C        C  153   4.024   2.633   3.768
    1C        C  154   4.191   2.766   3.888
    1C        C  155   4.083   2.674   3.889
    1C        C  156   4.240   2.816   4.010
    1C        C  157   4.196   2.765   4.135
    1C        C  158   4.332   2.928   4.253
    1C        C  159   4.245   2.817   4.256
    1C        C  160   4.367   2.991   4.374
    1C        C  161   4.326   2.936   4.498
    1C        C  162   4.429   3.120   4.615
    1C        C  163   4.360   2.996   4.621
    1C        C  164   4.460   3.187   4.736
    1C        C  165   4.427   3.124   4.857
    1C        C  166   4.511   3.322   4.970
    1C        C  167   4.471   3.189   4.973
    1C        C  168   3.478   2.442   2.072
    1C        C  169   3.402   2.458   2.189
    1C        C  170   3.618   2.468   2.308
    1C        C  171   3.476   2.463   2.309
    1C        C  172   3.694   2.487   2.425
    1C        C  173   3.624   2.484   2.548
    1C        C  174   3.831   2.532   2.667
    1C        C  175   3.694   2.496   2.669
    1C        C  176   3.896   2.556   2.790
    1C        C  177   3.835   2.529   2.915
    1C        C  178   4.029   2.621   3.032
    1C        C  179   3.904   2.554   3.036
    1C        C  180   4.085   2.662   3.155
    1C        C  181   4.022   2.629   3.277
    1C        C  182   4.191   2.754   3.399
    1C        C  183   4.082   2.664   3.400
    1C        C  184   4.242   2.807   3.519
    1C        C  185   4.190   2.760   3.642
    1C        C  186   4.333   2.918   3.766
    1C        C  187   4.243   2.808   3.764
    1C        C  188   4.369   2.983   3.886
    1C        C  189   4.329   2.926   4.009
    1C        C  190   4.442   3.108   4.130
    1C        C  191   4.371   2.986   4.130
    1C        C  192   4.467   3.178   4.250
    1C        C  193   4.433   3.116   4.373
    1C        C  194   4.503   3.319   4.492
    1C        C  195   4.459   3.184   4.493
    1C        C  196   4.521   3.392   4.611
    1C        C  197   4.503   3.323   4.733
    1C        C  198   4.557   3.536   4.849
    1C        C  199   4.529   3.396   4.853
    1C        C  200   4.590   3.622   4.959
    1C        C  201   3.617   2.427   2.072
    1C        C  202   3.827   2.515   2.184
    1C        C  203   3.692   2.466   2.187
    1C        C  204   3.901   2.541   2.302
    1C        C  205   3.832   2.519   2.423
    1C        C  206   4.020   2.621   2.545
    1C        C  207   3.899   2.549   2.544
    1C        C  208   4.082   2.658   2.667
    1C        C  209   4.020   2.624   2.789
    1C        C  210   4.196   2.750   2.909
    1C        C  211   4.084   2.664   2.909
    1C        C  212   4.248   2.797   3.031
    1C        C  213   4.195   2.751   3.153
    1C        C  214   4.330   2.913   3.273
    1C        C  215   4.239   2.805   3.276
    1C        C  216   4.365   2.975   3.395
    1C        C  217   4.326   2.921   3.520
    1C        C  218   4.433   3.102   3.639
    1C        C  219   4.368   2.977   3.643
    1C        C  220   4.465   3.169   3.759
    1C        C  221   4.435   3.108   3.883
    1C        C  222   4.503   3.307   4.004
    1C        C  223   4.466   3.170   4.005
    1C        C  224   4.517   3.382   4.123
    1C        C  225   4.503   3.314   4.247
    1C        C  226   4.534   3.525   4.366
    1C        C  227   4.518   3.385   4.368
    1C        C  228   4.527   3.599   4.486
    1C        C  229   4.531   3.533   4.611
    1C        C  230   4.507   3.748   4.729
    1C        C  231   4.540   3.610   4.729
    1C        C  232   4.500   3.823   4.848
    1C        C  233   4.555   3.757   4.959
    1C        C  234   4.013   2.614   2.063
    1C        C  235   3.892   2.545   2.063
    1C        C  236   4.083   2.654   2.178
    1C        C  237   4.024   2.612   2.300
    1C        C  238   4.197   2.736   2.422
    1C        C  239   4.081   2.654   2.422
    1C        C  240   4.248   2.789   2.542
    1C        C  241   4.194   2.745   2.665
    1C        C  242   4.334   2.907   2.786
    1C        C  243   4.246   2.797   2.785
    1C        C  244   4.376   2.966   2.907
    1C        C  245   4.336   2.908   3.029
    1C        C  246   4.435   3.096   3.153
    1C        C  247   4.376   2.968   3.151
    1C        C  248   4.456   3.165   3.274
    1C        C  249   4.430   3.100   3.397
    1C        C  250   4.495   3.306   3.518
    1C        C  251   4.457   3.169   3.517
    1C        C  252   4.514   3.376   3.639
    1C        C  253   4.503   3.305   3.760
    1C        C  254   4.520   3.518   3.877
    1C        C  255   4.513   3.377   3.882
    1C        C  256   4.513   3.588   4.000
    1C        C  257   4.523   3.523   4.125
    1C        C  258   4.497   3.736   4.243
    1C        C  259   4.526   3.597   4.245
    1C        C  260   4.481   3.808   4.363
    1C        C  261   4.497   3.737   4.484
    1C        C  262   4.426   3.940   4.605
    1C        C  263   4.479   3.809   4.605
    1C        C  264   4.396   4.009   4.725
    1C        C  265   4.434   3.948   4.847
    1C        C  266   4.321   4.135   4.961
    1C        C  267   4.398   4.020   4.962
    1C        C  268   4.262   2.779   2.061
    1C        C  269   4.197   2.736   2.177
    1C        C  270   4.344   2.890   2.301
    1C        C  271   4.252   2.781   2.300
    1C        C  272   4.388   2.952   2.420
    1C        C  273   4.339   2.898   2.541
    1C        C  274   4.440   3.087   2.662
    1C        C  275   4.369   2.965   2.662
    1C        C  276   4.469   3.153   2.783
    1C        C  277   4.439   3.092   2.907
    1C        C  278   4.503   3.294   3.025
    1C        C  279   4.466   3.157   3.029
    1C        C  280   4.510   3.366   3.147
    1C        C  281   4.491   3.302   3.271
    1C        C  282   4.522   3.512   3.391
    1C        C  283   4.505   3.372   3.393
    1C        C  284   4.521   3.586   3.511
    1C        C  285   4.518   3.517   3.634
    1C        C  286   4.496   3.729   3.755
    1C        C  287   4.520   3.590   3.756
    1C        C  288   4.475   3.796   3.877
    1C        C  289   4.490   3.727   3.999
    1C        C  290   4.426   3.932   4.117
    1C        C  291   4.479   3.801   4.119
    1C        C  292   4.398   3.999   4.237
    1C        C  293   4.432   3.941   4.361
    1C        C  294   4.326   4.126   4.483
    1C        C  295   4.398   4.004   4.483
    1C        C  296   4.286   4.190   4.602
    1C        C  297   4.324   4.131   4.725
    1C        C  298   4.199   4.315   4.841
    1C        C  299   4.278   4.196   4.843
    1C        C  300   4.171   4.401   4.953
    1C        C  301   4.359   2.879   2.064
    1C        C  302   4.465   3.071   2.177
    1C        C  303   4.397   2.945   2.181
    1C        C  304   4.482   3.144   2.298
    1C        C  305   4.451   3.078   2.419
    1C        C  306   4.509   3.285   2.538
    1C        C  307   4.478   3.148   2.540
    1C        C  308   4.517   3.357   2.659
    1C        C  309   4.509   3.289   2.782
    1C        C  310   4.529   3.503   2.901
    1C        C  311   4.522   3.362   2.903
    1C        C  312   4.524   3.575   3.022
    1C        C  313   4.524   3.506   3.146
    1C        C  314   4.492   3.717   3.264
    1C        C  315   4.523   3.579   3.267
    1C        C  316   4.477   3.788   3.385
    1C        C  317   4.500   3.726   3.510
    1C        C  318   4.429   3.927   3.630
    1C        C  319   4.480   3.795   3.631
    1C        C  320   4.392   3.989   3.752
    1C        C  321   4.424   3.928   3.875
    1C        C  322   4.319   4.116   3.994
    1C        C  323   4.398   3.998   3.995
    1C        C  324   4.276   4.170   4.117
    1C        C  325   4.322   4.119   4.241
    1C        C  326   4.187   4.286   4.357
    1C        C  327   4.285   4.184   4.360
    1C        C  328   4.136   4.342   4.476
    1C        C  329   4.191   4.294   4.598
    1C        C  330   4.029   4.439   4.715
    1C        C  331   4.141   4.352   4.717
    1C        C  332   3.973   4.494   4.832
    1C        C  333   4.055   4.478   4.945
    1C        C  334   4.559   3.268   2.064
    1C        C  335   4.530   3.131   2.064
    1C        C  336   4.543   3.350   2.176
    1C        C  337   4.525   3.279   2.297
    1C        C  338   4.528   3.496   2.411
    1C        C  339   4.529   3.355   2.416
    1C        C  340   4.521   3.567   2.533
    1C        C  341   4.526   3.498   2.656
    1C        C  342   4.498   3.709   2.774
    1C        C  343   4.523   3.571   2.777
    1C        C  344   4.480   3.779   2.896
    1C        C  345   4.499   3.714   3.020
    1C        C  346   4.426   3.916   3.138
    1C        C  347   4.478   3.785   3.141
    1C        C  348   4.395   3.979   3.261
    1C        C  349   4.429   3.921   3.385
    1C        C  350   4.323   4.106   3.504
    1C        C  351   4.402   3.989   3.506
    1C        C  352   4.275   4.164   3.623
    1C        C  353   4.314   4.107   3.746
    1C        C  354   4.177   4.265   3.869
    1C        C  355   4.276   4.165   3.869
    1C        C  356   4.122   4.314   3.990
    1C        C  357   4.175   4.269   4.113
    1C        C  358   4.012   4.404   4.231
    1C        C  359   4.127   4.322   4.235
    1C        C  360   3.954   4.448   4.352
    1C        C  361   4.019   4.421   4.474
    1C        C  362   3.831   4.522   4.596
    1C        C  363   3.961   4.467   4.594
    1C        C  364   3.762   4.549   4.716
    1C        C  365   3.840   4.541   4.834
    1C        C  366   3.629   4.592   4.956
    1C        C  367   3.767   4.572   4.949
    1C        C  368   4.515   3.565   2.052
    1C        C  369   4.528   3.490   2.170
    1C        C  370   4.507   3.706   2.288
    1C        C  371   4.524   3.566   2.288
    1C        C  372   4.490   3.778   2.409
    1C        C  373   4.503   3.707   2.530
    1C        C  374   4.432   3.909   2.650
    1C        C  375   4.479   3.776   2.651
    1C        C  376   4.400   3.974   2.771
    1C        C  377   4.428   3.911   2.894
    1C        C  378   4.323   4.098   3.014
    1C        C  379   4.395   3.977   3.014
    1C        C  380   4.276   4.153   3.135
    1C        C  381   4.319   4.099   3.257
    1C        C  382   4.176   4.255   3.378
    1C        C  383   4.277   4.156   3.380
    1C        C  384   4.123   4.307   3.499
    1C        C  385   4.175   4.264   3.623
    1C        C  386   4.011   4.396   3.743
    1C        C  387   4.125   4.312   3.746
    1C        C  388   3.947   4.432   3.864
    1C        C  389   4.007   4.395   3.986
    1C        C  390   3.820   4.492   4.110
    1C        C  391   3.949   4.435   4.108
    1C        C  392   3.751   4.516   4.231
    1C        C  393   3.824   4.503   4.352
    1C        C  394   3.621   4.560   4.477
    1C        C  395   3.759   4.530   4.474
    1C        C  396   3.549   4.569   4.598
    1C        C  397   3.622   4.567   4.719
    1C        C  398   3.412   4.555   4.840
    1C        C  399   3.551   4.579   4.840
    1C        C  400   3.345   4.520   4.958
    1C        C  401   4.510   3.704   2.054
    1C        C  402   4.459   3.918   2.167
    1C        C  403   4.498   3.782   2.170
    1C        C  404   4.419   3.983   2.286
    1C        C  405   4.443   3.912   2.406
    1C        C  406   4.328   4.091   2.527
    1C        C  407   4.407   3.974   2.527
    1C        C  408   4.282   4.150   2.647
    1C        C  409   4.320   4.091   2.770
    1C        C  410   4.178   4.251   2.890
    1C        C  411   4.278   4.151   2.890
    1C        C  412   4.124   4.298   3.012
    1C        C  413   4.178   4.255   3.135
    1C        C  414   4.002   4.377   3.254
    1C        C  415   4.120   4.299   3.256
    1C        C  416   3.943   4.416   3.377
    1C        C  417   4.008   4.389   3.499
    1C        C  418   3.819   4.483   3.620
    1C        C  419   3.950   4.430   3.621
    1C        C  420   3.749   4.505   3.741
    1C        C  421   3.815   4.484   3.864
    1C        C  422   3.615   4.544   3.987
    1C        C  423   3.752   4.510   3.988
    1C        C  424   3.544   4.552   4.109
    1C        C  425   3.613   4.548   4.232
    1C        C  426   3.406   4.553   4.356
    1C        C  427   3.547   4.557   4.357
    1C        C  428   3.335   4.549   4.478
    1C        C  429   3.408   4.562   4.598
    1C        C  430   3.198   4.521   4.724
    1C        C  431   3.338   4.544   4.720
    1C        C  432   3.127   4.495   4.844
    1C        C  433   3.209   4.492   4.957
    1C        C  434   4.383   4.123   2.049
    1C        C  435   4.449   3.999   2.053
    1C        C  436   4.308   4.166   2.163
    1C        C  437   4.339   4.101   2.285
    1C        C  438   4.183   4.247   2.405
    1C        C  439   4.284   4.149   2.406
    1C        C  440   4.129   4.301   2.524
    1C        C  441   4.182   4.250   2.645
    1C        C  442   4.009   4.375   2.769
    1C        C  443   4.125   4.294   2.767
    1C        C  444   3.944   4.411   2.888
    1C        C  445   4.005   4.374   3.010
    1C        C  446   3.815   4.472   3.133
    1C        C  447   3.944   4.414   3.131
    1C        C  448   3.749   4.495   3.255
    1C        C  449   3.816   4.478   3.378
    1C        C  450   3.609   4.528   3.495
    1C        C  451   3.748   4.503   3.499
    1C        C  452   3.540   4.542   3.618
    1C        C  453   3.612   4.536   3.740
    1C        C  454   3.405   4.552   3.866
    1C        C  455   3.546   4.554   3.864
    1C        C  456   3.336   4.538   3.989
    1C        C  457   3.403   4.550   4.113
    1C        C  458   3.199   4.502   4.238
    1C        C  459   3.333   4.544   4.235
    1C        C  460   3.132   4.481   4.361
    1C        C  461   3.198   4.515   4.482
    1C        C  462   3.002   4.434   4.601
    1C        C  463   3.129   4.495   4.603
    1C        C  464   2.937   4.401   4.721
    1C        C  465   2.991   4.448   4.844
    1C        C  466   2.804   4.340   4.958
    1C        C  467   2.906   4.436   4.958
    1C        C  468   4.127   4.285   2.045
    1C        C  469   4.194   4.253   2.164
    1C        C  470   4.008   4.369   2.281
    1C        C  471   4.128   4.293   2.283
    1C        C  472   3.944   4.400   2.403
    1C        C  473   4.008   4.374   2.526
    1C        C  474   3.816   4.464   2.648
    1C        C  475   3.946   4.410   2.647
    1C        C  476   3.745   4.492   2.767
    1C        C  477   3.814   4.467   2.888
    1C        C  478   3.608   4.517   3.010
    1C        C  479   3.747   4.488   3.010
    1C        C  480   3.538   4.531   3.132
    1C        C  481   3.610   4.521   3.253
    1C        C  482   3.396   4.530   3.377
    1C        C  483   3.537   4.533   3.374
    1C        C  484   3.328   4.527   3.500
    1C        C  485   3.399   4.544   3.621
    1C        C  486   3.195   4.507   3.748
    1C        C  487   3.332   4.541   3.745
    1C        C  488   3.131   4.479   3.871
    1C        C  489   3.200   4.501   3.992
    1C        C  490   3.007   4.415   4.115
    1C        C  491   3.134   4.477   4.115
    1C        C  492   2.944   4.384   4.237
    1C        C  493   3.003   4.423   4.360
    1C        C  494   2.828   4.304   4.484
    1C        C  495   2.941   4.389   4.482
    1C        C  496   2.776   4.257   4.606
    1C        C  497   2.826   4.311   4.726
    1C        C  498   2.665   4.167   4.846
    1C        C  499   2.759   4.272   4.844
    1C        C  500   2.596   4.120   4.959
    1C        C  501   4.009   4.358   2.044
    1C        C  502   3.816   4.463   2.159
    1C        C  503   3.944   4.402   2.160
    1C        C  504   3.747   4.482   2.281
    1C        C  505   3.812   4.452   2.402
    1C        C  506   3.609   4.504   2.522
    1C        C  507   3.748   4.479   2.525
    1C        C  508   3.536   4.515   2.642
    1C        C  509   3.606   4.516   2.765
    1C        C  510   3.396   4.525   2.887
    1C        C  511   3.538   4.522   2.888
    1C        C  512   3.326   4.521   3.009
    1C        C  513   3.397   4.532   3.131
    1C        C  514   3.188   4.497   3.257
    1C        C  515   3.326   4.525   3.254
    1C        C  516   3.123   4.473   3.380
    1C        C  517   3.189   4.500   3.502
    1C        C  518   3.006   4.407   3.627
    1C        C  519   3.126   4.481   3.627
    1C        C  520   2.948   4.369   3.750
    1C        C  521   3.007   4.409   3.872
    1C        C  522   2.836   4.285   3.997
    1C        C  523   2.947   4.372   3.994
    1C        C  524   2.792   4.235   4.122
    1C        C  525   2.840   4.288   4.244
    1C        C  526   2.702   4.128   4.366
    1C        C  527   2.783   4.243   4.365
    1C        C  528   2.653   4.078   4.489
    1C        C  529   2.683   4.150   4.607
    1C        C  530   2.580   3.964   4.735
    1C        C  531   2.638   4.094   4.729
    1C        C  532   2.536   3.902   4.855
    1C        C  533   2.527   3.998   4.961
    1C        C  534   3.622   4.562   2.041
    1C        C  535   3.753   4.513   2.045
    1C        C  536   3.542   4.537   2.156
    1C        C  537   3.607   4.509   2.279
    1C        C  538   3.395   4.520   2.398
    1C        C  539   3.536   4.517   2.401
    1C        C  540   3.325   4.513   2.521
    1C        C  541   3.395   4.517   2.644
    1C        C  542   3.186   4.485   2.768
    1C        C  543   3.325   4.509   2.766
    1C        C  544   3.121   4.461   2.891
    1C        C  545   3.189   4.486   3.012
    1C        C  546   2.998   4.399   3.138
    1C        C  547   3.124   4.464   3.136
    1C        C  548   2.940   4.364   3.261
    1C        C  549   3.000   4.403   3.383
    1C        C  550   2.836   4.275   3.508
    1C        C  551   2.945   4.365   3.507
    1C        C  552   2.783   4.232   3.631
    1C        C  553   2.838   4.280   3.752
    1C        C  554   2.704   4.119   3.879
    1C        C  555   2.788   4.232   3.875
    1C        C  556   2.663   4.064   4.003
    1C        C  557   2.699   4.129   4.123
    1C        C  558   2.597   3.942   4.249
    1C        C  559   2.663   4.067   4.245
    1C        C  560   2.563   3.882   4.372
    1C        C  561   2.589   3.952   4.492
    1C        C  562   2.527   3.754   4.618
    1C        C  563   2.565   3.890   4.616
    1C        C  564   2.510   3.685   4.740
    1C        C  565   2.515   3.761   4.860
    1C        C  566   2.532   3.550   4.980
    1C        C  567   2.527   3.689   4.979
    1C        C  568   3.331   4.479   2.042
    1C        C  569   3.402   4.512   2.159
    1C        C  570   3.184   4.476   2.280
    1C        C  571   3.323   4.509   2.277
    1C        C  572   3.120   4.458   2.404
    1C        C  573   3.188   4.481   2.526
    1C        C  574   2.990   4.402   2.647
    1C        C  575   3.116   4.467   2.647
    1C        C  576   2.933   4.359   2.769
    1C        C  577   2.996   4.394   2.890
    1C        C  578   2.827   4.274   3.017
    1C        C  579   2.938   4.362   3.015
    1C        C  580   2.777   4.224   3.139
    1C        C  581   2.833   4.272   3.260
    1C        C  582   2.699   4.114   3.387
    1C        C  583   2.788   4.224   3.385
    1C        C  584   2.661   4.059   3.512
    1C        C  585   2.699   4.118   3.635
    1C        C  586   2.599   3.933   3.758
    1C        C  587   2.663   4.059   3.758
    1C        C  588   2.571   3.874   3.883
    1C        C  589   2.595   3.940   4.006
    1C        C  590   2.529   3.739   4.130
    1C        C  591   2.568   3.875   4.128
    1C        C  592   2.517   3.675   4.255
    1C        C  593   2.526   3.746   4.377
    1C        C  594   2.510   3.535   4.500
    1C        C  595   2.516   3.677   4.500
    1C        C  596   2.519   3.467   4.624
    1C        C  597   2.515   3.543   4.743
    1C        C  598   2.534   3.330   4.865
    1C        C  599   2.523   3.471   4.864
    1C        C  600   2.531   3.252   4.981
    1C        C  601   3.199   4.439   2.043
    1C        C  602   2.983   4.397   2.161
    1C        C  603   3.120   4.440   2.159
    1C        C  604   2.926   4.359   2.286
    1C        C  605   2.991   4.399   2.405
    1C        C  606   2.822   4.269   2.529
    1C        C  607   2.931   4.359   2.527
    1C        C  608   2.772   4.219   2.651
    1C        C  609   2.822   4.272   2.772
    1C        C  610   2.691   4.109   2.896
    1C        C  611   2.775   4.223   2.896
    1C        C  612   2.650   4.054   3.019
    1C        C  613   2.688   4.114   3.142
    1C        C  614   2.590   3.930   3.267
    1C        C  615   2.655   4.056   3.266
    1C        C  616   2.568   3.866   3.391
    1C        C  617   2.599   3.933   3.512
    1C        C  618   2.533   3.734   3.639
    1C        C  619   2.573   3.869   3.635
    1C        C  620   2.519   3.667   3.763
    1C        C  621   2.533   3.738   3.885
    1C        C  622   2.505   3.529   4.012
    1C        C  623   2.519   3.669   4.008
    1C        C  624   2.506   3.461   4.135
    1C        C  625   2.507   3.534   4.257
    1C        C  626   2.534   3.324   4.382
    1C        C  627   2.509   3.463   4.379
    1C        C  628   2.557   3.256   4.504
    1C        C  629   2.542   3.328   4.624
    1C        C  630   2.597   3.121   4.744
    1C        C  631   2.552   3.256   4.746
    1C        C  632   2.622   3.056   4.867
    1C        C  633   2.564   3.116   4.983
    1C        C  634   2.787   4.304   2.055
    1C        C  635   2.895   4.393   2.049
    1C        C  636   2.752   4.229   2.168
    1C        C  637   2.812   4.274   2.287
    1C        C  638   2.676   4.110   2.409
    1C        C  639   2.765   4.220   2.409
    1C        C  640   2.642   4.050   2.532
    1C        C  641   2.687   4.106   2.653
    1C        C  642   2.586   3.921   2.778
    1C        C  643   2.649   4.048   2.776
    1C        C  644   2.563   3.859   2.903
    1C        C  645   2.587   3.928   3.024
    1C        C  646   2.527   3.726   3.150
    1C        C  647   2.559   3.863   3.146
    1C        C  648   2.511   3.658   3.273
    1C        C  649   2.530   3.730   3.393
    1C        C  650   2.504   3.524   3.521
    1C        C  651   2.517   3.665   3.517
    1C        C  652   2.509   3.455   3.645
    1C        C  653   2.505   3.526   3.767
    1C        C  654   2.534   3.319   3.891
    1C        C  655   2.505   3.457   3.890
    1C        C  656   2.555   3.255   4.015
    1C        C  657   2.532   3.322   4.137
    1C        C  658   2.607   3.125   4.261
    1C        C  659   2.554   3.256   4.260
    1C        C  660   2.642   3.063   4.382
    1C        C  661   2.606   3.123   4.504
    1C        C  662   2.715   2.940   4.627
    1C        C  663   2.632   3.054   4.625
    1C        C  664   2.758   2.886   4.750
    1C        C  665   2.701   2.936   4.870
    1C        C  666   2.747   2.875   4.987
    1C        C  667   2.678   4.024   2.055
    1C        C  668   2.684   4.105   2.169
    1C        C  669   2.586   3.914   2.292
    1C        C  670   2.643   4.044   2.289
    1C        C  671   2.555   3.851   2.415
    1C        C  672   2.581   3.922   2.534
    1C        C  673   2.518   3.719   2.661
    1C        C  674   2.555   3.856   2.656
    1C        C  675   2.511   3.650   2.784
    1C        C  676   2.524   3.723   2.904
    1C        C  677   2.507   3.515   3.031
    1C        C  678   2.515   3.656   3.028
    1C        C  679   2.503   3.446   3.154
    1C        C  680   2.503   3.517   3.277
    1C        C  681   2.530   3.311   3.401
    1C        C  682   2.507   3.450   3.401
    1C        C  683   2.555   3.248   3.525
    1C        C  684   2.538   3.317   3.647
    1C        C  685   2.606   3.118   3.772
    1C        C  686   2.552   3.249   3.770
    1C        C  687   2.645   3.061   3.896
    1C        C  688   2.610   3.124   4.017
    1C        C  689   2.717   2.943   4.139
    1C        C  690   2.636   3.059   4.139
    1C        C  691   2.760   2.886   4.261
    1C        C  692   2.719   2.944   4.383
    1C        C  693   2.761   2.886   4.505
    1C        C  694   2.631   3.892   2.055
    1C        C  695   2.527   3.706   2.176
    1C        C  696   2.581   3.837   2.174
    1C        C  697   2.505   3.639   2.299
    1C        C  698   2.518   3.715   2.418
    1C        C  699   2.493   3.506   2.543
    1C        C  700   2.502   3.647   2.541
    1C        C  701   2.501   3.438   2.667
    1C        C  702   2.502   3.509   2.789
    1C        C  703   2.526   3.299   2.912
    1C        C  704   2.507   3.439   2.911
    1C        C  705   2.546   3.235   3.037
    1C        C  706   2.526   3.307   3.157
    1C        C  707   2.598   3.108   3.281
    1C        C  708   2.550   3.241   3.280
    1C        C  709   2.630   3.047   3.404
    1C        C  710   2.604   3.115   3.525
    1C        C  711   2.713   2.939   3.652
    1C        C  712   2.633   3.055   3.649
    1C        C  713   2.761   2.884   3.774
    1C        C  714   2.722   2.943   3.896
    1C        C  715   2.762   2.884   4.019
    1C        C  716   2.447   3.501   2.061
    1C        C  717   2.488   3.635   2.062
    1C        C  718   2.465   3.423   2.181
    1C        C  719   2.486   3.498   2.299
    1C        C  720   2.513   3.293   2.427
    1C        C  721   2.486   3.431   2.424
    1C        C  722   2.533   3.224   2.549
    1C        C  723   2.519   3.298   2.668
    1C        C  724   2.590   3.098   2.794
    1C        C  725   2.535   3.228   2.790
    1C        C  726   2.622   3.035   2.916
    1C        C  727   2.592   3.102   3.037
    1C        C  728   2.708   2.925   3.163
    1C        C  729   2.626   3.040   3.160
    1C        C  730   2.759   2.878   3.286
    1C        C  731   2.716   2.934   3.408
    1C        C  732   2.759   2.882   3.531
    1C        C  733   2.492   3.199   2.073
    1C        C  734   2.484   3.282   2.187
    1C        C  735   2.575   3.086   2.310
    1C        C  736   2.519   3.217   2.308
    1C        C  737   2.605   3.017   2.430
    1C        C  738   2.583   3.092   2.547
    1C        C  739   2.699   2.917   2.672
    1C        C  740   2.621   3.035   2.671
    1C        C  741   2.747   2.867   2.795
    1C        C  742   2.702   2.919   2.918
    1C        C  743   2.749   2.867   3.041
    1C        C  744   2.541   3.069   2.078
    1C        C  745   2.690   2.904   2.187
    1C        C  746   2.609   3.020   2.190
    1C        C  747   2.728   2.843   2.308
    1C        C  748   2.686   2.900   2.429
    1C        C  749   2.741   2.856   2.552
    1C        C  750   2.742   2.847   2.070
    1C        C  751   3.668   2.330   1.972
    1C        O  752   3.724   2.223   2.011
    1C        O  753   3.682   2.356   1.835
    1C        C  754   4.622   3.055   1.977
    1C        O  755   4.616   3.056   1.851
    1C        O  756   4.752   3.033   2.024
    1C        C  757   4.430   4.216   1.944
    1C        O  758   4.500   4.319   1.962
    1C        O  759   4.419   4.184   1.808
    1C        C  760   3.588   4.660   1.935
    1C        O  761   3.603   4.783   1.955
    1C        O  762   3.607   4.616   1.803
    1C        C  763   2.877   4.499   1.947
    1C        O  764   2.915   4.492   1.827
    1C        O  765   2.800   4.613   1.974
    1C        C  766   2.340   3.472   1.964
    1C        O  767   2.357   3.436   1.844
    1C        O  768   2.206   3.481   2.005
    1C        C  769   4.700   3.581   5.050
    1C        O  770   4.667   3.553   5.169
    1C        O  771   4.810   3.668   5.047
    1C        C  772   4.275   4.453   5.044
    1C        O  773   4.256   4.477   5.167
    1C        O  774   4.363   4.552   4.998
    1C        C  775   4.132   2.557   5.101
    1C        O  776   4.221   2.468   5.110
    1C        O  777   4.083   2.598   5.226
    1C        C  778   2.891   4.551   5.051
    1C        O  779   2.846   4.667   5.033
    1C        O  780   2.943   4.545   5.181
    1C        C  781   2.465   3.033   5.057
    1C        O  782   2.349   3.018   5.011
    1C        O  783   2.455   3.038   5.195
    1C        C  784   2.410   3.989   5.052
    1C        O  785   2.296   4.009   5.001
    1C        O  786   2.417   4.043   5.181
    1C        C  787   2.953   2.438   1.994
    1C        O  788   2.933   2.470   1.874
    1C        O  789   2.882   2.324   2.028
    1C        C  790   3.185   2.371   5.057
    1C        O  791   3.117   2.272   5.018
    1C        O  792   3.206   2.377   5.195
    1C        H  793   4.272   3.016   5.068
    1C        H  794   4.234   2.784   5.068
    1C        H  795   4.523   3.125   5.041
    1C        H  796   4.522   3.371   5.065
    1C        H  797   4.598   3.815   5.038
    1C        H  798   4.466   4.012   5.044
    1C        H  799   4.248   4.145   5.039
    1C        H  800   4.015   4.511   5.038
    1C        H  801   3.818   4.585   5.042
    1C        H  802   3.597   4.652   5.039
    1C        H  803   3.389   4.559   5.048
    1C        H  804   3.162   4.486   5.053
    1C        H  805   3.892   2.474   5.066
    1C        H  806   3.680   2.467   5.076
    1C        H  807   3.002   2.558   5.065
    1C        H  808   3.445   2.476   5.078
    1C        H  809   2.900   2.764   5.074
    1C        H  810   2.680   2.871   5.071
    1C        H  811   2.452   3.276   5.048
    1C        H  812   2.591   3.514   5.061
    1C        H  813   2.507   3.736   5.073
    1C        H  814   2.583   4.188   5.040
    1C        H  815   2.761   4.315   5.052
    1C        H  816   2.728   2.896   1.976
    1C        H  817   2.858   2.696   1.976
    1C        H  818   3.210   2.444   1.992
    1C        H  819   3.440   2.490   1.984
    1C        H  820   3.867   2.492   1.974
    1C        H  821   4.056   2.635   1.968
    1C        H  822   4.221   2.758   1.964
    1C        H  823   4.432   2.874   1.987
    1C        H  824   4.631   3.302   1.992
    1C        H  825   4.540   3.521   1.958
    1C        H  826   4.531   3.751   1.961
    1C        H  827   3.815   4.519   1.957
    1C        H  828   3.974   4.390   1.948
    1C        H  829   4.162   4.242   1.953
    1C        H  830   4.472   3.955   1.959
    1C        H  831   2.668   3.828   1.978
    1C        H  832   2.680   4.067   1.957
    1C        H  833   2.705   4.321   1.988
    1C        H  834   3.357   4.541   1.959
    1C        H  835   3.154   4.426   1.947
    1C        H  836   2.501   3.001   2.006
    1C        H  837   2.489   3.243   1.976
    1C        H  838   2.503   3.681   1.967
    2V3OU   H29  839   2.801   3.549   1.941
    2V3OU   C27  840   2.788   3.508   2.045
    2V3OU   H27  841   2.732   3.574   2.116
    2V3OU   H28  842   2.731   3.411   2.042
    2V3OU   O11  843   2.914   3.474   2.102
    2V3OU   C15  844   2.926   3.397   2.216
    2V3OU   C13  845   3.053   3.372   2.270
    2V3OU   C14  846   3.080   3.267   2.360
    2V3OU   C16  847   2.974   3.191   2.407
    2V3OU    H6  848   2.991   3.109   2.479
    2V3OU   C12  849   3.215   3.231   2.408
    2V3OU    O2  850   3.235   3.121   2.462
    2V3OU   C10  851   3.331   3.311   2.365
    2V3OU    C8  852   3.458   3.270   2.404
    2V3OU   O10  853   3.492   3.148   2.455
    2V3OU   H26  854   3.404   3.108   2.465
    2V3OU    C6  855   3.568   3.354   2.368
    2V3OU    C5  856   3.539   3.471   2.299
    2V3OU    C4  857   3.705   3.296   2.376
    2V3OU    H4  858   3.723   3.224   2.461
    2V3OU    H5  859   3.717   3.232   2.283
    2V3OU    C2  860   3.816   3.402   2.380
    2V3OU    O6  861   3.808   3.475   2.503
    2V3OU   H21  862   3.769   3.559   2.475
    2V3OU    C3  863   3.787   3.500   2.267
    2V3OU    H2  864   3.860   3.584   2.260
    2V3OU    H3  865   3.791   3.442   2.171
    2V3OU   C25  866   3.950   3.330   2.365
    2V3OU    O7  867   4.001   3.296   2.259
    2V3OU   C26  868   4.030   3.291   2.488
    2V3OU   H22  869   4.063   3.389   2.531
    2V3OU   H23  870   4.119   3.230   2.459
    2V3OU    O8  871   3.960   3.205   2.576
    2V3OU   H24  872   3.923   3.257   2.649
    2V3OU    C1  873   3.651   3.568   2.275
    2V3OU    H1  874   3.631   3.621   2.177
    2V3OU    O3  875   3.662   3.659   2.385
    2V3OU   C19  876   3.621   3.795   2.376
    2V3OU    H9  877   3.517   3.806   2.334
    2V3OU    O4  878   3.714   3.856   2.290
    2V3OU   C20  879   3.844   3.881   2.344
    2V3OU   H10  880   3.893   3.779   2.359
    2V3OU   C24  881   3.614   3.855   2.517
    2V3OU   H16  882   3.550   3.796   2.588
    2V3OU   H17  883   3.573   3.959   2.509
    2V3OU   C23  884   3.751   3.878   2.581
    2V3OU   H15  885   3.794   3.774   2.598
    2V3OU    N1  886   3.737   3.959   2.700
    2V3OU   H19  887   3.813   3.936   2.761
    2V3OU   H20  888   3.648   3.937   2.739
    2V3OU   C21  889   3.849   3.948   2.481
    2V3OU   H11  890   3.951   3.922   2.520
    2V3OU    O5  891   3.836   4.089   2.499
    2V3OU   H18  892   3.791   4.103   2.584
    2V3OU   C22  893   3.918   3.954   2.234
    2V3OU   H12  894   3.862   4.048   2.211
    2V3OU   H13  895   3.912   3.895   2.139
    2V3OU   H14  896   4.028   3.959   2.256
    2V3OU   C11  897   3.161   3.472   2.263
    2V3OU    O1  898   3.142   3.579   2.201
    2V3OU    C9  899   3.299   3.430   2.295
    2V3OU    C7  900   3.408   3.507   2.256
    2V3OU    O9  901   3.393   3.628   2.190
    2V3OU   H25  902   3.297   3.634   2.176
    2V3OU   C17  903   2.823   3.316   2.269
    2V3OU    H7  904   2.720   3.342   2.246
    2V3OU   C18  905   2.844   3.220   2.367
    2V3OU    H8  906   2.773   3.170   2.434
    3SOL     OW  907   3.562   4.685   1.041
    3SOL    HW1  908   3.487   4.700   0.976
    3SOL    HW2  909   3.531   4.710   1.133
    4SOL     OW  910   6.520   5.703   1.751
    4SOL    HW1  911   6.495   5.686   1.656
    4SOL    HW2  912   6.570   5.789   1.758
    5SOL     OW  913   4.500   1.217   2.592
    5SOL    HW1  914   4.437   1.280   2.546
    5SOL    HW2  915   4.447   1.148   2.641
    6SOL     OW  916   4.274   1.285   1.249
    6SOL    HW1  917   4.280   1.308   1.151
    6SOL    HW2  918   4.265   1.370   1.302
    7SOL     OW  919   7.025   3.659   2.495
    7SOL    HW1  920   0.032   3.644   2.588
    7SOL    HW2  921   6.955   3.590   2.474
    8SOL     OW  922   2.636   0.319   6.372
    8SOL    HW1  923   2.669   0.241   6.320
    8SOL    HW2  924   2.588   0.287   6.454
    9SOL     OW  925   6.682   6.253   6.562
    9SOL    HW1  926   6.779   6.243   6.581
    9SOL    HW2  927   6.662   6.217   6.471
   10SOL     OW  928   0.913   5.205   6.002
   10SOL    HW1  929   0.932   5.224   6.098
   10SOL    HW2  930   0.997   5.172   5.957
   11SOL     OW  931   2.561   0.561   6.586
   11SOL    HW1  932   2.528   0.522   6.500
   11SOL    HW2  933   2.588   0.488   6.648
   12SOL     OW  934   3.687   6.508   3.794
   12SOL    HW1  935   3.729   6.489   3.883
   12SOL    HW2  936   3.600   6.556   3.808
   13SOL     OW  937   3.444   5.469   3.749
   13SOL    HW1  938   3.456   5.556   3.797
   13SOL    HW2  939   3.483   5.395   3.803
   14SOL     OW  940   4.770   5.048   5.612
   14SOL    HW1  941   4.817   5.021   5.527
   14SOL    HW2  942   4.837   5.080   5.679
   15SOL     OW  943   1.445   5.819   1.672
   15SOL    HW1  944   1.502   5.796   1.592
   15SOL    HW2  945   1.468   5.911   1.704
   16SOL     OW  946   5.424   2.901   5.791
   16SOL    HW1  947   5.403   2.905   5.694
   16SOL    HW2  948   5.506   2.845   5.806
   17SOL     OW  949   5.151   6.040   5.305
   17SOL    HW1  950   5.183   5.976   5.375
   17SOL    HW2  951   5.058   6.017   5.278
   18SOL     OW  952   3.463   0.969   6.073
   18SOL    HW1  953   3.369   0.986   6.101
   18SOL    HW2  954   3.474   0.988   5.976
   19SOL     OW  955   0.268   0.364   3.295
   19SOL    HW1  956   0.229   0.347   3.204
   19SOL    HW2  957   0.364   0.389   3.285
   20SOL     OW  958   5.270   2.745   4.446
   20SOL    HW1  959   5.331   2.715   4.373
   20SOL    HW2  960   5.181   2.767   4.408
   21SOL     OW  961   3.162   2.107   2.476
   21SOL    HW1  962   3.069   2.129   2.446
   21SOL    HW2  963   3.225   2.118   2.400
   22SOL     OW  964   2.116   6.720   6.841
   22SOL    HW1  965   2.157   6.767   6.763
   22SOL    HW2  966   2.058   6.783   6.892
   23SOL     OW  967   4.770   6.485   3.049
   23SOL    HW1  968   4.680   6.502   3.009
   23SOL    HW2  969   4.834   6.555   3.018
   24SOL     OW  970   4.668   0.969   3.248
   24SOL    HW1  971   4.603   1.034   3.286
   24SOL    HW2  972   4.631   0.876   3.257
   25SOL     OW  973   3.168   0.089   5.172
   25SOL    HW1  974   3.225   0.097   5.090
   25SOL    HW2  975   3.137   0.179   5.201
   26SOL     OW  976   6.969   0.818   0.794
   26SOL    HW1  977   0.001   0.795   0.716
   26SOL    HW2  978   7.022   0.816   0.878
   27SOL     OW  979   1.208   1.373   1.880
   27SOL    HW1  980   1.213   1.361   1.781
   27SOL    HW2  981   1.299   1.362   1.919
   28SOL     OW  982   3.769   1.531   6.424
   28SOL    HW1  983   3.793   1.451   6.369
   28SOL    HW2  984   3.851   1.568   6.467
   29SOL     OW  985   4.768   2.774   1.980
   29SOL    HW1  986   4.777   2.720   2.064
   29SOL    HW2  987   4.787   2.870   2.000
   30SOL     OW  988   3.536   1.494   3.996
   30SOL    HW1  989   3.495   1.573   4.042
   30SOL    HW2  990   3.634   1.493   4.012
   31SOL     OW  991   0.967   2.712   6.032
   31SOL    HW1  992   0.868   2.720   6.046
   31SOL    HW2  993   0.996   2.780   5.965
   32SOL     OW  994   0.553   1.470   3.400
   32SOL    HW1  995   0.648   1.448   3.419
   32SOL    HW2  996   0.537   1.567   3.419
   33SOL     OW  997   2.166   4.000   6.560
   33SOL    HW1  998   2.249   4.023   6.610
   33SOL    HW2  999   2.141   4.076   6.500
   34SOL     OW 1000   2.402   1.565   3.951
   34SOL    HW1 1001   2.412   1.644   4.011
   34SOL    HW2 1002   2.349   1.494   3.998
   35SOL     OW 1003   3.518   3.356   6.706
   35SOL    HW1 1004   3.551   3.280   6.762
   35SOL    HW2 1005   3.595   3.404   6.666
   36SOL     OW 1006   5.896   0.797   5.703
   36SOL    HW1 1007   5.804   0.781   5.740
   36SOL    HW2 1008   5.963   0.749   5.758
   37SOL     OW 1009   0.920   0.571   0.562
   37SOL    HW1 1010   0.859   0.628   0.617
   37SOL    HW2 1011   0.872   0.489   0.533
   38SOL     OW 1012   0.180   4.918   2.871
   38SOL    HW1 1013   0.206   4.887   2.780
   38SOL    HW2 1014   0.104   4.862   2.905
   39SOL     OW 1015   7.019   5.462   6.903
   39SOL    HW1 1016   6.957   5.510   6.840
   39SOL    HW2 1017   7.004   5.364   6.895
   40SOL     OW 1018   5.263   2.296   1.959
   40SOL    HW1 1019   5.166   2.292   1.984
   40SOL    HW2 1020   5.278   2.368   1.892
   41SOL     OW 1021   6.848   6.245   4.302
   41SOL    HW1 1022   6.944   6.223   4.315
   41SOL    HW2 1023   6.837   6.301   4.219
   42SOL     OW 1024   2.476   5.194   5.266
   42SOL    HW1 1025   2.526   5.113   5.236
   42SOL    HW2 1026   2.487   5.267   5.198
   43SOL     OW 1027   5.629   6.435   5.439
   43SOL    HW1 1028   5.568   6.367   5.398
   43SOL    HW2 1029   5.660   6.500   5.369
   44SOL     OW 1030   5.536   1.819   6.884
   44SOL    HW1 1031   5.436   1.816   6.887
   44SOL    HW2 1032   5.573   1.791   6.973
   45SOL     OW 1033   3.476   6.846   3.238
   45SOL    HW1 1034   3.413   6.867   3.313
   45SOL    HW2 1035   3.559   6.805   3.276
   46SOL     OW 1036   0.653   3.404   3.137
   46SOL    HW1 1037   0.736   3.432   3.186
   46SOL    HW2 1038   0.679   3.352   3.055
   47SOL     OW 1039   5.213   4.769   1.495
   47SOL    HW1 1040   5.198   4.676   1.527
   47SOL    HW2 1041   5.264   4.767   1.409
   48SOL     OW 1042   6.556   2.648   5.673
   48SOL    HW1 1043   6.538   2.609   5.763
   48SOL    HW2 1044   6.632   2.599   5.630
   49SOL     OW 1045   5.120   3.921   1.694
   49SOL    HW1 1046   5.062   3.861   1.639
   49SOL    HW2 1047   5.098   4.016   1.673
   50SOL     OW 1048   6.254   1.823   5.301
   50SOL    HW1 1049   6.220   1.913   5.276
   50SOL    HW2 1050   6.226   1.756   5.231
   51SOL     OW 1051   3.158   6.445   2.570
   51SOL    HW1 1052   3.120   6.482   2.655
   51SOL    HW2 1053   3.141   6.510   2.495
   52SOL     OW 1054   4.969   2.200   3.212
   52SOL    HW1 1055   4.952   2.149   3.297
   52SOL    HW2 1056   4.941   2.144   3.134
   53SOL     OW 1057   3.588   6.674   4.576
   53SOL    HW1 1058   3.668   6.732   4.563
   53SOL    HW2 1059   3.531   6.711   4.650
   54SOL     OW 1060   3.794   4.861   0.994
   54SOL    HW1 1061   3.871   4.841   0.934
   54SOL    HW2 1062   3.751   4.775   1.022
   55SOL     OW 1063   2.983   1.625   6.326
   55SOL    HW1 1064   2.997   1.594   6.420
   55SOL    HW2 1065   3.067   1.665   6.291
   56SOL     OW 1066   0.491   0.724   1.593
   56SOL    HW1 1067   0.420   0.686   1.653
   56SOL    HW2 1068   0.462   0.813   1.560
   57SOL     OW 1069   5.420   0.685   1.048
   57SOL    HW1 1070   5.500   0.668   1.106
   57SOL    HW2 1071   5.424   0.779   1.013
   58SOL     OW 1072   6.157   6.777   5.964
   58SOL    HW1 1073   6.227   6.708   5.942
   58SOL    HW2 1074   6.069   6.747   5.929
   59SOL     OW 1075   0.876   1.741   5.859
   59SOL    HW1 1076   0.893   1.682   5.780
   59SOL    HW2 1077   0.962   1.760   5.906
   60SOL     OW 1078   5.277   1.242   5.925
   60SOL    HW1 1079   5.222   1.305   5.980
   60SOL    HW2 1080   5.345   1.198   5.984
   61SOL     OW 1081   5.379   2.003   4.901
   61SOL    HW1 1082   5.422   2.066   4.965
   61SOL    HW2 1083   5.282   1.993   4.922
   62SOL     OW 1084   0.094   1.206   2.435
   62SOL    HW1 1085   0.063   1.256   2.515
   62SOL    HW2 1086   0.161   1.137   2.462
   63SOL     OW 1087   5.472   1.297   4.095
   63SOL    HW1 1088   5.512   1.380   4.056
   63SOL    HW2 1089   5.455   1.231   4.021
   64SOL     OW 1090   0.161   3.614   5.867
   64SOL    HW1 1091   0.138   3.688   5.805
   64SOL    HW2 1092   0.081   3.555   5.879
   65SOL     OW 1093   0.059   4.987   5.828
   65SOL    HW1 1094   7.017   5.043   5.874
   65SOL    HW2 1095   0.033   4.891   5.834
   66SOL     OW 1096   3.719   0.796   5.794
   66SOL    HW1 1097   3.746   0.774   5.700
   66SOL    HW2 1098   3.796   0.839   5.841
   67SOL     OW 1099   5.541   4.317   5.708
   67SOL    HW1 1100   5.543   4.224   5.670
   67SOL    HW2 1101   5.473   4.322   5.780
   68SOL     OW 1102   5.624   0.424   6.846
   68SOL    HW1 1103   5.543   0.455   6.897
   68SOL    HW2 1104   5.694   0.495   6.851
   69SOL     OW 1105   0.675   3.794   5.810
   69SOL    HW1 1106   0.585   3.768   5.845
   69SOL    HW2 1107   0.696   3.887   5.839
   70SOL     OW 1108   5.694   4.793   4.710
   70SOL    HW1 1109   5.739   4.787   4.621
   70SOL    HW2 1110   5.723   4.716   4.767
   71SOL     OW 1111   3.899   1.729   3.028
   71SOL    HW1 1112   3.926   1.817   3.066
   71SOL    HW2 1113   3.931   1.656   3.089
   72SOL     OW 1114   2.326   6.548   4.319
   72SOL    HW1 1115   2.295   6.453   4.326
   72SOL    HW2 1116   2.253   6.605   4.282
   73SOL     OW 1117   2.970   1.077   0.856
   73SOL    HW1 1118   3.058   1.100   0.812
   73SOL    HW2 1119   2.895   1.101   0.794
   74SOL     OW 1120   5.279   6.803   6.866
   74SOL    HW1 1121   5.232   6.759   6.790
   74SOL    HW2 1122   5.334   6.736   6.915
   75SOL     OW 1123   3.607   0.139   0.132
   75SOL    HW1 1124   3.540   0.185   0.074
   75SOL    HW2 1125   3.699   0.160   0.098
   76SOL     OW 1126   2.726   2.886   0.793
   76SOL    HW1 1127   2.673   2.842   0.721
   76SOL    HW2 1128   2.720   2.985   0.784
   77SOL     OW 1129   6.634   6.686   3.405
   77SOL    HW1 1130   6.600   6.592   3.400
   77SOL    HW2 1131   6.686   6.708   3.323
   78SOL     OW 1132   5.712   0.687   6.880
   78SOL    HW1 1133   5.612   0.689   6.886
   78SOL    HW2 1134   5.744   0.760   6.819
   79SOL     OW 1135   3.039   6.106   0.202
   79SOL    HW1 1136   2.965   6.053   0.161
   79SOL    HW2 1137   3.064   6.067   0.291
   80SOL     OW 1138   5.231   2.041   3.759
   80SOL    HW1 1139   5.280   2.093   3.829
   80SOL    HW2 1140   5.144   2.086   3.739
   81SOL     OW 1141   2.184   7.005   2.892
   81SOL    HW1 1142   2.147   0.066   2.860
   81SOL    HW2 1143   2.284   7.007   2.886
   82SOL     OW 1144   6.580   5.065   1.084
   82SOL    HW1 1145   6.578   4.966   1.072
   82SOL    HW2 1146   6.490   5.103   1.066
   83SOL     OW 1147   0.111   0.723   0.587
   83SOL    HW1 1148   0.152   0.811   0.564
   83SOL    HW2 1149   0.183   0.659   0.616
   84SOL     OW 1150   5.630   2.639   3.374
   84SOL    HW1 1151   5.694   2.688   3.433
   84SOL    HW2 1152   5.603   2.697   3.297
   85SOL     OW 1153   1.934   1.924   4.270
   85SOL    HW1 1154   1.992   1.873   4.207
   85SOL    HW2 1155   1.838   1.909   4.246
   86SOL     OW 1156   6.899   0.793   4.881
   86SOL    HW1 1157   6.950   0.746   4.809
   86SOL    HW2 1158   6.937   0.770   4.970
   87SOL     OW 1159   5.354   3.446   0.514
   87SOL    HW1 1160   5.400   3.371   0.562
   87SOL    HW2 1161   5.292   3.407   0.445
   88SOL     OW 1162   3.478   1.710   6.215
   88SOL    HW1 1163   3.512   1.707   6.121
   88SOL    HW2 1164   3.551   1.741   6.276
   89SOL     OW 1165   0.895   2.616   5.553
   89SOL    HW1 1166   0.843   2.579   5.630
   89SOL    HW2 1167   0.832   2.654   5.485
   90SOL     OW 1168   3.623   5.744   2.052
   90SOL    HW1 1169   3.689   5.775   2.120
   90SOL    HW2 1170   3.539   5.796   2.059
   91SOL     OW 1171   4.606   4.482   5.064
   91SOL    HW1 1172   4.620   4.411   5.134
   91SOL    HW2 1173   4.508   4.494   5.049
   92SOL     OW 1174   4.311   4.857   0.506
   92SOL    HW1 1175   4.310   4.817   0.414
   92SOL    HW2 1176   4.225   4.905   0.522
   93SOL     OW 1177   2.895   4.045   6.659
   93SOL    HW1 1178   2.857   3.996   6.581
   93SOL    HW2 1179   2.975   4.098   6.630
   94SOL     OW 1180   2.219   5.928   6.030
   94SOL    HW1 1181   2.285   5.999   6.055
   94SOL    HW2 1182   2.266   5.854   5.983
   95SOL     OW 1183   1.299   0.722   3.143
   95SOL    HW1 1184   1.337   0.775   3.067
   95SOL    HW2 1185   1.333   0.628   3.138
   96SOL     OW 1186   3.021   0.228   5.500
   96SOL    HW1 1187   3.108   0.184   5.520
   96SOL    HW2 1188   3.026   0.272   5.410
   97SOL     OW 1189   2.080   3.191   5.899
   97SOL    HW1 1190   2.125   3.102   5.905
   97SOL    HW2 1191   2.069   3.217   5.803
   98SOL     OW 1192   6.928   3.287   0.885
   98SOL    HW1 1193   7.021   3.253   0.869
   98SOL    HW2 1194   6.913   3.370   0.832
   99SOL     OW 1195   3.907   3.639   0.916
   99SOL    HW1 1196   3.871   3.621   1.008
   99SOL    HW2 1197   3.885   3.733   0.890
  100SOL     OW 1198   6.682   6.985   5.149
  100SOL    HW1 1199   6.724   0.048   5.138
  100SOL    HW2 1200   6.753   6.916   5.164
  101SOL     OW 1201   2.038   5.204   2.399
  101SOL    HW1 1202   2.064   5.129   2.337
  101SOL    HW2 1203   2.018   5.286   2.345
  102SOL     OW 1204   3.944   6.464   2.638
  102SOL    HW1 1205   3.983   6.556   2.638
  102SOL    HW2 1206   3.984   6.410   2.564
  103SOL     OW 1207   2.489   1.103   2.069
  103SOL    HW1 1208   2.493   1.194   2.110
  103SOL    HW2 1209   2.571   1.088   2.014
  104SOL     OW 1210   0.645   5.577   2.890
  104SOL    HW1 1211   0.588   5.599   2.810
  104SOL    HW2 1212   0.692   5.660   2.921
  105SOL     OW 1213   6.604   2.735   6.941
  105SOL    HW1 1214   6.512   2.770   6.921
  105SOL    HW2 1215   6.628   2.757   0.009
  106SOL     OW 1216   3.493   6.176   4.936
  106SOL    HW1 1217   3.465   6.093   4.984
  106SOL    HW2 1218   3.586   6.166   4.903
  107SOL     OW 1219   2.203   1.122   1.154
  107SOL    HW1 1220   2.168   1.163   1.070
  107SOL    HW2 1221   2.128   1.111   1.220
  108SOL     OW 1222   3.525   5.055   5.795
  108SOL    HW1 1223   3.499   4.961   5.775
  108SOL    HW2 1224   3.572   5.095   5.717
  109SOL     OW 1225   6.715   0.605   1.720
  109SOL    HW1 1226   6.704   0.520   1.772
  109SOL    HW2 1227   6.811   0.632   1.719
  110SOL     OW 1228   3.324   5.701   5.056
  110SOL    HW1 1229   3.229   5.683   5.032
  110SOL    HW2 1230   3.345   5.658   5.144
  111SOL     OW 1231   2.391   1.315   4.288
  111SOL    HW1 1232   2.387   1.398   4.343
  111SOL    HW2 1233   2.485   1.282   4.284
  112SOL     OW 1234   4.577   6.863   6.250
  112SOL    HW1 1235   4.670   6.864   6.212
  112SOL    HW2 1236   4.563   6.944   6.306
  113SOL     OW 1237   6.067   6.344   2.876
  113SOL    HW1 1238   6.071   6.245   2.862
  113SOL    HW2 1239   6.082   6.365   2.972
  114SOL     OW 1240   0.261   0.205   1.475
  114SOL    HW1 1241   0.202   0.272   1.430
  114SOL    HW2 1242   0.262   0.120   1.421
  115SOL     OW 1243   4.232   1.506   3.389
  115SOL    HW1 1244   4.143   1.537   3.357
  115SOL    HW2 1245   4.280   1.460   3.314
  116SOL     OW 1246   5.664   4.837   1.301
  116SOL    HW1 1247   5.718   4.771   1.353
  116SOL    HW2 1248   5.643   4.916   1.357
  117SOL     OW 1249   1.302   1.844   0.641
  117SOL    HW1 1250   1.358   1.808   0.715
  117SOL    HW2 1251   1.216   1.878   0.678
  118SOL     OW 1252   1.679   0.882   3.613
  118SOL    HW1 1253   1.767   0.899   3.568
  118SOL    HW2 1254   1.693   0.872   3.712
  119SOL     OW 1255   0.504   1.191   0.245
  119SOL    HW1 1256   0.497   1.273   0.188
  119SOL    HW2 1257   0.572   1.129   0.206
  120SOL     OW 1258   6.368   6.953   6.962
  120SOL    HW1 1259   6.458   6.910   6.950
  120SOL    HW2 1260   6.375   0.025   6.943
  121SOL     OW 1261   1.615   3.617   6.055
  121SOL    HW1 1262   1.681   3.609   5.981
  121SOL    HW2 1263   1.570   3.529   6.069
  122SOL     OW 1264   2.030   3.816   6.396
  122SOL    HW1 1265   2.072   3.871   6.469
  122SOL    HW2 1266   1.972   3.875   6.339
  123SOL     OW 1267   0.489   0.528   2.381
  123SOL    HW1 1268   0.394   0.516   2.407
  123SOL    HW2 1269   0.495   0.591   2.304
  124SOL     OW 1270   4.529   3.193   0.901
  124SOL    HW1 1271   4.569   3.101   0.905
  124SOL    HW2 1272   4.439   3.192   0.943
  125SOL     OW 1273   3.206   1.766   1.646
  125SOL    HW1 1274   3.248   1.854   1.621
  125SOL    HW2 1275   3.261   1.722   1.717
  126SOL     OW 1276   2.729   3.994   0.953
  126SOL    HW1 1277   2.719   4.024   0.858
  126SOL    HW2 1278   2.819   3.952   0.966
  127SOL     OW 1279   0.681   5.536   6.902
  127SOL    HW1 1280   0.599   5.550   6.845
  127SOL    HW2 1281   0.723   5.449   6.878
  128SOL     OW 1282   5.124   3.033   1.448
  128SOL    HW1 1283   5.194   3.099   1.420
  128SOL    HW2 1284   5.139   2.946   1.400
  129SOL     OW 1285   2.233   3.314   6.251
  129SOL    HW1 1286   2.175   3.389   6.220
  129SOL    HW2 1287   2.273   3.267   6.172
  130SOL     OW 1288   0.792   2.190   4.137
  130SOL    HW1 1289   0.750   2.280   4.125
  130SOL    HW2 1290   0.857   2.193   4.213
  131SOL     OW 1291   5.193   1.776   3.679
  131SOL    HW1 1292   5.217   1.708   3.749
  131SOL    HW2 1293   5.205   1.868   3.716
  132SOL     OW 1294   2.355   2.116   1.012
  132SOL    HW1 1295   2.325   2.201   0.968
  132SOL    HW2 1296   2.410   2.138   1.092
  133SOL     OW 1297   4.965   6.762   3.649
  133SOL    HW1 1298   5.042   6.721   3.697
  133SOL    HW2 1299   4.910   6.815   3.714
  134SOL     OW 1300   6.665   1.429   2.619
  134SOL    HW1 1301   6.723   1.400   2.543
  134SOL    HW2 1302   6.630   1.349   2.667
  135SOL     OW 1303   5.719   3.881   3.787
  135SOL    HW1 1304   5.668   3.852   3.706
  135SOL    HW2 1305   5.816   3.858   3.774
  136SOL     OW 1306   3.236   3.926   5.831
  136SOL    HW1 1307   3.223   3.849   5.894
  136SOL    HW2 1308   3.245   4.010   5.884
  137SOL     OW 1309   5.702   2.111   4.526
  137SOL    HW1 1310   5.691   2.207   4.552
  137SOL    HW2 1311   5.779   2.103   4.462
  138SOL     OW 1312   1.112   4.165   2.374
  138SOL    HW1 1313   1.073   4.222   2.302
  138SOL    HW2 1314   1.054   4.169   2.455
  139SOL     OW 1315   2.113   0.081   4.671
  139SOL    HW1 1316   2.015   0.088   4.692
  139SOL    HW2 1317   2.125   0.046   4.578
  140SOL     OW 1318   0.989   5.754   2.948
  140SOL    HW1 1319   0.988   5.684   3.019
  140SOL    HW2 1320   0.988   5.710   2.858
  141SOL     OW 1321   6.668   3.118   5.216
  141SOL    HW1 1322   6.705   3.095   5.125
  141SOL    HW2 1323   6.744   3.129   5.281
  142SOL     OW 1324   0.943   4.035   1.045
  142SOL    HW1 1325   0.932   4.031   1.144
  142SOL    HW2 1326   1.038   4.017   1.021
  143SOL     OW 1327   6.209   3.944   1.239
  143SOL    HW1 1328   6.143   3.872   1.262
  143SOL    HW2 1329   6.266   3.914   1.163
  144SOL     OW 1330   1.150   6.428   5.715
  144SOL    HW1 1331   1.246   6.419   5.691
  144SOL    HW2 1332   1.094   6.423   5.632
  145SOL     OW 1333   0.013   5.475   0.258
  145SOL    HW1 1334   7.022   5.397   0.198
  145SOL    HW2 1335   6.962   5.488   0.319
  146SOL     OW 1336   4.854   0.364   0.012
  146SOL    HW1 1337   4.876   0.392   6.945
  146SOL    HW2 1338   4.849   0.264   0.017
  147SOL     OW 1339   6.227   3.590   6.250
  147SOL    HW1 1340   6.193   3.547   6.333
  147SOL    HW2 1341   6.303   3.652   6.272
  148SOL     OW 1342   6.699   5.651   6.487
  148SOL    HW1 1343   6.642   5.725   6.454
  148SOL    HW2 1344   6.652   5.603   6.562
  149SOL     OW 1345   3.221   1.845   3.891
  149SOL    HW1 1346   3.132   1.841   3.847
  149SOL    HW2 1347   3.278   1.770   3.859
  150SOL     OW 1348   5.790   5.617   6.735
  150SOL    HW1 1349   5.717   5.683   6.749
  150SOL    HW2 1350   5.781   5.576   6.644
  151SOL     OW 1351   2.984   2.083   0.673
  151SOL    HW1 1352   2.936   2.102   0.758
  151SOL    HW2 1353   3.067   2.139   0.669
  152SOL     OW 1354   1.241   1.005   2.398
  152SOL    HW1 1355   1.159   0.994   2.454
  152SOL    HW2 1356   1.312   0.942   2.430
  153SOL     OW 1357   2.861   0.676   1.636
  153SOL    HW1 1358   2.792   0.607   1.656
  153SOL    HW2 1359   2.944   0.657   1.689
  154SOL     OW 1360   0.715   2.133   2.339
  154SOL    HW1 1361   0.809   2.120   2.369
  154SOL    HW2 1362   0.699   2.086   2.253
  155SOL     OW 1363   6.723   1.683   3.189
  155SOL    HW1 1364   6.729   1.612   3.119
  155SOL    HW2 1365   6.627   1.707   3.205
  156SOL     OW 1366   0.215   2.353   0.616
  156SOL    HW1 1367   0.126   2.374   0.578
  156SOL    HW2 1368   0.234   2.255   0.607
  157SOL     OW 1369   5.739   3.036   1.665
  157SOL    HW1 1370   5.716   3.132   1.647
  157SOL    HW2 1371   5.825   3.031   1.715
  158SOL     OW 1372   2.290   5.218   2.573
  158SOL    HW1 1373   2.219   5.190   2.508
  158SOL    HW2 1374   2.332   5.137   2.613
  159SOL     OW 1375   4.456   4.785   2.233
  159SOL    HW1 1376   4.384   4.851   2.212
  159SOL    HW2 1377   4.444   4.704   2.176
  160SOL     OW 1378   5.622   5.358   0.352
  160SOL    HW1 1379   5.558   5.335   0.279
  160SOL    HW2 1380   5.613   5.291   0.426
  161SOL     OW 1381   1.972   5.653   3.905
  161SOL    HW1 1382   1.976   5.743   3.863
  161SOL    HW2 1383   2.012   5.585   3.843
  162SOL     OW 1384   3.556   5.598   0.112
  162SOL    HW1 1385   3.477   5.571   0.057
  162SOL    HW2 1386   3.547   5.561   0.204
  163SOL     OW 1387   5.961   5.473   1.030
  163SOL    HW1 1388   5.984   5.501   1.123
  163SOL    HW2 1389   5.944   5.375   1.028
  164SOL     OW 1390   6.855   4.797   0.406
  164SOL    HW1 1391   6.917   4.723   0.430
  164SOL    HW2 1392   6.892   4.849   0.330
  165SOL     OW 1393   5.004   3.191   1.641
  165SOL    HW1 1394   5.048   3.147   1.562
  165SOL    HW2 1395   5.000   3.126   1.717
  166SOL     OW 1396   7.009   4.179   2.877
  166SOL    HW1 1397   7.016   4.231   2.792
  166SOL    HW2 1398   0.041   4.098   2.872
  167SOL     OW 1399   5.038   2.923   0.761
  167SOL    HW1 1400   4.962   2.959   0.814
  167SOL    HW2 1401   5.029   2.950   0.665
  168SOL     OW 1402   2.399   3.155   1.257
  168SOL    HW1 1403   2.497   3.138   1.270
  168SOL    HW2 1404   2.351   3.140   1.343
  169SOL     OW 1405   4.766   1.191   1.671
  169SOL    HW1 1406   4.726   1.116   1.618
  169SOL    HW2 1407   4.815   1.253   1.609
  170SOL     OW 1408   1.531   1.166   3.395
  170SOL    HW1 1409   1.507   1.220   3.314
  170SOL    HW2 1410   1.525   1.069   3.373
  171SOL     OW 1411   3.880   4.612   6.574
  171SOL    HW1 1412   3.828   4.546   6.628
  171SOL    HW2 1413   3.847   4.613   6.480
  172SOL     OW 1414   5.943   2.134   3.189
  172SOL    HW1 1415   5.860   2.078   3.193
  172SOL    HW2 1416   5.927   2.220   3.239
  173SOL     OW 1417   6.552   1.836   4.457
  173SOL    HW1 1418   6.497   1.885   4.389
  173SOL    HW2 1419   6.538   1.738   4.446
  174SOL     OW 1420   3.673   5.128   3.585
  174SOL    HW1 1421   3.735   5.068   3.635
  174SOL    HW2 1422   3.579   5.113   3.616
  175SOL     OW 1423   2.498   0.262   1.405
  175SOL    HW1 1424   2.416   0.207   1.422
  175SOL    HW2 1425   2.560   0.211   1.345
  176SOL     OW 1426   0.860   4.382   0.570
  176SOL    HW1 1427   0.926   4.453   0.544
  176SOL    HW2 1428   0.896   4.293   0.545
  177SOL     OW 1429   5.722   2.911   2.991
  177SOL    HW1 1430   5.693   2.867   2.906
  177SOL    HW2 1431   5.673   2.998   3.002
  178SOL     OW 1432   2.430   2.880   6.825
  178SOL    HW1 1433   2.462   2.785   6.822
  178SOL    HW2 1434   2.360   2.894   6.756
  179SOL     OW 1435   3.736   0.750   5.533
  179SOL    HW1 1436   3.675   0.781   5.461
  179SOL    HW2 1437   3.746   0.650   5.528
  180SOL     OW 1438   1.899   6.784   0.226
  180SOL    HW1 1439   1.823   6.833   0.184
  180SOL    HW2 1440   1.955   6.847   0.280
  181SOL     OW 1441   3.530   2.861   6.432
  181SOL    HW1 1442   3.539   2.958   6.408
  181SOL    HW2 1443   3.471   2.816   6.365
  182SOL     OW 1444   3.940   1.606   4.990
  182SOL    HW1 1445   3.880   1.684   4.972
  182SOL    HW2 1446   3.969   1.565   4.903
  183SOL     OW 1447   3.795   2.052   3.056
  183SOL    HW1 1448   3.836   2.068   3.145
  183SOL    HW2 1449   3.854   2.090   2.984
  184SOL     OW 1450   1.218   6.317   4.559
  184SOL    HW1 1451   1.225   6.237   4.500
  184SOL    HW2 1452   1.218   6.400   4.502
  185SOL     OW 1453   0.149   1.543   6.130
  185SOL    HW1 1454   0.127   1.454   6.169
  185SOL    HW2 1455   0.233   1.536   6.076
  186SOL     OW 1456   5.635   0.638   4.758
  186SOL    HW1 1457   5.655   0.541   4.772
  186SOL    HW2 1458   5.581   0.650   4.675
  187SOL     OW 1459   4.285   6.838   3.126
  187SOL    HW1 1460   4.251   6.771   3.061
  187SOL    HW2 1461   4.225   6.842   3.206
  188SOL     OW 1462   0.549   1.586   3.023
  188SOL    HW1 1463   0.649   1.578   3.033
  188SOL    HW2 1464   0.514   1.653   3.088
  189SOL     OW 1465   2.127   5.238   1.466
  189SOL    HW1 1466   2.050   5.292   1.429
  189SOL    HW2 1467   2.094   5.178   1.538
  190SOL     OW 1468   5.592   1.911   4.708
  190SOL    HW1 1469   5.639   1.993   4.676
  190SOL    HW2 1470   5.528   1.935   4.780
  191SOL     OW 1471   6.155   6.285   0.284
  191SOL    HW1 1472   6.179   6.191   0.258
  191SOL    HW2 1473   6.067   6.286   0.330
  192SOL     OW 1474   0.869   6.092   2.092
  192SOL    HW1 1475   0.876   6.069   1.995
  192SOL    HW2 1476   0.960   6.084   2.134
  193SOL     OW 1477   4.900   2.543   5.287
  193SOL    HW1 1478   4.990   2.536   5.330
  193SOL    HW2 1479   4.909   2.523   5.189
  194SOL     OW 1480   3.862   0.474   2.835
  194SOL    HW1 1481   3.858   0.568   2.800
  194SOL    HW2 1482   3.800   0.416   2.783
  195SOL     OW 1483   2.039   0.073   5.175
  195SOL    HW1 1484   2.126   0.025   5.191
  195SOL    HW2 1485   2.032   0.100   5.079
  196SOL     OW 1486   2.782   0.102   0.678
  196SOL    HW1 1487   2.819   0.010   0.661
  196SOL    HW2 1488   2.825   0.167   0.616
  197SOL     OW 1489   2.545   0.036   1.574
  197SOL    HW1 1490   2.457   0.063   1.535
  197SOL    HW2 1491   2.531   7.023   1.665
  198SOL     OW 1492   4.488   0.627   2.723
  198SOL    HW1 1493   4.434   0.558   2.772
  198SOL    HW2 1494   4.563   0.658   2.782
  199SOL     OW 1495   6.811   1.955   3.815
  199SOL    HW1 1496   6.874   1.957   3.892
  199SOL    HW2 1497   6.862   1.933   3.731
  200SOL     OW 1498   1.255   3.998   0.971
  200SOL    HW1 1499   1.274   3.907   1.009
  200SOL    HW2 1500   1.291   4.004   0.878
  201SOL     OW 1501   0.096   0.168   6.021
  201SOL    HW1 1502   7.023   0.179   6.034
  201SOL    HW2 1503   0.141   0.256   6.038
  202SOL     OW 1504   3.862   1.036   0.030
  202SOL    HW1 1505   3.773   1.068   7.024
  202SOL    HW2 1506   3.862   1.032   0.130
  203SOL     OW 1507   5.582   2.232   5.340
  203SOL    HW1 1508   5.654   2.292   5.305
  203SOL    HW2 1509   5.546   2.270   5.426
  204SOL     OW 1510   1.280   0.347   5.254
  204SOL    HW1 1511   1.210   0.348   5.325
  204SOL    HW2 1512   1.269   0.427   5.195
  205SOL     OW 1513   0.198   2.245   3.113
  205SOL    HW1 1514   0.230   2.174   3.051
  205SOL    HW2 1515   0.101   2.228   3.135
  206SOL     OW 1516   0.737   4.406   0.832
  206SOL    HW1 1517   0.688   4.493   0.832
  206SOL    HW2 1518   0.770   4.386   0.740
  207SOL     OW 1519   6.440   2.013   3.638
  207SOL    HW1 1520   6.467   2.109   3.627
  207SOL    HW2 1521   6.393   1.983   3.555
  208SOL     OW 1522   6.793   4.143   5.521
  208SOL    HW1 1523   6.803   4.045   5.505
  208SOL    HW2 1524   6.743   4.184   5.445
  209SOL     OW 1525   0.552   5.616   4.319
  209SOL    HW1 1526   0.525   5.656   4.406
  209SOL    HW2 1527   0.586   5.523   4.334
  210SOL     OW 1528   4.122   2.266   0.637
  210SOL    HW1 1529   4.052   2.197   0.659
  210SOL    HW2 1530   4.160   2.247   0.546
  211SOL     OW 1531   1.929   6.353   2.620
  211SOL    HW1 1532   1.879   6.413   2.557
  211SOL    HW2 1533   2.020   6.390   2.636
  212SOL     OW 1534   0.908   4.236   1.885
  212SOL    HW1 1535   0.899   4.327   1.845
  212SOL    HW2 1536   0.818   4.202   1.912
  213SOL     OW 1537   2.891   0.216   0.435
  213SOL    HW1 1538   2.810   0.235   0.380
  213SOL    HW2 1539   2.949   0.297   0.440
  214SOL     OW 1540   4.157   5.063   2.478
  214SOL    HW1 1541   4.077   5.056   2.539
  214SOL    HW2 1542   4.133   5.029   2.387
  215SOL     OW 1543   2.661   3.977   0.668
  215SOL    HW1 1544   2.726   3.942   0.601
  215SOL    HW2 1545   2.583   3.915   0.674
  216SOL     OW 1546   1.611   6.098   3.845
  216SOL    HW1 1547   1.671   6.125   3.920
  216SOL    HW2 1548   1.660   6.106   3.759
  217SOL     OW 1549   1.415   2.820   4.066
  217SOL    HW1 1550   1.446   2.761   4.140
  217SOL    HW2 1551   1.441   2.780   3.978
  218SOL     OW 1552   0.165   3.082   4.383
  218SOL    HW1 1553   0.146   3.175   4.415
  218SOL    HW2 1554   0.256   3.055   4.415
  219SOL     OW 1555   4.254   0.498   0.313
  219SOL    HW1 1556   4.337   0.477   0.260
  219SOL    HW2 1557   4.179   0.517   0.250
  220SOL     OW 1558   3.376   6.797   1.795
  220SOL    HW1 1559   3.470   6.822   1.818
  220SOL    HW2 1560   3.337   6.743   1.869
  221SOL     OW 1561   6.292   4.081   0.894
  221SOL    HW1 1562   6.301   4.018   0.816
  221SOL    HW2 1563   6.283   4.028   0.978
  222SOL     OW 1564   2.094   4.523   5.710
  222SOL    HW1 1565   2.008   4.479   5.733
  222SOL    HW2 1566   2.079   4.592   5.639
  223SOL     OW 1567   6.362   3.343   6.194
  223SOL    HW1 1568   6.404   3.321   6.282
  223SOL    HW2 1569   6.307   3.426   6.203
  224SOL     OW 1570   2.921   1.919   5.430
  224SOL    HW1 1571   2.854   1.980   5.388
  224SOL    HW2 1572   3.001   1.910   5.371
  225SOL     OW 1573   4.839   3.937   6.543
  225SOL    HW1 1574   4.800   4.028   6.528
  225SOL    HW2 1575   4.801   3.898   6.627
  226SOL     OW 1576   0.801   1.349   5.681
  226SOL    HW1 1577   0.875   1.401   5.724
  226SOL    HW2 1578   0.771   1.396   5.598
  227SOL     OW 1579   1.162   4.184   1.985
  227SOL    HW1 1580   1.075   4.224   1.957
  227SOL    HW2 1581   1.152   4.145   2.077
  228SOL     OW 1582   2.778   0.107   3.850
  228SOL    HW1 1583   2.769   0.064   3.940
  228SOL    HW2 1584   2.788   0.206   3.861
  229SOL     OW 1585   6.085   6.207   6.474
  229SOL    HW1 1586   6.170   6.223   6.524
  229SOL    HW2 1587   6.101   6.220   6.376
  230SOL     OW 1588   3.255   4.968   3.885
  230SOL    HW1 1589   3.190   5.020   3.941
  230SOL    HW2 1590   3.216   4.955   3.793
  231SOL     OW 1591   5.932   1.806   6.878
  231SOL    HW1 1592   6.010   1.752   6.847
  231SOL    HW2 1593   5.848   1.771   6.835
  232SOL     OW 1594   0.518   3.261   6.765
  232SOL    HW1 1595   0.589   3.227   6.703
  232SOL    HW2 1596   0.518   3.361   6.765
  233SOL     OW 1597   3.309   1.326   3.136
  233SOL    HW1 1598   3.219   1.356   3.104
  233SOL    HW2 1599   3.357   1.402   3.178
  234SOL     OW 1600   5.560   0.666   6.118
  234SOL    HW1 1601   5.547   0.757   6.157
  234SOL    HW2 1602   5.507   0.600   6.170
  235SOL     OW 1603   4.250   2.475   1.837
  235SOL    HW1 1604   4.321   2.499   1.771
  235SOL    HW2 1605   4.184   2.413   1.795
  236SOL     OW 1606   5.721   2.528   6.313
  236SOL    HW1 1607   5.662   2.598   6.272
  236SOL    HW2 1608   5.671   2.480   6.385
  237SOL     OW 1609   6.638   4.840   1.731
  237SOL    HW1 1610   6.681   4.928   1.710
  237SOL    HW2 1611   6.636   4.783   1.649
  238SOL     OW 1612   5.598   1.469   0.581
  238SOL    HW1 1613   5.529   1.530   0.544
  238SOL    HW2 1614   5.567   1.433   0.669
  239SOL     OW 1615   0.406   5.343   6.798
  239SOL    HW1 1616   0.425   5.262   6.853
  239SOL    HW2 1617   0.383   5.315   6.705
  240SOL     OW 1618   6.546   3.190   3.449
  240SOL    HW1 1619   6.473   3.168   3.385
  240SOL    HW2 1620   6.635   3.175   3.406
  241SOL     OW 1621   2.852   2.185   5.070
  241SOL    HW1 1622   2.927   2.213   5.010
  241SOL    HW2 1623   2.764   2.213   5.029
  242SOL     OW 1624   4.038   3.832   4.244
  242SOL    HW1 1625   3.989   3.765   4.299
  242SOL    HW2 1626   4.134   3.834   4.271
  243SOL     OW 1627   4.696   0.350   6.213
  243SOL    HW1 1628   4.768   0.406   6.255
  243SOL    HW2 1629   4.607   0.379   6.248
  244SOL     OW 1630   5.829   2.994   5.687
  244SOL    HW1 1631   5.764   2.932   5.731
  244SOL    HW2 1632   5.921   2.953   5.690
  245SOL     OW 1633   5.174   3.057   3.968
  245SOL    HW1 1634   5.082   3.039   3.932
  245SOL    HW2 1635   5.194   3.155   3.960
  246SOL     OW 1636   4.582   2.284   3.224
  246SOL    HW1 1637   4.538   2.350   3.163
  246SOL    HW2 1638   4.657   2.329   3.273
  247SOL     OW 1639   2.909   1.807   0.288
  247SOL    HW1 1640   2.943   1.893   0.325
  247SOL    HW2 1641   2.883   1.820   0.192
  248SOL     OW 1642   3.846   1.420   2.145
  248SOL    HW1 1643   3.762   1.365   2.145
  248SOL    HW2 1644   3.889   1.415   2.235
  249SOL     OW 1645   4.190   0.223   4.960
  249SOL    HW1 1646   4.191   0.293   5.031
  249SOL    HW2 1647   4.249   0.147   4.986
  250SOL     OW 1648   4.984   3.098   0.523
  250SOL    HW1 1649   4.985   3.120   0.425
  250SOL    HW2 1650   4.970   3.182   0.575
  251SOL     OW 1651   4.938   3.880   5.684
  251SOL    HW1 1652   5.007   3.944   5.650
  251SOL    HW2 1653   4.859   3.881   5.622
  252SOL     OW 1654   6.818   5.493   6.316
  252SOL    HW1 1655   6.770   5.407   6.304
  252SOL    HW2 1656   6.764   5.554   6.374
  253SOL     OW 1657   2.362   4.754   5.864
  253SOL    HW1 1658   2.378   4.686   5.792
  253SOL    HW2 1659   2.303   4.715   5.934
  254SOL     OW 1660   5.926   2.567   4.010
  254SOL    HW1 1661   5.897   2.514   4.089
  254SOL    HW2 1662   5.982   2.509   3.950
  255SOL     OW 1663   1.728   5.075   5.505
  255SOL    HW1 1664   1.650   5.128   5.472
  255SOL    HW2 1665   1.786   5.134   5.561
  256SOL     OW 1666   6.187   3.730   5.751
  256SOL    HW1 1667   6.101   3.689   5.721
  256SOL    HW2 1668   6.260   3.704   5.688
  257SOL     OW 1669   4.898   0.801   3.876
  257SOL    HW1 1670   4.845   0.742   3.815
  257SOL    HW2 1671   4.984   0.826   3.833
  258SOL     OW 1672   2.202   5.319   5.085
  258SOL    HW1 1673   2.115   5.311   5.037
  258SOL    HW2 1674   2.202   5.259   5.165
  259SOL     OW 1675   0.081   1.772   2.772
  259SOL    HW1 1676   0.152   1.770   2.702
  259SOL    HW2 1677   0.123   1.776   2.863
  260SOL     OW 1678   4.305   0.300   1.645
  260SOL    HW1 1679   4.326   0.233   1.716
  260SOL    HW2 1680   4.210   0.290   1.617
  261SOL     OW 1681   6.682   3.255   0.448
  261SOL    HW1 1682   6.695   3.272   0.350
  261SOL    HW2 1683   6.617   3.180   0.461
  262SOL     OW 1684   0.520   3.543   6.759
  262SOL    HW1 1685   0.457   3.607   6.716
  262SOL    HW2 1686   0.614   3.569   6.738
  263SOL     OW 1687   1.990   0.979   4.413
  263SOL    HW1 1688   1.910   1.018   4.367
  263SOL    HW2 1689   2.059   1.051   4.426
  264SOL     OW 1690   6.059   3.541   6.969
  264SOL    HW1 1691   5.981   3.508   6.915
  264SOL    HW2 1692   6.025   3.594   0.021
  265SOL     OW 1693   4.924   6.587   2.748
  265SOL    HW1 1694   4.946   6.667   2.804
  265SOL    HW2 1695   4.849   6.610   2.686
  266SOL     OW 1696   3.268   2.644   5.910
  266SOL    HW1 1697   3.207   2.633   5.988
  266SOL    HW2 1698   3.228   2.707   5.844
  267SOL     OW 1699   0.210   1.377   6.974
  267SOL    HW1 1700   0.111   1.371   6.978
  267SOL    HW2 1701   0.237   1.432   6.895
  268SOL     OW 1702   3.443   0.806   5.710
  268SOL    HW1 1703   3.512   0.766   5.770
  268SOL    HW2 1704   3.426   0.900   5.738
  269SOL     OW 1705   0.617   3.377   1.676
  269SOL    HW1 1706   0.548   3.448   1.663
  269SOL    HW2 1707   0.682   3.379   1.600
  270SOL     OW 1708   1.096   6.538   0.311
  270SOL    HW1 1709   1.033   6.484   0.254
  270SOL    HW2 1710   1.044   6.604   0.364
  271SOL     OW 1711   6.553   1.792   6.949
  271SOL    HW1 1712   6.508   1.879   6.972
  271SOL    HW2 1713   6.491   1.717   6.969
  272SOL     OW 1714   3.762   5.557   4.495
  272SOL    HW1 1715   3.736   5.648   4.462
  272SOL    HW2 1716   3.846   5.528   4.450
  273SOL     OW 1717   1.616   4.616   4.553
  273SOL    HW1 1718   1.618   4.616   4.453
  273SOL    HW2 1719   1.703   4.583   4.588
  274SOL     OW 1720   4.147   2.157   3.140
  274SOL    HW1 1721   4.247   2.149   3.141
  274SOL    HW2 1722   4.118   2.185   3.048
  275SOL     OW 1723   6.054   4.989   4.545
  275SOL    HW1 1724   5.961   5.024   4.534
  275SOL    HW2 1725   6.051   4.896   4.581
  276SOL     OW 1726   6.678   6.978   2.944
  276SOL    HW1 1727   6.768   6.935   2.945
  276SOL    HW2 1728   6.642   6.978   2.851
  277SOL     OW 1729   1.527   4.233   0.096
  277SOL    HW1 1730   1.535   4.320   0.146
  277SOL    HW2 1731   1.431   4.211   0.082
  278SOL     OW 1732   6.649   5.275   2.077
  278SOL    HW1 1733   6.607   5.268   1.986
  278SOL    HW2 1734   6.604   5.212   2.140
  279SOL     OW 1735   6.261   3.355   4.269
  279SOL    HW1 1736   6.194   3.282   4.258
  279SOL    HW2 1737   6.217   3.444   4.252
  280SOL     OW 1738   3.059   6.998   3.364
  280SOL    HW1 1739   3.156   6.991   3.388
  280SOL    HW2 1740   3.028   0.065   3.378
  281SOL     OW 1741   2.546   4.534   1.920
  281SOL    HW1 1742   2.548   4.444   1.876
  281SOL    HW2 1743   2.639   4.571   1.922
  282SOL     OW 1744   3.282   1.721   5.822
  282SOL    HW1 1745   3.207   1.673   5.868
  282SOL    HW2 1746   3.326   1.658   5.758
  283SOL     OW 1747   6.143   1.674   6.478
  283SOL    HW1 1748   6.062   1.717   6.438
  283SOL    HW2 1749   6.140   1.684   6.578
  284SOL     OW 1750   1.465   4.132   3.290
  284SOL    HW1 1751   1.564   4.141   3.278
  284SOL    HW2 1752   1.433   4.204   3.351
  285SOL     OW 1753   6.029   4.923   4.935
  285SOL    HW1 1754   6.018   4.858   4.859
  285SOL    HW2 1755   6.054   5.013   4.899
  286SOL     OW 1756   3.327   5.916   5.922
  286SOL    HW1 1757   3.331   6.005   5.969
  286SOL    HW2 1758   3.350   5.929   5.825
  287SOL     OW 1759   0.846   3.791   0.601
  287SOL    HW1 1760   0.892   3.777   0.689
  287SOL    HW2 1761   0.759   3.838   0.615
  288SOL     OW 1762   4.063   1.051   6.331
  288SOL    HW1 1763   4.031   1.088   6.244
  288SOL    HW2 1764   3.985   1.017   6.383
  289SOL     OW 1765   0.193   4.474   5.324
  289SOL    HW1 1766   0.173   4.572   5.321
  289SOL    HW2 1767   0.190   4.437   5.231
  290SOL     OW 1768   6.344   1.742   4.749
  290SOL    HW1 1769   6.416   1.811   4.743
  290SOL    HW2 1770   6.364   1.678   4.823
  291SOL     OW 1771   1.596   2.158   4.372
  291SOL    HW1 1772   1.572   2.118   4.460
  291SOL    HW2 1773   1.626   2.086   4.309
  292SOL     OW 1774   1.558   2.388   3.378
  292SOL    HW1 1775   1.543   2.460   3.309
  292SOL    HW2 1776   1.489   2.317   3.367
  293SOL     OW 1777   4.183   5.773   2.318
  293SOL    HW1 1778   4.233   5.717   2.252
  293SOL    HW2 1779   4.152   5.857   2.274
  294SOL     OW 1780   0.871   5.893   6.388
  294SOL    HW1 1781   0.798   5.834   6.354
  294SOL    HW2 1782   0.941   5.904   6.318
  295SOL     OW 1783   3.834   1.823   4.091
  295SOL    HW1 1784   3.825   1.777   4.180
  295SOL    HW2 1785   3.747   1.818   4.042
  296SOL     OW 1786   4.380   1.683   3.095
  296SOL    HW1 1787   4.454   1.711   3.034
  296SOL    HW2 1788   4.310   1.755   3.097
  297SOL     OW 1789   2.596   4.537   3.334
  297SOL    HW1 1790   2.567   4.619   3.383
  297SOL    HW2 1791   2.684   4.554   3.289
  298SOL     OW 1792   3.911   6.330   1.019
  298SOL    HW1 1793   3.918   6.262   0.946
  298SOL    HW2 1794   3.818   6.367   1.021
  299SOL     OW 1795   5.312   3.407   5.853
  299SOL    HW1 1796   5.390   3.446   5.804
  299SOL    HW2 1797   5.227   3.430   5.806
  300SOL     OW 1798   6.776   1.202   2.264
  300SOL    HW1 1799   6.677   1.187   2.276
  300SOL    HW2 1800   6.794   1.300   2.253
  301SOL     OW 1801   5.047   3.586   1.388
  301SOL    HW1 1802   5.085   3.608   1.299
  301SOL    HW2 1803   4.982   3.511   1.379
  302SOL     OW 1804   0.826   0.943   3.204
  302SOL    HW1 1805   0.902   0.879   3.193
  302SOL    HW2 1806   0.844   1.027   3.153
  303SOL     OW 1807   5.648   1.002   2.206
  303SOL    HW1 1808   5.655   1.013   2.107
  303SOL    HW2 1809   5.559   0.964   2.229
  304SOL     OW 1810   2.204   6.970   4.030
  304SOL    HW1 1811   2.289   7.023   4.041
  304SOL    HW2 1812   2.224   6.873   4.040
  305SOL     OW 1813   0.885   3.350   0.413
  305SOL    HW1 1814   0.888   3.336   0.314
  305SOL    HW2 1815   0.878   3.262   0.459
  306SOL     OW 1816   2.188   1.648   3.266
  306SOL    HW1 1817   2.257   1.660   3.195
  306SOL    HW2 1818   2.212   1.705   3.345
  307SOL     OW 1819   4.861   0.330   0.641
  307SOL    HW1 1820   4.942   0.361   0.690
  307SOL    HW2 1821   4.833   0.400   0.575
  308SOL     OW 1822   6.208   3.711   4.899
  308SOL    HW1 1823   6.183   3.730   4.804
  308SOL    HW2 1824   6.253   3.621   4.904
  309SOL     OW 1825   3.223   4.923   6.600
  309SOL    HW1 1826   3.264   5.002   6.646
  309SOL    HW2 1827   3.124   4.926   6.611
  310SOL     OW 1828   6.132   6.965   5.765
  310SOL    HW1 1829   6.165   6.922   5.849
  310SOL    HW2 1830   6.181   0.024   5.750
  311SOL     OW 1831   6.111   4.906   1.207
  311SOL    HW1 1832   6.041   4.836   1.218
  311SOL    HW2 1833   6.182   4.894   1.276
  312SOL     OW 1834   4.370   1.176   5.731
  312SOL    HW1 1835   4.432   1.156   5.655
  312SOL    HW2 1836   4.408   1.251   5.786
  313SOL     OW 1837   3.205   4.137   1.622
  313SOL    HW1 1838   3.278   4.146   1.690
  313SOL    HW2 1839   3.141   4.213   1.630
  314SOL     OW 1840   3.836   4.838   6.730
  314SOL    HW1 1841   3.862   4.752   6.685
  314SOL    HW2 1842   3.828   4.910   6.662
  315SOL     OW 1843   0.989   3.557   3.549
  315SOL    HW1 1844   1.052   3.572   3.474
  315SOL    HW2 1845   1.039   3.555   3.636
  316SOL     OW 1846   2.995   1.951   4.211
  316SOL    HW1 1847   3.008   2.043   4.173
  316SOL    HW2 1848   2.956   1.958   4.303
  317SOL     OW 1849   1.085   0.443   1.049
  317SOL    HW1 1850   1.024   0.484   0.982
  317SOL    HW2 1851   1.067   0.345   1.055
  318SOL     OW 1852   0.750   6.275   6.975
  318SOL    HW1 1853   0.655   6.286   6.946
  318SOL    HW2 1854   0.801   6.223   6.906
  319SOL     OW 1855   0.014   0.744   3.835
  319SOL    HW1 1856   0.056   0.823   3.880
  319SOL    HW2 1857   0.075   0.665   3.843
  320SOL     OW 1858   5.628   2.148   0.104
  320SOL    HW1 1859   5.550   2.086   0.107
  320SOL    HW2 1860   5.613   2.223   0.168
  321SOL     OW 1861   3.400   1.148   1.078
  321SOL    HW1 1862   3.316   1.103   1.051
  321SOL    HW2 1863   3.402   1.159   1.178
  322SOL     OW 1864   3.558   4.095   4.570
  322SOL    HW1 1865   3.555   3.995   4.570
  322SOL    HW2 1866   3.601   4.128   4.654
  323SOL     OW 1867   0.307   3.786   6.669
  323SOL    HW1 1868   0.327   3.868   6.723
  323SOL    HW2 1869   0.383   3.768   6.607
  324SOL     OW 1870   2.168   2.384   3.839
  324SOL    HW1 1871   2.183   2.327   3.758
  324SOL    HW2 1872   2.244   2.371   3.903
  325SOL     OW 1873   1.186   2.945   1.674
  325SOL    HW1 1874   1.179   2.956   1.575
  325SOL    HW2 1875   1.160   2.852   1.700
  326SOL     OW 1876   1.800   5.212   6.066
  326SOL    HW1 1877   1.793   5.223   5.967
  326SOL    HW2 1878   1.741   5.279   6.112
  327SOL     OW 1879   1.462   5.421   3.646
  327SOL    HW1 1880   1.457   5.400   3.548
  327SOL    HW2 1881   1.557   5.441   3.671
  328SOL     OW 1882   2.369   5.697   1.859
  328SOL    HW1 1883   2.409   5.719   1.771
  328SOL    HW2 1884   2.276   5.734   1.865
  329SOL     OW 1885   3.218   4.095   4.602
  329SOL    HW1 1886   3.289   4.066   4.538
  329SOL    HW2 1887   3.168   4.172   4.564
  330SOL     OW 1888   3.303   6.706   1.099
  330SOL    HW1 1889   3.221   6.760   1.120
  330SOL    HW2 1890   3.302   6.622   1.152
  331SOL     OW 1891   4.142   4.743   6.949
  331SOL    HW1 1892   4.176   4.809   7.017
  331SOL    HW2 1893   4.149   4.784   6.857
  332SOL     OW 1894   3.558   1.736   4.884
  332SOL    HW1 1895   3.488   1.744   4.955
  332SOL    HW2 1896   3.517   1.751   4.794
  333SOL     OW 1897   3.252   6.717   6.693
  333SOL    HW1 1898   3.297   6.758   6.772
  333SOL    HW2 1899   3.181   6.778   6.660
  334SOL     OW 1900   2.630   0.264   1.043
  334SOL    HW1 1901   2.626   0.269   0.943
  334SOL    HW2 1902   2.683   0.340   1.079
  335SOL     OW 1903   3.294   6.360   4.432
  335SOL    HW1 1904   3.199   6.393   4.435
  335SOL    HW2 1905   3.355   6.436   4.408
  336SOL     OW 1906   2.878   1.591   3.830
  336SOL    HW1 1907   2.956   1.623   3.777
  336SOL    HW2 1908   2.862   1.653   3.908
  337SOL     OW 1909   6.935   3.154   0.448
  337SOL    HW1 1910   6.928   3.128   0.544
  337SOL    HW2 1911   6.849   3.196   0.419
  338SOL     OW 1912   2.971   2.757   0.789
  338SOL    HW1 1913   2.899   2.815   0.825
  338SOL    HW2 1914   2.936   2.664   0.775
  339SOL     OW 1915   3.646   6.384   4.661
  339SOL    HW1 1916   3.632   6.474   4.618
  339SOL    HW2 1917   3.581   6.319   4.623
  340SOL     OW 1918   4.996   4.311   5.253
  340SOL    HW1 1919   4.988   4.236   5.187
  340SOL    HW2 1920   4.956   4.283   5.340
  341SOL     OW 1921   6.430   0.203   4.545
  341SOL    HW1 1922   6.382   0.180   4.460
  341SOL    HW2 1923   6.365   0.242   4.610
  342SOL     OW 1924   5.882   3.376   6.808
  342SOL    HW1 1925   5.905   3.322   6.727
  342SOL    HW2 1926   5.879   3.317   6.888
  343SOL     OW 1927   1.989   5.424   0.806
  343SOL    HW1 1928   2.052   5.347   0.814
  343SOL    HW2 1929   1.903   5.401   0.852
  344SOL     OW 1930   1.539   4.681   2.263
  344SOL    HW1 1931   1.611   4.750   2.260
  344SOL    HW2 1932   1.471   4.701   2.192
  345SOL     OW 1933   6.692   1.412   5.000
  345SOL    HW1 1934   6.792   1.408   5.004
  345SOL    HW2 1935   6.663   1.414   4.904
  346SOL     OW 1936   1.936   0.929   2.105
  346SOL    HW1 1937   2.019   0.917   2.051
  346SOL    HW2 1938   1.939   1.017   2.152
  347SOL     OW 1939   3.845   6.492   6.060
  347SOL    HW1 1940   3.786   6.429   6.009
  347SOL    HW2 1941   3.871   6.568   6.001
  348SOL     OW 1942   4.654   4.900   1.234
  348SOL    HW1 1943   4.676   4.853   1.320
  348SOL    HW2 1944   4.683   4.843   1.157
  349SOL     OW 1945   6.239   4.677   1.597
  349SOL    HW1 1946   6.216   4.757   1.541
  349SOL    HW2 1947   6.335   4.653   1.585
  350SOL     OW 1948   3.612   3.108   2.078
  350SOL    HW1 1949   3.514   3.122   2.091
  350SOL    HW2 1950   3.659   3.197   2.075
  351SOL     OW 1951   2.285   2.769   0.395
  351SOL    HW1 1952   2.289   2.716   0.480
  351SOL    HW2 1953   2.339   2.852   0.404
  352SOL     OW 1954   3.449   0.161   4.598
  352SOL    HW1 1955   3.395   0.187   4.518
  352SOL    HW2 1956   3.521   0.229   4.613
  353SOL     OW 1957   2.691   6.868   0.870
  353SOL    HW1 1958   2.632   6.930   0.820
  353SOL    HW2 1959   2.747   6.920   0.935
  354SOL     OW 1960   4.005   2.577   0.727
  354SOL    HW1 1961   3.923   2.524   0.750
  354SOL    HW2 1962   4.035   2.553   0.634
  355SOL     OW 1963   6.668   3.275   2.783
  355SOL    HW1 1964   6.753   3.326   2.770
  355SOL    HW2 1965   6.672   3.223   2.868
  356SOL     OW 1966   4.097   5.924   5.004
  356SOL    HW1 1967   4.169   5.958   4.943
  356SOL    HW2 1968   4.008   5.935   4.959
  357SOL     OW 1969   6.241   0.153   5.663
  357SOL    HW1 1970   6.321   0.120   5.612
  357SOL    HW2 1971   6.201   0.231   5.615
  358SOL     OW 1972   5.696   0.329   1.935
  358SOL    HW1 1973   5.697   0.231   1.953
  358SOL    HW2 1974   5.761   0.375   1.995
  359SOL     OW 1975   1.645   2.156   2.392
  359SOL    HW1 1976   1.625   2.233   2.453
  359SOL    HW2 1977   1.737   2.166   2.354
  360SOL     OW 1978   1.941   5.683   6.104
  360SOL    HW1 1979   1.923   5.780   6.122
  360SOL    HW2 1980   1.972   5.639   6.188
  361SOL     OW 1981   5.566   5.944   3.140
  361SOL    HW1 1982   5.654   5.917   3.101
  361SOL    HW2 1983   5.578   6.024   3.198
  362SOL     OW 1984   3.762   4.234   0.535
  362SOL    HW1 1985   3.686   4.172   0.553
  362SOL    HW2 1986   3.797   4.271   0.621
  363SOL     OW 1987   4.619   4.372   3.199
  363SOL    HW1 1988   4.649   4.278   3.183
  363SOL    HW2 1989   4.611   4.389   3.297
  364SOL     OW 1990   0.221   5.606   5.561
  364SOL    HW1 1991   0.253   5.658   5.482
  364SOL    HW2 1992   0.222   5.665   5.642
  365SOL     OW 1993   4.743   5.376   2.568
  365SOL    HW1 1994   4.660   5.354   2.515
  365SOL    HW2 1995   4.718   5.428   2.649
  366SOL     OW 1996   6.397   1.087   0.210
  366SOL    HW1 1997   6.443   1.080   0.298
  366SOL    HW2 1998   6.318   1.147   0.218
  367SOL     OW 1999   5.169   2.822   1.265
  367SOL    HW1 2000   5.231   2.760   1.313
  367SOL    HW2 2001   5.120   2.771   1.193
  368SOL     OW 2002   0.681   3.855   4.776
  368SOL    HW1 2003   0.640   3.827   4.863
  368SOL    HW2 2004   0.779   3.871   4.790
  369SOL     OW 2005   6.436   4.980   1.834
  369SOL    HW1 2006   6.492   4.918   1.779
  369SOL    HW2 2007   6.349   4.936   1.855
  370SOL     OW 2008   3.276   1.993   5.822
  370SOL    HW1 2009   3.183   2.004   5.788
  370SOL    HW2 2010   3.298   1.895   5.828
  371SOL     OW 2011   2.480   3.572   6.230
  371SOL    HW1 2012   2.404   3.624   6.190
  371SOL    HW2 2013   2.458   3.550   6.325
  372SOL     OW 2014   6.847   1.063   5.170
  372SOL    HW1 2015   6.936   1.053   5.126
  372SOL    HW2 2016   6.779   1.092   5.102
  373SOL     OW 2017   6.136   6.606   5.129
  373SOL    HW1 2018   6.145   6.614   5.228
  373SOL    HW2 2019   6.053   6.556   5.107
  374SOL     OW 2020   3.755   0.128   2.334
  374SOL    HW1 2021   3.801   0.175   2.409
  374SOL    HW2 2022   3.697   0.192   2.285
  375SOL     OW 2023   0.586   4.849   3.913
  375SOL    HW1 2024   0.641   4.794   3.975
  375SOL    HW2 2025   0.592   4.812   3.820
  376SOL     OW 2026   1.789   3.393   4.103
  376SOL    HW1 2027   1.740   3.375   4.188
  376SOL    HW2 2028   1.888   3.384   4.119
  377SOL     OW 2029   6.338   2.687   1.911
  377SOL    HW1 2030   6.276   2.622   1.867
  377SOL    HW2 2031   6.418   2.701   1.854
  378SOL     OW 2032   3.174   3.022   5.481
  378SOL    HW1 2033   3.261   3.064   5.455
  378SOL    HW2 2034   3.182   2.923   5.475
  379SOL     OW 2035   6.270   4.344   1.703
  379SOL    HW1 2036   6.352   4.401   1.706
  379SOL    HW2 2037   6.220   4.354   1.790
  380SOL     OW 2038   2.635   1.267   1.740
  380SOL    HW1 2039   2.690   1.269   1.823
  380SOL    HW2 2040   2.624   1.361   1.705
  381SOL     OW 2041   2.162   4.668   1.546
  381SOL    HW1 2042   2.106   4.594   1.507
  381SOL    HW2 2043   2.257   4.656   1.518
  382SOL     OW 2044   5.303   6.308   6.512
  382SOL    HW1 2045   5.311   6.210   6.491
  382SOL    HW2 2046   5.287   6.359   6.428
  383SOL     OW 2047   6.208   2.757   6.198
  383SOL    HW1 2048   6.170   2.698   6.269
  383SOL    HW2 2049   6.201   2.853   6.227
  384SOL     OW 2050   0.100   4.063   4.789
  384SOL    HW1 2051   0.007   4.074   4.755
  384SOL    HW2 2052   0.097   4.045   4.888
  385SOL     OW 2053   4.451   6.439   6.665
  385SOL    HW1 2054   4.527   6.500   6.689
  385SOL    HW2 2055   4.405   6.409   6.749
  386SOL     OW 2056   3.515   0.121   5.147
  386SOL    HW1 2057   3.470   0.203   5.112
  386SOL    HW2 2058   3.475   0.096   5.235
  387SOL     OW 2059   6.799   5.921   3.772
  387SOL    HW1 2060   6.727   5.883   3.830
  387SOL    HW2 2061   6.813   5.861   3.693
  388SOL     OW 2062   0.426   2.386   4.611
  388SOL    HW1 2063   0.465   2.323   4.679
  388SOL    HW2 2064   0.488   2.395   4.534
  389SOL     OW 2065   4.199   4.247   1.652
  389SOL    HW1 2066   4.225   4.201   1.568
  389SOL    HW2 2067   4.268   4.229   1.723
  390SOL     OW 2068   3.443   1.419   0.456
  390SOL    HW1 2069   3.506   1.459   0.523
  390SOL    HW2 2070   3.445   1.319   0.464
  391SOL     OW 2071   2.163   4.014   5.288
  391SOL    HW1 2072   2.127   3.957   5.214
  391SOL    HW2 2073   2.257   4.039   5.268
  392SOL     OW 2074   1.533   3.217   2.198
  392SOL    HW1 2075   1.463   3.287   2.183
  392SOL    HW2 2076   1.614   3.238   2.144
  393SOL     OW 2077   1.368   5.517   0.522
  393SOL    HW1 2078   1.407   5.595   0.570
  393SOL    HW2 2079   1.442   5.455   0.495
  394SOL     OW 2080   0.849   3.097   6.630
  394SOL    HW1 2081   0.880   3.152   6.707
  394SOL    HW2 2082   0.923   3.088   6.563
  395SOL     OW 2083   5.427   4.178   2.164
  395SOL    HW1 2084   5.509   4.137   2.124
  395SOL    HW2 2085   5.446   4.204   2.259
  396SOL     OW 2086   2.415   2.339   2.184
  396SOL    HW1 2087   2.485   2.345   2.113
  396SOL    HW2 2088   2.398   2.430   2.221
  397SOL     OW 2089   5.473   1.558   6.394
  397SOL    HW1 2090   5.436   1.556   6.302
  397SOL    HW2 2091   5.415   1.616   6.452
  398SOL     OW 2092   1.286   6.099   4.413
  398SOL    HW1 2093   1.224   6.022   4.393
  398SOL    HW2 2094   1.380   6.065   4.419
  399SOL     OW 2095   6.502   5.861   4.517
  399SOL    HW1 2096   6.596   5.895   4.518
  399SOL    HW2 2097   6.491   5.797   4.441
  400SOL     OW 2098   6.423   6.519   5.125
  400SOL    HW1 2099   6.428   6.458   5.045
  400SOL    HW2 2100   6.330   6.552   5.136
  401SOL     OW 2101   5.471   6.995   6.090
  401SOL    HW1 2102   5.511   6.995   5.998
  401SOL    HW2 2103   5.381   6.953   6.088
  402SOL     OW 2104   6.117   0.340   2.421
  402SOL    HW1 2105   6.217   0.341   2.425
  402SOL    HW2 2106   6.081   0.273   2.487
  403SOL     OW 2107   3.284   0.302   6.439
  403SOL    HW1 2108   3.270   0.212   6.481
  403SOL    HW2 2109   3.380   0.327   6.447
  404SOL     OW 2110   2.528   5.601   5.576
  404SOL    HW1 2111   2.529   5.539   5.654
  404SOL    HW2 2112   2.539   5.549   5.491
  405SOL     OW 2113   2.309   4.169   3.633
  405SOL    HW1 2114   2.362   4.092   3.669
  405SOL    HW2 2115   2.228   4.183   3.690
  406SOL     OW 2116   0.724   4.695   5.454
  406SOL    HW1 2117   0.787   4.618   5.461
  406SOL    HW2 2118   0.631   4.664   5.472
  407SOL     OW 2119   1.902   2.774   3.602
  407SOL    HW1 2120   1.973   2.836   3.568
  407SOL    HW2 2121   1.868   2.809   3.690
  408SOL     OW 2122   3.503   2.086   3.007
  408SOL    HW1 2123   3.598   2.097   3.037
  408SOL    HW2 2124   3.496   2.112   2.911
  409SOL     OW 2125   6.747   3.227   1.630
  409SOL    HW1 2126   6.740   3.267   1.539
  409SOL    HW2 2127   6.730   3.298   1.699
  410SOL     OW 2128   1.415   1.598   1.162
  410SOL    HW1 2129   1.472   1.640   1.233
  410SOL    HW2 2130   1.319   1.600   1.191
  411SOL     OW 2131   6.319   1.904   2.210
  411SOL    HW1 2132   6.235   1.870   2.168
  411SOL    HW2 2133   6.347   1.844   2.285
  412SOL     OW 2134   3.597   4.993   2.945
  412SOL    HW1 2135   3.509   5.015   2.988
  412SOL    HW2 2136   3.581   4.942   2.860
  413SOL     OW 2137   4.160   5.347   2.034
  413SOL    HW1 2138   4.103   5.267   2.053
  413SOL    HW2 2139   4.164   5.363   1.936
  414SOL     OW 2140   3.744   0.412   4.076
  414SOL    HW1 2141   3.675   0.360   4.026
  414SOL    HW2 2142   3.743   0.384   4.172
  415SOL     OW 2143   0.145   1.461   0.266
  415SOL    HW1 2144   0.096   1.403   0.200
  415SOL    HW2 2145   0.238   1.478   0.234
  416SOL     OW 2146   5.269   4.580   4.445
  416SOL    HW1 2147   5.203   4.526   4.497
  416SOL    HW2 2148   5.293   4.531   4.362
  417SOL     OW 2149   1.825   1.211   6.551
  417SOL    HW1 2150   1.856   1.181   6.461
  417SOL    HW2 2151   1.884   1.286   6.582
  418SOL     OW 2152   2.909   6.970   5.408
  418SOL    HW1 2153   2.840   7.019   5.356
  418SOL    HW2 2154   2.893   6.871   5.400
  419SOL     OW 2155   0.025   6.657   2.947
  419SOL    HW1 2156   0.094   6.598   2.905
  419SOL    HW2 2157   6.972   6.663   2.886
  420SOL     OW 2158   5.697   1.295   6.771
  420SOL    HW1 2159   5.639   1.377   6.771
  420SOL    HW2 2160   5.791   1.321   6.748
  421SOL     OW 2161   5.542   4.101   5.277
  421SOL    HW1 2162   5.616   4.060   5.331
  421SOL    HW2 2163   5.542   4.062   5.185
  422SOL     OW 2164   5.459   1.962   0.731
  422SOL    HW1 2165   5.496   1.928   0.645
  422SOL    HW2 2166   5.391   1.897   0.765
  423SOL     OW 2167   2.462   1.072   6.567
  423SOL    HW1 2168   2.401   1.104   6.639
  423SOL    HW2 2169   2.430   1.104   6.478
  424SOL     OW 2170   2.052   5.086   2.932
  424SOL    HW1 2171   2.148   5.061   2.946
  424SOL    HW2 2172   2.008   5.019   2.873
  425SOL     OW 2173   5.040   1.046   4.691
  425SOL    HW1 2174   5.101   1.014   4.763
  425SOL    HW2 2175   4.954   0.995   4.696
  426SOL     OW 2176   2.193   3.045   5.353
  426SOL    HW1 2177   2.266   3.020   5.289
  426SOL    HW2 2178   2.224   3.031   5.447
  427SOL     OW 2179   5.131   1.270   4.312
  427SOL    HW1 2180   5.114   1.277   4.410
  427SOL    HW2 2181   5.089   1.186   4.276
  428SOL     OW 2182   2.493   0.460   4.654
  428SOL    HW1 2183   2.539   0.468   4.742
  428SOL    HW2 2184   2.454   0.549   4.629
  429SOL     OW 2185   0.818   5.268   4.174
  429SOL    HW1 2186   0.906   5.221   4.174
  429SOL    HW2 2187   0.772   5.254   4.261
  430SOL     OW 2188   1.926   0.099   3.850
  430SOL    HW1 2189   1.955   0.046   3.930
  430SOL    HW2 2190   1.836   0.138   3.868
  431SOL     OW 2191   2.116   1.908   0.370
  431SOL    HW1 2192   2.032   1.935   0.324
  431SOL    HW2 2193   2.097   1.889   0.467
  432SOL     OW 2194   5.395   1.667   1.143
  432SOL    HW1 2195   5.486   1.641   1.172
  432SOL    HW2 2196   5.399   1.756   1.097
  433SOL     OW 2197   3.702   6.604   6.273
  433SOL    HW1 2198   3.638   6.679   6.257
  433SOL    HW2 2199   3.719   6.555   6.188
  434SOL     OW 2200   3.892   5.641   4.005
  434SOL    HW1 2201   3.856   5.653   3.912
  434SOL    HW2 2202   3.834   5.577   4.056
  435SOL     OW 2203   3.900   1.025   5.533
  435SOL    HW1 2204   3.931   0.981   5.449
  435SOL    HW2 2205   3.860   0.956   5.594
  436SOL     OW 2206   3.273   6.089   2.549
  436SOL    HW1 2207   3.302   6.020   2.483
  436SOL    HW2 2208   3.285   6.180   2.509
  437SOL     OW 2209   0.328   1.178   4.723
  437SOL    HW1 2210   0.363   1.233   4.799
  437SOL    HW2 2211   0.348   1.082   4.740
  438SOL     OW 2212   1.364   4.491   2.870
  438SOL    HW1 2213   1.312   4.509   2.786
  438SOL    HW2 2214   1.323   4.542   2.946
  439SOL     OW 2215   5.704   0.707   3.143
  439SOL    HW1 2216   5.696   0.693   3.241
  439SOL    HW2 2217   5.632   0.770   3.112
  440SOL     OW 2218   3.658   1.291   6.711
  440SOL    HW1 2219   3.620   1.360   6.649
  440SOL    HW2 2220   3.756   1.279   6.692
  441SOL     OW 2221   5.958   4.384   2.966
  441SOL    HW1 2222   5.928   4.477   2.987
  441SOL    HW2 2223   5.896   4.343   2.899
  442SOL     OW 2224   5.059   4.152   5.673
  442SOL    HW1 2225   4.980   4.213   5.668
  442SOL    HW2 2226   5.108   4.168   5.758
  443SOL     OW 2227   5.162   4.856   3.336
  443SOL    HW1 2228   5.179   4.864   3.238
  443SOL    HW2 2229   5.240   4.892   3.387
  444SOL     OW 2230   3.902   1.288   6.651
  444SOL    HW1 2231   3.915   1.374   6.700
  444SOL    HW2 2232   3.940   1.213   6.704
  445SOL     OW 2233   2.825   6.233   2.710
  445SOL    HW1 2234   2.827   6.307   2.778
  445SOL    HW2 2235   2.811   6.273   2.619
  446SOL     OW 2236   4.782   6.156   2.974
  446SOL    HW1 2237   4.787   6.192   2.881
  446SOL    HW2 2238   4.698   6.103   2.985
  447SOL     OW 2239   6.184   3.457   5.528
  447SOL    HW1 2240   6.229   3.465   5.439
  447SOL    HW2 2241   6.248   3.480   5.600
  448SOL     OW 2242   1.967   1.404   3.144
  448SOL    HW1 2243   1.907   1.442   3.073
  448SOL    HW2 2244   2.058   1.388   3.105
  449SOL     OW 2245   2.208   2.442   3.225
  449SOL    HW1 2246   2.177   2.428   3.131
  449SOL    HW2 2247   2.295   2.490   3.224
  450SOL     OW 2248   1.105   4.553   3.452
  450SOL    HW1 2249   1.084   4.642   3.493
  450SOL    HW2 2250   1.076   4.553   3.356
  451SOL     OW 2251   6.775   2.635   3.461
  451SOL    HW1 2252   6.753   2.728   3.432
  451SOL    HW2 2253   6.786   2.577   3.381
  452SOL     OW 2254   3.343   6.831   2.781
  452SOL    HW1 2255   3.410   6.758   2.792
  452SOL    HW2 2256   3.335   6.882   2.867
  453SOL     OW 2257   4.552   0.418   6.743
  453SOL    HW1 2258   4.567   0.334   6.795
  453SOL    HW2 2259   4.563   0.497   6.803
  454SOL     OW 2260   6.687   4.184   6.389
  454SOL    HW1 2261   6.619   4.256   6.375
  454SOL    HW2 2262   6.712   4.181   6.486
  455SOL     OW 2263   6.522   3.748   5.370
  455SOL    HW1 2264   6.477   3.792   5.292
  455SOL    HW2 2265   6.583   3.676   5.338
  456SOL     OW 2266   1.735   0.783   3.870
  456SOL    HW1 2267   1.676   0.726   3.928
  456SOL    HW2 2268   1.804   0.827   3.927
  457SOL     OW 2269   1.282   5.874   5.549
  457SOL    HW1 2270   1.324   5.824   5.626
  457SOL    HW2 2271   1.298   5.823   5.464
  458SOL     OW 2272   2.481   1.132   2.904
  458SOL    HW1 2273   2.542   1.209   2.887
  458SOL    HW2 2274   2.508   1.086   2.989
  459SOL     OW 2275   2.101   0.668   5.453
  459SOL    HW1 2276   2.182   0.655   5.511
  459SOL    HW2 2277   2.073   0.764   5.456
  460SOL     OW 2278   1.199   1.619   5.048
  460SOL    HW1 2279   1.226   1.524   5.063
  460SOL    HW2 2280   1.273   1.669   5.003
  461SOL     OW 2281   6.683   4.712   5.180
  461SOL    HW1 2282   6.716   4.734   5.272
  461SOL    HW2 2283   6.709   4.785   5.117
  462SOL     OW 2284   3.563   3.843   4.728
  462SOL    HW1 2285   3.657   3.810   4.727
  462SOL    HW2 2286   3.540   3.877   4.819
  463SOL     OW 2287   6.235   6.750   2.716
  463SOL    HW1 2288   6.251   6.760   2.618
  463SOL    HW2 2289   6.224   6.841   2.757
  464SOL     OW 2290   3.224   6.672   6.426
  464SOL    HW1 2291   3.235   6.697   6.523
  464SOL    HW2 2292   3.206   6.574   6.419
  465SOL     OW 2293   1.246   2.212   0.379
  465SOL    HW1 2294   1.259   2.208   0.478
  465SOL    HW2 2295   1.208   2.125   0.347
  466SOL     OW 2296   3.441   6.177   4.558
  466SOL    HW1 2297   3.382   6.240   4.507
  466SOL    HW2 2298   3.475   6.106   4.496
  467SOL     OW 2299   0.723   1.356   2.384
  467SOL    HW1 2300   0.804   1.300   2.400
  467SOL    HW2 2301   0.747   1.453   2.393
  468SOL     OW 2302   5.152   0.116   6.259
  468SOL    HW1 2303   5.245   0.148   6.246
  468SOL    HW2 2304   5.126   0.128   6.355
  469SOL     OW 2305   3.057   4.500   5.759
  469SOL    HW1 2306   3.000   4.480   5.680
  469SOL    HW2 2307   3.005   4.556   5.824
  470SOL     OW 2308   3.322   6.171   3.324
  470SOL    HW1 2309   3.366   6.159   3.413
  470SOL    HW2 2310   3.333   6.088   3.270
  471SOL     OW 2311   2.577   2.498   4.188
  471SOL    HW1 2312   2.601   2.415   4.239
  471SOL    HW2 2313   2.524   2.559   4.247
  472SOL     OW 2314   5.668   4.503   6.410
  472SOL    HW1 2315   5.589   4.564   6.416
  472SOL    HW2 2316   5.711   4.513   6.320
  473SOL     OW 2317   6.684   2.692   2.519
  473SOL    HW1 2318   6.722   2.607   2.553
  473SOL    HW2 2319   6.731   2.770   2.561
  474SOL     OW 2320   6.320   5.680   5.024
  474SOL    HW1 2321   6.252   5.731   5.077
  474SOL    HW2 2322   6.290   5.672   4.929
  475SOL     OW 2323   5.761   2.908   0.208
  475SOL    HW1 2324   5.662   2.915   0.194
  475SOL    HW2 2325   5.803   2.998   0.200
  476SOL     OW 2326   0.049   3.812   2.121
  476SOL    HW1 2327   7.012   3.760   2.063
  476SOL    HW2 2328   0.093   3.749   2.185
  477SOL     OW 2329   2.826   6.034   3.594
  477SOL    HW1 2330   2.890   6.103   3.560
  477SOL    HW2 2331   2.738   6.077   3.614
  478SOL     OW 2332   4.228   5.878   3.029
  478SOL    HW1 2333   4.215   5.951   2.962
  478SOL    HW2 2334   4.139   5.840   3.055
  479SOL     OW 2335   3.983   3.311   3.941
  479SOL    HW1 2336   3.899   3.360   3.965
  479SOL    HW2 2337   4.062   3.361   3.976
  480SOL     OW 2338   1.693   0.035   2.877
  480SOL    HW1 2339   1.728   6.975   2.842
  480SOL    HW2 2340   1.595   0.025   2.897
  481SOL     OW 2341   1.265   6.133   1.626
  481SOL    HW1 2342   1.219   6.123   1.538
  481SOL    HW2 2343   1.307   6.224   1.632
  482SOL     OW 2344   5.187   4.550   2.762
  482SOL    HW1 2345   5.138   4.629   2.801
  482SOL    HW2 2346   5.279   4.547   2.801
  483SOL     OW 2347   6.391   2.716   2.822
  483SOL    HW1 2348   6.485   2.748   2.827
  483SOL    HW2 2349   6.346   2.758   2.743
  484SOL     OW 2350   1.861   4.326   4.425
  484SOL    HW1 2351   1.923   4.345   4.350
  484SOL    HW2 2352   1.767   4.318   4.390
  485SOL     OW 2353   5.756   3.347   2.493
  485SOL    HW1 2354   5.776   3.259   2.451
  485SOL    HW2 2355   5.826   3.367   2.562
  486SOL     OW 2356   6.243   0.350   6.380
  486SOL    HW1 2357   6.149   0.318   6.370
  486SOL    HW2 2358   6.278   0.381   6.292
  487SOL     OW 2359   0.292   0.315   3.591
  487SOL    HW1 2360   0.305   0.363   3.504
  487SOL    HW2 2361   0.355   0.237   3.595
  488SOL     OW 2362   1.696   6.955   3.171
  488SOL    HW1 2363   1.783   6.912   3.194
  488SOL    HW2 2364   1.705   7.004   3.085
  489SOL     OW 2365   6.255   5.879   4.638
  489SOL    HW1 2366   6.182   5.926   4.589
  489SOL    HW2 2367   6.335   5.872   4.579
  490SOL     OW 2368   1.418   5.743   5.760
  490SOL    HW1 2369   1.447   5.790   5.843
  490SOL    HW2 2370   1.485   5.673   5.736
  491SOL     OW 2371   6.993   3.489   0.694
  491SOL    HW1 2372   0.002   3.427   0.624
  491SOL    HW2 2373   0.041   3.521   0.751
  492SOL     OW 2374   1.780   1.514   6.058
  492SOL    HW1 2375   1.820   1.599   6.092
  492SOL    HW2 2376   1.761   1.522   5.960
  493SOL     OW 2377   2.640   0.139   5.346
  493SOL    HW1 2378   2.635   0.046   5.310
  493SOL    HW2 2379   2.625   0.204   5.271
  494SOL     OW 2380   2.602   1.239   5.842
  494SOL    HW1 2381   2.666   1.228   5.918
  494SOL    HW2 2382   2.577   1.149   5.807
  495SOL     OW 2383   3.976   6.110   5.655
  495SOL    HW1 2384   4.056   6.147   5.701
  495SOL    HW2 2385   4.003   6.066   5.570
  496SOL     OW 2386   6.452   1.853   3.055
  496SOL    HW1 2387   6.390   1.918   3.011
  496SOL    HW2 2388   6.488   1.893   3.139
  497SOL     OW 2389   3.725   1.218   5.681
  497SOL    HW1 2390   3.771   1.305   5.699
  497SOL    HW2 2391   3.784   1.160   5.625
  498SOL     OW 2392   0.015   5.847   2.025
  498SOL    HW1 2393   6.953   5.815   1.993
  498SOL    HW2 2394   0.073   5.870   1.946
  499SOL     OW 2395   3.144   5.107   6.194
  499SOL    HW1 2396   3.127   5.093   6.096
  499SOL    HW2 2397   3.080   5.175   6.229
  500SOL     OW 2398   5.229   2.739   6.350
  500SOL    HW1 2399   5.241   2.649   6.393
  500SOL    HW2 2400   5.191   2.727   6.259
  501SOL     OW 2401   2.111   6.930   2.510
  501SOL    HW1 2402   2.175   6.989   2.560
  501SOL    HW2 2403   2.150   6.838   2.501
  502SOL     OW 2404   1.714   4.793   6.122
  502SOL    HW1 2405   1.801   4.817   6.078
  502SOL    HW2 2406   1.670   4.876   6.156
  503SOL     OW 2407   3.266   4.607   6.452
  503SOL    HW1 2408   3.175   4.647   6.458
  503SOL    HW2 2409   3.276   4.558   6.366
  504SOL     OW 2410   6.443   6.001   1.917
  504SOL    HW1 2411   6.538   5.999   1.886
  504SOL    HW2 2412   6.429   6.079   1.978
  505SOL     OW 2413   4.020   6.880   5.396
  505SOL    HW1 2414   4.003   6.972   5.431
  505SOL    HW2 2415   4.065   6.825   5.466
  506SOL     OW 2416   3.110   5.541   2.879
  506SOL    HW1 2417   3.099   5.628   2.831
  506SOL    HW2 2418   3.203   5.535   2.917
  507SOL     OW 2419   4.167   1.274   1.797
  507SOL    HW1 2420   4.074   1.279   1.760
  507SOL    HW2 2421   4.233   1.273   1.722
  508SOL     OW 2422   6.996   3.267   3.873
  508SOL    HW1 2423   6.996   3.214   3.957
  508SOL    HW2 2424   0.055   3.252   3.824
  509SOL     OW 2425   5.202   0.484   0.350
  509SOL    HW1 2426   5.229   0.577   0.326
  509SOL    HW2 2427   5.195   0.429   0.266
  510SOL     OW 2428   6.545   4.591   5.372
  510SOL    HW1 2429   6.603   4.663   5.411
  510SOL    HW2 2430   6.565   4.580   5.275
  511SOL     OW 2431   0.934   1.584   6.728
  511SOL    HW1 2432   0.980   1.518   6.669
  511SOL    HW2 2433   0.973   1.580   6.820
  512SOL     OW 2434   5.473   2.453   7.018
  512SOL    HW1 2435   5.544   2.523   7.007
  512SOL    HW2 2436   5.492   2.399   0.073
  513SOL     OW 2437   5.761   6.755   2.286
  513SOL    HW1 2438   5.799   6.666   2.312
  513SOL    HW2 2439   5.831   6.826   2.297
  514SOL     OW 2440   6.947   6.591   3.947
  514SOL    HW1 2441   7.013   6.533   3.901
  514SOL    HW2 2442   6.995   6.653   4.010
  515SOL     OW 2443   2.867   0.920   6.355
  515SOL    HW1 2444   2.896   0.839   6.304
  515SOL    HW2 2445   2.776   0.905   6.393
  516SOL     OW 2446   2.426   4.257   1.803
  516SOL    HW1 2447   2.346   4.230   1.749
  516SOL    HW2 2448   2.507   4.208   1.770
  517SOL     OW 2449   3.599   4.909   2.690
  517SOL    HW1 2450   3.657   4.839   2.646
  517SOL    HW2 2451   3.603   4.993   2.637
  518SOL     OW 2452   2.085   3.095   3.551
  518SOL    HW1 2453   2.080   3.192   3.577
  518SOL    HW2 2454   2.144   3.086   3.471
  519SOL     OW 2455   6.753   6.531   4.123
  519SOL    HW1 2456   6.799   6.555   4.209
  519SOL    HW2 2457   6.812   6.554   4.046
  520SOL     OW 2458   1.328   3.244   6.666
  520SOL    HW1 2459   1.358   3.152   6.690
  520SOL    HW2 2460   1.407   3.305   6.663
  521SOL     OW 2461   4.522   5.334   4.569
  521SOL    HW1 2462   4.589   5.311   4.498
  521SOL    HW2 2463   4.555   5.301   4.657
  522SOL     OW 2464   4.244   3.737   1.473
  522SOL    HW1 2465   4.310   3.669   1.443
  522SOL    HW2 2466   4.204   3.783   1.393
  523SOL     OW 2467   0.060   6.347   1.917
  523SOL    HW1 2468   7.013   6.309   1.860
  523SOL    HW2 2469   0.106   6.273   1.966
  524SOL     OW 2470   0.655   2.752   2.281
  524SOL    HW1 2471   0.695   2.664   2.307
  524SOL    HW2 2472   0.672   2.770   2.184
  525SOL     OW 2473   1.003   3.389   6.557
  525SOL    HW1 2474   0.999   3.303   6.606
  525SOL    HW2 2475   1.091   3.433   6.573
  526SOL     OW 2476   3.089   0.022   3.972
  526SOL    HW1 2477   3.092   0.083   3.893
  526SOL    HW2 2478   3.053   6.960   3.945
  527SOL     OW 2479   0.953   2.527   0.221
  527SOL    HW1 2480   0.934   2.581   0.303
  527SOL    HW2 2481   0.976   2.433   0.248
  528SOL     OW 2482   0.630   3.674   3.648
  528SOL    HW1 2483   0.671   3.735   3.580
  528SOL    HW2 2484   0.690   3.668   3.727
  529SOL     OW 2485   2.455   0.509   5.859
  529SOL    HW1 2486   2.520   0.584   5.875
  529SOL    HW2 2487   2.504   0.422   5.861
  530SOL     OW 2488   3.682   2.929   2.325
  530SOL    HW1 2489   3.728   2.933   2.413
  530SOL    HW2 2490   3.746   2.955   2.253
  531SOL     OW 2491   2.219   0.487   2.508
  531SOL    HW1 2492   2.149   0.558   2.521
  531SOL    HW2 2493   2.238   0.476   2.411
  532SOL     OW 2494   1.733   3.876   0.407
  532SOL    HW1 2495   1.760   3.856   0.313
  532SOL    HW2 2496   1.815   3.886   0.463
  533SOL     OW 2497   5.454   0.167   3.679
  533SOL    HW1 2498   5.362   0.134   3.659
  533SOL    HW2 2499   5.465   0.259   3.641
  534SOL     OW 2500   0.596   5.790   1.900
  534SOL    HW1 2501   0.599   5.809   1.998
  534SOL    HW2 2502   0.628   5.870   1.849
  535SOL     OW 2503   6.729   4.381   3.010
  535SOL    HW1 2504   6.781   4.395   3.094
  535SOL    HW2 2505   6.645   4.435   3.012
  536SOL     OW 2506   6.562   5.657   2.867
  536SOL    HW1 2507   6.627   5.695   2.932
  536SOL    HW2 2508   6.607   5.645   2.778
  537SOL     OW 2509   3.598   6.531   4.347
  537SOL    HW1 2510   3.593   6.595   4.423
  537SOL    HW2 2511   3.669   6.463   4.364
  538SOL     OW 2512   1.418   5.278   5.501
  538SOL    HW1 2513   1.478   5.358   5.502
  538SOL    HW2 2514   1.380   5.266   5.409
  539SOL     OW 2515   1.302   5.383   1.941
  539SOL    HW1 2516   1.208   5.398   1.972
  539SOL    HW2 2517   1.334   5.464   1.891
  540SOL     OW 2518   1.928   0.877   4.015
  540SOL    HW1 2519   2.018   0.886   3.972
  540SOL    HW2 2520   1.897   0.967   4.046
  541SOL     OW 2521   4.242   5.850   3.559
  541SOL    HW1 2522   4.210   5.876   3.650
  541SOL    HW2 2523   4.216   5.755   3.541
  542SOL     OW 2524   3.601   6.173   6.324
  542SOL    HW1 2525   3.602   6.092   6.383
  542SOL    HW2 2526   3.527   6.234   6.352
  543SOL     OW 2527   5.465   3.600   3.816
  543SOL    HW1 2528   5.483   3.623   3.721
  543SOL    HW2 2529   5.367   3.591   3.831
  544SOL     OW 2530   0.455   4.817   0.027
  544SOL    HW1 2531   0.412   4.736   7.013
  544SOL    HW2 2532   0.553   4.800   0.037
  545SOL     OW 2533   4.487   1.129   1.211
  545SOL    HW1 2534   4.409   1.189   1.230
  545SOL    HW2 2535   4.460   1.061   1.143
  546SOL     OW 2536   0.409   4.301   1.417
  546SOL    HW1 2537   0.393   4.390   1.374
  546SOL    HW2 2538   0.492   4.260   1.379
  547SOL     OW 2539   3.195   2.778   0.596
  547SOL    HW1 2540   3.184   2.808   0.690
  547SOL    HW2 2541   3.193   2.858   0.535
  548SOL     OW 2542   3.484   3.461   0.814
  548SOL    HW1 2543   3.499   3.364   0.830
  548SOL    HW2 2544   3.537   3.514   0.880
  549SOL     OW 2545   5.292   2.621   1.401
  549SOL    HW1 2546   5.358   2.567   1.349
  549SOL    HW2 2547   5.217   2.563   1.431
  550SOL     OW 2548   6.792   5.152   3.240
  550SOL    HW1 2549   6.867   5.089   3.222
  550SOL    HW2 2550   6.813   5.208   3.320
  551SOL     OW 2551   0.127   0.761   1.025
  551SOL    HW1 2552   0.220   0.749   0.991
  551SOL    HW2 2553   0.112   0.857   1.048
  552SOL     OW 2554   4.954   5.350   5.340
  552SOL    HW1 2555   5.037   5.297   5.357
  552SOL    HW2 2556   4.874   5.292   5.358
  553SOL     OW 2557   3.775   0.677   4.016
  553SOL    HW1 2558   3.773   0.580   4.038
  553SOL    HW2 2559   3.803   0.729   4.098
  554SOL     OW 2560   5.609   5.519   6.993
  554SOL    HW1 2561   5.652   5.559   0.047
  554SOL    HW2 2562   5.557   5.589   6.944
  555SOL     OW 2563   3.455   5.304   5.362
  555SOL    HW1 2564   3.361   5.271   5.350
  555SOL    HW2 2565   3.456   5.403   5.353
  556SOL     OW 2566   5.363   1.557   4.354
  556SOL    HW1 2567   5.388   1.645   4.395
  556SOL    HW2 2568   5.436   1.491   4.371
  557SOL     OW 2569   6.858   4.841   6.562
  557SOL    HW1 2570   6.769   4.877   6.532
  557SOL    HW2 2571   6.931   4.893   6.520
  558SOL     OW 2572   4.149   3.458   3.715
  558SOL    HW1 2573   4.071   3.403   3.746
  558SOL    HW2 2574   4.223   3.451   3.782
  559SOL     OW 2575   6.551   6.158   5.725
  559SOL    HW1 2576   6.483   6.229   5.703
  559SOL    HW2 2577   6.597   6.181   5.810
  560SOL     OW 2578   6.369   3.646   3.311
  560SOL    HW1 2579   6.274   3.653   3.281
  560SOL    HW2 2580   6.419   3.729   3.284
  561SOL     OW 2581   6.595   2.454   6.802
  561SOL    HW1 2582   6.663   2.461   6.729
  561SOL    HW2 2583   6.557   2.361   6.804
  562SOL     OW 2584   4.647   0.244   5.976
  562SOL    HW1 2585   4.563   0.188   5.977
  562SOL    HW2 2586   4.673   0.266   6.070
  563SOL     OW 2587   2.023   1.231   3.520
  563SOL    HW1 2588   1.950   1.174   3.482
  563SOL    HW2 2589   2.010   1.326   3.492
  564SOL     OW 2590   0.017   1.795   6.496
  564SOL    HW1 2591   6.956   1.754   6.471
  564SOL    HW2 2592   0.089   1.725   6.495
  565SOL     OW 2593   3.066   3.242   3.666
  565SOL    HW1 2594   3.032   3.222   3.758
  565SOL    HW2 2595   3.016   3.320   3.629
  566SOL     OW 2596   1.799   4.489   3.029
  566SOL    HW1 2597   1.795   4.459   3.124
  566SOL    HW2 2598   1.855   4.572   3.023
  567SOL     OW 2599   3.013   2.588   0.453
  567SOL    HW1 2600   3.087   2.645   0.490
  567SOL    HW2 2601   2.931   2.644   0.443
  568SOL     OW 2602   5.935   6.914   0.721
  568SOL    HW1 2603   5.891   6.945   0.805
  568SOL    HW2 2604   6.025   6.956   0.713
  569SOL     OW 2605   1.043   2.888   1.380
  569SOL    HW1 2606   1.080   2.825   1.311
  569SOL    HW2 2607   0.950   2.862   1.402
  570SOL     OW 2608   3.364   7.026   6.750
  570SOL    HW1 2609   3.308   0.066   6.799
  570SOL    HW2 2610   3.397   6.957   6.814
  571SOL     OW 2611   2.825   5.122   4.041
  571SOL    HW1 2612   2.828   5.023   4.037
  571SOL    HW2 2613   2.742   5.155   3.995
  572SOL     OW 2614   1.978   5.138   5.177
  572SOL    HW1 2615   1.951   5.220   5.228
  572SOL    HW2 2616   1.961   5.057   5.233
  573SOL     OW 2617   6.237   1.303   5.407
  573SOL    HW1 2618   6.227   1.207   5.380
  573SOL    HW2 2619   6.148   1.349   5.398
  574SOL     OW 2620   3.913   0.182   5.436
  574SOL    HW1 2621   3.830   0.151   5.483
  574SOL    HW2 2622   3.955   0.257   5.486
  575SOL     OW 2623   4.298   2.806   1.306
  575SOL    HW1 2624   4.319   2.829   1.211
  575SOL    HW2 2625   4.202   2.778   1.313
  576SOL     OW 2626   1.569   3.081   2.937
  576SOL    HW1 2627   1.556   3.142   3.015
  576SOL    HW2 2628   1.568   3.134   2.852
  577SOL     OW 2629   1.461   0.452   2.239
  577SOL    HW1 2630   1.427   0.505   2.317
  577SOL    HW2 2631   1.384   0.414   2.188
  578SOL     OW 2632   1.522   5.872   5.976
  578SOL    HW1 2633   1.506   5.792   6.035
  578SOL    HW2 2634   1.619   5.896   5.978
  579SOL     OW 2635   1.548   4.609   2.598
  579SOL    HW1 2636   1.612   4.568   2.532
  579SOL    HW2 2637   1.599   4.638   2.679
  580SOL     OW 2638   4.150   4.900   5.464
  580SOL    HW1 2639   4.139   4.884   5.562
  580SOL    HW2 2640   4.248   4.901   5.442
  581SOL     OW 2641   1.205   3.273   3.450
  581SOL    HW1 2642   1.223   3.286   3.547
  581SOL    HW2 2643   1.233   3.354   3.399
  582SOL     OW 2644   4.656   5.814   3.444
  582SOL    HW1 2645   4.723   5.798   3.516
  582SOL    HW2 2646   4.638   5.912   3.437
  583SOL     OW 2647   2.566   5.859   5.415
  583SOL    HW1 2648   2.636   5.845   5.344
  583SOL    HW2 2649   2.556   5.776   5.469
  584SOL     OW 2650   3.616   6.762   6.683
  584SOL    HW1 2651   3.571   6.745   6.595
  584SOL    HW2 2652   3.698   6.705   6.689
  585SOL     OW 2653   4.408   0.582   1.404
  585SOL    HW1 2654   4.443   0.664   1.358
  585SOL    HW2 2655   4.310   0.591   1.417
  586SOL     OW 2656   3.587   0.463   1.196
  586SOL    HW1 2657   3.596   0.542   1.256
  586SOL    HW2 2658   3.538   0.491   1.113
  587SOL     OW 2659   4.941   2.318   2.658
  587SOL    HW1 2660   5.027   2.342   2.613
  587SOL    HW2 2661   4.955   2.318   2.757
  588SOL     OW 2662   1.734   5.094   0.924
  588SOL    HW1 2663   1.798   5.039   0.977
  588SOL    HW2 2664   1.750   5.191   0.942
  589SOL     OW 2665   3.694   5.452   1.481
  589SOL    HW1 2666   3.683   5.360   1.519
  589SOL    HW2 2667   3.785   5.461   1.441
  590SOL     OW 2668   5.498   1.355   0.790
  590SOL    HW1 2669   5.537   1.373   0.880
  590SOL    HW2 2670   5.428   1.284   0.798
  591SOL     OW 2671   4.077   6.193   3.917
  591SOL    HW1 2672   4.132   6.133   3.974
  591SOL    HW2 2673   3.996   6.223   3.968
  592SOL     OW 2674   4.375   0.051   3.192
  592SOL    HW1 2675   4.463   0.034   3.237
  592SOL    HW2 2676   4.342   6.993   3.151
  593SOL     OW 2677   4.538   2.252   4.833
  593SOL    HW1 2678   4.492   2.169   4.866
  593SOL    HW2 2679   4.579   2.300   4.910
  594SOL     OW 2680   6.412   1.484   0.590
  594SOL    HW1 2681   6.331   1.467   0.535
  594SOL    HW2 2682   6.489   1.431   0.554
  595SOL     OW 2683   5.974   6.838   3.220
  595SOL    HW1 2684   5.930   6.771   3.161
  595SOL    HW2 2685   5.932   6.928   3.205
  596SOL     OW 2686   7.003   4.971   3.283
  596SOL    HW1 2687   0.049   4.988   3.350
  596SOL    HW2 2688   6.961   4.882   3.301
  597SOL     OW 2689   2.466   6.491   5.963
  597SOL    HW1 2690   2.485   6.566   5.900
  597SOL    HW2 2691   2.454   6.406   5.912
  598SOL     OW 2692   3.192   4.005   5.034
  598SOL    HW1 2693   3.281   3.998   4.987
  598SOL    HW2 2694   3.129   4.058   4.977
  599SOL     OW 2695   2.197   5.782   2.917
  599SOL    HW1 2696   2.275   5.725   2.889
  599SOL    HW2 2697   2.197   5.867   2.863
  600SOL     OW 2698   6.698   3.403   6.095
  600SOL    HW1 2699   6.631   3.329   6.097
  600SOL    HW2 2700   6.655   3.487   6.063
  601SOL     OW 2701   1.176   1.680   4.430
  601SOL    HW1 2702   1.094   1.677   4.373
  601SOL    HW2 2703   1.224   1.592   4.424
  602SOL     OW 2704   2.670   0.663   5.893
  602SOL    HW1 2705   2.725   0.734   5.937
  602SOL    HW2 2706   2.723   0.618   5.821
  603SOL     OW 2707   1.817   2.122   5.332
  603SOL    HW1 2708   1.852   2.180   5.406
  603SOL    HW2 2709   1.787   2.035   5.371
  604SOL     OW 2710   1.103   2.164   1.629
  604SOL    HW1 2711   1.033   2.092   1.624
  604SOL    HW2 2712   1.169   2.141   1.701
  605SOL     OW 2713   6.989   4.657   1.734
  605SOL    HW1 2714   0.050   4.658   1.782
  605SOL    HW2 2715   6.975   4.746   1.690
  606SOL     OW 2716   4.767   6.353   5.597
  606SOL    HW1 2717   4.691   6.296   5.566
  606SOL    HW2 2718   4.757   6.445   5.561
  607SOL     OW 2719   0.252   4.997   4.917
  607SOL    HW1 2720   0.184   4.928   4.939
  607SOL    HW2 2721   0.327   4.955   4.865
  608SOL     OW 2722   3.853   6.597   6.711
  608SOL    HW1 2723   3.920   6.669   6.698
  608SOL    HW2 2724   3.866   6.526   6.642
  609SOL     OW 2725   3.762   2.913   1.857
  609SOL    HW1 2726   3.745   3.007   1.887
  609SOL    HW2 2727   3.707   2.850   1.911
  610SOL     OW 2728   4.940   2.329   0.269
  610SOL    HW1 2729   4.955   2.428   0.268
  610SOL    HW2 2730   4.848   2.308   0.300
  611SOL     OW 2731   3.128   0.023   2.338
  611SOL    HW1 2732   3.183   0.010   2.421
  611SOL    HW2 2733   3.188   0.047   2.262
  612SOL     OW 2734   2.848   5.823   4.962
  612SOL    HW1 2735   2.936   5.795   4.999
  612SOL    HW2 2736   2.840   5.792   4.867
  613SOL     OW 2737   5.311   4.539   4.736
  613SOL    HW1 2738   5.337   4.538   4.640
  613SOL    HW2 2739   5.293   4.445   4.767
  614SOL     OW 2740   5.843   5.453   4.725
  614SOL    HW1 2741   5.857   5.456   4.823
  614SOL    HW2 2742   5.750   5.485   4.703
  615SOL     OW 2743   6.961   2.301   1.570
  615SOL    HW1 2744   7.002   2.316   1.661
  615SOL    HW2 2745   0.000   2.253   1.512
  616SOL     OW 2746   6.440   2.458   2.739
  616SOL    HW1 2747   6.367   2.460   2.670
  616SOL    HW2 2748   6.442   2.545   2.787
  617SOL     OW 2749   1.264   4.879   5.959
  617SOL    HW1 2750   1.357   4.867   5.926
  617SOL    HW2 2751   1.220   4.790   5.970
  618SOL     OW 2752   1.734   2.701   0.956
  618SOL    HW1 2753   1.779   2.674   1.042
  618SOL    HW2 2754   1.688   2.622   0.916
  619SOL     OW 2755   1.795   2.022   0.643
  619SOL    HW1 2756   1.705   2.061   0.623
  619SOL    HW2 2757   1.858   2.096   0.668
  620SOL     OW 2758   4.255   2.128   0.435
  620SOL    HW1 2759   4.316   2.182   0.378
  620SOL    HW2 2760   4.307   2.091   0.513
  621SOL     OW 2761   4.283   5.428   6.577
  621SOL    HW1 2762   4.367   5.429   6.522
  621SOL    HW2 2763   4.226   5.352   6.548
  622SOL     OW 2764   1.259   1.265   6.698
  622SOL    HW1 2765   1.234   1.217   6.783
  622SOL    HW2 2766   1.176   1.285   6.646
  623SOL     OW 2767   0.463   6.211   5.905
  623SOL    HW1 2768   0.481   6.113   5.917
  623SOL    HW2 2769   0.495   6.240   5.815
  624SOL     OW 2770   0.844   2.604   1.829
  624SOL    HW1 2771   0.932   2.574   1.791
  624SOL    HW2 2772   0.777   2.607   1.755
  625SOL     OW 2773   2.570   2.472   1.058
  625SOL    HW1 2774   2.514   2.481   1.140
  625SOL    HW2 2775   2.543   2.542   0.992
  626SOL     OW 2776   2.819   5.454   3.677
  626SOL    HW1 2777   2.883   5.463   3.601
  626SOL    HW2 2778   2.795   5.544   3.713
  627SOL     OW 2779   5.280   0.404   0.781
  627SOL    HW1 2780   5.221   0.451   0.846
  627SOL    HW2 2781   5.230   0.389   0.695
  628SOL     OW 2782   4.731   4.963   5.035
  628SOL    HW1 2783   4.787   4.911   4.971
  628SOL    HW2 2784   4.640   4.979   4.995
  629SOL     OW 2785   0.266   0.239   1.083
  629SOL    HW1 2786   0.346   0.253   1.140
  629SOL    HW2 2787   0.218   0.326   1.070
  630SOL     OW 2788   5.496   2.128   2.659
  630SOL    HW1 2789   5.462   2.219   2.681
  630SOL    HW2 2790   5.451   2.095   2.576
  631SOL     OW 2791   3.412   0.131   5.405
  631SOL    HW1 2792   3.315   0.114   5.423
  631SOL    HW2 2793   3.466   0.055   5.442
  632SOL     OW 2794   2.719   1.520   0.093
  632SOL    HW1 2795   2.815   1.532   0.118
  632SOL    HW2 2796   2.713   1.484   7.026
  633SOL     OW 2797   3.713   5.121   7.021
  633SOL    HW1 2798   3.729   5.204   6.967
  633SOL    HW2 2799   3.800   5.072   0.005
  634SOL     OW 2800   4.212   4.519   1.589
  634SOL    HW1 2801   4.194   4.426   1.621
  634SOL    HW2 2802   4.137   4.549   1.529
  635SOL     OW 2803   4.645   6.613   2.646
  635SOL    HW1 2804   4.607   6.624   2.554
  635SOL    HW2 2805   4.572   6.583   2.708
  636SOL     OW 2806   5.267   5.837   6.140
  636SOL    HW1 2807   5.202   5.791   6.200
  636SOL    HW2 2808   5.217   5.890   6.072
  637SOL     OW 2809   5.273   4.498   1.609
  637SOL    HW1 2810   5.335   4.436   1.657
  637SOL    HW2 2811   5.179   4.483   1.640
  638SOL     OW 2812   5.286   1.275   2.345
  638SOL    HW1 2813   5.231   1.213   2.401
  638SOL    HW2 2814   5.356   1.318   2.402
  639SOL     OW 2815   5.149   4.533   2.109
  639SOL    HW1 2816   5.061   4.517   2.064
  639SOL    HW2 2817   5.217   4.472   2.069
  640SOL     OW 2818   2.396   4.739   5.249
  640SOL    HW1 2819   2.343   4.823   5.251
  640SOL    HW2 2820   2.473   4.749   5.185
  641SOL     OW 2821   0.734   5.684   4.704
  641SOL    HW1 2822   0.701   5.598   4.743
  641SOL    HW2 2823   0.815   5.667   4.648
  642SOL     OW 2824   0.252   4.211   4.220
  642SOL    HW1 2825   0.273   4.118   4.249
  642SOL    HW2 2826   0.236   4.212   4.121
  643SOL     OW 2827   5.785   5.115   5.269
  643SOL    HW1 2828   5.758   5.025   5.303
  643SOL    HW2 2829   5.881   5.114   5.242
  644SOL     OW 2830   1.089   5.301   2.689
  644SOL    HW1 2831   1.008   5.252   2.657
  644SOL    HW2 2832   1.162   5.235   2.709
  645SOL     OW 2833   4.986   2.698   4.265
  645SOL    HW1 2834   4.896   2.734   4.287
  645SOL    HW2 2835   5.046   2.773   4.236
  646SOL     OW 2836   2.765   2.222   3.405
  646SOL    HW1 2837   2.855   2.230   3.450
  646SOL    HW2 2838   2.724   2.134   3.428
  647SOL     OW 2839   6.037   2.373   5.759
  647SOL    HW1 2840   6.024   2.375   5.858
  647SOL    HW2 2841   5.994   2.291   5.721
  648SOL     OW 2842   5.853   3.584   2.673
  648SOL    HW1 2843   5.894   3.617   2.587
  648SOL    HW2 2844   5.784   3.649   2.704
  649SOL     OW 2845   4.416   4.170   0.183
  649SOL    HW1 2846   4.472   4.091   0.158
  649SOL    HW2 2847   4.325   4.140   0.210
  650SOL     OW 2848   5.118   4.494   0.468
  650SOL    HW1 2849   5.177   4.561   0.423
  650SOL    HW2 2850   5.124   4.406   0.420
  651SOL     OW 2851   0.745   6.616   0.407
  651SOL    HW1 2852   0.705   6.527   0.385
  651SOL    HW2 2853   0.674   6.686   0.400
  652SOL     OW 2854   5.108   6.271   3.648
  652SOL    HW1 2855   5.061   6.350   3.610
  652SOL    HW2 2856   5.044   6.195   3.659
  653SOL     OW 2857   3.376   5.341   5.714
  653SOL    HW1 2858   3.386   5.438   5.696
  653SOL    HW2 2859   3.447   5.290   5.665
  654SOL     OW 2860   6.718   4.570   5.839
  654SOL    HW1 2861   6.725   4.526   5.749
  654SOL    HW2 2862   6.632   4.543   5.883
  655SOL     OW 2863   0.584   6.918   2.106
  655SOL    HW1 2864   0.535   6.930   2.192
  655SOL    HW2 2865   0.680   6.897   2.125
  656SOL     OW 2866   2.324   5.583   1.308
  656SOL    HW1 2867   2.341   5.546   1.399
  656SOL    HW2 2868   2.243   5.539   1.269
  657SOL     OW 2869   2.055   2.041   1.700
  657SOL    HW1 2870   2.121   1.980   1.743
  657SOL    HW2 2871   2.031   2.115   1.763
  658SOL     OW 2872   3.459   2.977   6.119
  658SOL    HW1 2873   3.529   3.041   6.088
  658SOL    HW2 2874   3.387   2.969   6.050
  659SOL     OW 2875   3.188   6.297   6.600
  659SOL    HW1 2876   3.192   6.197   6.594
  659SOL    HW2 2877   3.277   6.336   6.575
  660SOL     OW 2878   4.337   4.802   1.517
  660SOL    HW1 2879   4.350   4.703   1.522
  660SOL    HW2 2880   4.242   4.822   1.495
  661SOL     OW 2881   4.248   6.652   3.899
  661SOL    HW1 2882   4.323   6.649   3.965
  661SOL    HW2 2883   4.246   6.742   3.855
  662SOL     OW 2884   3.783   0.501   5.466
  662SOL    HW1 2885   3.729   0.431   5.511
  662SOL    HW2 2886   3.881   0.480   5.476
  663SOL     OW 2887   2.459   4.080   5.894
  663SOL    HW1 2888   2.429   3.988   5.918
  663SOL    HW2 2889   2.455   4.091   5.795
  664SOL     OW 2890   0.315   5.926   6.126
  664SOL    HW1 2891   0.373   5.927   6.045
  664SOL    HW2 2892   0.244   5.856   6.115
  665SOL     OW 2893   4.242   5.329   2.381
  665SOL    HW1 2894   4.195   5.418   2.380
  665SOL    HW2 2895   4.190   5.264   2.437
  666SOL     OW 2896   4.936   0.783   1.953
  666SOL    HW1 2897   4.973   0.870   1.987
  666SOL    HW2 2898   4.961   0.772   1.857
  667SOL     OW 2899   0.971   5.008   2.276
  667SOL    HW1 2900   0.888   5.010   2.332
  667SOL    HW2 2901   0.988   5.100   2.240
  668SOL     OW 2902   5.009   6.318   5.720
  668SOL    HW1 2903   4.914   6.310   5.689
  668SOL    HW2 2904   5.064   6.359   5.648
  669SOL     OW 2905   6.142   0.864   3.779
  669SOL    HW1 2906   6.160   0.962   3.787
  669SOL    HW2 2907   6.227   0.813   3.788
  670SOL     OW 2908   2.645   2.016   2.260
  670SOL    HW1 2909   2.727   1.961   2.247
  670SOL    HW2 2910   2.654   2.102   2.209
  671SOL     OW 2911   3.164   6.042   0.848
  671SOL    HW1 2912   3.072   6.037   0.808
  671SOL    HW2 2913   3.183   5.958   0.899
  672SOL     OW 2914   6.574   5.597   2.323
  672SOL    HW1 2915   6.536   5.506   2.308
  672SOL    HW2 2916   6.597   5.638   2.234
  673SOL     OW 2917   6.444   6.811   1.118
  673SOL    HW1 2918   6.422   6.771   1.206
  673SOL    HW2 2919   6.391   6.766   1.046
  674SOL     OW 2920   0.635   1.476   4.466
  674SOL    HW1 2921   0.699   1.522   4.528
  674SOL    HW2 2922   0.664   1.381   4.453
  675SOL     OW 2923   5.412   2.383   2.790
  675SOL    HW1 2924   5.373   2.352   2.876
  675SOL    HW2 2925   5.463   2.468   2.805
  676SOL     OW 2926   2.399   5.158   4.331
  676SOL    HW1 2927   2.428   5.065   4.309
  676SOL    HW2 2928   2.466   5.200   4.392
  677SOL     OW 2929   4.692   0.784   1.078
  677SOL    HW1 2930   4.740   0.784   1.166
  677SOL    HW2 2931   4.758   0.765   1.005
  678SOL     OW 2932   2.818   5.900   5.241
  678SOL    HW1 2933   2.890   5.838   5.272
  678SOL    HW2 2934   2.804   5.888   5.143
  679SOL     OW 2935   4.834   1.452   4.643
  679SOL    HW1 2936   4.839   1.537   4.697
  679SOL    HW2 2937   4.926   1.425   4.615
  680SOL     OW 2938   4.417   5.810   4.452
  680SOL    HW1 2939   4.398   5.712   4.459
  680SOL    HW2 2940   4.456   5.843   4.538
  681SOL     OW 2941   4.558   5.809   1.965
  681SOL    HW1 2942   4.587   5.829   1.871
  681SOL    HW2 2943   4.638   5.814   2.026
  682SOL     OW 2944   5.786   1.445   2.182
  682SOL    HW1 2945   5.803   1.479   2.089
  682SOL    HW2 2946   5.864   1.467   2.240
  683SOL     OW 2947   4.635   2.850   0.686
  683SOL    HW1 2948   4.609   2.758   0.717
  683SOL    HW2 2949   4.698   2.841   0.609
  684SOL     OW 2950   6.639   0.820   0.525
  684SOL    HW1 2951   6.663   0.803   0.430
  684SOL    HW2 2952   6.673   0.745   0.582
  685SOL     OW 2953   3.296   2.130   3.884
  685SOL    HW1 2954   3.232   2.055   3.900
  685SOL    HW2 2955   3.388   2.101   3.912
  686SOL     OW 2956   4.796   2.067   4.469
  686SOL    HW1 2957   4.801   1.979   4.423
  686SOL    HW2 2958   4.766   2.055   4.563
  687SOL     OW 2959   1.006   1.955   4.071
  687SOL    HW1 2960   0.995   1.957   3.972
  687SOL    HW2 2961   0.976   2.043   4.109
  688SOL     OW 2962   6.899   1.443   6.518
  688SOL    HW1 2963   6.828   1.384   6.479
  688SOL    HW2 2964   6.862   1.535   6.532
  689SOL     OW 2965   1.528   4.572   6.145
  689SOL    HW1 2966   1.490   4.580   6.237
  689SOL    HW2 2967   1.606   4.634   6.137
  690SOL     OW 2968   6.853   3.740   3.300
  690SOL    HW1 2969   6.856   3.640   3.311
  690SOL    HW2 2970   6.759   3.772   3.314
  691SOL     OW 2971   3.449   1.566   0.078
  691SOL    HW1 2972   3.387   1.502   0.123
  691SOL    HW2 2973   3.416   1.659   0.091
  692SOL     OW 2974   4.422   2.016   4.939
  692SOL    HW1 2975   4.339   2.067   4.963
  692SOL    HW2 2976   4.397   1.934   4.886
  693SOL     OW 2977   4.748   6.707   4.000
  693SOL    HW1 2978   4.664   6.663   3.968
  693SOL    HW2 2979   4.731   6.803   4.020
  694SOL     OW 2980   4.312   6.278   4.911
  694SOL    HW1 2981   4.261   6.283   4.997
  694SOL    HW2 2982   4.252   6.244   4.839
  695SOL     OW 2983   3.815   6.505   4.032
  695SOL    HW1 2984   3.797   6.413   4.068
  695SOL    HW2 2985   3.888   6.500   3.964
  696SOL     OW 2986   4.980   4.416   3.480
  696SOL    HW1 2987   5.030   4.482   3.424
  696SOL    HW2 2988   4.996   4.436   3.576
  697SOL     OW 2989   1.812   3.496   2.437
  697SOL    HW1 2990   1.796   3.509   2.339
  697SOL    HW2 2991   1.905   3.524   2.459
  698SOL     OW 2992   5.702   6.026   0.732
  698SOL    HW1 2993   5.712   5.933   0.697
  698SOL    HW2 2994   5.659   6.083   0.663
  699SOL     OW 2995   1.524   3.492   6.615
  699SOL    HW1 2996   1.610   3.443   6.608
  699SOL    HW2 2997   1.542   3.590   6.625
  700SOL     OW 2998   3.216   6.718   2.033
  700SOL    HW1 2999   3.187   6.809   2.004
  700SOL    HW2 3000   3.172   6.649   1.975
  701SOL     OW 3001   0.069   4.256   0.005
  701SOL    HW1 3002   0.037   4.268   6.938
  701SOL    HW2 3003   0.155   4.204   0.005
  702SOL     OW 3004   2.098   6.815   4.526
  702SOL    HW1 3005   2.106   6.870   4.443
  702SOL    HW2 3006   2.030   6.855   4.586
  703SOL     OW 3007   3.475   2.986   5.386
  703SOL    HW1 3008   3.563   3.027   5.408
  703SOL    HW2 3009   3.471   2.966   5.288
  704SOL     OW 3010   1.716   2.503   6.278
  704SOL    HW1 3011   1.625   2.491   6.238
  704SOL    HW2 3012   1.754   2.591   6.250
  705SOL     OW 3013   6.321   5.584   3.179
  705SOL    HW1 3014   6.367   5.657   3.129
  705SOL    HW2 3015   6.250   5.623   3.237
  706SOL     OW 3016   4.341   2.085   5.492
  706SOL    HW1 3017   4.429   2.114   5.532
  706SOL    HW2 3018   4.346   1.989   5.466
  707SOL     OW 3019   4.067   4.815   3.114
  707SOL    HW1 3020   4.086   4.725   3.076
  707SOL    HW2 3021   4.102   4.885   3.052
  708SOL     OW 3022   2.673   1.437   2.925
  708SOL    HW1 3023   2.756   1.424   2.871
  708SOL    HW2 3024   2.694   1.426   3.022
  709SOL     OW 3025   1.357   5.933   0.787
  709SOL    HW1 3026   1.273   5.940   0.734
  709SOL    HW2 3027   1.392   6.025   0.806
  710SOL     OW 3028   4.665   2.136   1.666
  710SOL    HW1 3029   4.598   2.107   1.598
  710SOL    HW2 3030   4.617   2.175   1.745
  711SOL     OW 3031   0.052   2.760   6.387
  711SOL    HW1 3032   0.123   2.811   6.436
  711SOL    HW2 3033   7.003   2.821   6.365
  712SOL     OW 3034   4.631   2.302   0.627
  712SOL    HW1 3035   4.539   2.276   0.657
  712SOL    HW2 3036   4.698   2.238   0.664
  713SOL     OW 3037   4.078   3.117   5.514
  713SOL    HW1 3038   4.141   3.184   5.473
  713SOL    HW2 3039   3.989   3.160   5.529
  714SOL     OW 3040   6.859   5.438   3.717
  714SOL    HW1 3041   6.919   5.416   3.794
  714SOL    HW2 3042   6.906   5.500   3.655
  715SOL     OW 3043   5.735   5.806   6.396
  715SOL    HW1 3044   5.652   5.847   6.359
  715SOL    HW2 3045   5.716   5.713   6.426
  716SOL     OW 3046   1.224   1.163   2.769
  716SOL    HW1 3047   1.314   1.149   2.727
  716SOL    HW2 3048   1.189   1.076   2.804
  717SOL     OW 3049   6.778   4.878   4.170
  717SOL    HW1 3050   6.836   4.924   4.103
  717SOL    HW2 3051   6.732   4.801   4.127
  718SOL     OW 3052   4.877   2.716   4.866
  718SOL    HW1 3053   4.900   2.697   4.770
  718SOL    HW2 3054   4.915   2.644   4.924
  719SOL     OW 3055   5.570   0.097   2.931
  719SOL    HW1 3056   5.530   0.081   3.021
  719SOL    HW2 3057   5.658   0.050   2.925
  720SOL     OW 3058   1.922   0.606   5.821
  720SOL    HW1 3059   1.992   0.542   5.791
  720SOL    HW2 3060   1.958   0.699   5.816
  721SOL     OW 3061   1.866   1.396   1.676
  721SOL    HW1 3062   1.930   1.324   1.651
  721SOL    HW2 3063   1.912   1.484   1.674
  722SOL     OW 3064   3.276   1.093   5.204
  722SOL    HW1 3065   3.318   1.099   5.295
  722SOL    HW2 3066   3.285   1.181   5.157
  723SOL     OW 3067   1.975   5.209   3.714
  723SOL    HW1 3068   2.043   5.144   3.679
  723SOL    HW2 3069   1.996   5.301   3.679
  724SOL     OW 3070   0.307   1.380   3.549
  724SOL    HW1 3071   0.364   1.432   3.486
  724SOL    HW2 3072   0.242   1.441   3.594
  725SOL     OW 3073   1.978   4.805   2.328
  725SOL    HW1 3074   1.891   4.841   2.295
  725SOL    HW2 3075   2.053   4.861   2.292
  726SOL     OW 3076   2.702   5.075   1.121
  726SOL    HW1 3077   2.606   5.049   1.129
  726SOL    HW2 3078   2.718   5.120   1.034
  727SOL     OW 3079   4.858   4.670   6.202
  727SOL    HW1 3080   4.847   4.615   6.120
  727SOL    HW2 3081   4.770   4.677   6.249
  728SOL     OW 3082   6.904   3.623   4.141
  728SOL    HW1 3083   6.922   3.655   4.234
  728SOL    HW2 3084   6.940   3.688   4.075
  729SOL     OW 3085   0.435   2.926   0.818
  729SOL    HW1 3086   0.494   2.956   0.743
  729SOL    HW2 3087   0.341   2.953   0.799
  730SOL     OW 3088   5.819   0.408   4.165
  730SOL    HW1 3089   5.773   0.456   4.091
  730SOL    HW2 3090   5.819   0.310   4.146
  731SOL     OW 3091   4.919   5.223   0.238
  731SOL    HW1 3092   4.942   5.282   0.316
  731SOL    HW2 3093   4.820   5.220   0.226
  732SOL     OW 3094   6.073   2.604   2.711
  732SOL    HW1 3095   6.094   2.655   2.795
  732SOL    HW2 3096   5.974   2.593   2.703
  733SOL     OW 3097   5.835   0.318   5.006
  733SOL    HW1 3098   5.841   0.327   5.105
  733SOL    HW2 3099   5.907   0.373   4.963
  734SOL     OW 3100   6.044   5.439   3.209
  734SOL    HW1 3101   5.977   5.481   3.270
  734SOL    HW2 3102   6.028   5.340   3.206
  735SOL     OW 3103   4.152   1.442   0.511
  735SOL    HW1 3104   4.160   1.427   0.412
  735SOL    HW2 3105   4.210   1.518   0.538
  736SOL     OW 3106   1.580   1.478   3.827
  736SOL    HW1 3107   1.532   1.472   3.914
  736SOL    HW2 3108   1.590   1.387   3.788
  737SOL     OW 3109   5.649   1.758   6.440
  737SOL    HW1 3110   5.596   1.676   6.422
  737SOL    HW2 3111   5.658   1.811   6.356
  738SOL     OW 3112   2.515   4.060   1.542
  738SOL    HW1 3113   2.437   3.998   1.542
  738SOL    HW2 3114   2.598   4.010   1.516
  739SOL     OW 3115   3.684   0.321   4.704
  739SOL    HW1 3116   3.713   0.382   4.778
  739SOL    HW2 3117   3.762   0.303   4.643
  740SOL     OW 3118   5.669   1.539   2.896
  740SOL    HW1 3119   5.724   1.500   2.822
  740SOL    HW2 3120   5.661   1.637   2.884
  741SOL     OW 3121   2.173   0.522   3.926
  741SOL    HW1 3122   2.136   0.434   3.957
  741SOL    HW2 3123   2.204   0.514   3.831
  742SOL     OW 3124   2.330   6.147   1.498
  742SOL    HW1 3125   2.356   6.234   1.456
  742SOL    HW2 3126   2.367   6.142   1.591
  743SOL     OW 3127   0.202   5.899   3.137
  743SOL    HW1 3128   0.187   5.806   3.104
  743SOL    HW2 3129   0.272   5.943   3.081
  744SOL     OW 3130   6.128   0.900   0.512
  744SOL    HW1 3131   6.119   0.993   0.548
  744SOL    HW2 3132   6.108   0.900   0.414
  745SOL     OW 3133   1.920   5.562   5.191
  745SOL    HW1 3134   2.012   5.592   5.217
  745SOL    HW2 3135   1.926   5.480   5.134
  746SOL     OW 3136   5.711   4.060   5.908
  746SOL    HW1 3137   5.618   4.070   5.874
  746SOL    HW2 3138   5.761   4.145   5.896
  747SOL     OW 3139   4.220   5.682   4.664
  747SOL    HW1 3140   4.262   5.611   4.608
  747SOL    HW2 3141   4.122   5.687   4.642
  748SOL     OW 3142   4.563   5.494   2.105
  748SOL    HW1 3143   4.554   5.399   2.136
  748SOL    HW2 3144   4.657   5.526   2.122
  749SOL     OW 3145   6.089   3.570   4.235
  749SOL    HW1 3146   6.055   3.556   4.142
  749SOL    HW2 3147   6.021   3.619   4.289
  750SOL     OW 3148   2.242   0.946   0.897
  750SOL    HW1 3149   2.261   1.023   0.957
  750SOL    HW2 3150   2.166   0.892   0.934
  751SOL     OW 3151   4.099   1.178   0.866
  751SOL    HW1 3152   4.127   1.121   0.789
  751SOL    HW2 3153   4.013   1.144   0.904
  752SOL     OW 3154   3.293   2.332   0.114
  752SOL    HW1 3155   3.299   2.240   0.153
  752SOL    HW2 3156   3.230   2.387   0.168
  753SOL     OW 3157   2.050   3.474   6.096
  753SOL    HW1 3158   1.977   3.531   6.059
  753SOL    HW2 3159   2.127   3.471   6.032
  754SOL     OW 3160   4.183   0.987   0.142
  754SOL    HW1 3161   4.098   1.027   0.179
  754SOL    HW2 3162   4.254   1.058   0.140
  755SOL     OW 3163   2.915   4.849   5.427
  755SOL    HW1 3164   2.837   4.873   5.485
  755SOL    HW2 3165   2.956   4.764   5.461
  756SOL     OW 3166   3.027   4.792   6.964
  756SOL    HW1 3167   3.072   4.841   6.889
  756SOL    HW2 3168   2.947   4.743   6.928
  757SOL     OW 3169   2.178   5.990   2.743
  757SOL    HW1 3170   2.259   5.967   2.689
  757SOL    HW2 3171   2.101   6.011   2.683
  758SOL     OW 3172   4.298   0.903   4.072
  758SOL    HW1 3173   4.331   0.812   4.046
  758SOL    HW2 3174   4.348   0.972   4.019
  759SOL     OW 3175   6.724   3.152   2.543
  759SOL    HW1 3176   6.809   3.199   2.517
  759SOL    HW2 3177   6.693   3.186   2.632
  760SOL     OW 3178   6.400   6.879   4.222
  760SOL    HW1 3179   6.456   6.801   4.248
  760SOL    HW2 3180   6.427   6.911   4.130
  761SOL     OW 3181   5.674   4.551   6.141
  761SOL    HW1 3182   5.608   4.542   6.066
  761SOL    HW2 3183   5.759   4.505   6.117
  762SOL     OW 3184   2.751   0.055   5.701
  762SOL    HW1 3185   2.802   0.004   5.770
  762SOL    HW2 3186   2.814   0.091   5.632
  763SOL     OW 3187   4.723   6.593   6.716
  763SOL    HW1 3188   4.699   6.653   6.639
  763SOL    HW2 3189   4.724   6.647   6.800
  764SOL     OW 3190   5.565   0.942   6.126
  764SOL    HW1 3191   5.488   0.916   6.068
  764SOL    HW2 3192   5.545   1.030   6.171
  765SOL     OW 3193   1.703   6.539   0.637
  765SOL    HW1 3194   1.634   6.595   0.684
  765SOL    HW2 3195   1.695   6.553   0.538
  766SOL     OW 3196   3.031   2.526   5.331
  766SOL    HW1 3197   2.976   2.450   5.364
  766SOL    HW2 3198   3.102   2.492   5.269
  767SOL     OW 3199   6.267   6.168   3.539
  767SOL    HW1 3200   6.183   6.203   3.582
  767SOL    HW2 3201   6.344   6.183   3.601
  768SOL     OW 3202   2.357   5.881   3.521
  768SOL    HW1 3203   2.389   5.796   3.562
  768SOL    HW2 3204   2.431   5.922   3.467
  769SOL     OW 3205   3.158   1.424   5.269
  769SOL    HW1 3206   3.185   1.394   5.177
  769SOL    HW2 3207   3.061   1.445   5.270
  770SOL     OW 3208   1.510   4.906   4.203
  770SOL    HW1 3209   1.535   4.826   4.258
  770SOL    HW2 3210   1.563   4.985   4.233
  771SOL     OW 3211   1.227   4.662   3.020
  771SOL    HW1 3212   1.262   4.749   2.985
  771SOL    HW2 3213   1.130   4.672   3.044
  772SOL     OW 3214   5.892   4.432   6.010
  772SOL    HW1 3215   5.911   4.379   5.928
  772SOL    HW2 3216   5.939   4.391   6.088
  773SOL     OW 3217   0.737   3.876   2.601
  773SOL    HW1 3218   0.767   3.912   2.513
  773SOL    HW2 3219   0.640   3.898   2.614
  774SOL     OW 3220   1.817   1.126   2.791
  774SOL    HW1 3221   1.767   1.209   2.769
  774SOL    HW2 3222   1.902   1.150   2.839
  775SOL     OW 3223   2.213   1.986   4.732
  775SOL    HW1 3224   2.195   2.082   4.751
  775SOL    HW2 3225   2.185   1.964   4.638
  776SOL     OW 3226   6.849   0.319   6.113
  776SOL    HW1 3227   6.798   0.336   6.197
  776SOL    HW2 3228   6.785   0.315   6.036
  777SOL     OW 3229   1.818   3.731   1.018
  777SOL    HW1 3230   1.766   3.648   0.999
  777SOL    HW2 3231   1.775   3.781   1.093
  778SOL     OW 3232   2.299   0.071   1.440
  778SOL    HW1 3233   2.241   0.151   1.422
  778SOL    HW2 3234   2.268   0.026   1.524
  779SOL     OW 3235   6.803   1.738   1.616
  779SOL    HW1 3236   6.789   1.777   1.525
  779SOL    HW2 3237   6.866   1.796   1.668
  780SOL     OW 3238   0.843   2.361   4.550
  780SOL    HW1 3239   0.930   2.346   4.505
  780SOL    HW2 3240   0.770   2.365   4.482
  781SOL     OW 3241   6.600   5.088   0.419
  781SOL    HW1 3242   6.536   5.121   0.350
  781SOL    HW2 3243   6.664   5.161   0.443
  782SOL     OW 3244   2.106   3.825   5.797
  782SOL    HW1 3245   2.201   3.800   5.812
  782SOL    HW2 3246   2.101   3.907   5.740
  783SOL     OW 3247   5.941   4.360   1.435
  783SOL    HW1 3248   5.986   4.416   1.366
  783SOL    HW2 3249   5.844   4.350   1.412
  784SOL     OW 3250   3.380   5.114   1.743
  784SOL    HW1 3251   3.315   5.189   1.758
  784SOL    HW2 3252   3.389   5.061   1.828
  785SOL     OW 3253   0.112   1.585   3.761
  785SOL    HW1 3254   0.126   1.608   3.665
  785SOL    HW2 3255   0.170   1.642   3.818
  786SOL     OW 3256   6.870   0.827   2.532
  786SOL    HW1 3257   6.770   0.820   2.542
  786SOL    HW2 3258   6.911   0.851   2.619
  787SOL     OW 3259   2.270   6.852   6.648
  787SOL    HW1 3260   2.205   6.914   6.605
  787SOL    HW2 3261   2.279   6.769   6.592
  788SOL     OW 3262   4.042   2.688   1.326
  788SOL    HW1 3263   4.047   2.636   1.411
  788SOL    HW2 3264   4.014   2.628   1.251
  789SOL     OW 3265   4.496   5.443   2.411
  789SOL    HW1 3266   4.406   5.421   2.374
  789SOL    HW2 3267   4.491   5.529   2.462
  790SOL     OW 3268   2.232   1.089   1.763
  790SOL    HW1 3269   2.198   1.182   1.746
  790SOL    HW2 3270   2.332   1.091   1.769
  791SOL     OW 3271   2.572   6.068   5.592
  791SOL    HW1 3272   2.553   6.006   5.516
  791SOL    HW2 3273   2.561   6.163   5.562
  792SOL     OW 3274   0.491   0.829   2.202
  792SOL    HW1 3275   0.533   0.761   2.143
  792SOL    HW2 3276   0.463   0.908   2.148
  793SOL     OW 3277   5.140   5.737   5.011
  793SOL    HW1 3278   5.126   5.660   5.073
  793SOL    HW2 3279   5.055   5.790   5.004
  794SOL     OW 3280   2.948   3.379   5.795
  794SOL    HW1 3281   2.961   3.468   5.752
  794SOL    HW2 3282   2.941   3.309   5.724
  795SOL     OW 3283   3.848   0.320   6.103
  795SOL    HW1 3284   3.907   0.400   6.095
  795SOL    HW2 3285   3.899   0.238   6.073
  796SOL     OW 3286   1.917   3.089   0.455
  796SOL    HW1 3287   1.923   3.003   0.505
  796SOL    HW2 3288   1.831   3.135   0.476
  797SOL     OW 3289   4.209   0.196   0.627
  797SOL    HW1 3290   4.275   0.172   0.555
  797SOL    HW2 3291   4.119   0.161   0.602
  798SOL     OW 3292   3.223   6.473   1.534
  798SOL    HW1 3293   3.313   6.516   1.538
  798SOL    HW2 3294   3.156   6.540   1.504
  799SOL     OW 3295   0.357   1.554   6.428
  799SOL    HW1 3296   0.286   1.533   6.495
  799SOL    HW2 3297   0.378   1.652   6.431
  800SOL     OW 3298   6.694   2.080   2.686
  800SOL    HW1 3299   6.752   2.009   2.725
  800SOL    HW2 3300   6.640   2.042   2.611
  801SOL     OW 3301   2.239   4.271   4.994
  801SOL    HW1 3302   2.332   4.306   4.982
  801SOL    HW2 3303   2.239   4.172   4.986
  802SOL     OW 3304   3.960   2.047   6.840
  802SOL    HW1 3305   3.884   2.090   6.791
  802SOL    HW2 3306   3.989   2.107   6.915
  803SOL     OW 3307   1.835   0.055   6.070
  803SOL    HW1 3308   1.922   0.042   6.023
  803SOL    HW2 3309   1.765   7.024   6.028
  804SOL     OW 3310   6.721   6.731   1.547
  804SOL    HW1 3311   6.756   6.670   1.475
  804SOL    HW2 3312   6.731   6.686   1.636
  805SOL     OW 3313   1.374   0.305   4.386
  805SOL    HW1 3314   1.458   0.345   4.423
  805SOL    HW2 3315   1.396   0.259   4.300
  806SOL     OW 3316   6.564   0.673   6.038
  806SOL    HW1 3317   6.597   0.758   6.079
  806SOL    HW2 3318   6.501   0.627   6.100
  807SOL     OW 3319   0.607   0.057   4.344
  807SOL    HW1 3320   0.539   0.005   4.293
  807SOL    HW2 3321   0.679   0.088   4.282
  808SOL     OW 3322   5.385   2.881   6.515
  808SOL    HW1 3323   5.409   2.825   6.595
  808SOL    HW2 3324   5.322   2.830   6.457
  809SOL     OW 3325   0.826   4.776   0.560
  809SOL    HW1 3326   0.749   4.729   0.516
  809SOL    HW2 3327   0.802   4.795   0.655
  810SOL     OW 3328   2.908   3.379   0.618
  810SOL    HW1 3329   2.959   3.333   0.691
  810SOL    HW2 3330   2.884   3.472   0.647
  811SOL     OW 3331   5.467   5.241   4.366
  811SOL    HW1 3332   5.447   5.271   4.459
  811SOL    HW2 3333   5.561   5.268   4.341
  812SOL     OW 3334   0.452   1.865   1.864
  812SOL    HW1 3335   0.413   1.826   1.948
  812SOL    HW2 3336   0.462   1.964   1.875
  813SOL     OW 3337   2.645   0.021   4.692
  813SOL    HW1 3338   2.742   0.006   4.672
  813SOL    HW2 3339   2.593   6.966   4.666
  814SOL     OW 3340   6.391   6.058   2.342
  814SOL    HW1 3341   6.349   6.077   2.431
  814SOL    HW2 3342   6.472   6.001   2.355
  815SOL     OW 3343   5.398   2.631   3.115
  815SOL    HW1 3344   5.434   2.710   3.165
  815SOL    HW2 3345   5.363   2.564   3.180
  816SOL     OW 3346   4.661   4.758   0.000
  816SOL    HW1 3347   4.651   4.849   6.986
  816SOL    HW2 3348   4.745   4.716   6.993
  817SOL     OW 3349   1.195   5.120   1.945
  817SOL    HW1 3350   1.255   5.055   1.992
  817SOL    HW2 3351   1.245   5.205   1.929
  818SOL     OW 3352   5.797   2.645   3.775
  818SOL    HW1 3353   5.840   2.604   3.856
  818SOL    HW2 3354   5.715   2.594   3.751
  819SOL     OW 3355   5.812   2.620   1.974
  819SOL    HW1 3356   5.742   2.549   1.979
  819SOL    HW2 3357   5.778   2.704   2.015
  820SOL     OW 3358   3.317   2.143   4.805
  820SOL    HW1 3359   3.227   2.185   4.793
  820SOL    HW2 3360   3.323   2.103   4.896
  821SOL     OW 3361   6.144   4.849   5.838
  821SOL    HW1 3362   6.062   4.791   5.844
  821SOL    HW2 3363   6.205   4.813   5.768
  822SOL     OW 3364   0.751   3.962   2.910
  822SOL    HW1 3365   0.747   3.957   3.009
  822SOL    HW2 3366   0.712   3.879   2.871
  823SOL     OW 3367   6.269   4.645   6.211
  823SOL    HW1 3368   6.207   4.705   6.261
  823SOL    HW2 3369   6.324   4.699   6.146
  824SOL     OW 3370   5.292   0.951   5.603
  824SOL    HW1 3371   5.239   1.036   5.610
  824SOL    HW2 3372   5.248   0.880   5.658
  825SOL     OW 3373   6.593   5.747   0.635
  825SOL    HW1 3374   6.533   5.676   0.597
  825SOL    HW2 3375   6.587   5.746   0.734
  826SOL     OW 3376   3.200   2.355   5.623
  826SOL    HW1 3377   3.159   2.446   5.629
  826SOL    HW2 3378   3.134   2.291   5.583
  827SOL     OW 3379   3.009   4.309   5.298
  827SOL    HW1 3380   2.965   4.346   5.380
  827SOL    HW2 3381   3.013   4.379   5.228
  828SOL     OW 3382   5.956   5.875   5.911
  828SOL    HW1 3383   5.911   5.819   5.980
  828SOL    HW2 3384   5.911   5.964   5.906
  829SOL     OW 3385   3.008   3.071   2.010
  829SOL    HW1 3386   2.957   3.005   2.065
  829SOL    HW2 3387   3.101   3.078   2.045
  830SOL     OW 3388   5.685   5.050   6.848
  830SOL    HW1 3389   5.779   5.015   6.842
  830SOL    HW2 3390   5.682   5.144   6.813
  831SOL     OW 3391   6.566   6.950   1.401
  831SOL    HW1 3392   6.627   6.959   1.323
  831SOL    HW2 3393   6.608   6.889   1.468
  832SOL     OW 3394   4.540   1.556   4.565
  832SOL    HW1 3395   4.510   1.605   4.483
  832SOL    HW2 3396   4.611   1.490   4.539
  833SOL     OW 3397   1.892   3.605   6.680
  833SOL    HW1 3398   1.861   3.614   6.585
  833SOL    HW2 3399   1.916   3.694   6.716
  834SOL     OW 3400   5.487   2.919   0.251
  834SOL    HW1 3401   5.432   2.991   0.208
  834SOL    HW2 3402   5.462   2.912   0.348
  835SOL     OW 3403   2.346   0.665   5.011
  835SOL    HW1 3404   2.348   0.710   5.100
  835SOL    HW2 3405   2.310   0.572   5.021
  836SOL     OW 3406   3.083   0.931   5.375
  836SOL    HW1 3407   3.137   0.993   5.319
  836SOL    HW2 3408   3.136   0.847   5.392
  837SOL     OW 3409   1.212   6.957   0.610
  837SOL    HW1 3410   1.215   0.030   0.599
  837SOL    HW2 3411   1.123   6.931   0.647
  838SOL     OW 3412   2.068   6.033   4.293
  838SOL    HW1 3413   2.073   6.120   4.342
  838SOL    HW2 3414   2.017   5.966   4.347
  839SOL     OW 3415   2.056   1.719   1.802
  839SOL    HW1 3416   2.082   1.667   1.883
  839SOL    HW2 3417   2.136   1.767   1.765
  840SOL     OW 3418   6.218   5.553   6.933
  840SOL    HW1 3419   6.131   5.504   6.933
  840SOL    HW2 3420   6.293   5.487   6.926
  841SOL     OW 3421   3.781   5.964   6.022
  841SOL    HW1 3422   3.875   5.943   6.050
  841SOL    HW2 3423   3.734   5.879   5.997
  842SOL     OW 3424   3.463   6.439   6.858
  842SOL    HW1 3425   3.390   6.477   6.916
  842SOL    HW2 3426   3.498   6.355   6.899
  843SOL     OW 3427   1.644   1.773   1.766
  843SOL    HW1 3428   1.586   1.812   1.837
  843SOL    HW2 3429   1.693   1.846   1.719
  844SOL     OW 3430   0.126   6.343   1.521
  844SOL    HW1 3431   0.032   6.348   1.554
  844SOL    HW2 3432   0.149   6.427   1.471
  845SOL     OW 3433   5.281   2.744   3.428
  845SOL    HW1 3434   5.261   2.646   3.434
  845SOL    HW2 3435   5.271   2.785   3.519
  846SOL     OW 3436   2.930   0.688   6.200
  846SOL    HW1 3437   3.013   0.633   6.188
  846SOL    HW2 3438   2.851   0.627   6.204
  847SOL     OW 3439   2.058   3.249   2.029
  847SOL    HW1 3440   2.123   3.322   2.010
  847SOL    HW2 3441   2.101   3.180   2.088
  848SOL     OW 3442   6.493   6.776   5.785
  848SOL    HW1 3443   6.514   6.838   5.709
  848SOL    HW2 3444   6.464   6.829   5.864
  849SOL     OW 3445   6.297   4.080   6.392
  849SOL    HW1 3446   6.247   4.158   6.428
  849SOL    HW2 3447   6.248   4.041   6.314
  850SOL     OW 3448   6.868   0.267   5.195
  850SOL    HW1 3449   6.901   0.361   5.208
  850SOL    HW2 3450   6.899   0.233   5.107
  851SOL     OW 3451   6.495   3.001   6.707
  851SOL    HW1 3452   6.572   3.060   6.731
  851SOL    HW2 3453   6.462   2.955   6.790
  852SOL     OW 3454   0.570   4.608   0.799
  852SOL    HW1 3455   0.485   4.567   0.832
  852SOL    HW2 3456   0.563   4.621   0.700
  853SOL     OW 3457   1.461   4.532   6.418
  853SOL    HW1 3458   1.424   4.446   6.384
  853SOL    HW2 3459   1.546   4.516   6.467
  854SOL     OW 3460   5.296   6.484   6.923
  854SOL    HW1 3461   5.396   6.477   6.931
  854SOL    HW2 3462   5.256   6.489   7.015
  855SOL     OW 3463   6.405   0.222   0.873
  855SOL    HW1 3464   6.407   0.321   0.886
  855SOL    HW2 3465   6.388   0.177   0.961
  856SOL     OW 3466   1.445   0.801   5.853
  856SOL    HW1 3467   1.530   0.763   5.817
  856SOL    HW2 3468   1.419   0.752   5.937
  857SOL     OW 3469   6.578   5.603   2.011
  857SOL    HW1 3470   6.578   5.503   2.012
  857SOL    HW2 3471   6.499   5.636   1.960
  858SOL     OW 3472   3.431   4.281   0.961
  858SOL    HW1 3473   3.399   4.343   1.033
  858SOL    HW2 3474   3.439   4.188   0.999
  859SOL     OW 3475   5.704   6.125   5.292
  859SOL    HW1 3476   5.743   6.086   5.376
  859SOL    HW2 3477   5.685   6.051   5.227
  860SOL     OW 3478   5.884   2.738   6.682
  860SOL    HW1 3479   5.808   2.730   6.618
  860SOL    HW2 3480   5.850   2.771   6.770
  861SOL     OW 3481   2.665   5.679   3.178
  861SOL    HW1 3482   2.708   5.701   3.265
  861SOL    HW2 3483   2.584   5.622   3.194
  862SOL     OW 3484   2.139   4.770   3.314
  862SOL    HW1 3485   2.192   4.718   3.380
  862SOL    HW2 3486   2.189   4.854   3.290
  863SOL     OW 3487   5.734   1.371   6.251
  863SOL    HW1 3488   5.753   1.314   6.330
  863SOL    HW2 3489   5.790   1.342   6.173
  864SOL     OW 3490   3.939   6.570   5.216
  864SOL    HW1 3491   4.012   6.613   5.270
  864SOL    HW2 3492   3.905   6.489   5.265
  865SOL     OW 3493   2.178   0.465   5.781
  865SOL    HW1 3494   2.130   0.378   5.773
  865SOL    HW2 3495   2.275   0.449   5.799
  866SOL     OW 3496   3.662   7.015   0.767
  866SOL    HW1 3497   3.625   7.026   0.675
  866SOL    HW2 3498   3.731   6.942   0.767
  867SOL     OW 3499   5.116   3.448   0.775
  867SOL    HW1 3500   5.127   3.383   0.850
  867SOL    HW2 3501   5.205   3.475   0.740
  868SOL     OW 3502   0.031   1.370   2.230
  868SOL    HW1 3503   0.106   1.347   2.167
  868SOL    HW2 3504   0.040   1.314   2.312
  869SOL     OW 3505   6.568   4.297   3.433
  869SOL    HW1 3506   6.578   4.396   3.420
  869SOL    HW2 3507   6.530   4.280   3.524
  870SOL     OW 3508   4.537   4.481   1.167
  870SOL    HW1 3509   4.599   4.402   1.164
  870SOL    HW2 3510   4.466   4.466   1.236
  871SOL     OW 3511   5.230   2.870   3.699
  871SOL    HW1 3512   5.329   2.881   3.707
  871SOL    HW2 3513   5.193   2.945   3.645
  872SOL     OW 3514   6.909   2.054   4.573
  872SOL    HW1 3515   6.833   2.081   4.513
  872SOL    HW2 3516   6.971   1.995   4.523
  873SOL     OW 3517   4.423   6.069   5.197
  873SOL    HW1 3518   4.337   6.018   5.205
  873SOL    HW2 3519   4.405   6.166   5.206
  874SOL     OW 3520   6.395   4.044   0.548
  874SOL    HW1 3521   6.400   4.060   0.449
  874SOL    HW2 3522   6.335   3.966   0.565
  875SOL     OW 3523   4.849   5.056   1.009
  875SOL    HW1 3524   4.830   5.027   0.915
  875SOL    HW2 3525   4.766   5.097   1.048
  876SOL     OW 3526   0.772   5.610   1.781
  876SOL    HW1 3527   0.785   5.528   1.837
  876SOL    HW2 3528   0.697   5.664   1.820
  877SOL     OW 3529   3.345   4.506   5.748
  877SOL    HW1 3530   3.374   4.416   5.778
  877SOL    HW2 3531   3.246   4.506   5.733
  878SOL     OW 3532   4.561   6.811   3.764
  878SOL    HW1 3533   4.654   6.844   3.777
  878SOL    HW2 3534   4.506   6.832   3.845
  879SOL     OW 3535   3.595   0.487   1.688
  879SOL    HW1 3536   3.590   0.586   1.703
  879SOL    HW2 3537   3.582   0.468   1.590
  880SOL     OW 3538   3.638   3.515   3.783
  880SOL    HW1 3539   3.616   3.609   3.808
  880SOL    HW2 3540   3.612   3.499   3.688
  881SOL     OW 3541   5.417   3.031   4.796
  881SOL    HW1 3542   5.380   2.997   4.710
  881SOL    HW2 3543   5.391   3.127   4.808
  882SOL     OW 3544   0.557   2.979   4.099
  882SOL    HW1 3545   0.502   2.971   4.183
  882SOL    HW2 3546   0.628   3.048   4.113
  883SOL     OW 3547   3.000   0.893   1.244
  883SOL    HW1 3548   3.046   0.864   1.328
  883SOL    HW2 3549   2.908   0.924   1.264
  884SOL     OW 3550   6.155   4.054   5.523
  884SOL    HW1 3551   6.140   3.971   5.468
  884SOL    HW2 3552   6.084   4.061   5.592
  885SOL     OW 3553   3.281   0.873   5.021
  885SOL    HW1 3554   3.271   0.949   5.085
  885SOL    HW2 3555   3.194   0.858   4.975
  886SOL     OW 3556   3.306   6.915   0.023
  886SOL    HW1 3557   3.376   6.974   0.064
  886SOL    HW2 3558   3.330   6.819   0.040
  887SOL     OW 3559   3.754   6.540   3.516
  887SOL    HW1 3560   3.713   6.530   3.606
  887SOL    HW2 3561   3.823   6.469   3.502
  888SOL     OW 3562   7.003   6.058   3.841
  888SOL    HW1 3563   6.925   5.998   3.821
  888SOL    HW2 3564   7.016   6.064   3.939
  889SOL     OW 3565   6.816   2.286   0.705
  889SOL    HW1 3566   6.876   2.212   0.676
  889SOL    HW2 3567   6.738   2.293   0.642
  890SOL     OW 3568   1.424   5.124   2.567
  890SOL    HW1 3569   1.373   5.152   2.485
  890SOL    HW2 3570   1.419   5.024   2.577
  891SOL     OW 3571   6.069   4.174   1.637
  891SOL    HW1 3572   6.135   4.246   1.661
  891SOL    HW2 3573   6.003   4.211   1.572
  892SOL     OW 3574   2.743   3.792   5.298
  892SOL    HW1 3575   2.643   3.788   5.302
  892SOL    HW2 3576   2.778   3.843   5.376
  893SOL     OW 3577   2.098   6.207   3.384
  893SOL    HW1 3578   2.038   6.259   3.445
  893SOL    HW2 3579   2.119   6.261   3.303
  894SOL     OW 3580   0.754   3.028   1.844
  894SOL    HW1 3581   0.845   2.988   1.851
  894SOL    HW2 3582   0.710   2.998   1.760
  895SOL     OW 3583   1.318   4.802   3.830
  895SOL    HW1 3584   1.280   4.777   3.919
  895SOL    HW2 3585   1.341   4.899   3.830
  896SOL     OW 3586   5.318   4.814   1.228
  896SOL    HW1 3587   5.315   4.746   1.155
  896SOL    HW2 3588   5.404   4.864   1.223
  897SOL     OW 3589   3.954   1.522   6.803
  897SOL    HW1 3590   4.029   1.482   6.856
  897SOL    HW2 3591   3.893   1.573   6.865
  898SOL     OW 3592   3.712   6.638   2.964
  898SOL    HW1 3593   3.617   6.619   2.992
  898SOL    HW2 3594   3.749   6.557   2.919
  899SOL     OW 3595   0.359   6.625   0.496
  899SOL    HW1 3596   0.327   6.540   0.454
  899SOL    HW2 3597   0.282   6.687   0.507
  900SOL     OW 3598   6.016   0.233   0.468
  900SOL    HW1 3599   6.049   0.242   0.562
  900SOL    HW2 3600   6.049   0.310   0.414
  901SOL     OW 3601   2.194   6.872   3.740
  901SOL    HW1 3602   2.201   6.970   3.757
  901SOL    HW2 3603   2.123   6.833   3.798
  902SOL     OW 3604   1.208   2.172   0.978
  902SOL    HW1 3605   1.211   2.131   0.887
  902SOL    HW2 3606   1.183   2.102   1.046
  903SOL     OW 3607   0.364   2.624   6.643
  903SOL    HW1 3608   0.288   2.602   6.582
  903SOL    HW2 3609   0.424   2.690   6.598
  904SOL     OW 3610   1.914   1.606   2.275
  904SOL    HW1 3611   1.861   1.533   2.233
  904SOL    HW2 3612   1.884   1.694   2.239
  905SOL     OW 3613   5.084   2.185   6.662
  905SOL    HW1 3614   5.030   2.241   6.599
  905SOL    HW2 3615   5.112   2.241   6.741
  906SOL     OW 3616   6.923   2.039   6.656
  906SOL    HW1 3617   6.985   1.974   6.700
  906SOL    HW2 3618   6.961   2.131   6.665
  907SOL     OW 3619   5.519   3.006   0.839
  907SOL    HW1 3620   5.597   2.945   0.826
  907SOL    HW2 3621   5.459   2.968   0.910
  908SOL     OW 3622   2.923   4.857   3.166
  908SOL    HW1 3623   2.860   4.781   3.153
  908SOL    HW2 3624   2.912   4.894   3.258
  909SOL     OW 3625   4.188   6.113   1.523
  909SOL    HW1 3626   4.152   6.132   1.432
  909SOL    HW2 3627   4.208   6.199   1.570
  910SOL     OW 3628   3.593   1.971   0.828
  910SOL    HW1 3629   3.505   1.961   0.782
  910SOL    HW2 3630   3.578   1.981   0.926
  911SOL     OW 3631   1.094   6.554   6.332
  911SOL    HW1 3632   1.043   6.562   6.246
  911SOL    HW2 3633   1.048   6.489   6.392
  912SOL     OW 3634   6.362   2.621   3.161
  912SOL    HW1 3635   6.461   2.628   3.150
  912SOL    HW2 3636   6.320   2.590   3.076
  913SOL     OW 3637   3.859   0.265   3.181
  913SOL    HW1 3638   3.902   0.322   3.112
  913SOL    HW2 3639   3.929   0.229   3.243
  914SOL     OW 3640   2.132   0.272   6.254
  914SOL    HW1 3641   2.068   0.315   6.191
  914SOL    HW2 3642   2.225   0.282   6.220
  915SOL     OW 3643   6.078   4.220   6.742
  915SOL    HW1 3644   6.134   4.138   6.752
  915SOL    HW2 3645   6.062   4.260   6.832
  916SOL     OW 3646   1.399   3.065   2.022
  916SOL    HW1 3647   1.431   3.121   2.099
  916SOL    HW2 3648   1.475   3.009   1.988
  917SOL     OW 3649   0.592   6.922   1.187
  917SOL    HW1 3650   0.592   6.823   1.176
  917SOL    HW2 3651   0.497   6.955   1.194
  918SOL     OW 3652   3.440   0.615   1.021
  918SOL    HW1 3653   3.363   0.644   0.965
  918SOL    HW2 3654   3.472   0.691   1.077
  919SOL     OW 3655   6.066   1.367   2.421
  919SOL    HW1 3656   6.129   1.417   2.361
  919SOL    HW2 3657   5.976   1.411   2.418
  920SOL     OW 3658   2.318   4.155   2.060
  920SOL    HW1 3659   2.331   4.184   1.966
  920SOL    HW2 3660   2.335   4.056   2.067
  921SOL     OW 3661   4.188   5.915   4.380
  921SOL    HW1 3662   4.119   5.880   4.442
  921SOL    HW2 3663   4.278   5.881   4.406
  922SOL     OW 3664   3.473   3.208   4.266
  922SOL    HW1 3665   3.527   3.206   4.182
  922SOL    HW2 3666   3.411   3.130   4.267
  923SOL     OW 3667   2.389   3.258   6.816
  923SOL    HW1 3668   2.455   3.183   6.819
  923SOL    HW2 3669   2.421   3.328   6.752
  924SOL     OW 3670   6.678   3.553   1.570
  924SOL    HW1 3671   6.633   3.584   1.654
  924SOL    HW2 3672   6.624   3.582   1.491
  925SOL     OW 3673   0.216   2.491   0.272
  925SOL    HW1 3674   0.253   2.400   0.288
  925SOL    HW2 3675   0.290   2.556   0.258
  926SOL     OW 3676   6.559   1.242   1.118
  926SOL    HW1 3677   6.580   1.303   1.042
  926SOL    HW2 3678   6.460   1.226   1.122
  927SOL     OW 3679   5.617   3.636   3.359
  927SOL    HW1 3680   5.601   3.595   3.268
  927SOL    HW2 3681   5.686   3.582   3.407
  928SOL     OW 3682   2.076   5.914   0.244
  928SOL    HW1 3683   2.167   5.935   0.208
  928SOL    HW2 3684   2.067   5.815   0.257
  929SOL     OW 3685   0.524   0.699   6.971
  929SOL    HW1 3686   0.604   0.662   6.924
  929SOL    HW2 3687   0.463   0.742   6.904
  930SOL     OW 3688   5.500   6.959   6.366
  930SOL    HW1 3689   5.557   0.012   6.386
  930SOL    HW2 3690   5.484   6.955   6.267
  931SOL     OW 3691   6.797   1.083   4.504
  931SOL    HW1 3692   6.833   1.173   4.528
  931SOL    HW2 3693   6.783   1.078   4.405
  932SOL     OW 3694   2.647   0.923   3.117
  932SOL    HW1 3695   2.733   0.874   3.101
  932SOL    HW2 3696   2.579   0.860   3.155
  933SOL     OW 3697   1.470   4.663   3.147
  933SOL    HW1 3698   1.503   4.727   3.077
  933SOL    HW2 3699   1.371   4.649   3.135
  934SOL     OW 3700   2.447   5.700   6.495
  934SOL    HW1 3701   2.429   5.710   6.592
  934SOL    HW2 3702   2.525   5.758   6.469
  935SOL     OW 3703   5.024   4.343   4.257
  935SOL    HW1 3704   5.004   4.370   4.351
  935SOL    HW2 3705   5.072   4.417   4.210
  936SOL     OW 3706   0.840   7.011   6.072
  936SOL    HW1 3707   0.760   6.984   6.124
  936SOL    HW2 3708   0.867   6.936   6.011
  937SOL     OW 3709   5.818   1.596   6.709
  937SOL    HW1 3710   5.877   1.518   6.690
  937SOL    HW2 3711   5.738   1.593   6.649
  938SOL     OW 3712   6.058   5.185   5.213
  938SOL    HW1 3713   6.071   5.275   5.172
  938SOL    HW2 3714   6.125   5.171   5.285
  939SOL     OW 3715   0.178   6.899   3.840
  939SOL    HW1 3716   0.169   6.822   3.777
  939SOL    HW2 3717   0.149   6.983   3.795
  940SOL     OW 3718   0.724   3.516   0.583
  940SOL    HW1 3719   0.764   3.482   0.497
  940SOL    HW2 3720   0.739   3.615   0.590
  941SOL     OW 3721   5.932   0.678   0.628
  941SOL    HW1 3722   5.884   0.763   0.650
  941SOL    HW2 3723   5.973   0.685   0.538
  942SOL     OW 3724   5.625   0.350   2.354
  942SOL    HW1 3725   5.703   0.313   2.405
  942SOL    HW2 3726   5.556   0.279   2.343
  943SOL     OW 3727   1.400   4.831   2.530
  943SOL    HW1 3728   1.460   4.752   2.517
  943SOL    HW2 3729   1.311   4.811   2.490
  944SOL     OW 3730   0.297   5.822   5.405
  944SOL    HW1 3731   0.369   5.875   5.451
  944SOL    HW2 3732   0.324   5.805   5.310
  945SOL     OW 3733   0.487   4.973   6.097
  945SOL    HW1 3734   0.442   5.008   6.014
  945SOL    HW2 3735   0.418   4.928   6.155
  946SOL     OW 3736   4.962   4.097   5.079
  946SOL    HW1 3737   4.940   4.027   5.146
  946SOL    HW2 3738   4.900   4.088   5.000
  947SOL     OW 3739   3.549   3.313   3.588
  947SOL    HW1 3740   3.622   3.313   3.657
  947SOL    HW2 3741   3.473   3.256   3.620
  948SOL     OW 3742   4.627   1.061   2.867
  948SOL    HW1 3743   4.572   1.018   2.939
  948SOL    HW2 3744   4.624   1.160   2.878
  949SOL     OW 3745   3.072   5.691   0.181
  949SOL    HW1 3746   3.012   5.762   0.144
  949SOL    HW2 3747   3.039   5.601   0.154
  950SOL     OW 3748   6.167   5.687   2.432
  950SOL    HW1 3749   6.214   5.641   2.507
  950SOL    HW2 3750   6.182   5.637   2.347
  951SOL     OW 3751   1.127   6.974   3.984
  951SOL    HW1 3752   1.120   0.034   4.035
  951SOL    HW2 3753   1.117   6.993   3.886
  952SOL     OW 3754   4.719   2.594   2.744
  952SOL    HW1 3755   4.702   2.611   2.647
  952SOL    HW2 3756   4.754   2.677   2.787
  953SOL     OW 3757   5.782   5.033   4.512
  953SOL    HW1 3758   5.683   5.026   4.501
  953SOL    HW2 3759   5.820   5.095   4.443
  954SOL     OW 3760   3.653   5.987   2.354
  954SOL    HW1 3761   3.715   5.922   2.398
  954SOL    HW2 3762   3.682   6.001   2.259
  955SOL     OW 3763   1.858   4.414   0.365
  955SOL    HW1 3764   1.949   4.403   0.406
  955SOL    HW2 3765   1.840   4.511   0.351
  956SOL     OW 3766   6.546   0.811   1.791
  956SOL    HW1 3767   6.546   0.832   1.889
  956SOL    HW2 3768   6.605   0.733   1.774
  957SOL     OW 3769   5.575   2.324   1.931
  957SOL    HW1 3770   5.481   2.355   1.940
  957SOL    HW2 3771   5.618   2.369   1.853
  958SOL     OW 3772   4.021   6.560   1.442
  958SOL    HW1 3773   3.935   6.607   1.420
  958SOL    HW2 3774   4.095   6.628   1.446
  959SOL     OW 3775   3.232   6.842   5.276
  959SOL    HW1 3776   3.316   6.825   5.224
  959SOL    HW2 3777   3.192   6.929   5.247
  960SOL     OW 3778   1.383   0.132   1.027
  960SOL    HW1 3779   1.466   0.134   0.973
  960SOL    HW2 3780   1.384   0.052   1.087
  961SOL     OW 3781   4.303   6.221   3.217
  961SOL    HW1 3782   4.347   6.261   3.137
  961SOL    HW2 3783   4.208   6.252   3.221
  962SOL     OW 3784   6.586   1.044   4.671
  962SOL    HW1 3785   6.664   1.075   4.618
  962SOL    HW2 3786   6.540   0.970   4.622
  963SOL     OW 3787   4.419   0.821   0.450
  963SOL    HW1 3788   4.326   0.810   0.413
  963SOL    HW2 3789   4.414   0.860   0.541
  964SOL     OW 3790   5.002   5.058   5.907
  964SOL    HW1 3791   5.036   5.143   5.867
  964SOL    HW2 3792   5.078   5.006   5.945
  965SOL     OW 3793   6.280   1.652   2.712
  965SOL    HW1 3794   6.284   1.574   2.649
  965SOL    HW2 3795   6.306   1.735   2.663
  966SOL     OW 3796   5.855   2.984   3.298
  966SOL    HW1 3797   5.913   2.904   3.281
  966SOL    HW2 3798   5.911   3.061   3.326
  967SOL     OW 3799   2.894   4.896   0.148
  967SOL    HW1 3800   2.924   4.888   0.053
  967SOL    HW2 3801   2.831   4.822   0.170
  968SOL     OW 3802   3.863   6.541   1.679
  968SOL    HW1 3803   3.777   6.500   1.647
  968SOL    HW2 3804   3.937   6.515   1.617
  969SOL     OW 3805   2.490   4.862   6.099
  969SOL    HW1 3806   2.508   4.783   6.157
  969SOL    HW2 3807   2.439   4.832   6.018
  970SOL     OW 3808   5.495   0.454   6.281
  970SOL    HW1 3809   5.477   0.363   6.244
  970SOL    HW2 3810   5.584   0.454   6.328
  971SOL     OW 3811   6.860   3.450   2.702
  971SOL    HW1 3812   6.848   3.541   2.662
  971SOL    HW2 3813   6.914   3.457   2.786
  972SOL     OW 3814   6.364   1.996   1.920
  972SOL    HW1 3815   6.337   1.948   2.003
  972SOL    HW2 3816   6.368   2.095   1.939
  973SOL     OW 3817   1.058   5.770   6.598
  973SOL    HW1 3818   0.989   5.758   6.526
  973SOL    HW2 3819   1.034   5.712   6.676
  974SOL     OW 3820   0.365   5.792   2.169
  974SOL    HW1 3821   0.383   5.884   2.136
  974SOL    HW2 3822   0.450   5.739   2.169
  975SOL     OW 3823   2.248   0.101   6.841
  975SOL    HW1 3824   2.306   0.021   6.857
  975SOL    HW2 3825   2.193   0.087   6.758
  976SOL     OW 3826   0.036   3.607   1.265
  976SOL    HW1 3827   0.062   3.692   1.219
  976SOL    HW2 3828   7.024   3.628   1.355
  977SOL     OW 3829   0.745   0.459   2.462
  977SOL    HW1 3830   0.826   0.462   2.403
  977SOL    HW2 3831   0.665   0.492   2.412
  978SOL     OW 3832   5.234   1.651   1.391
  978SOL    HW1 3833   5.294   1.629   1.315
  978SOL    HW2 3834   5.207   1.747   1.386
  979SOL     OW 3835   0.627   3.224   7.016
  979SOL    HW1 3836   0.609   3.235   6.918
  979SOL    HW2 3837   0.622   3.128   0.014
  980SOL     OW 3838   4.428   1.704   4.351
  980SOL    HW1 3839   4.449   1.738   4.259
  980SOL    HW2 3840   4.457   1.772   4.419
  981SOL     OW 3841   0.367   0.922   4.728
  981SOL    HW1 3842   0.459   0.925   4.688
  981SOL    HW2 3843   0.306   0.872   4.668
  982SOL     OW 3844   1.074   1.702   5.286
  982SOL    HW1 3845   1.148   1.704   5.353
  982SOL    HW2 3846   1.112   1.682   5.195
  983SOL     OW 3847   6.985   3.478   2.958
  983SOL    HW1 3848   0.026   3.420   3.003
  983SOL    HW2 3849   6.941   3.537   3.026
  984SOL     OW 3850   1.861   2.490   3.117
  984SOL    HW1 3851   1.861   2.527   3.210
  984SOL    HW2 3852   1.954   2.465   3.092
  985SOL     OW 3853   6.714   4.104   4.112
  985SOL    HW1 3854   6.795   4.068   4.066
  985SOL    HW2 3855   6.739   4.138   4.203
  986SOL     OW 3856   4.542   4.981   1.518
  986SOL    HW1 3857   4.511   4.887   1.508
  986SOL    HW2 3858   4.462   5.042   1.524
  987SOL     OW 3859   4.873   6.188   2.249
  987SOL    HW1 3860   4.907   6.195   2.343
  987SOL    HW2 3861   4.935   6.237   2.188
  988SOL     OW 3862   3.424   3.903   1.745
  988SOL    HW1 3863   3.516   3.887   1.710
  988SOL    HW2 3864   3.416   3.997   1.776
  989SOL     OW 3865   6.486   1.532   0.169
  989SOL    HW1 3866   6.528   1.611   0.215
  989SOL    HW2 3867   6.546   1.453   0.178
  990SOL     OW 3868   3.273   0.948   2.191
  990SOL    HW1 3869   3.298   0.894   2.271
  990SOL    HW2 3870   3.206   0.898   2.136
  991SOL     OW 3871   0.272   4.215   3.876
  991SOL    HW1 3872   0.369   4.239   3.882
  991SOL    HW2 3873   0.261   4.116   3.877
  992SOL     OW 3874   0.061   2.990   1.024
  992SOL    HW1 3875   6.996   3.027   1.042
  992SOL    HW2 3876   0.126   3.066   1.014
  993SOL     OW 3877   0.260   3.968   0.194
  993SOL    HW1 3878   0.178   3.987   0.249
  993SOL    HW2 3879   0.232   3.931   0.105
  994SOL     OW 3880   3.947   5.213   2.074
  994SOL    HW1 3881   3.889   5.153   2.020
  994SOL    HW2 3882   3.890   5.282   2.120
  995SOL     OW 3883   4.308   2.925   6.166
  995SOL    HW1 3884   4.290   2.930   6.264
  995SOL    HW2 3885   4.261   2.999   6.119
  996SOL     OW 3886   3.347   5.150   5.008
  996SOL    HW1 3887   3.399   5.119   4.928
  996SOL    HW2 3888   3.308   5.070   5.055
  997SOL     OW 3889   0.663   6.788   3.326
  997SOL    HW1 3890   0.694   6.695   3.307
  997SOL    HW2 3891   0.565   6.795   3.305
  998SOL     OW 3892   6.360   0.289   5.912
  998SOL    HW1 3893   6.269   0.246   5.913
  998SOL    HW2 3894   6.388   0.304   5.817
  999SOL     OW 3895   4.811   3.637   1.682
  999SOL    HW1 3896   4.728   3.582   1.693
  999SOL    HW2 3897   4.886   3.578   1.651
 1000SOL     OW 3898   4.371   1.730   1.383
 1000SOL    HW1 3899   4.410   1.777   1.461
 1000SOL    HW2 3900   4.278   1.764   1.366
 1001SOL     OW 3901   3.812   5.701   1.587
 1001SOL    HW1 3902   3.776   5.716   1.495
 1001SOL    HW2 3903   3.886   5.766   1.605
 1002SOL     OW 3904   5.481   2.405   1.371
 1002SOL    HW1 3905   5.548   2.358   1.428
 1002SOL    HW2 3906   5.477   2.360   1.282
 1003SOL     OW 3907   2.221   5.981   3.186
 1003SOL    HW1 3908   2.238   6.017   3.094
 1003SOL    HW2 3909   2.186   6.054   3.244
 1004SOL     OW 3910   0.051   0.772   2.328
 1004SOL    HW1 3911   7.011   0.788   2.400
 1004SOL    HW2 3912   0.143   0.793   2.362
 1005SOL     OW 3913   1.587   3.766   3.667
 1005SOL    HW1 3914   1.592   3.812   3.579
 1005SOL    HW2 3915   1.675   3.725   3.689
 1006SOL     OW 3916   1.557   3.738   0.205
 1006SOL    HW1 3917   1.505   3.754   0.289
 1006SOL    HW2 3918   1.528   3.652   0.163
 1007SOL     OW 3919   4.884   0.770   5.885
 1007SOL    HW1 3920   4.886   0.863   5.848
 1007SOL    HW2 3921   4.978   0.737   5.897
 1008SOL     OW 3922   7.014   2.990   5.273
 1008SOL    HW1 3923   0.061   2.937   5.315
 1008SOL    HW2 3924   6.994   2.953   5.182
 1009SOL     OW 3925   6.409   4.508   5.616
 1009SOL    HW1 3926   6.447   4.542   5.530
 1009SOL    HW2 3927   6.454   4.421   5.640
 1010SOL     OW 3928   2.777   2.617   1.269
 1010SOL    HW1 3929   2.710   2.547   1.294
 1010SOL    HW2 3930   2.756   2.651   1.177
 1011SOL     OW 3931   0.815   5.433   3.294
 1011SOL    HW1 3932   0.866   5.356   3.332
 1011SOL    HW2 3933   0.717   5.414   3.299
 1012SOL     OW 3934   6.829   6.241   2.081
 1012SOL    HW1 3935   6.862   6.163   2.135
 1012SOL    HW2 3936   6.857   6.326   2.126
 1013SOL     OW 3937   0.064   1.214   6.556
 1013SOL    HW1 3938   0.028   1.307   6.564
 1013SOL    HW2 3939   0.003   1.150   6.602
 1014SOL     OW 3940   0.328   3.818   5.006
 1014SOL    HW1 3941   0.369   3.908   5.025
 1014SOL    HW2 3942   0.304   3.813   4.909
 1015SOL     OW 3943   2.485   0.674   6.134
 1015SOL    HW1 3944   2.393   0.636   6.117
 1015SOL    HW2 3945   2.526   0.700   6.046
 1016SOL     OW 3946   4.629   5.137   1.112
 1016SOL    HW1 3947   4.602   5.203   1.182
 1016SOL    HW2 3948   4.625   5.045   1.149
 1017SOL     OW 3949   3.344   1.883   1.200
 1017SOL    HW1 3950   3.295   1.934   1.271
 1017SOL    HW2 3951   3.406   1.944   1.151
 1018SOL     OW 3952   0.744   4.666   4.036
 1018SOL    HW1 3953   0.739   4.566   4.039
 1018SOL    HW2 3954   0.821   4.693   3.978
 1019SOL     OW 3955   0.150   5.383   0.778
 1019SOL    HW1 3956   0.175   5.479   0.793
 1019SOL    HW2 3957   0.166   5.331   0.862
 1020SOL     OW 3958   6.152   1.355   1.265
 1020SOL    HW1 3959   6.117   1.316   1.351
 1020SOL    HW2 3960   6.157   1.454   1.273
 1021SOL     OW 3961   5.925   6.678   1.935
 1021SOL    HW1 3962   5.878   6.762   1.963
 1021SOL    HW2 3963   6.024   6.692   1.940
 1022SOL     OW 3964   3.011   5.117   5.487
 1022SOL    HW1 3965   3.087   5.129   5.552
 1022SOL    HW2 3966   2.992   5.020   5.475
 1023SOL     OW 3967   0.277   0.624   3.121
 1023SOL    HW1 3968   0.273   0.671   3.209
 1023SOL    HW2 3969   0.186   0.622   3.080
 1024SOL     OW 3970   0.668   1.748   4.123
 1024SOL    HW1 3971   0.599   1.676   4.137
 1024SOL    HW2 3972   0.716   1.731   4.037
 1025SOL     OW 3973   4.371   3.248   0.429
 1025SOL    HW1 3974   4.280   3.225   0.394
 1025SOL    HW2 3975   4.438   3.243   0.355
 1026SOL     OW 3976   2.946   2.974   1.611
 1026SOL    HW1 3977   2.938   2.909   1.535
 1026SOL    HW2 3978   2.979   2.926   1.692
 1027SOL     OW 3979   2.121   0.132   1.843
 1027SOL    HW1 3980   2.208   0.143   1.794
 1027SOL    HW2 3981   2.083   0.042   1.824
 1028SOL     OW 3982   1.362   6.681   2.995
 1028SOL    HW1 3983   1.441   6.689   2.934
 1028SOL    HW2 3984   1.300   6.757   2.979
 1029SOL     OW 3985   1.145   2.136   5.915
 1029SOL    HW1 3986   1.063   2.087   5.886
 1029SOL    HW2 3987   1.124   2.190   5.996
 1030SOL     OW 3988   3.271   3.257   1.712
 1030SOL    HW1 3989   3.305   3.164   1.702
 1030SOL    HW2 3990   3.181   3.256   1.754
 1031SOL     OW 3991   4.840   3.462   1.088
 1031SOL    HW1 3992   4.914   3.517   1.048
 1031SOL    HW2 3993   4.754   3.486   1.044
 1032SOL     OW 3994   2.207   1.540   5.657
 1032SOL    HW1 3995   2.196   1.571   5.751
 1032SOL    HW2 3996   2.301   1.509   5.643
 1033SOL     OW 3997   1.537   5.706   2.013
 1033SOL    HW1 3998   1.488   5.663   1.937
 1033SOL    HW2 3999   1.519   5.804   2.013
 1034SOL     OW 4000   1.253   5.769   4.337
 1034SOL    HW1 4001   1.215   5.850   4.293
 1034SOL    HW2 4002   1.265   5.697   4.269
 1035SOL     OW 4003   0.133   2.173   6.793
 1035SOL    HW1 4004   0.189   2.105   6.839
 1035SOL    HW2 4005   0.191   2.241   6.749
 1036SOL     OW 4006   3.925   1.319   1.684
 1036SOL    HW1 4007   3.939   1.232   1.637
 1036SOL    HW2 4008   3.843   1.363   1.649
 1037SOL     OW 4009   1.423   1.421   3.240
 1037SOL    HW1 4010   1.393   1.513   3.265
 1037SOL    HW2 4011   1.358   1.382   3.175
 1038SOL     OW 4012   1.758   1.236   5.674
 1038SOL    HW1 4013   1.740   1.308   5.741
 1038SOL    HW2 4014   1.723   1.264   5.585
 1039SOL     OW 4015   3.239   3.484   4.297
 1039SOL    HW1 4016   3.289   3.400   4.317
 1039SOL    HW2 4017   3.142   3.470   4.312
 1040SOL     OW 4018   5.010   1.069   1.997
 1040SOL    HW1 4019   4.935   1.124   2.034
 1040SOL    HW2 4020   5.026   1.096   1.902
 1041SOL     OW 4021   6.918   6.379   3.546
 1041SOL    HW1 4022   6.990   6.381   3.615
 1041SOL    HW2 4023   6.829   6.368   3.591
 1042SOL     OW 4024   4.640   5.458   2.836
 1042SOL    HW1 4025   4.614   5.397   2.910
 1042SOL    HW2 4026   4.732   5.494   2.853
 1043SOL     OW 4027   3.754   2.032   3.777
 1043SOL    HW1 4028   3.687   2.046   3.704
 1043SOL    HW2 4029   3.822   1.965   3.748
 1044SOL     OW 4030   5.858   5.378   2.006
 1044SOL    HW1 4031   5.906   5.465   2.009
 1044SOL    HW2 4032   5.880   5.324   2.087
 1045SOL     OW 4033   3.869   1.007   3.092
 1045SOL    HW1 4034   3.958   0.998   3.047
 1045SOL    HW2 4035   3.812   1.071   3.041
 1046SOL     OW 4036   1.910   1.922   6.830
 1046SOL    HW1 4037   1.830   1.981   6.837
 1046SOL    HW2 4038   1.918   1.867   6.914
 1047SOL     OW 4039   3.276   0.488   3.798
 1047SOL    HW1 4040   3.312   0.529   3.882
 1047SOL    HW2 4041   3.317   0.398   3.784
 1048SOL     OW 4042   3.042   5.493   2.083
 1048SOL    HW1 4043   3.064   5.510   2.179
 1048SOL    HW2 4044   3.073   5.401   2.057
 1049SOL     OW 4045   5.555   6.823   3.924
 1049SOL    HW1 4046   5.460   6.830   3.894
 1049SOL    HW2 4047   5.598   6.913   3.922
 1050SOL     OW 4048   3.825   5.797   2.406
 1050SOL    HW1 4049   3.815   5.699   2.388
 1050SOL    HW2 4050   3.904   5.812   2.466
 1051SOL     OW 4051   0.167   5.902   0.355
 1051SOL    HW1 4052   0.164   5.805   0.332
 1051SOL    HW2 4053   0.230   5.949   0.293
 1052SOL     OW 4054   4.847   0.925   5.492
 1052SOL    HW1 4055   4.773   0.903   5.555
 1052SOL    HW2 4056   4.838   0.871   5.409
 1053SOL     OW 4057   5.681   3.976   2.780
 1053SOL    HW1 4058   5.684   3.935   2.871
 1053SOL    HW2 4059   5.764   3.952   2.729
 1054SOL     OW 4060   2.557   3.558   0.885
 1054SOL    HW1 4061   2.583   3.479   0.829
 1054SOL    HW2 4062   2.501   3.527   0.962
 1055SOL     OW 4063   4.813   6.035   5.498
 1055SOL    HW1 4064   4.837   6.004   5.405
 1055SOL    HW2 4065   4.839   6.131   5.509
 1056SOL     OW 4066   0.975   3.452   6.918
 1056SOL    HW1 4067   1.054   3.501   6.955
 1056SOL    HW2 4068   1.004   3.362   6.886
 1057SOL     OW 4069   3.611   2.714   1.551
 1057SOL    HW1 4070   3.684   2.654   1.583
 1057SOL    HW2 4071   3.546   2.731   1.625
 1058SOL     OW 4072   4.990   2.842   3.851
 1058SOL    HW1 4073   4.935   2.808   3.775
 1058SOL    HW2 4074   5.085   2.850   3.823
 1059SOL     OW 4075   2.371   6.753   1.933
 1059SOL    HW1 4076   2.345   6.811   2.010
 1059SOL    HW2 4077   2.291   6.705   1.899
 1060SOL     OW 4078   0.531   4.783   4.351
 1060SOL    HW1 4079   0.489   4.723   4.282
 1060SOL    HW2 4080   0.471   4.862   4.367
 1061SOL     OW 4081   6.535   3.872   6.098
 1061SOL    HW1 4082   6.465   3.871   6.027
 1061SOL    HW2 4083   6.593   3.953   6.088
 1062SOL     OW 4084   4.476   5.851   5.412
 1062SOL    HW1 4085   4.499   5.940   5.450
 1062SOL    HW2 4086   4.381   5.852   5.381
 1063SOL     OW 4087   6.953   6.604   0.269
 1063SOL    HW1 4088   6.924   6.512   0.294
 1063SOL    HW2 4089   6.883   6.670   0.297
 1064SOL     OW 4090   1.562   4.200   1.608
 1064SOL    HW1 4091   1.572   4.178   1.705
 1064SOL    HW2 4092   1.464   4.204   1.586
 1065SOL     OW 4093   4.241   0.299   3.163
 1065SOL    HW1 4094   4.188   0.284   3.080
 1065SOL    HW2 4095   4.319   0.237   3.165
 1066SOL     OW 4096   4.413   6.885   2.491
 1066SOL    HW1 4097   4.385   6.931   2.407
 1066SOL    HW2 4098   4.416   6.786   2.476
 1067SOL     OW 4099   1.995   1.374   6.991
 1067SOL    HW1 4100   2.018   1.316   0.043
 1067SOL    HW2 4101   1.971   1.466   7.023
 1068SOL     OW 4102   6.456   3.939   1.493
 1068SOL    HW1 4103   6.379   3.979   1.543
 1068SOL    HW2 4104   6.529   4.006   1.485
 1069SOL     OW 4105   5.309   5.622   0.757
 1069SOL    HW1 4106   5.406   5.633   0.778
 1069SOL    HW2 4107   5.289   5.526   0.742
 1070SOL     OW 4108   1.832   6.897   2.498
 1070SOL    HW1 4109   1.928   6.905   2.526
 1070SOL    HW2 4110   1.800   6.986   2.465
 1071SOL     OW 4111   2.176   2.084   3.930
 1071SOL    HW1 4112   2.112   2.157   3.906
 1071SOL    HW2 4113   2.181   2.017   3.856
 1072SOL     OW 4114   2.681   0.905   1.220
 1072SOL    HW1 4115   2.680   0.974   1.148
 1072SOL    HW2 4116   2.629   0.939   1.299
 1073SOL     OW 4117   5.201   1.362   3.533
 1073SOL    HW1 4118   5.169   1.311   3.613
 1073SOL    HW2 4119   5.172   1.313   3.450
 1074SOL     OW 4120   2.556   4.897   2.123
 1074SOL    HW1 4121   2.585   4.807   2.156
 1074SOL    HW2 4122   2.604   4.969   2.174
 1075SOL     OW 4123   5.997   1.110   3.459
 1075SOL    HW1 4124   6.090   1.076   3.474
 1075SOL    HW2 4125   5.931   1.048   3.502
 1076SOL     OW 4126   0.337   2.447   5.407
 1076SOL    HW1 4127   0.320   2.539   5.372
 1076SOL    HW2 4128   0.336   2.382   5.331
 1077SOL     OW 4129   6.637   6.070   0.893
 1077SOL    HW1 4130   6.655   6.039   0.800
 1077SOL    HW2 4131   6.552   6.123   0.894
 1078SOL     OW 4132   6.378   0.825   2.883
 1078SOL    HW1 4133   6.318   0.748   2.861
 1078SOL    HW2 4134   6.372   0.845   2.981
 1079SOL     OW 4135   1.134   4.799   1.895
 1079SOL    HW1 4136   1.116   4.721   1.836
 1079SOL    HW2 4137   1.048   4.845   1.916
 1080SOL     OW 4138   2.751   5.701   3.770
 1080SOL    HW1 4139   2.792   5.791   3.791
 1080SOL    HW2 4140   2.667   5.714   3.717
 1081SOL     OW 4141   6.664   5.060   5.558
 1081SOL    HW1 4142   6.681   5.071   5.656
 1081SOL    HW2 4143   6.685   5.146   5.511
 1082SOL     OW 4144   5.582   1.888   6.160
 1082SOL    HW1 4145   5.536   1.845   6.082
 1082SOL    HW2 4146   5.648   1.956   6.126
 1083SOL     OW 4147   4.414   2.937   6.734
 1083SOL    HW1 4148   4.451   2.960   6.824
 1083SOL    HW2 4149   4.339   2.873   6.744
 1084SOL     OW 4150   6.615   6.759   6.407
 1084SOL    HW1 4151   6.576   6.780   6.497
 1084SOL    HW2 4152   6.540   6.751   6.341
 1085SOL     OW 4153   2.105   3.436   4.148
 1085SOL    HW1 4154   2.121   3.343   4.179
 1085SOL    HW2 4155   2.107   3.498   4.227
 1086SOL     OW 4156   6.910   5.298   6.681
 1086SOL    HW1 4157   6.822   5.272   6.640
 1086SOL    HW2 4158   6.910   5.275   6.778
 1087SOL     OW 4159   0.903   1.986   5.037
 1087SOL    HW1 4160   0.819   1.984   4.982
 1087SOL    HW2 4161   0.971   1.925   4.997
 1088SOL     OW 4162   0.498   4.620   3.343
 1088SOL    HW1 4163   0.422   4.672   3.305
 1088SOL    HW2 4164   0.463   4.559   3.415
 1089SOL     OW 4165   0.503   5.754   4.557
 1089SOL    HW1 4166   0.417   5.738   4.606
 1089SOL    HW2 4167   0.579   5.717   4.611
 1090SOL     OW 4168   4.073   1.948   2.642
 1090SOL    HW1 4169   4.154   1.964   2.699
 1090SOL    HW2 4170   4.094   1.881   2.572
 1091SOL     OW 4171   2.011   3.346   3.629
 1091SOL    HW1 4172   1.985   3.441   3.611
 1091SOL    HW2 4173   2.050   3.339   3.721
 1092SOL     OW 4174   0.929   5.491   0.545
 1092SOL    HW1 4175   0.862   5.482   0.471
 1092SOL    HW2 4176   0.882   5.492   0.633
 1093SOL     OW 4177   2.707   6.819   1.578
 1093SOL    HW1 4178   2.637   6.890   1.567
 1093SOL    HW2 4179   2.713   6.793   1.674
 1094SOL     OW 4180   0.729   6.762   2.717
 1094SOL    HW1 4181   0.787   6.682   2.704
 1094SOL    HW2 4182   0.730   6.789   2.813
 1095SOL     OW 4183   0.299   2.903   6.812
 1095SOL    HW1 4184   0.255   2.870   6.895
 1095SOL    HW2 4185   0.276   2.842   6.736
 1096SOL     OW 4186   3.697   4.217   1.169
 1096SOL    HW1 4187   3.713   4.312   1.140
 1096SOL    HW2 4188   3.778   4.162   1.148
 1097SOL     OW 4189   1.711   4.901   2.922
 1097SOL    HW1 4190   1.761   4.899   3.009
 1097SOL    HW2 4191   1.674   4.811   2.903
 1098SOL     OW 4192   5.956   3.460   6.031
 1098SOL    HW1 4193   6.044   3.497   6.001
 1098SOL    HW2 4194   5.968   3.366   6.062
 1099SOL     OW 4195   4.730   0.580   6.531
 1099SOL    HW1 4196   4.764   0.610   6.620
 1099SOL    HW2 4197   4.635   0.549   6.540
 1100SOL     OW 4198   4.099   1.211   4.925
 1100SOL    HW1 4199   4.063   1.118   4.929
 1100SOL    HW2 4200   4.189   1.211   4.882
 1101SOL     OW 4201   5.310   3.561   5.462
 1101SOL    HW1 4202   5.286   3.625   5.535
 1101SOL    HW2 4203   5.328   3.612   5.378
 1102SOL     OW 4204   2.262   1.179   4.638
 1102SOL    HW1 4205   2.344   1.130   4.608
 1102SOL    HW2 4206   2.216   1.218   4.559
 1103SOL     OW 4207   2.845   2.106   0.138
 1103SOL    HW1 4208   2.885   2.134   0.051
 1103SOL    HW2 4209   2.917   2.105   0.208
 1104SOL     OW 4210   1.666   4.002   3.535
 1104SOL    HW1 4211   1.744   4.042   3.583
 1104SOL    HW2 4212   1.667   4.033   3.439
 1105SOL     OW 4213   5.116   2.936   4.232
 1105SOL    HW1 4214   5.080   2.998   4.301
 1105SOL    HW2 4215   5.140   2.987   4.150
 1106SOL     OW 4216   0.830   1.818   1.626
 1106SOL    HW1 4217   0.813   1.720   1.638
 1106SOL    HW2 4218   0.746   1.862   1.594
 1107SOL     OW 4219   1.252   0.344   0.035
 1107SOL    HW1 4220   1.248   0.245   0.019
 1107SOL    HW2 4221   1.197   0.366   0.115
 1108SOL     OW 4222   3.359   6.401   5.378
 1108SOL    HW1 4223   3.394   6.372   5.288
 1108SOL    HW2 4224   3.287   6.469   5.365
 1109SOL     OW 4225   5.858   0.897   3.983
 1109SOL    HW1 4226   5.815   0.875   4.070
 1109SOL    HW2 4227   5.906   0.985   3.991
 1110SOL     OW 4228   3.925   1.540   3.320
 1110SOL    HW1 4229   3.903   1.449   3.286
 1110SOL    HW2 4230   3.844   1.582   3.360
 1111SOL     OW 4231   5.581   4.796   6.221
 1111SOL    HW1 4232   5.490   4.775   6.256
 1111SOL    HW2 4233   5.620   4.715   6.177
 1112SOL     OW 4234   6.260   0.547   3.071
 1112SOL    HW1 4235   6.309   0.607   3.134
 1112SOL    HW2 4236   6.322   0.475   3.039
 1113SOL     OW 4237   6.260   4.251   1.442
 1113SOL    HW1 4238   6.216   4.161   1.449
 1113SOL    HW2 4239   6.284   4.284   1.533
 1114SOL     OW 4240   2.965   2.158   6.464
 1114SOL    HW1 4241   2.920   2.173   6.376
 1114SOL    HW2 4242   2.918   2.085   6.513
 1115SOL     OW 4243   4.146   3.620   5.343
 1115SOL    HW1 4244   4.046   3.624   5.337
 1115SOL    HW2 4245   4.183   3.712   5.333
 1116SOL     OW 4246   5.802   0.155   0.097
 1116SOL    HW1 4247   5.815   0.196   0.007
 1116SOL    HW2 4248   5.705   0.139   0.113
 1117SOL     OW 4249   1.108   1.769   1.912
 1117SOL    HW1 4250   1.142   1.757   2.005
 1117SOL    HW2 4251   1.174   1.732   1.847
 1118SOL     OW 4252   2.725   5.304   0.178
 1118SOL    HW1 4253   2.639   5.262   0.148
 1118SOL    HW2 4254   2.769   5.245   0.247
 1119SOL     OW 4255   4.297   4.119   1.425
 1119SOL    HW1 4256   4.390   4.082   1.426
 1119SOL    HW2 4257   4.248   4.084   1.346
 1120SOL     OW 4258   6.670   5.571   1.154
 1120SOL    HW1 4259   6.612   5.521   1.090
 1120SOL    HW2 4260   6.732   5.508   1.200
 1121SOL     OW 4261   7.017   4.799   4.737
 1121SOL    HW1 4262   6.951   4.784   4.663
 1121SOL    HW2 4263   0.072   4.743   4.721
 1122SOL     OW 4264   6.013   3.018   2.128
 1122SOL    HW1 4265   6.033   2.922   2.145
 1122SOL    HW2 4266   5.914   3.033   2.134
 1123SOL     OW 4267   5.158   2.497   3.831
 1123SOL    HW1 4268   5.117   2.454   3.751
 1123SOL    HW2 4269   5.257   2.503   3.819
 1124SOL     OW 4270   6.989   4.721   5.830
 1124SOL    HW1 4271   6.890   4.711   5.841
 1124SOL    HW2 4272   0.010   4.666   5.899
 1125SOL     OW 4273   1.821   2.254   3.605
 1125SOL    HW1 4274   1.816   2.346   3.641
 1125SOL    HW2 4275   1.813   2.256   3.505
 1126SOL     OW 4276   6.017   6.109   5.671
 1126SOL    HW1 4277   6.104   6.123   5.718
 1126SOL    HW2 4278   6.034   6.077   5.578
 1127SOL     OW 4279   5.680   6.136   4.508
 1127SOL    HW1 4280   5.592   6.165   4.545
 1127SOL    HW2 4281   5.703   6.193   4.429
 1128SOL     OW 4282   6.281   1.376   5.059
 1128SOL    HW1 4283   6.370   1.344   5.094
 1128SOL    HW2 4284   6.216   1.300   5.061
 1129SOL     OW 4285   2.162   6.700   0.560
 1129SOL    HW1 4286   2.139   6.677   0.465
 1129SOL    HW2 4287   2.097   6.655   0.622
 1130SOL     OW 4288   2.002   4.604   1.133
 1130SOL    HW1 4289   1.913   4.632   1.096
 1130SOL    HW2 4290   1.991   4.577   1.229
 1131SOL     OW 4291   1.962   0.469   5.342
 1131SOL    HW1 4292   2.028   0.531   5.385
 1131SOL    HW2 4293   1.959   0.383   5.394
 1132SOL     OW 4294   4.068   0.193   3.328
 1132SOL    HW1 4295   4.102   0.177   3.421
 1132SOL    HW2 4296   4.138   0.238   3.274
 1133SOL     OW 4297   0.886   0.606   7.008
 1133SOL    HW1 4298   0.853   0.540   0.050
 1133SOL    HW2 4299   0.974   0.575   6.973
 1134SOL     OW 4300   5.241   7.021   3.039
 1134SOL    HW1 4301   5.254   0.094   3.043
 1134SOL    HW2 4302   5.165   6.996   3.099
 1135SOL     OW 4303   2.497   6.525   3.620
 1135SOL    HW1 4304   2.425   6.592   3.602
 1135SOL    HW2 4305   2.462   6.452   3.679
 1136SOL     OW 4306   4.056   4.745   2.808
 1136SOL    HW1 4307   4.111   4.685   2.866
 1136SOL    HW2 4308   4.097   4.835   2.804
 1137SOL     OW 4309   1.081   6.192   0.245
 1137SOL    HW1 4310   1.062   6.289   0.254
 1137SOL    HW2 4311   1.135   6.161   0.324
 1138SOL     OW 4312   0.470   1.576   5.130
 1138SOL    HW1 4313   0.526   1.496   5.151
 1138SOL    HW2 4314   0.412   1.598   5.208
 1139SOL     OW 4315   2.595   4.896   3.789
 1139SOL    HW1 4316   2.626   4.976   3.840
 1139SOL    HW2 4317   2.669   4.865   3.729
 1140SOL     OW 4318   2.884   0.496   2.200
 1140SOL    HW1 4319   2.980   0.521   2.185
 1140SOL    HW2 4320   2.878   0.434   2.279
 1141SOL     OW 4321   6.989   6.171   6.953
 1141SOL    HW1 4322   6.953   6.249   6.901
 1141SOL    HW2 4323   6.914   6.121   6.995
 1142SOL     OW 4324   3.333   0.564   4.303
 1142SOL    HW1 4325   3.342   0.650   4.254
 1142SOL    HW2 4326   3.419   0.541   4.347
 1143SOL     OW 4327   1.829   3.195   2.364
 1143SOL    HW1 4328   1.919   3.191   2.320
 1143SOL    HW2 4329   1.818   3.283   2.409
 1144SOL     OW 4330   5.974   4.206   3.708
 1144SOL    HW1 4331   5.963   4.301   3.737
 1144SOL    HW2 4332   5.975   4.147   3.789
 1145SOL     OW 4333   1.017   2.896   0.776
 1145SOL    HW1 4334   1.012   2.807   0.731
 1145SOL    HW2 4335   1.102   2.902   0.828
 1146SOL     OW 4336   0.866   1.895   1.878
 1146SOL    HW1 4337   0.949   1.848   1.908
 1146SOL    HW2 4338   0.833   1.853   1.793
 1147SOL     OW 4339   2.900   5.890   0.667
 1147SOL    HW1 4340   2.807   5.853   0.668
 1147SOL    HW2 4341   2.923   5.918   0.574
 1148SOL     OW 4342   4.578   6.193   0.992
 1148SOL    HW1 4343   4.544   6.260   1.058
 1148SOL    HW2 4344   4.660   6.150   1.029
 1149SOL     OW 4345   5.387   2.765   2.461
 1149SOL    HW1 4346   5.459   2.769   2.530
 1149SOL    HW2 4347   5.306   2.814   2.493
 1150SOL     OW 4348   0.578   4.027   6.983
 1150SOL    HW1 4349   0.537   3.948   0.002
 1150SOL    HW2 4350   0.655   3.996   6.926
 1151SOL     OW 4351   5.734   5.028   4.854
 1151SOL    HW1 4352   5.758   4.959   4.785
 1151SOL    HW2 4353   5.643   5.064   4.833
 1152SOL     OW 4354   5.470   6.661   6.312
 1152SOL    HW1 4355   5.533   6.619   6.247
 1152SOL    HW2 4356   5.505   6.751   6.339
 1153SOL     OW 4357   6.479   0.050   1.804
 1153SOL    HW1 4358   6.577   0.037   1.819
 1153SOL    HW2 4359   6.464   0.101   1.719
 1154SOL     OW 4360   0.470   3.977   0.347
 1154SOL    HW1 4361   0.384   3.976   0.295
 1154SOL    HW2 4362   0.458   4.033   0.429
 1155SOL     OW 4363   3.146   5.185   5.746
 1155SOL    HW1 4364   3.170   5.123   5.821
 1155SOL    HW2 4365   3.225   5.241   5.723
 1156SOL     OW 4366   4.676   2.286   5.062
 1156SOL    HW1 4367   4.655   2.379   5.091
 1156SOL    HW2 4368   4.712   2.234   5.140
 1157SOL     OW 4369   5.006   1.244   6.002
 1157SOL    HW1 4370   5.042   1.162   5.957
 1157SOL    HW2 4371   4.999   1.227   6.101
 1158SOL     OW 4372   6.492   5.388   4.925
 1158SOL    HW1 4373   6.503   5.319   4.996
 1158SOL    HW2 4374   6.581   5.411   4.885
 1159SOL     OW 4375   6.190   6.999   3.195
 1159SOL    HW1 4376   6.285   6.968   3.194
 1159SOL    HW2 4377   6.131   6.923   3.224
 1160SOL     OW 4378   4.057   5.048   1.659
 1160SOL    HW1 4379   3.970   5.015   1.694
 1160SOL    HW2 4380   4.117   5.072   1.735
 1161SOL     OW 4381   0.569   6.108   6.603
 1161SOL    HW1 4382   0.645   6.045   6.620
 1161SOL    HW2 4383   0.528   6.088   6.514
 1162SOL     OW 4384   2.546   2.640   5.845
 1162SOL    HW1 4385   2.570   2.677   5.756
 1162SOL    HW2 4386   2.604   2.561   5.865
 1163SOL     OW 4387   5.801   4.458   2.104
 1163SOL    HW1 4388   5.839   4.519   2.034
 1163SOL    HW2 4389   5.701   4.466   2.103
 1164SOL     OW 4390   5.098   2.031   4.924
 1164SOL    HW1 4391   5.058   1.948   4.964
 1164SOL    HW2 4392   5.057   2.111   4.967
 1165SOL     OW 4393   3.955   5.827   3.152
 1165SOL    HW1 4394   3.871   5.879   3.169
 1165SOL    HW2 4395   3.950   5.740   3.201
 1166SOL     OW 4396   2.629   5.740   0.049
 1166SOL    HW1 4397   2.629   5.666   7.009
 1166SOL    HW2 4398   2.554   5.803   0.029
 1167SOL     OW 4399   4.911   5.444   0.776
 1167SOL    HW1 4400   4.954   5.358   0.804
 1167SOL    HW2 4401   4.892   5.499   0.858
 1168SOL     OW 4402   6.156   2.532   1.326
 1168SOL    HW1 4403   6.065   2.562   1.352
 1168SOL    HW2 4404   6.208   2.610   1.290
 1169SOL     OW 4405   4.183   1.498   5.513
 1169SOL    HW1 4406   4.154   1.444   5.592
 1169SOL    HW2 4407   4.103   1.538   5.468
 1170SOL     OW 4408   5.553   0.404   3.548
 1170SOL    HW1 4409   5.633   0.452   3.584
 1170SOL    HW2 4410   5.472   0.463   3.555
 1171SOL     OW 4411   2.901   6.771   0.221
 1171SOL    HW1 4412   2.878   6.828   0.299
 1171SOL    HW2 4413   2.963   6.820   0.160
 1172SOL     OW 4414   5.648   4.173   0.586
 1172SOL    HW1 4415   5.668   4.075   0.584
 1172SOL    HW2 4416   5.565   4.188   0.640
 1173SOL     OW 4417   3.231   1.565   0.877
 1173SOL    HW1 4418   3.223   1.586   0.779
 1173SOL    HW2 4419   3.318   1.519   0.894
 1174SOL     OW 4420   3.654   3.936   2.022
 1174SOL    HW1 4421   3.686   3.847   1.989
 1174SOL    HW2 4422   3.707   3.962   2.102
 1175SOL     OW 4423   5.040   3.491   6.434
 1175SOL    HW1 4424   4.966   3.435   6.471
 1175SOL    HW2 4425   5.004   3.581   6.408
 1176SOL     OW 4426   5.205   3.363   0.280
 1176SOL    HW1 4427   5.119   3.317   0.301
 1176SOL    HW2 4428   5.187   3.449   0.233
 1177SOL     OW 4429   6.847   3.791   4.821
 1177SOL    HW1 4430   6.939   3.756   4.839
 1177SOL    HW2 4431   6.789   3.717   4.788
 1178SOL     OW 4432   2.892   4.258   0.339
 1178SOL    HW1 4433   2.984   4.220   0.333
 1178SOL    HW2 4434   2.880   4.329   0.269
 1179SOL     OW 4435   2.055   5.968   0.502
 1179SOL    HW1 4436   2.050   5.877   0.542
 1179SOL    HW2 4437   2.062   5.960   0.402
 1180SOL     OW 4438   2.565   6.717   3.922
 1180SOL    HW1 4439   2.597   6.629   3.887
 1180SOL    HW2 4440   2.598   6.790   3.862
 1181SOL     OW 4441   0.431   5.401   5.224
 1181SOL    HW1 4442   0.391   5.352   5.301
 1181SOL    HW2 4443   0.412   5.350   5.139
 1182SOL     OW 4444   4.355   5.072   3.415
 1182SOL    HW1 4445   4.271   5.048   3.367
 1182SOL    HW2 4446   4.346   5.047   3.511
 1183SOL     OW 4447   2.213   3.937   0.089
 1183SOL    HW1 4448   2.249   3.866   0.148
 1183SOL    HW2 4449   2.288   3.994   0.055
 1184SOL     OW 4450   0.139   1.055   4.515
 1184SOL    HW1 4451   0.119   0.970   4.563
 1184SOL    HW2 4452   0.208   1.106   4.567
 1185SOL     OW 4453   0.742   0.669   1.221
 1185SOL    HW1 4454   0.677   0.605   1.181
 1185SOL    HW2 4455   0.727   0.674   1.320
 1186SOL     OW 4456   5.740   6.433   5.882
 1186SOL    HW1 4457   5.831   6.470   5.900
 1186SOL    HW2 4458   5.680   6.506   5.850
 1187SOL     OW 4459   5.808   0.109   6.575
 1187SOL    HW1 4460   5.783   0.018   6.609
 1187SOL    HW2 4461   5.788   0.115   6.477
 1188SOL     OW 4462   3.723   5.707   5.895
 1188SOL    HW1 4463   3.627   5.700   5.869
 1188SOL    HW2 4464   3.758   5.616   5.917
 1189SOL     OW 4465   6.344   2.484   1.575
 1189SOL    HW1 4466   6.291   2.457   1.494
 1189SOL    HW2 4467   6.382   2.575   1.561
 1190SOL     OW 4468   3.145   5.219   3.398
 1190SOL    HW1 4469   3.176   5.242   3.490
 1190SOL    HW2 4470   3.184   5.285   3.333
 1191SOL     OW 4471   4.564   5.499   4.151
 1191SOL    HW1 4472   4.581   5.583   4.099
 1191SOL    HW2 4473   4.467   5.474   4.142
 1192SOL     OW 4474   4.627   5.209   2.126
 1192SOL    HW1 4475   4.659   5.181   2.216
 1192SOL    HW2 4476   4.527   5.209   2.125
 1193SOL     OW 4477   6.224   2.582   5.124
 1193SOL    HW1 4478   6.198   2.614   5.033
 1193SOL    HW2 4479   6.203   2.653   5.191
 1194SOL     OW 4480   5.960   0.175   1.796
 1194SOL    HW1 4481   6.052   0.141   1.779
 1194SOL    HW2 4482   5.962   0.274   1.809
 1195SOL     OW 4483   6.608   4.091   0.715
 1195SOL    HW1 4484   6.589   4.153   0.791
 1195SOL    HW2 4485   6.545   4.111   0.640
 1196SOL     OW 4486   0.190   5.656   2.921
 1196SOL    HW1 4487   0.241   5.613   2.846
 1196SOL    HW2 4488   0.097   5.677   2.889
 1197SOL     OW 4489   4.504   0.192   5.084
 1197SOL    HW1 4490   4.536   0.223   4.994
 1197SOL    HW2 4491   4.453   0.107   5.074
 1198SOL     OW 4492   1.149   2.801   2.590
 1198SOL    HW1 4493   1.221   2.732   2.586
 1198SOL    HW2 4494   1.086   2.789   2.513
 1199SOL     OW 4495   3.726   3.752   1.607
 1199SOL    HW1 4496   3.748   3.846   1.636
 1199SOL    HW2 4497   3.809   3.698   1.602
 1200SOL     OW 4498   3.465   3.793   4.304
 1200SOL    HW1 4499   3.365   3.786   4.314
 1200SOL    HW2 4500   3.487   3.868   4.243
 1201SOL     OW 4501   1.312   0.815   4.502
 1201SOL    HW1 4502   1.237   0.840   4.441
 1201SOL    HW2 4503   1.299   0.859   4.591
 1202SOL     OW 4504   0.360   5.378   5.574
 1202SOL    HW1 4505   0.398   5.370   5.667
 1202SOL    HW2 4506   0.300   5.458   5.570
 1203SOL     OW 4507   6.724   6.559   6.778
 1203SOL    HW1 4508   6.765   6.621   6.710
 1203SOL    HW2 4509   6.674   6.612   6.846
 1204SOL     OW 4510   3.783   7.020   1.343
 1204SOL    HW1 4511   3.850   0.019   1.272
 1204SOL    HW2 4512   3.691   0.012   1.309
 1205SOL     OW 4513   4.833   3.574   0.730
 1205SOL    HW1 4514   4.857   3.491   0.681
 1205SOL    HW2 4515   4.750   3.559   0.783
 1206SOL     OW 4516   2.511   2.859   5.608
 1206SOL    HW1 4517   2.595   2.896   5.649
 1206SOL    HW2 4518   2.437   2.925   5.619
 1207SOL     OW 4519   2.139   6.363   0.777
 1207SOL    HW1 4520   2.170   6.398   0.865
 1207SOL    HW2 4521   2.203   6.392   0.705
 1208SOL     OW 4522   3.409   3.723   1.158
 1208SOL    HW1 4523   3.338   3.652   1.161
 1208SOL    HW2 4524   3.470   3.711   1.236
 1209SOL     OW 4525   4.538   1.059   4.898
 1209SOL    HW1 4526   4.460   0.999   4.912
 1209SOL    HW2 4527   4.508   1.154   4.899
 1210SOL     OW 4528   2.933   0.863   3.349
 1210SOL    HW1 4529   2.931   0.798   3.272
 1210SOL    HW2 4530   2.924   0.956   3.314
 1211SOL     OW 4531   0.483   3.944   2.035
 1211SOL    HW1 4532   0.496   3.863   1.978
 1211SOL    HW2 4533   0.392   3.983   2.018
 1212SOL     OW 4534   6.242   0.436   0.560
 1212SOL    HW1 4535   6.312   0.367   0.579
 1212SOL    HW2 4536   6.284   0.527   0.561
 1213SOL     OW 4537   6.397   2.171   0.735
 1213SOL    HW1 4538   6.410   2.196   0.831
 1213SOL    HW2 4539   6.315   2.215   0.699
 1214SOL     OW 4540   0.781   2.835   6.717
 1214SOL    HW1 4541   0.811   2.917   6.670
 1214SOL    HW2 4542   0.860   2.777   6.737
 1215SOL     OW 4543   0.707   4.799   3.240
 1215SOL    HW1 4544   0.656   4.740   3.303
 1215SOL    HW2 4545   0.728   4.748   3.156
 1216SOL     OW 4546   5.117   0.503   0.973
 1216SOL    HW1 4547   5.133   0.582   1.033
 1216SOL    HW2 4548   5.021   0.476   0.978
 1217SOL     OW 4549   2.240   4.740   0.618
 1217SOL    HW1 4550   2.290   4.653   0.608
 1217SOL    HW2 4551   2.275   4.788   0.699
 1218SOL     OW 4552   2.389   4.394   4.623
 1218SOL    HW1 4553   2.327   4.440   4.686
 1218SOL    HW2 4554   2.450   4.461   4.582
 1219SOL     OW 4555   5.469   6.313   1.399
 1219SOL    HW1 4556   5.552   6.365   1.379
 1219SOL    HW2 4557   5.391   6.356   1.354
 1220SOL     OW 4558   0.957   4.581   3.126
 1220SOL    HW1 4559   0.929   4.642   3.052
 1220SOL    HW2 4560   0.891   4.506   3.133
 1221SOL     OW 4561   5.863   3.639   6.242
 1221SOL    HW1 4562   5.902   3.579   6.172
 1221SOL    HW2 4563   5.839   3.727   6.202
 1222SOL     OW 4564   6.380   0.416   6.600
 1222SOL    HW1 4565   6.337   0.388   6.514
 1222SOL    HW2 4566   6.423   0.336   6.642
 1223SOL     OW 4567   4.092   1.009   0.653
 1223SOL    HW1 4568   4.106   0.914   0.682
 1223SOL    HW2 4569   4.116   1.018   0.556
 1224SOL     OW 4570   3.689   5.181   0.249
 1224SOL    HW1 4571   3.592   5.165   0.268
 1224SOL    HW2 4572   3.703   5.185   0.150
 1225SOL     OW 4573   3.398   3.475   6.429
 1225SOL    HW1 4574   3.329   3.452   6.498
 1225SOL    HW2 4575   3.425   3.392   6.380
 1226SOL     OW 4576   2.576   5.087   1.405
 1226SOL    HW1 4577   2.487   5.048   1.427
 1226SOL    HW2 4578   2.564   5.178   1.363
 1227SOL     OW 4579   6.720   3.784   6.695
 1227SOL    HW1 4580   6.715   3.750   6.601
 1227SOL    HW2 4581   6.673   3.719   6.756
 1228SOL     OW 4582   3.673   1.850   6.372
 1228SOL    HW1 4583   3.746   1.864   6.439
 1228SOL    HW2 4584   3.603   1.920   6.383
 1229SOL     OW 4585   3.891   5.032   5.740
 1229SOL    HW1 4586   3.911   4.934   5.731
 1229SOL    HW2 4587   3.850   5.050   5.829
 1230SOL     OW 4588   4.688   6.997   2.887
 1230SOL    HW1 4589   4.627   7.002   2.808
 1230SOL    HW2 4590   4.705   0.063   2.922
 1231SOL     OW 4591   1.871   3.247   4.446
 1231SOL    HW1 4592   1.796   3.254   4.380
 1231SOL    HW2 4593   1.834   3.245   4.539
 1232SOL     OW 4594   0.959   2.044   5.525
 1232SOL    HW1 4595   0.937   1.974   5.457
 1232SOL    HW2 4596   1.056   2.065   5.521
 1233SOL     OW 4597   1.048   3.719   4.513
 1233SOL    HW1 4598   0.965   3.686   4.467
 1233SOL    HW2 4599   1.120   3.650   4.506
 1234SOL     OW 4600   6.876   4.043   4.731
 1234SOL    HW1 4601   6.807   4.087   4.673
 1234SOL    HW2 4602   6.842   3.954   4.761
 1235SOL     OW 4603   6.731   6.188   2.450
 1235SOL    HW1 4604   6.830   6.200   2.457
 1235SOL    HW2 4605   6.710   6.095   2.418
 1236SOL     OW 4606   4.948   1.301   0.793
 1236SOL    HW1 4607   4.917   1.246   0.715
 1236SOL    HW2 4608   4.972   1.241   0.869
 1237SOL     OW 4609   1.796   4.705   5.747
 1237SOL    HW1 4610   1.832   4.612   5.740
 1237SOL    HW2 4611   1.699   4.701   5.771
 1238SOL     OW 4612   2.770   0.371   0.245
 1238SOL    HW1 4613   2.847   0.435   0.242
 1238SOL    HW2 4614   2.749   0.339   0.153
 1239SOL     OW 4615   6.749   6.798   6.090
 1239SOL    HW1 4616   6.720   6.728   6.156
 1239SOL    HW2 4617   6.808   6.864   6.135
 1240SOL     OW 4618   5.256   6.131   1.926
 1240SOL    HW1 4619   5.254   6.050   1.867
 1240SOL    HW2 4620   5.309   6.203   1.881
 1241SOL     OW 4621   6.383   4.056   3.931
 1241SOL    HW1 4622   6.455   4.124   3.930
 1241SOL    HW2 4623   6.423   3.964   3.925
 1242SOL     OW 4624   6.493   3.106   1.400
 1242SOL    HW1 4625   6.411   3.164   1.400
 1242SOL    HW2 4626   6.482   3.033   1.332
 1243SOL     OW 4627   6.786   6.772   5.449
 1243SOL    HW1 4628   6.861   6.724   5.494
 1243SOL    HW2 4629   6.802   6.774   5.351
 1244SOL     OW 4630   6.799   6.729   4.409
 1244SOL    HW1 4631   6.747   6.801   4.363
 1244SOL    HW2 4632   6.885   6.713   4.360
 1245SOL     OW 4633   4.732   4.390   6.591
 1245SOL    HW1 4634   4.802   4.445   6.637
 1245SOL    HW2 4635   4.670   4.451   6.541
 1246SOL     OW 4636   2.436   6.392   1.416
 1246SOL    HW1 4637   2.512   6.364   1.357
 1246SOL    HW2 4638   2.466   6.465   1.477
 1247SOL     OW 4639   2.036   0.979   6.500
 1247SOL    HW1 4640   1.961   0.967   6.434
 1247SOL    HW2 4641   2.079   0.890   6.517
 1248SOL     OW 4642   2.527   0.203   4.513
 1248SOL    HW1 4643   2.523   0.289   4.564
 1248SOL    HW2 4644   2.561   0.131   4.573
 1249SOL     OW 4645   5.318   2.621   2.248
 1249SOL    HW1 4646   5.228   2.579   2.265
 1249SOL    HW2 4647   5.354   2.657   2.334
 1250SOL     OW 4648   6.448   5.060   4.770
 1250SOL    HW1 4649   6.391   5.011   4.703
 1250SOL    HW2 4650   6.389   5.113   4.831
 1251SOL     OW 4651   2.999   0.056   4.247
 1251SOL    HW1 4652   3.033   0.066   4.154
 1251SOL    HW2 4653   2.935   0.130   4.267
 1252SOL     OW 4654   3.824   3.536   5.170
 1252SOL    HW1 4655   3.792   3.619   5.216
 1252SOL    HW2 4656   3.792   3.537   5.075
 1253SOL     OW 4657   3.402   4.971   1.994
 1253SOL    HW1 4658   3.483   4.913   2.001
 1253SOL    HW2 4659   3.338   4.947   2.067
 1254SOL     OW 4660   0.039   2.988   2.745
 1254SOL    HW1 4661   0.097   3.067   2.722
 1254SOL    HW2 4662   0.095   2.918   2.789
 1255SOL     OW 4663   6.528   2.035   4.685
 1255SOL    HW1 4664   6.525   1.990   4.595
 1255SOL    HW2 4665   6.620   2.024   4.724
 1256SOL     OW 4666   6.639   6.185   3.459
 1256SOL    HW1 4667   6.579   6.264   3.449
 1256SOL    HW2 4668   6.684   6.189   3.548
 1257SOL     OW 4669   0.114   6.798   4.662
 1257SOL    HW1 4670   0.179   6.790   4.587
 1257SOL    HW2 4671   0.064   6.712   4.671
 1258SOL     OW 4672   1.417   5.089   3.498
 1258SOL    HW1 4673   1.498   5.053   3.543
 1258SOL    HW2 4674   1.344   5.021   3.501
 1259SOL     OW 4675   3.607   1.135   4.146
 1259SOL    HW1 4676   3.689   1.177   4.185
 1259SOL    HW2 4677   3.630   1.045   4.109
 1260SOL     OW 4678   1.443   1.471   6.695
 1260SOL    HW1 4679   1.359   1.418   6.684
 1260SOL    HW2 4680   1.520   1.408   6.712
 1261SOL     OW 4681   0.183   5.571   6.494
 1261SOL    HW1 4682   0.268   5.624   6.491
 1261SOL    HW2 4683   0.124   5.599   6.418
 1262SOL     OW 4684   4.802   5.120   1.422
 1262SOL    HW1 4685   4.889   5.085   1.457
 1262SOL    HW2 4686   4.751   5.046   1.379
 1263SOL     OW 4687   0.600   1.290   2.624
 1263SOL    HW1 4688   0.646   1.322   2.541
 1263SOL    HW2 4689   0.504   1.270   2.603
 1264SOL     OW 4690   0.070   4.622   6.072
 1264SOL    HW1 4691   0.041   4.583   6.159
 1264SOL    HW2 4692   0.168   4.610   6.060
 1265SOL     OW 4693   5.952   5.370   4.457
 1265SOL    HW1 4694   6.049   5.394   4.456
 1265SOL    HW2 4695   5.916   5.385   4.549
 1266SOL     OW 4696   0.607   0.916   4.566
 1266SOL    HW1 4697   0.631   0.821   4.587
 1266SOL    HW2 4698   0.666   0.977   4.617
 1267SOL     OW 4699   5.121   1.414   1.343
 1267SOL    HW1 4700   5.156   1.504   1.371
 1267SOL    HW2 4701   5.047   1.388   1.405
 1268SOL     OW 4702   2.793   3.274   7.014
 1268SOL    HW1 4703   2.786   3.180   6.982
 1268SOL    HW2 4704   2.714   3.297   0.044
 1269SOL     OW 4705   5.732   3.189   3.801
 1269SOL    HW1 4706   5.772   3.115   3.854
 1269SOL    HW2 4707   5.801   3.258   3.781
 1270SOL     OW 4708   2.265   4.753   2.830
 1270SOL    HW1 4709   2.346   4.722   2.780
 1270SOL    HW2 4710   2.183   4.711   2.789
 1271SOL     OW 4711   3.472   1.431   1.827
 1271SOL    HW1 4712   3.372   1.432   1.818
 1271SOL    HW2 4713   3.505   1.338   1.814
 1272SOL     OW 4714   5.999   4.550   6.663
 1272SOL    HW1 4715   5.963   4.507   6.746
 1272SOL    HW2 4716   5.926   4.597   6.614
 1273SOL     OW 4717   1.405   4.053   5.647
 1273SOL    HW1 4718   1.307   4.049   5.666
 1273SOL    HW2 4719   1.431   3.976   5.588
 1274SOL     OW 4720   0.201   4.248   0.393
 1274SOL    HW1 4721   0.137   4.172   0.375
 1274SOL    HW2 4722   0.279   4.213   0.444
 1275SOL     OW 4723   3.682   1.172   3.442
 1275SOL    HW1 4724   3.682   1.079   3.478
 1275SOL    HW2 4725   3.594   1.191   3.398
 1276SOL     OW 4726   5.272   5.410   4.780
 1276SOL    HW1 4727   5.323   5.445   4.858
 1276SOL    HW2 4728   5.200   5.475   4.755
 1277SOL     OW 4729   2.010   5.497   6.321
 1277SOL    HW1 4730   1.915   5.472   6.334
 1277SOL    HW2 4731   2.061   5.420   6.282
 1278SOL     OW 4732   1.758   0.212   4.444
 1278SOL    HW1 4733   1.706   0.128   4.425
 1278SOL    HW2 4734   1.696   0.281   4.482
 1279SOL     OW 4735   2.158   4.484   6.414
 1279SOL    HW1 4736   2.240   4.445   6.371
 1279SOL    HW2 4737   2.078   4.463   6.358
 1280SOL     OW 4738   4.198   6.836   3.567
 1280SOL    HW1 4739   4.189   6.863   3.663
 1280SOL    HW2 4740   4.287   6.794   3.552
 1281SOL     OW 4741   2.792   6.256   3.372
 1281SOL    HW1 4742   2.721   6.260   3.442
 1281SOL    HW2 4743   2.829   6.348   3.357
 1282SOL     OW 4744   6.790   2.549   6.996
 1282SOL    HW1 4745   6.707   2.592   6.961
 1282SOL    HW2 4746   6.774   2.451   7.010
 1283SOL     OW 4747   6.481   3.118   5.538
 1283SOL    HW1 4748   6.520   3.027   5.537
 1283SOL    HW2 4749   6.536   3.179   5.480
 1284SOL     OW 4750   4.182   0.926   1.614
 1284SOL    HW1 4751   4.197   0.884   1.703
 1284SOL    HW2 4752   4.094   0.973   1.613
 1285SOL     OW 4753   4.405   1.148   5.337
 1285SOL    HW1 4754   4.390   1.246   5.349
 1285SOL    HW2 4755   4.493   1.134   5.291
 1286SOL     OW 4756   4.551   2.615   0.754
 1286SOL    HW1 4757   4.460   2.598   0.791
 1286SOL    HW2 4758   4.582   2.534   0.704
 1287SOL     OW 4759   5.386   4.429   5.477
 1287SOL    HW1 4760   5.365   4.337   5.444
 1287SOL    HW2 4761   5.413   4.424   5.573
 1288SOL     OW 4762   3.911   4.733   5.711
 1288SOL    HW1 4763   3.937   4.697   5.801
 1288SOL    HW2 4764   3.989   4.781   5.671
 1289SOL     OW 4765   0.450   0.425   1.886
 1289SOL    HW1 4766   0.520   0.373   1.835
 1289SOL    HW2 4767   0.401   0.484   1.822
 1290SOL     OW 4768   1.660   0.028   0.373
 1290SOL    HW1 4769   1.637   0.103   0.435
 1290SOL    HW2 4770   1.605   6.974   0.397
 1291SOL     OW 4771   0.069   4.450   4.213
 1291SOL    HW1 4772   0.057   4.546   4.186
 1291SOL    HW2 4773   0.135   4.445   4.288
 1292SOL     OW 4774   0.796   5.706   2.292
 1292SOL    HW1 4775   0.866   5.772   2.317
 1292SOL    HW2 4776   0.768   5.654   2.374
 1293SOL     OW 4777   2.697   2.314   6.939
 1293SOL    HW1 4778   2.792   2.321   6.969
 1293SOL    HW2 4779   2.689   2.347   6.845
 1294SOL     OW 4780   1.073   4.023   5.970
 1294SOL    HW1 4781   1.060   3.925   5.988
 1294SOL    HW2 4782   1.159   4.053   6.013
 1295SOL     OW 4783   0.191   2.988   0.728
 1295SOL    HW1 4784   0.186   2.939   0.640
 1295SOL    HW2 4785   0.127   2.946   0.792
 1296SOL     OW 4786   4.752   6.612   5.103
 1296SOL    HW1 4787   4.741   6.666   5.186
 1296SOL    HW2 4788   4.687   6.644   5.034
 1297SOL     OW 4789   1.330   6.374   1.746
 1297SOL    HW1 4790   1.374   6.373   1.836
 1297SOL    HW2 4791   1.370   6.447   1.690
 1298SOL     OW 4792   5.328   6.196   3.475
 1298SOL    HW1 4793   5.246   6.225   3.525
 1298SOL    HW2 4794   5.336   6.249   3.391
 1299SOL     OW 4795   2.071   2.479   3.522
 1299SOL    HW1 4796   2.120   2.498   3.437
 1299SOL    HW2 4797   2.072   2.380   3.540
 1300SOL     OW 4798   1.743   3.308   1.573
 1300SOL    HW1 4799   1.828   3.359   1.567
 1300SOL    HW2 4800   1.749   3.242   1.648
 1301SOL     OW 4801   0.919   6.707   1.907
 1301SOL    HW1 4802   0.845   6.733   1.970
 1301SOL    HW2 4803   0.894   6.733   1.814
 1302SOL     OW 4804   5.574   0.134   5.259
 1302SOL    HW1 4805   5.655   0.190   5.277
 1302SOL    HW2 4806   5.494   0.192   5.246
 1303SOL     OW 4807   3.902   1.042   1.616
 1303SOL    HW1 4808   3.820   1.041   1.559
 1303SOL    HW2 4809   3.876   1.032   1.712
 1304SOL     OW 4810   1.908   0.541   1.187
 1304SOL    HW1 4811   1.830   0.574   1.133
 1304SOL    HW2 4812   1.876   0.511   1.277
 1305SOL     OW 4813   5.424   4.373   6.945
 1305SOL    HW1 4814   5.470   4.336   7.026
 1305SOL    HW2 4815   5.462   4.331   6.863
 1306SOL     OW 4816   1.731   6.014   4.375
 1306SOL    HW1 4817   1.664   5.950   4.338
 1306SOL    HW2 4818   1.823   5.984   4.351
 1307SOL     OW 4819   2.116   3.621   4.360
 1307SOL    HW1 4820   2.112   3.558   4.437
 1307SOL    HW2 4821   2.174   3.699   4.383
 1308SOL     OW 4822   0.136   6.949   6.137
 1308SOL    HW1 4823   0.100   0.005   6.094
 1308SOL    HW2 4824   0.116   6.870   6.078
 1309SOL     OW 4825   5.230   4.270   5.042
 1309SOL    HW1 4826   5.166   4.199   5.070
 1309SOL    HW2 4827   5.252   4.328   5.120
 1310SOL     OW 4828   0.546   4.159   3.095
 1310SOL    HW1 4829   0.541   4.180   2.997
 1310SOL    HW2 4830   0.533   4.060   3.108
 1311SOL     OW 4831   6.658   6.083   6.285
 1311SOL    HW1 4832   6.608   5.996   6.287
 1311SOL    HW2 4833   6.755   6.064   6.274
 1312SOL     OW 4834   1.595   6.938   6.715
 1312SOL    HW1 4835   1.608   6.845   6.680
 1312SOL    HW2 4836   1.584   7.001   6.638
 1313SOL     OW 4837   0.009   4.822   2.348
 1313SOL    HW1 4838   7.026   4.909   2.397
 1313SOL    HW2 4839   0.017   4.841   2.250
 1314SOL     OW 4840   3.405   2.003   4.574
 1314SOL    HW1 4841   3.390   2.071   4.646
 1314SOL    HW2 4842   3.382   2.043   4.485
 1315SOL     OW 4843   6.863   1.022   3.270
 1315SOL    HW1 4844   6.962   1.030   3.281
 1315SOL    HW2 4845   6.828   1.103   3.223
 1316SOL     OW 4846   3.078   0.308   5.741
 1316SOL    HW1 4847   3.053   0.281   5.648
 1316SOL    HW2 4848   3.171   0.344   5.741
 1317SOL     OW 4849   1.438   3.963   5.094
 1317SOL    HW1 4850   1.464   3.925   5.005
 1317SOL    HW2 4851   1.377   4.041   5.080
 1318SOL     OW 4852   1.473   2.699   0.200
 1318SOL    HW1 4853   1.531   2.741   0.130
 1318SOL    HW2 4854   1.530   2.664   0.275
 1319SOL     OW 4855   0.284   5.213   0.569
 1319SOL    HW1 4856   0.248   5.271   0.495
 1319SOL    HW2 4857   0.328   5.133   0.530
 1320SOL     OW 4858   3.262   3.297   0.101
 1320SOL    HW1 4859   3.355   3.280   0.133
 1320SOL    HW2 4860   3.219   3.211   0.074
 1321SOL     OW 4861   4.694   2.521   6.647
 1321SOL    HW1 4862   4.750   2.458   6.700
 1321SOL    HW2 4863   4.643   2.471   6.577
 1322SOL     OW 4864   4.086   1.778   4.561
 1322SOL    HW1 4865   4.121   1.685   4.570
 1322SOL    HW2 4866   4.073   1.818   4.651
 1323SOL     OW 4867   3.202   6.505   6.993
 1323SOL    HW1 4868   3.119   6.560   6.989
 1323SOL    HW2 4869   3.194   6.437   0.039
 1324SOL     OW 4870   0.550   3.332   0.234
 1324SOL    HW1 4871   0.576   3.425   0.207
 1324SOL    HW2 4872   0.558   3.271   0.156
 1325SOL     OW 4873   4.112   6.289   5.192
 1325SOL    HW1 4874   4.067   6.301   5.281
 1325SOL    HW2 4875   4.042   6.282   5.121
 1326SOL     OW 4876   4.902   3.882   5.218
 1326SOL    HW1 4877   4.877   3.884   5.315
 1326SOL    HW2 4878   4.847   3.813   5.171
 1327SOL     OW 4879   1.258   6.214   0.851
 1327SOL    HW1 4880   1.174   6.165   0.874
 1327SOL    HW2 4881   1.282   6.276   0.925
 1328SOL     OW 4882   2.132   3.295   0.041
 1328SOL    HW1 4883   2.125   3.334   6.976
 1328SOL    HW2 4884   2.222   3.252   0.052
 1329SOL     OW 4885   0.237   2.233   2.347
 1329SOL    HW1 4886   0.217   2.315   2.293
 1329SOL    HW2 4887   0.224   2.254   2.444
 1330SOL     OW 4888   1.181   1.957   1.146
 1330SOL    HW1 4889   1.163   2.003   1.232
 1330SOL    HW2 4890   1.125   1.875   1.139
 1331SOL     OW 4891   4.633   2.708   3.112
 1331SOL    HW1 4892   4.633   2.729   3.209
 1331SOL    HW2 4893   4.611   2.611   3.099
 1332SOL     OW 4894   3.072   6.988   0.783
 1332SOL    HW1 4895   3.081   6.940   0.696
 1332SOL    HW2 4896   3.161   7.023   0.811
 1333SOL     OW 4897   2.985   3.328   3.267
 1333SOL    HW1 4898   3.079   3.357   3.286
 1333SOL    HW2 4899   2.937   3.402   3.218
 1334SOL     OW 4900   6.796   1.606   4.394
 1334SOL    HW1 4901   6.876   1.547   4.383
 1334SOL    HW2 4902   6.782   1.659   4.311
 1335SOL     OW 4903   2.234   2.056   2.258
 1335SOL    HW1 4904   2.265   2.002   2.180
 1335SOL    HW2 4905   2.269   2.150   2.250
 1336SOL     OW 4906   3.597   1.463   5.273
 1336SOL    HW1 4907   3.590   1.364   5.284
 1336SOL    HW2 4908   3.615   1.485   5.177
 1337SOL     OW 4909   0.379   1.419   3.226
 1337SOL    HW1 4910   0.406   1.437   3.131
 1337SOL    HW2 4911   0.450   1.452   3.288
 1338SOL     OW 4912   0.233   3.183   4.033
 1338SOL    HW1 4913   0.250   3.099   4.084
 1338SOL    HW2 4914   0.152   3.228   4.070
 1339SOL     OW 4915   5.928   1.420   0.147
 1339SOL    HW1 4916   5.884   1.403   0.235
 1339SOL    HW2 4917   5.986   1.501   0.154
 1340SOL     OW 4918   5.515   1.155   2.744
 1340SOL    HW1 4919   5.443   1.086   2.747
 1340SOL    HW2 4920   5.604   1.109   2.739
 1341SOL     OW 4921   4.596   6.592   7.026
 1341SOL    HW1 4922   4.511   6.540   7.024
 1341SOL    HW2 4923   4.580   6.682   6.986
 1342SOL     OW 4924   2.880   5.587   6.421
 1342SOL    HW1 4925   2.805   5.566   6.485
 1342SOL    HW2 4926   2.892   5.511   6.357
 1343SOL     OW 4927   5.375   5.600   2.859
 1343SOL    HW1 4928   5.390   5.670   2.789
 1343SOL    HW2 4929   5.461   5.583   2.908
 1344SOL     OW 4930   0.918   6.528   4.206
 1344SOL    HW1 4931   0.828   6.487   4.192
 1344SOL    HW2 4932   0.934   6.598   4.136
 1345SOL     OW 4933   0.624   4.955   2.169
 1345SOL    HW1 4934   0.531   4.991   2.168
 1345SOL    HW2 4935   0.686   5.021   2.128
 1346SOL     OW 4936   2.293   5.383   5.677
 1346SOL    HW1 4937   2.223   5.398   5.607
 1346SOL    HW2 4938   2.341   5.298   5.658
 1347SOL     OW 4939   0.489   6.579   6.843
 1347SOL    HW1 4940   0.406   6.617   6.886
 1347SOL    HW2 4941   0.474   6.482   6.822
 1348SOL     OW 4942   0.117   6.473   5.214
 1348SOL    HW1 4943   0.128   6.551   5.275
 1348SOL    HW2 4944   0.028   6.479   5.167
 1349SOL     OW 4945   5.244   2.547   4.629
 1349SOL    HW1 4946   5.294   2.530   4.713
 1349SOL    HW2 4947   5.289   2.620   4.577
 1350SOL     OW 4948   5.212   5.184   5.265
 1350SOL    HW1 4949   5.269   5.148   5.339
 1350SOL    HW2 4950   5.230   5.133   5.181
 1351SOL     OW 4951   5.357   2.754   3.994
 1351SOL    HW1 4952   5.290   2.704   3.938
 1351SOL    HW2 4953   5.333   2.851   3.995
 1352SOL     OW 4954   6.476   6.316   4.566
 1352SOL    HW1 4955   6.559   6.363   4.538
 1352SOL    HW2 4956   6.498   6.247   4.635
 1353SOL     OW 4957   0.861   2.239   0.623
 1353SOL    HW1 4958   0.769   2.210   0.593
 1353SOL    HW2 4959   0.858   2.265   0.719
 1354SOL     OW 4960   0.057   4.710   2.022
 1354SOL    HW1 4961   0.011   4.630   1.983
 1354SOL    HW2 4962   7.017   4.769   2.068
 1355SOL     OW 4963   6.325   4.263   4.212
 1355SOL    HW1 4964   6.342   4.203   4.134
 1355SOL    HW2 4965   6.273   4.343   4.181
 1356SOL     OW 4966   3.585   2.779   2.061
 1356SOL    HW1 4967   3.630   2.703   2.107
 1356SOL    HW2 4968   3.579   2.857   2.123
 1357SOL     OW 4969   6.911   4.580   6.540
 1357SOL    HW1 4970   6.948   4.556   6.630
 1357SOL    HW2 4971   6.888   4.677   6.538
 1358SOL     OW 4972   6.336   6.484   6.971
 1358SOL    HW1 4973   6.320   6.513   6.877
 1358SOL    HW2 4974   6.321   6.386   6.979
 1359SOL     OW 4975   6.038   4.659   2.490
 1359SOL    HW1 4976   5.944   4.652   2.522
 1359SOL    HW2 4977   6.055   4.589   2.421
 1360SOL     OW 4978   2.282   3.378   0.325
 1360SOL    HW1 4979   2.317   3.317   0.255
 1360SOL    HW2 4980   2.242   3.324   0.399
 1361SOL     OW 4981   6.423   4.372   4.889
 1361SOL    HW1 4982   6.497   4.409   4.945
 1361SOL    HW2 4983   6.340   4.366   4.944
 1362SOL     OW 4984   3.969   3.877   2.864
 1362SOL    HW1 4985   3.992   3.825   2.947
 1362SOL    HW2 4986   4.038   3.861   2.794
 1363SOL     OW 4987   0.674   5.444   4.760
 1363SOL    HW1 4988   0.754   5.388   4.778
 1363SOL    HW2 4989   0.613   5.395   4.696
 1364SOL     OW 4990   5.548   4.363   0.433
 1364SOL    HW1 4991   5.593   4.295   0.491
 1364SOL    HW2 4992   5.524   4.443   0.488
 1365SOL     OW 4993   0.934   4.625   6.281
 1365SOL    HW1 4994   0.840   4.641   6.310
 1365SOL    HW2 4995   0.996   4.633   6.359
 1366SOL     OW 4996   1.718   6.328   6.255
 1366SOL    HW1 4997   1.762   6.353   6.342
 1366SOL    HW2 4998   1.647   6.260   6.272
 1367SOL     OW 4999   2.550   0.128   2.438
 1367SOL    HW1 5000   2.542   0.034   2.406
 1367SOL    HW2 5001   2.462   0.174   2.432
 1368SOL     OW 5002   5.076   6.739   4.684
 1368SOL    HW1 5003   5.021   6.714   4.604
 1368SOL    HW2 5004   5.140   6.665   4.705
 1369SOL     OW 5005   1.473   6.452   3.267
 1369SOL    HW1 5006   1.466   6.367   3.216
 1369SOL    HW2 5007   1.526   6.436   3.351
 1370SOL     OW 5008   3.409   0.973   1.812
 1370SOL    HW1 5009   3.323   0.978   1.761
 1370SOL    HW2 5010   3.460   1.059   1.801
 1371SOL     OW 5011   4.737   1.393   4.384
 1371SOL    HW1 5012   4.808   1.402   4.454
 1371SOL    HW2 5013   4.780   1.402   4.294
 1372SOL     OW 5014   1.987   3.378   0.958
 1372SOL    HW1 5015   1.911   3.313   0.951
 1372SOL    HW2 5016   2.003   3.400   1.054
 1373SOL     OW 5017   6.516   4.449   0.497
 1373SOL    HW1 5018   6.468   4.530   0.533
 1373SOL    HW2 5019   6.461   4.408   0.425
 1374SOL     OW 5020   4.382   2.282   0.751
 1374SOL    HW1 5021   4.297   2.250   0.710
 1374SOL    HW2 5022   4.376   2.380   0.770
 1375SOL     OW 5023   7.009   4.856   6.289
 1375SOL    HW1 5024   0.071   4.844   6.245
 1375SOL    HW2 5025   6.962   4.768   6.296
 1376SOL     OW 5026   4.796   2.948   3.417
 1376SOL    HW1 5027   4.814   2.997   3.332
 1376SOL    HW2 5028   4.803   3.011   3.494
 1377SOL     OW 5029   6.816   4.182   5.820
 1377SOL    HW1 5030   6.823   4.164   5.722
 1377SOL    HW2 5031   6.899   4.226   5.852
 1378SOL     OW 5032   6.711   2.154   4.958
 1378SOL    HW1 5033   6.736   2.059   4.936
 1378SOL    HW2 5034   6.748   2.215   4.888
 1379SOL     OW 5035   3.130   6.705   2.477
 1379SOL    HW1 5036   3.136   6.762   2.559
 1379SOL    HW2 5037   3.196   6.738   2.409
 1380SOL     OW 5038   6.933   6.471   2.268
 1380SOL    HW1 5039   6.880   6.542   2.221
 1380SOL    HW2 5040   6.893   6.454   2.358
 1381SOL     OW 5041   5.270   2.614   0.094
 1381SOL    HW1 5042   5.331   2.540   0.067
 1381SOL    HW2 5043   5.245   2.604   0.190
 1382SOL     OW 5044   6.145   4.878   6.375
 1382SOL    HW1 5045   6.082   4.955   6.370
 1382SOL    HW2 5046   6.232   4.909   6.414
 1383SOL     OW 5047   0.767   1.093   0.147
 1383SOL    HW1 5048   0.831   1.021   0.121
 1383SOL    HW2 5049   0.714   1.122   0.067
 1384SOL     OW 5050   3.433   1.459   3.363
 1384SOL    HW1 5051   3.479   1.541   3.329
 1384SOL    HW2 5052   3.453   1.446   3.460
 1385SOL     OW 5053   6.991   3.049   3.164
 1385SOL    HW1 5054   0.046   3.020   3.115
 1385SOL    HW2 5055   7.008   3.135   3.212
 1386SOL     OW 5056   2.361   2.713   4.097
 1386SOL    HW1 5057   2.390   2.653   4.022
 1386SOL    HW2 5058   2.413   2.692   4.179
 1387SOL     OW 5059   3.348   1.119   4.166
 1387SOL    HW1 5060   3.446   1.139   4.163
 1387SOL    HW2 5061   3.317   1.116   4.261
 1388SOL     OW 5062   6.545   6.873   3.975
 1388SOL    HW1 5063   6.504   6.782   3.961
 1388SOL    HW2 5064   6.635   6.876   3.933
 1389SOL     OW 5065   0.175   0.886   4.044
 1389SOL    HW1 5066   0.159   0.964   4.104
 1389SOL    HW2 5067   0.187   0.803   4.098
 1390SOL     OW 5068   3.712   1.581   6.987
 1390SOL    HW1 5069   3.631   1.599   0.017
 1390SOL    HW2 5070   3.754   1.668   6.961
 1391SOL     OW 5071   6.087   1.487   5.268
 1391SOL    HW1 5072   6.053   1.560   5.209
 1391SOL    HW2 5073   6.166   1.443   5.224
 1392SOL     OW 5074   4.885   5.812   5.932
 1392SOL    HW1 5075   4.860   5.830   5.837
 1392SOL    HW2 5076   4.807   5.831   5.991
 1393SOL     OW 5077   6.302   1.848   6.783
 1393SOL    HW1 5078   6.377   1.802   6.736
 1393SOL    HW2 5079   6.305   1.946   6.765
 1394SOL     OW 5080   3.898   6.311   3.434
 1394SOL    HW1 5081   3.946   6.244   3.491
 1394SOL    HW2 5082   3.935   6.308   3.341
 1395SOL     OW 5083   0.127   3.621   2.757
 1395SOL    HW1 5084   0.083   3.619   2.847
 1395SOL    HW2 5085   0.172   3.533   2.741
 1396SOL     OW 5086   1.681   0.820   4.358
 1396SOL    HW1 5087   1.713   0.908   4.391
 1396SOL    HW2 5088   1.750   0.780   4.298
 1397SOL     OW 5089   0.326   5.782   5.136
 1397SOL    HW1 5090   0.291   5.868   5.099
 1397SOL    HW2 5091   0.292   5.705   5.082
 1398SOL     OW 5092   1.842   1.367   0.387
 1398SOL    HW1 5093   1.868   1.463   0.376
 1398SOL    HW2 5094   1.841   1.344   0.485
 1399SOL     OW 5095   4.300   6.902   0.699
 1399SOL    HW1 5096   4.202   6.896   0.685
 1399SOL    HW2 5097   4.327   6.842   0.774
 1400SOL     OW 5098   6.705   0.592   4.622
 1400SOL    HW1 5099   6.610   0.616   4.641
 1400SOL    HW2 5100   6.714   0.492   4.623
 1401SOL     OW 5101   5.536   6.841   4.297
 1401SOL    HW1 5102   5.630   6.838   4.263
 1401SOL    HW2 5103   5.492   6.753   4.282
 1402SOL     OW 5104   5.567   3.684   0.585
 1402SOL    HW1 5105   5.653   3.633   0.577
 1402SOL    HW2 5106   5.507   3.638   0.650
 1403SOL     OW 5107   3.290   3.490   0.633
 1403SOL    HW1 5108   3.370   3.498   0.693
 1403SOL    HW2 5109   3.253   3.581   0.614
 1404SOL     OW 5110   4.982   0.298   1.368
 1404SOL    HW1 5111   4.944   0.216   1.325
 1404SOL    HW2 5112   5.072   0.318   1.329
 1405SOL     OW 5113   1.602   3.548   0.959
 1405SOL    HW1 5114   1.557   3.462   0.983
 1405SOL    HW2 5115   1.534   3.622   0.955
 1406SOL     OW 5116   2.412   3.618   1.419
 1406SOL    HW1 5117   2.461   3.630   1.506
 1406SOL    HW2 5118   2.364   3.703   1.397
 1407SOL     OW 5119   0.369   3.463   1.481
 1407SOL    HW1 5120   0.296   3.487   1.544
 1407SOL    HW2 5121   0.388   3.540   1.421
 1408SOL     OW 5122   5.996   5.730   6.477
 1408SOL    HW1 5123   5.907   5.770   6.497
 1408SOL    HW2 5124   6.068   5.789   6.514
 1409SOL     OW 5125   0.101   1.757   5.730
 1409SOL    HW1 5126   0.008   1.782   5.705
 1409SOL    HW2 5127   0.102   1.665   5.768
 1410SOL     OW 5128   2.778   3.066   6.358
 1410SOL    HW1 5129   2.688   3.044   6.319
 1410SOL    HW2 5130   2.791   3.165   6.355
 1411SOL     OW 5131   3.860   6.255   6.830
 1411SOL    HW1 5132   3.904   6.166   6.820
 1411SOL    HW2 5133   3.925   6.327   6.806
 1412SOL     OW 5134   0.607   3.018   0.638
 1412SOL    HW1 5135   0.550   3.051   0.561
 1412SOL    HW2 5136   0.697   2.993   0.604
 1413SOL     OW 5137   2.000   2.268   5.491
 1413SOL    HW1 5138   2.000   2.331   5.568
 1413SOL    HW2 5139   2.094   2.237   5.474
 1414SOL     OW 5140   1.082   3.240   2.409
 1414SOL    HW1 5141   1.062   3.297   2.329
 1414SOL    HW2 5142   1.179   3.250   2.433
 1415SOL     OW 5143   2.640   2.289   4.354
 1415SOL    HW1 5144   2.724   2.242   4.381
 1415SOL    HW2 5145   2.581   2.300   4.434
 1416SOL     OW 5146   4.220   0.148   5.450
 1416SOL    HW1 5147   4.133   0.164   5.404
 1416SOL    HW2 5148   4.273   0.080   5.398
 1417SOL     OW 5149   2.976   3.109   6.025
 1417SOL    HW1 5150   2.995   3.097   6.123
 1417SOL    HW2 5151   3.063   3.112   5.975
 1418SOL     OW 5152   3.686   4.041   0.328
 1418SOL    HW1 5153   3.596   4.057   0.369
 1418SOL    HW2 5154   3.727   4.129   0.303
 1419SOL     OW 5155   1.824   4.748   4.135
 1419SOL    HW1 5156   1.781   4.804   4.065
 1419SOL    HW2 5157   1.922   4.770   4.140
 1420SOL     OW 5158   3.878   4.801   2.619
 1420SOL    HW1 5159   3.936   4.748   2.681
 1420SOL    HW2 5160   3.903   4.898   2.624
 1421SOL     OW 5161   1.198   4.673   4.819
 1421SOL    HW1 5162   1.235   4.701   4.907
 1421SOL    HW2 5163   1.144   4.589   4.830
 1422SOL     OW 5164   2.449   4.185   5.634
 1422SOL    HW1 5165   2.486   4.197   5.542
 1422SOL    HW2 5166   2.386   4.107   5.635
 1423SOL     OW 5167   4.284   1.782   4.856
 1423SOL    HW1 5168   4.204   1.836   4.832
 1423SOL    HW2 5169   4.264   1.726   4.936
 1424SOL     OW 5170   6.287   2.886   6.520
 1424SOL    HW1 5171   6.293   2.798   6.472
 1424SOL    HW2 5172   6.369   2.899   6.576
 1425SOL     OW 5173   3.833   6.201   4.626
 1425SOL    HW1 5174   3.774   6.279   4.648
 1425SOL    HW2 5175   3.783   6.116   4.642
 1426SOL     OW 5176   2.310   2.009   6.393
 1426SOL    HW1 5177   2.392   1.973   6.437
 1426SOL    HW2 5178   2.329   2.025   6.296
 1427SOL     OW 5179   1.012   0.751   3.142
 1427SOL    HW1 5180   1.112   0.758   3.145
 1427SOL    HW2 5181   0.986   0.667   3.095
 1428SOL     OW 5182   0.270   2.683   2.466
 1428SOL    HW1 5183   0.214   2.612   2.508
 1428SOL    HW2 5184   0.240   2.698   2.372
 1429SOL     OW 5185   6.177   1.651   0.545
 1429SOL    HW1 5186   6.220   1.618   0.461
 1429SOL    HW2 5187   6.225   1.733   0.577
 1430SOL     OW 5188   2.616   4.697   4.160
 1430SOL    HW1 5189   2.641   4.682   4.064
 1430SOL    HW2 5190   2.522   4.731   4.164
 1431SOL     OW 5191   2.881   1.800   6.137
 1431SOL    HW1 5192   2.938   1.757   6.207
 1431SOL    HW2 5193   2.929   1.879   6.098
 1432SOL     OW 5194   2.500   0.858   0.844
 1432SOL    HW1 5195   2.411   0.901   0.855
 1432SOL    HW2 5196   2.498   0.766   0.882
 1433SOL     OW 5197   3.204   0.880   3.439
 1433SOL    HW1 5198   3.257   0.955   3.479
 1433SOL    HW2 5199   3.107   0.903   3.441
 1434SOL     OW 5200   0.167   2.526   6.465
 1434SOL    HW1 5201   0.257   2.495   6.434
 1434SOL    HW2 5202   0.137   2.603   6.408
 1435SOL     OW 5203   0.768   0.211   3.584
 1435SOL    HW1 5204   0.822   0.130   3.559
 1435SOL    HW2 5205   0.713   0.191   3.665
 1436SOL     OW 5206   6.089   2.914   0.579
 1436SOL    HW1 5207   6.009   2.974   0.584
 1436SOL    HW2 5208   6.124   2.912   0.486
 1437SOL     OW 5209   4.713   1.167   6.110
 1437SOL    HW1 5210   4.803   1.149   6.148
 1437SOL    HW2 5211   4.705   1.264   6.086
 1438SOL     OW 5212   2.816   1.071   1.451
 1438SOL    HW1 5213   2.778   0.982   1.477
 1438SOL    HW2 5214   2.775   1.143   1.507
 1439SOL     OW 5215   0.257   5.532   6.941
 1439SOL    HW1 5216   0.309   5.474   6.879
 1439SOL    HW2 5217   0.160   5.528   6.917
 1440SOL     OW 5218   3.225   3.133   3.929
 1440SOL    HW1 5219   3.243   3.125   3.831
 1440SOL    HW2 5220   3.277   3.209   3.967
 1441SOL     OW 5221   6.299   3.175   4.051
 1441SOL    HW1 5222   6.273   3.101   4.113
 1441SOL    HW2 5223   6.343   3.248   4.102
 1442SOL     OW 5224   5.852   4.375   0.112
 1442SOL    HW1 5225   5.791   4.342   0.184
 1442SOL    HW2 5226   5.922   4.306   0.094
 1443SOL     OW 5227   0.999   0.532   3.543
 1443SOL    HW1 5228   1.070   0.533   3.473
 1443SOL    HW2 5229   0.910   0.515   3.501
 1444SOL     OW 5230   4.575   6.853   3.084
 1444SOL    HW1 5231   4.622   6.894   3.006
 1444SOL    HW2 5232   4.478   6.843   3.062
 1445SOL     OW 5233   0.220   2.405   1.369
 1445SOL    HW1 5234   0.306   2.385   1.416
 1445SOL    HW2 5235   0.166   2.469   1.424
 1446SOL     OW 5236   3.825   2.001   1.100
 1446SOL    HW1 5237   3.817   1.918   1.155
 1446SOL    HW2 5238   3.902   1.991   1.036
 1447SOL     OW 5239   6.701   0.873   5.284
 1447SOL    HW1 5240   6.757   0.938   5.233
 1447SOL    HW2 5241   6.627   0.839   5.226
 1448SOL     OW 5242   5.922   1.832   0.379
 1448SOL    HW1 5243   6.010   1.842   0.425
 1448SOL    HW2 5244   5.897   1.920   0.337
 1449SOL     OW 5245   6.040   6.408   0.599
 1449SOL    HW1 5246   5.970   6.351   0.642
 1449SOL    HW2 5247   5.997   6.474   0.537
 1450SOL     OW 5248   5.865   3.228   2.805
 1450SOL    HW1 5249   5.905   3.147   2.849
 1450SOL    HW2 5250   5.925   3.258   2.731
 1451SOL     OW 5251   2.294   6.696   2.812
 1451SOL    HW1 5252   2.377   6.741   2.844
 1451SOL    HW2 5253   2.225   6.765   2.790
 1452SOL     OW 5254   4.922   0.539   4.956
 1452SOL    HW1 5255   4.928   0.633   4.921
 1452SOL    HW2 5256   4.945   0.539   5.054
 1453SOL     OW 5257   5.120   4.037   4.723
 1453SOL    HW1 5258   5.209   3.991   4.728
 1453SOL    HW2 5259   5.073   4.027   4.811
 1454SOL     OW 5260   5.744   2.872   2.100
 1454SOL    HW1 5261   5.656   2.899   2.059
 1454SOL    HW2 5262   5.728   2.822   2.185
 1455SOL     OW 5263   1.062   0.786   1.774
 1455SOL    HW1 5264   0.993   0.843   1.728
 1455SOL    HW2 5265   1.142   0.776   1.714
 1456SOL     OW 5266   6.814   0.022   4.716
 1456SOL    HW1 5267   6.715   0.028   4.726
 1456SOL    HW2 5268   6.839   6.954   4.693
 1457SOL     OW 5269   1.162   6.929   3.697
 1457SOL    HW1 5270   1.163   6.843   3.646
 1457SOL    HW2 5271   1.253   6.945   3.736
 1458SOL     OW 5272   5.097   6.962   5.246
 1458SOL    HW1 5273   5.027   6.970   5.174
 1458SOL    HW2 5274   5.055   6.980   5.335
 1459SOL     OW 5275   2.889   6.027   6.697
 1459SOL    HW1 5276   2.790   6.013   6.697
 1459SOL    HW2 5277   2.910   6.124   6.713
 1460SOL     OW 5278   0.672   6.357   0.306
 1460SOL    HW1 5279   0.622   6.294   0.247
 1460SOL    HW2 5280   0.650   6.337   0.402
 1461SOL     OW 5281   6.244   4.559   3.406
 1461SOL    HW1 5282   6.150   4.542   3.377
 1461SOL    HW2 5283   6.291   4.611   3.335
 1462SOL     OW 5284   6.304   1.519   0.848
 1462SOL    HW1 5285   6.344   1.441   0.896
 1462SOL    HW2 5286   6.334   1.518   0.753
 1463SOL     OW 5287   0.646   0.287   5.320
 1463SOL    HW1 5288   0.641   0.198   5.365
 1463SOL    HW2 5289   0.594   0.284   5.234
 1464SOL     OW 5290   0.145   7.010   0.351
 1464SOL    HW1 5291   0.057   0.012   0.313
 1464SOL    HW2 5292   0.192   0.064   0.388
 1465SOL     OW 5293   0.538   0.631   3.474
 1465SOL    HW1 5294   0.576   0.723   3.458
 1465SOL    HW2 5295   0.500   0.626   3.566
 1466SOL     OW 5296   6.789   5.650   2.500
 1466SOL    HW1 5297   6.711   5.620   2.445
 1466SOL    HW2 5298   6.798   5.590   2.580
 1467SOL     OW 5299   1.800   0.871   3.227
 1467SOL    HW1 5300   1.713   0.877   3.275
 1467SOL    HW2 5301   1.784   0.878   3.128
 1468SOL     OW 5302   5.777   5.416   3.800
 1468SOL    HW1 5303   5.742   5.350   3.866
 1468SOL    HW2 5304   5.792   5.371   3.712
 1469SOL     OW 5305   0.198   0.323   3.011
 1469SOL    HW1 5306   0.274   0.294   2.953
 1469SOL    HW2 5307   0.173   0.417   2.988
 1470SOL     OW 5308   1.447   0.946   2.843
 1470SOL    HW1 5309   1.382   0.895   2.787
 1470SOL    HW2 5310   1.499   1.009   2.786
 1471SOL     OW 5311   6.653   0.534   6.716
 1471SOL    HW1 5312   6.563   0.528   6.758
 1471SOL    HW2 5313   6.643   0.561   6.620
 1472SOL     OW 5314   4.567   6.969   4.863
 1472SOL    HW1 5315   4.615   0.025   4.894
 1472SOL    HW2 5316   4.565   6.967   4.763
 1473SOL     OW 5317   6.113   5.977   2.780
 1473SOL    HW1 5318   6.135   5.956   2.684
 1473SOL    HW2 5319   6.164   5.915   2.840
 1474SOL     OW 5320   6.453   5.451   3.654
 1474SOL    HW1 5321   6.483   5.526   3.595
 1474SOL    HW2 5322   6.509   5.450   3.737
 1475SOL     OW 5323   0.017   0.186   2.186
 1475SOL    HW1 5324   0.117   0.192   2.193
 1475SOL    HW2 5325   7.003   0.200   2.276
 1476SOL     OW 5326   1.607   0.832   1.864
 1476SOL    HW1 5327   1.644   0.894   1.795
 1476SOL    HW2 5328   1.531   0.780   1.825
 1477SOL     OW 5329   3.346   0.382   5.759
 1477SOL    HW1 5330   3.421   0.449   5.757
 1477SOL    HW2 5331   3.355   0.324   5.839
 1478SOL     OW 5332   6.200   5.099   0.758
 1478SOL    HW1 5333   6.190   5.015   0.705
 1478SOL    HW2 5334   6.274   5.154   0.719
 1479SOL     OW 5335   1.614   4.462   0.234
 1479SOL    HW1 5336   1.662   4.415   0.308
 1479SOL    HW2 5337   1.681   4.502   0.171
 1480SOL     OW 5338   2.124   1.215   6.385
 1480SOL    HW1 5339   2.087   1.127   6.415
 1480SOL    HW2 5340   2.217   1.202   6.351
 1481SOL     OW 5341   5.965   2.181   5.582
 1481SOL    HW1 5342   5.952   2.113   5.510
 1481SOL    HW2 5343   5.878   2.197   5.629
 1482SOL     OW 5344   5.782   1.110   1.346
 1482SOL    HW1 5345   5.846   1.175   1.387
 1482SOL    HW2 5346   5.796   1.107   1.247
 1483SOL     OW 5347   6.379   2.878   6.920
 1483SOL    HW1 5348   6.320   2.802   6.895
 1483SOL    HW2 5349   6.326   2.947   6.969
 1484SOL     OW 5350   6.483   4.538   2.598
 1484SOL    HW1 5351   6.453   4.591   2.518
 1484SOL    HW2 5352   6.571   4.495   2.577
 1485SOL     OW 5353   5.570   2.846   2.671
 1485SOL    HW1 5354   5.570   2.945   2.656
 1485SOL    HW2 5355   5.660   2.809   2.646
 1486SOL     OW 5356   4.435   2.475   3.109
 1486SOL    HW1 5357   4.412   2.494   3.014
 1486SOL    HW2 5358   4.394   2.545   3.168
 1487SOL     OW 5359   6.169   1.420   6.334
 1487SOL    HW1 5360   6.217   1.432   6.246
 1487SOL    HW2 5361   6.148   1.510   6.372
 1488SOL     OW 5362   4.825   1.354   2.955
 1488SOL    HW1 5363   4.754   1.384   3.019
 1488SOL    HW2 5364   4.802   1.383   2.862
 1489SOL     OW 5365   3.535   4.988   4.782
 1489SOL    HW1 5366   3.584   4.940   4.855
 1489SOL    HW2 5367   3.600   5.041   4.728
 1490SOL     OW 5368   1.061   1.553   0.376
 1490SOL    HW1 5369   1.080   1.455   0.365
 1490SOL    HW2 5370   1.054   1.596   0.287
 1491SOL     OW 5371   6.569   3.789   3.148
 1491SOL    HW1 5372   6.574   3.883   3.117
 1491SOL    HW2 5373   6.639   3.735   3.101
 1492SOL     OW 5374   5.234   1.924   1.949
 1492SOL    HW1 5375   5.310   1.989   1.942
 1492SOL    HW2 5376   5.241   1.856   1.876
 1493SOL     OW 5377   4.568   0.283   4.831
 1493SOL    HW1 5378   4.597   0.240   4.746
 1493SOL    HW2 5379   4.521   0.369   4.810
 1494SOL     OW 5380   3.463   2.797   5.787
 1494SOL    HW1 5381   3.427   2.885   5.757
 1494SOL    HW2 5382   3.396   2.750   5.844
 1495SOL     OW 5383   0.314   3.609   3.429
 1495SOL    HW1 5384   0.350   3.574   3.515
 1495SOL    HW2 5385   0.388   3.650   3.375
 1496SOL     OW 5386   6.687   0.382   1.948
 1496SOL    HW1 5387   6.626   0.460   1.953
 1496SOL    HW2 5388   6.780   0.410   1.972
 1497SOL     OW 5389   0.115   5.333   4.243
 1497SOL    HW1 5390   0.134   5.421   4.286
 1497SOL    HW2 5391   0.016   5.317   4.245
 1498SOL     OW 5392   2.574   4.548   6.038
 1498SOL    HW1 5393   2.513   4.469   6.038
 1498SOL    HW2 5394   2.582   4.584   6.131
 1499SOL     OW 5395   1.068   4.036   5.039
 1499SOL    HW1 5396   1.078   3.940   5.067
 1499SOL    HW2 5397   0.993   4.045   4.974
 1500SOL     OW 5398   5.741   6.973   0.956
 1500SOL    HW1 5399   5.836   6.986   0.986
 1500SOL    HW2 5400   5.697   0.036   0.946
 1501SOL     OW 5401   4.272   0.446   6.760
 1501SOL    HW1 5402   4.372   0.441   6.761
 1501SOL    HW2 5403   4.236   0.380   6.694
 1502SOL     OW 5404   6.637   6.883   6.888
 1502SOL    HW1 5405   6.730   6.912   6.863
 1502SOL    HW2 5406   6.640   6.837   6.977
 1503SOL     OW 5407   2.058   2.845   0.533
 1503SOL    HW1 5408   2.143   2.822   0.485
 1503SOL    HW2 5409   1.997   2.766   0.533
 1504SOL     OW 5410   2.915   0.281   4.986
 1504SOL    HW1 5411   2.966   0.253   4.904
 1504SOL    HW2 5412   2.889   0.200   5.039
 1505SOL     OW 5413   5.617   0.383   5.494
 1505SOL    HW1 5414   5.704   0.355   5.455
 1505SOL    HW2 5415   5.593   0.474   5.461
 1506SOL     OW 5416   1.058   5.040   3.710
 1506SOL    HW1 5417   0.989   5.069   3.777
 1506SOL    HW2 5418   1.149   5.047   3.751
 1507SOL     OW 5419   1.852   1.844   4.624
 1507SOL    HW1 5420   1.921   1.873   4.557
 1507SOL    HW2 5421   1.898   1.814   4.707
 1508SOL     OW 5422   4.659   0.201   0.786
 1508SOL    HW1 5423   4.727   0.240   0.724
 1508SOL    HW2 5424   4.681   0.105   0.805
 1509SOL     OW 5425   4.601   2.963   6.107
 1509SOL    HW1 5426   4.623   3.059   6.124
 1509SOL    HW2 5427   4.504   2.948   6.126
 1510SOL     OW 5428   6.763   2.312   4.749
 1510SOL    HW1 5429   6.716   2.362   4.677
 1510SOL    HW2 5430   6.852   2.354   4.767
 1511SOL     OW 5431   2.574   1.538   6.577
 1511SOL    HW1 5432   2.618   1.448   6.580
 1511SOL    HW2 5433   2.501   1.543   6.644
 1512SOL     OW 5434   6.936   6.963   2.043
 1512SOL    HW1 5435   0.008   6.945   2.045
 1512SOL    HW2 5436   6.916   0.023   2.088
 1513SOL     OW 5437   3.670   6.917   3.814
 1513SOL    HW1 5438   3.693   6.851   3.885
 1513SOL    HW2 5439   3.743   6.919   3.746
 1514SOL     OW 5440   5.214   1.584   5.059
 1514SOL    HW1 5441   5.216   1.533   5.145
 1514SOL    HW2 5442   5.143   1.653   5.063
 1515SOL     OW 5443   6.854   4.395   5.333
 1515SOL    HW1 5444   6.943   4.415   5.292
 1515SOL    HW2 5445   6.795   4.353   5.265
 1516SOL     OW 5446   0.751   0.915   1.012
 1516SOL    HW1 5447   0.719   0.822   1.027
 1516SOL    HW2 5448   0.718   0.948   0.923
 1517SOL     OW 5449   4.584   5.325   3.686
 1517SOL    HW1 5450   4.643   5.355   3.611
 1517SOL    HW2 5451   4.496   5.372   3.680
 1518SOL     OW 5452   6.496   3.880   7.004
 1518SOL    HW1 5453   6.589   3.888   0.014
 1518SOL    HW2 5454   6.490   3.931   6.918
 1519SOL     OW 5455   6.858   4.459   1.148
 1519SOL    HW1 5456   6.796   4.412   1.211
 1519SOL    HW2 5457   6.807   4.530   1.099
 1520SOL     OW 5458   2.074   3.630   2.204
 1520SOL    HW1 5459   2.119   3.570   2.138
 1520SOL    HW2 5460   2.120   3.621   2.293
 1521SOL     OW 5461   1.721   3.311   0.230
 1521SOL    HW1 5462   1.809   3.359   0.231
 1521SOL    HW2 5463   1.701   3.277   0.322
 1522SOL     OW 5464   6.777   1.746   6.379
 1522SOL    HW1 5465   6.725   1.702   6.306
 1522SOL    HW2 5466   6.719   1.814   6.424
 1523SOL     OW 5467   5.416   3.431   6.733
 1523SOL    HW1 5468   5.339   3.382   6.692
 1523SOL    HW2 5469   5.484   3.451   6.663
 1524SOL     OW 5470   0.776   1.544   1.626
 1524SOL    HW1 5471   0.735   1.586   1.707
 1524SOL    HW2 5472   0.800   1.449   1.646
 1525SOL     OW 5473   4.435   1.382   5.897
 1525SOL    HW1 5474   4.465   1.465   5.944
 1525SOL    HW2 5475   4.339   1.366   5.916
 1526SOL     OW 5476   0.143   1.602   1.237
 1526SOL    HW1 5477   0.230   1.557   1.256
 1526SOL    HW2 5478   0.142   1.634   1.142
 1527SOL     OW 5479   3.429   1.801   5.135
 1527SOL    HW1 5480   3.455   1.875   5.198
 1527SOL    HW2 5481   3.373   1.734   5.185
 1528SOL     OW 5482   4.911   6.153   2.528
 1528SOL    HW1 5483   4.872   6.078   2.581
 1528SOL    HW2 5484   4.846   6.228   2.522
 1529SOL     OW 5485   4.937   1.101   6.234
 1529SOL    HW1 5486   4.942   1.004   6.209
 1529SOL    HW2 5487   4.964   1.113   6.330
 1530SOL     OW 5488   3.156   6.524   1.820
 1530SOL    HW1 5489   3.192   6.477   1.739
 1530SOL    HW2 5490   3.087   6.591   1.792
 1531SOL     OW 5491   5.863   0.739   5.056
 1531SOL    HW1 5492   5.764   0.725   5.051
 1531SOL    HW2 5493   5.903   0.722   4.966
 1532SOL     OW 5494   3.490   2.012   5.295
 1532SOL    HW1 5495   3.431   2.024   5.216
 1532SOL    HW2 5496   3.437   2.028   5.379
 1533SOL     OW 5497   6.832   3.124   6.513
 1533SOL    HW1 5498   6.924   3.153   6.540
 1533SOL    HW2 5499   6.799   3.055   6.577
 1534SOL     OW 5500   2.087   5.405   0.299
 1534SOL    HW1 5501   2.064   5.478   0.234
 1534SOL    HW2 5502   2.050   5.428   0.389
 1535SOL     OW 5503   5.181   4.955   4.219
 1535SOL    HW1 5504   5.249   5.027   4.201
 1535SOL    HW2 5505   5.196   4.917   4.310
 1536SOL     OW 5506   2.200   5.290   4.645
 1536SOL    HW1 5507   2.180   5.209   4.590
 1536SOL    HW2 5508   2.206   5.370   4.586
 1537SOL     OW 5509   3.236   5.305   3.640
 1537SOL    HW1 5510   3.313   5.368   3.654
 1537SOL    HW2 5511   3.168   5.318   3.712
 1538SOL     OW 5512   3.134   4.159   6.521
 1538SOL    HW1 5513   3.130   4.207   6.433
 1538SOL    HW2 5514   3.225   4.120   6.533
 1539SOL     OW 5515   3.419   4.180   1.792
 1539SOL    HW1 5516   3.492   4.241   1.760
 1539SOL    HW2 5517   3.409   4.188   1.891
 1540SOL     OW 5518   0.866   0.593   4.572
 1540SOL    HW1 5519   0.833   0.626   4.484
 1540SOL    HW2 5520   0.955   0.549   4.560
 1541SOL     OW 5521   3.645   3.144   1.189
 1541SOL    HW1 5522   3.609   3.068   1.135
 1541SOL    HW2 5523   3.654   3.115   1.285
 1542SOL     OW 5524   0.510   5.764   1.445
 1542SOL    HW1 5525   0.544   5.857   1.463
 1542SOL    HW2 5526   0.471   5.726   1.528
 1543SOL     OW 5527   3.448   3.517   3.439
 1543SOL    HW1 5528   3.514   3.589   3.416
 1543SOL    HW2 5529   3.491   3.452   3.502
 1544SOL     OW 5530   2.977   3.846   2.369
 1544SOL    HW1 5531   3.019   3.935   2.350
 1544SOL    HW2 5532   2.953   3.802   2.282
 1545SOL     OW 5533   5.817   0.718   5.430
 1545SOL    HW1 5534   5.856   0.744   5.519
 1545SOL    HW2 5535   5.804   0.800   5.374
 1546SOL     OW 5536   6.308   0.697   6.170
 1546SOL    HW1 5537   6.220   0.743   6.158
 1546SOL    HW2 5538   6.327   0.688   6.268
 1547SOL     OW 5539   2.713   4.662   2.743
 1547SOL    HW1 5540   2.731   4.693   2.649
 1547SOL    HW2 5541   2.729   4.738   2.806
 1548SOL     OW 5542   3.972   4.342   5.531
 1548SOL    HW1 5543   3.950   4.331   5.434
 1548SOL    HW2 5544   3.933   4.265   5.582
 1549SOL     OW 5545   6.450   1.658   1.904
 1549SOL    HW1 5546   6.528   1.703   1.861
 1549SOL    HW2 5547   6.482   1.583   1.962
 1550SOL     OW 5548   2.613   6.713   5.555
 1550SOL    HW1 5549   2.626   6.728   5.653
 1550SOL    HW2 5550   2.694   6.743   5.505
 1551SOL     OW 5551   2.074   2.964   1.153
 1551SOL    HW1 5552   2.118   3.011   1.077
 1551SOL    HW2 5553   2.050   3.030   1.225
 1552SOL     OW 5554   1.365   6.868   0.803
 1552SOL    HW1 5555   1.305   6.898   0.728
 1552SOL    HW2 5556   1.315   6.869   0.889
 1553SOL     OW 5557   6.132   1.456   6.938
 1553SOL    HW1 5558   6.180   1.369   6.943
 1553SOL    HW2 5559   6.058   1.457   7.006
 1554SOL     OW 5560   4.205   2.253   2.847
 1554SOL    HW1 5561   4.246   2.167   2.816
 1554SOL    HW2 5562   4.276   2.322   2.858
 1555SOL     OW 5563   4.661   1.599   5.446
 1555SOL    HW1 5564   4.667   1.499   5.442
 1555SOL    HW2 5565   4.577   1.625   5.492
 1556SOL     OW 5566   3.650   0.051   1.038
 1556SOL    HW1 5567   3.684   0.145   1.050
 1556SOL    HW2 5568   3.650   0.028   0.941
 1557SOL     OW 5569   2.255   2.358   0.921
 1557SOL    HW1 5570   2.156   2.351   0.917
 1557SOL    HW2 5571   2.282   2.444   0.965
 1558SOL     OW 5572   6.471   2.381   4.959
 1558SOL    HW1 5573   6.536   2.306   4.966
 1558SOL    HW2 5574   6.393   2.354   4.904
 1559SOL     OW 5575   0.595   4.116   2.245
 1559SOL    HW1 5576   0.552   4.056   2.179
 1559SOL    HW2 5577   0.688   4.083   2.265
 1560SOL     OW 5578   3.991   1.761   0.304
 1560SOL    HW1 5579   3.983   1.817   0.386
 1560SOL    HW2 5580   3.932   1.680   0.313
 1561SOL     OW 5581   5.613   6.271   2.048
 1561SOL    HW1 5582   5.589   6.317   1.962
 1561SOL    HW2 5583   5.655   6.336   2.110
 1562SOL     OW 5584   2.791   6.391   2.379
 1562SOL    HW1 5585   2.692   6.401   2.364
 1562SOL    HW2 5586   2.840   6.435   2.304
 1563SOL     OW 5587   3.011   2.173   4.816
 1563SOL    HW1 5588   3.054   2.224   4.890
 1563SOL    HW2 5589   3.020   2.075   4.833
 1564SOL     OW 5590   1.203   1.829   2.551
 1564SOL    HW1 5591   1.189   1.843   2.650
 1564SOL    HW2 5592   1.277   1.887   2.519
 1565SOL     OW 5593   3.972   5.761   4.225
 1565SOL    HW1 5594   3.946   5.726   4.135
 1565SOL    HW2 5595   4.035   5.838   4.215
 1566SOL     OW 5596   5.155   4.827   3.679
 1566SOL    HW1 5597   5.187   4.922   3.687
 1566SOL    HW2 5598   5.215   4.768   3.733
 1567SOL     OW 5599   5.843   5.328   6.377
 1567SOL    HW1 5600   5.892   5.242   6.365
 1567SOL    HW2 5601   5.765   5.331   6.314
 1568SOL     OW 5602   2.145   5.995   4.028
 1568SOL    HW1 5603   2.232   6.044   4.021
 1568SOL    HW2 5604   2.126   5.974   4.124
 1569SOL     OW 5605   3.406   0.675   2.839
 1569SOL    HW1 5606   3.491   0.627   2.862
 1569SOL    HW2 5607   3.374   0.645   2.749
 1570SOL     OW 5608   3.007   6.822   6.643
 1570SOL    HW1 5609   2.956   6.771   6.574
 1570SOL    HW2 5610   2.981   6.791   6.734
 1571SOL     OW 5611   1.104   2.339   3.306
 1571SOL    HW1 5612   1.156   2.415   3.345
 1571SOL    HW2 5613   1.045   2.299   3.376
 1572SOL     OW 5614   1.549   5.220   1.596
 1572SOL    HW1 5615   1.473   5.159   1.618
 1572SOL    HW2 5616   1.606   5.234   1.677
 1573SOL     OW 5617   5.347   5.518   1.624
 1573SOL    HW1 5618   5.292   5.435   1.626
 1573SOL    HW2 5619   5.319   5.579   1.698
 1574SOL     OW 5620   6.260   3.183   2.046
 1574SOL    HW1 5621   6.339   3.125   2.026
 1574SOL    HW2 5622   6.183   3.125   2.075
 1575SOL     OW 5623   1.253   0.755   1.590
 1575SOL    HW1 5624   1.211   0.680   1.538
 1575SOL    HW2 5625   1.314   0.806   1.530
 1576SOL     OW 5626   0.546   6.131   2.478
 1576SOL    HW1 5627   0.470   6.143   2.541
 1576SOL    HW2 5628   0.543   6.202   2.407
 1577SOL     OW 5629   3.095   0.487   6.327
 1577SOL    HW1 5630   3.155   0.409   6.345
 1577SOL    HW2 5631   3.015   0.482   6.387
 1578SOL     OW 5632   4.054   0.802   0.324
 1578SOL    HW1 5633   4.113   0.872   0.284
 1578SOL    HW2 5634   4.067   0.716   0.275
 1579SOL     OW 5635   0.639   2.972   1.605
 1579SOL    HW1 5636   0.696   2.929   1.536
 1579SOL    HW2 5637   0.543   2.967   1.577
 1580SOL     OW 5638   3.135   3.501   3.589
 1580SOL    HW1 5639   3.161   3.582   3.537
 1580SOL    HW2 5640   3.218   3.454   3.621
 1581SOL     OW 5641   6.988   5.034   5.308
 1581SOL    HW1 5642   7.003   5.042   5.407
 1581SOL    HW2 5643   0.038   5.076   5.259
 1582SOL     OW 5644   4.470   5.712   5.056
 1582SOL    HW1 5645   4.496   5.618   5.034
 1582SOL    HW2 5646   4.370   5.721   5.048
 1583SOL     OW 5647   0.827   6.446   5.183
 1583SOL    HW1 5648   0.916   6.402   5.167
 1583SOL    HW2 5649   0.758   6.376   5.203
 1584SOL     OW 5650   1.469   5.134   6.532
 1584SOL    HW1 5651   1.502   5.048   6.493
 1584SOL    HW2 5652   1.373   5.123   6.560
 1585SOL     OW 5653   3.689   1.547   3.567
 1585SOL    HW1 5654   3.667   1.580   3.476
 1585SOL    HW2 5655   3.611   1.499   3.606
 1586SOL     OW 5656   3.288   4.970   3.327
 1586SOL    HW1 5657   3.375   4.942   3.368
 1586SOL    HW2 5658   3.258   5.056   3.368
 1587SOL     OW 5659   2.069   5.773   5.809
 1587SOL    HW1 5660   2.161   5.778   5.771
 1587SOL    HW2 5661   2.072   5.733   5.901
 1588SOL     OW 5662   4.557   0.303   2.620
 1588SOL    HW1 5663   4.573   0.224   2.561
 1588SOL    HW2 5664   4.557   0.274   2.716
 1589SOL     OW 5665   6.368   4.034   2.704
 1589SOL    HW1 5666   6.299   4.039   2.776
 1589SOL    HW2 5667   6.337   4.086   2.625
 1590SOL     OW 5668   5.015   1.957   3.394
 1590SOL    HW1 5669   5.000   1.911   3.306
 1590SOL    HW2 5670   5.111   1.983   3.401
 1591SOL     OW 5671   6.433   5.616   1.509
 1591SOL    HW1 5672   6.518   5.563   1.518
 1591SOL    HW2 5673   6.436   5.671   1.426
 1592SOL     OW 5674   1.243   4.945   6.665
 1592SOL    HW1 5675   1.288   4.872   6.613
 1592SOL    HW2 5676   1.175   4.990   6.607
 1593SOL     OW 5677   1.264   0.012   6.351
 1593SOL    HW1 5678   1.239   6.962   6.410
 1593SOL    HW2 5679   1.303   7.003   6.266
 1594SOL     OW 5680   6.760   6.632   1.779
 1594SOL    HW1 5681   6.746   6.537   1.807
 1594SOL    HW2 5682   6.858   6.654   1.783
 1595SOL     OW 5683   1.581   3.940   6.982
 1595SOL    HW1 5684   1.505   3.950   6.918
 1595SOL    HW2 5685   1.555   3.879   0.030
 1596SOL     OW 5686   5.848   3.552   3.188
 1596SOL    HW1 5687   5.771   3.490   3.202
 1596SOL    HW2 5688   5.881   3.544   3.094
 1597SOL     OW 5689   2.949   5.840   0.938
 1597SOL    HW1 5690   3.031   5.785   0.951
 1597SOL    HW2 5691   2.904   5.813   0.853
 1598SOL     OW 5692   1.525   5.518   6.848
 1598SOL    HW1 5693   1.484   5.500   6.759
 1598SOL    HW2 5694   1.454   5.547   6.912
 1599SOL     OW 5695   3.757   5.091   4.592
 1599SOL    HW1 5696   3.747   5.076   4.493
 1599SOL    HW2 5697   3.852   5.113   4.613
 1600SOL     OW 5698   3.148   0.496   2.131
 1600SOL    HW1 5699   3.243   0.527   2.125
 1600SOL    HW2 5700   3.137   0.412   2.080
 1601SOL     OW 5701   6.546   6.350   4.124
 1601SOL    HW1 5702   6.618   6.419   4.111
 1601SOL    HW2 5703   6.532   6.299   4.039
 1602SOL     OW 5704   4.543   5.208   3.942
 1602SOL    HW1 5705   4.538   5.109   3.935
 1602SOL    HW2 5706   4.529   5.249   3.851
 1603SOL     OW 5707   2.833   5.244   4.372
 1603SOL    HW1 5708   2.824   5.341   4.348
 1603SOL    HW2 5709   2.875   5.195   4.296
 1604SOL     OW 5710   4.170   5.063   1.900
 1604SOL    HW1 5711   4.252   5.119   1.893
 1604SOL    HW2 5712   4.179   4.999   1.976
 1605SOL     OW 5713   5.572   5.454   1.504
 1605SOL    HW1 5714   5.478   5.479   1.530
 1605SOL    HW2 5715   5.626   5.436   1.586
 1606SOL     OW 5716   3.921   5.354   5.133
 1606SOL    HW1 5717   3.861   5.304   5.071
 1606SOL    HW2 5718   4.002   5.299   5.152
 1607SOL     OW 5719   4.097   0.263   1.934
 1607SOL    HW1 5720   4.020   0.203   1.957
 1607SOL    HW2 5721   4.072   0.357   1.955
 1608SOL     OW 5722   6.942   0.459   3.300
 1608SOL    HW1 5723   6.867   0.449   3.235
 1608SOL    HW2 5724   6.965   0.370   3.340
 1609SOL     OW 5725   2.996   6.482   0.832
 1609SOL    HW1 5726   2.976   6.513   0.925
 1609SOL    HW2 5727   2.970   6.385   0.824
 1610SOL     OW 5728   5.302   6.256   0.327
 1610SOL    HW1 5729   5.239   6.312   0.273
 1610SOL    HW2 5730   5.290   6.277   0.424
 1611SOL     OW 5731   1.651   3.826   1.224
 1611SOL    HW1 5732   1.612   3.881   1.299
 1611SOL    HW2 5733   1.591   3.831   1.144
 1612SOL     OW 5734   2.846   6.142   1.417
 1612SOL    HW1 5735   2.874   6.055   1.376
 1612SOL    HW2 5736   2.924   6.205   1.417
 1613SOL     OW 5737   0.675   5.911   2.142
 1613SOL    HW1 5738   0.753   5.970   2.118
 1613SOL    HW2 5739   0.708   5.831   2.191
 1614SOL     OW 5740   5.365   1.990   6.333
 1614SOL    HW1 5741   5.393   1.991   6.429
 1614SOL    HW2 5742   5.446   1.977   6.276
 1615SOL     OW 5743   0.105   5.007   6.552
 1615SOL    HW1 5744   0.170   4.951   6.501
 1615SOL    HW2 5745   0.109   5.102   6.519
 1616SOL     OW 5746   3.616   0.657   4.876
 1616SOL    HW1 5747   3.673   0.726   4.832
 1616SOL    HW2 5748   3.674   0.591   4.923
 1617SOL     OW 5749   4.693   0.203   3.300
 1617SOL    HW1 5750   4.620   0.263   3.331
 1617SOL    HW2 5751   4.702   0.211   3.201
 1618SOL     OW 5752   1.585   5.907   2.430
 1618SOL    HW1 5753   1.659   5.877   2.369
 1618SOL    HW2 5754   1.624   5.958   2.507
 1619SOL     OW 5755   1.058   5.108   6.539
 1619SOL    HW1 5756   1.021   5.176   6.602
 1619SOL    HW2 5757   0.983   5.063   6.490
 1620SOL     OW 5758   2.904   5.243   1.285
 1620SOL    HW1 5759   2.969   5.303   1.332
 1620SOL    HW2 5760   2.952   5.189   1.216
 1621SOL     OW 5761   6.359   6.795   1.396
 1621SOL    HW1 5762   6.278   6.840   1.435
 1621SOL    HW2 5763   6.436   6.859   1.395
 1622SOL     OW 5764   0.410   4.008   5.995
 1622SOL    HW1 5765   0.506   4.000   6.020
 1622SOL    HW2 5766   0.367   4.083   6.047
 1623SOL     OW 5767   0.192   2.523   4.663
 1623SOL    HW1 5768   0.270   2.471   4.627
 1623SOL    HW2 5769   0.144   2.568   4.587
 1624SOL     OW 5770   3.968   1.122   0.277
 1624SOL    HW1 5771   3.973   1.221   0.283
 1624SOL    HW2 5772   3.902   1.087   0.343
 1625SOL     OW 5773   1.150   5.115   6.880
 1625SOL    HW1 5774   1.202   5.049   6.826
 1625SOL    HW2 5775   1.054   5.087   6.882
 1626SOL     OW 5776   2.745   1.396   2.278
 1626SOL    HW1 5777   2.704   1.487   2.287
 1626SOL    HW2 5778   2.735   1.347   2.364
 1627SOL     OW 5779   5.497   3.127   4.013
 1627SOL    HW1 5780   5.419   3.115   3.953
 1627SOL    HW2 5781   5.494   3.058   4.086
 1628SOL     OW 5782   5.160   6.417   6.705
 1628SOL    HW1 5783   5.198   6.450   6.792
 1628SOL    HW2 5784   5.234   6.386   6.646
 1629SOL     OW 5785   2.680   1.898   3.181
 1629SOL    HW1 5786   2.584   1.917   3.161
 1629SOL    HW2 5787   2.696   1.904   3.279
 1630SOL     OW 5788   6.774   3.945   6.269
 1630SOL    HW1 5789   6.774   4.012   6.343
 1630SOL    HW2 5790   6.761   3.992   6.182
 1631SOL     OW 5791   6.582   3.302   0.888
 1631SOL    HW1 5792   6.585   3.356   0.972
 1631SOL    HW2 5793   6.626   3.353   0.814
 1632SOL     OW 5794   5.057   4.338   2.867
 1632SOL    HW1 5795   5.066   4.371   2.962
 1632SOL    HW2 5796   5.113   4.395   2.807
 1633SOL     OW 5797   4.844   4.068   4.277
 1633SOL    HW1 5798   4.846   4.014   4.361
 1633SOL    HW2 5799   4.938   4.089   4.250
 1634SOL     OW 5800   4.146   0.502   4.240
 1634SOL    HW1 5801   4.194   0.479   4.324
 1634SOL    HW2 5802   4.108   0.595   4.248
 1635SOL     OW 5803   2.578   5.266   6.332
 1635SOL    HW1 5804   2.509   5.337   6.342
 1635SOL    HW2 5805   2.556   5.189   6.391
 1636SOL     OW 5806   3.523   5.770   0.647
 1636SOL    HW1 5807   3.469   5.851   0.624
 1636SOL    HW2 5808   3.620   5.794   0.648
 1637SOL     OW 5809   6.599   6.499   3.783
 1637SOL    HW1 5810   6.678   6.560   3.775
 1637SOL    HW2 5811   6.537   6.515   3.705
 1638SOL     OW 5812   0.198   2.966   1.321
 1638SOL    HW1 5813   0.165   3.028   1.249
 1638SOL    HW2 5814   0.119   2.928   1.369
 1639SOL     OW 5815   6.780   4.003   1.921
 1639SOL    HW1 5816   6.762   3.904   1.920
 1639SOL    HW2 5817   6.723   4.047   1.852
 1640SOL     OW 5818   6.683   0.184   0.627
 1640SOL    HW1 5819   6.711   0.269   0.583
 1640SOL    HW2 5820   6.716   0.183   0.721
 1641SOL     OW 5821   0.346   2.466   3.527
 1641SOL    HW1 5822   0.394   2.395   3.475
 1641SOL    HW2 5823   0.261   2.489   3.480
 1642SOL     OW 5824   6.741   2.318   6.558
 1642SOL    HW1 5825   6.781   2.336   6.647
 1642SOL    HW2 5826   6.809   2.334   6.487
 1643SOL     OW 5827   3.346   5.042   3.063
 1643SOL    HW1 5828   3.281   4.985   3.013
 1643SOL    HW2 5829   3.347   5.015   3.159
 1644SOL     OW 5830   5.775   2.894   6.940
 1644SOL    HW1 5831   5.750   2.888   0.010
 1644SOL    HW2 5832   5.855   2.952   6.929
 1645SOL     OW 5833   2.872   6.953   6.156
 1645SOL    HW1 5834   2.796   6.888   6.160
 1645SOL    HW2 5835   2.944   6.925   6.219
 1646SOL     OW 5836   1.981   6.355   0.225
 1646SOL    HW1 5837   1.898   6.314   0.261
 1646SOL    HW2 5838   2.028   6.289   0.166
 1647SOL     OW 5839   5.423   2.653   4.262
 1647SOL    HW1 5840   5.385   2.681   4.174
 1647SOL    HW2 5841   5.464   2.562   4.253
 1648SOL     OW 5842   5.549   6.443   6.953
 1648SOL    HW1 5843   5.582   6.501   0.001
 1648SOL    HW2 5844   5.620   6.433   6.885
 1649SOL     OW 5845   3.491   0.909   3.219
 1649SOL    HW1 5846   3.403   0.867   3.195
 1649SOL    HW2 5847   3.477   1.004   3.246
 1650SOL     OW 5848   1.260   5.551   6.151
 1650SOL    HW1 5849   1.169   5.586   6.125
 1650SOL    HW2 5850   1.261   5.452   6.140
 1651SOL     OW 5851   0.270   2.458   2.881
 1651SOL    HW1 5852   0.248   2.387   2.948
 1651SOL    HW2 5853   0.367   2.452   2.857
 1652SOL     OW 5854   0.955   3.315   1.788
 1652SOL    HW1 5855   1.010   3.257   1.847
 1652SOL    HW2 5856   0.951   3.408   1.826
 1653SOL     OW 5857   0.091   5.678   2.200
 1653SOL    HW1 5858   0.044   5.744   2.141
 1653SOL    HW2 5859   0.190   5.686   2.186
 1654SOL     OW 5860   0.492   3.203   1.219
 1654SOL    HW1 5861   0.407   3.173   1.263
 1654SOL    HW2 5862   0.515   3.141   1.144
 1655SOL     OW 5863   7.016   1.299   4.517
 1655SOL    HW1 5864   0.031   1.208   4.518
 1655SOL    HW2 5865   0.033   1.357   4.586
 1656SOL     OW 5866   2.872   5.579   4.106
 1656SOL    HW1 5867   2.914   5.507   4.052
 1656SOL    HW2 5868   2.863   5.549   4.201
 1657SOL     OW 5869   6.318   1.030   5.124
 1657SOL    HW1 5870   6.243   1.083   5.085
 1657SOL    HW2 5871   6.405   1.075   5.104
 1658SOL     OW 5872   6.897   0.342   0.383
 1658SOL    HW1 5873   6.877   0.387   0.295
 1658SOL    HW2 5874   6.819   0.351   0.444
 1659SOL     OW 5875   3.886   0.194   0.046
 1659SOL    HW1 5876   3.895   0.187   6.973
 1659SOL    HW2 5877   3.950   0.132   0.090
 1660SOL     OW 5878   1.499   0.171   2.245
 1660SOL    HW1 5879   1.551   0.256   2.246
 1660SOL    HW2 5880   1.443   0.165   2.327
 1661SOL     OW 5881   2.691   5.182   2.248
 1661SOL    HW1 5882   2.697   5.273   2.290
 1661SOL    HW2 5883   2.783   5.146   2.235
 1662SOL     OW 5884   6.594   0.931   5.515
 1662SOL    HW1 5885   6.635   0.898   5.431
 1662SOL    HW2 5886   6.497   0.908   5.516
 1663SOL     OW 5887   5.182   5.541   2.474
 1663SOL    HW1 5888   5.230   5.454   2.463
 1663SOL    HW2 5889   5.171   5.562   2.572
 1664SOL     OW 5890   1.763   0.664   5.304
 1664SOL    HW1 5891   1.775   0.735   5.234
 1664SOL    HW2 5892   1.842   0.604   5.305
 1665SOL     OW 5893   0.394   3.628   1.742
 1665SOL    HW1 5894   0.419   3.700   1.678
 1665SOL    HW2 5895   0.420   3.655   1.835
 1666SOL     OW 5896   5.820   6.726   6.853
 1666SOL    HW1 5897   5.758   6.684   6.919
 1666SOL    HW2 5898   5.868   6.653   6.803
 1667SOL     OW 5899   6.752   6.352   1.180
 1667SOL    HW1 5900   6.799   6.275   1.136
 1667SOL    HW2 5901   6.742   6.427   1.115
 1668SOL     OW 5902   4.984   5.081   3.351
 1668SOL    HW1 5903   5.039   4.997   3.345
 1668SOL    HW2 5904   5.018   5.137   3.427
 1669SOL     OW 5905   6.797   4.446   5.599
 1669SOL    HW1 5906   6.795   4.414   5.504
 1669SOL    HW2 5907   6.892   4.451   5.630
 1670SOL     OW 5908   1.056   4.668   5.689
 1670SOL    HW1 5909   1.093   4.644   5.778
 1670SOL    HW2 5910   1.000   4.751   5.697
 1671SOL     OW 5911   5.416   1.680   3.061
 1671SOL    HW1 5912   5.428   1.601   3.121
 1671SOL    HW2 5913   5.494   1.687   2.999
 1672SOL     OW 5914   1.269   4.061   6.413
 1672SOL    HW1 5915   1.307   4.080   6.504
 1672SOL    HW2 5916   1.250   3.964   6.404
 1673SOL     OW 5917   1.956   1.714   4.840
 1673SOL    HW1 5918   1.927   1.626   4.877
 1673SOL    HW2 5919   2.052   1.730   4.864
 1674SOL     OW 5920   6.065   2.798   2.434
 1674SOL    HW1 5921   6.022   2.716   2.472
 1674SOL    HW2 5922   6.124   2.773   2.357
 1675SOL     OW 5923   4.829   0.123   1.190
 1675SOL    HW1 5924   4.765   0.073   1.248
 1675SOL    HW2 5925   4.779   0.171   1.118
 1676SOL     OW 5926   2.089   2.444   2.336
 1676SOL    HW1 5927   2.102   2.388   2.254
 1676SOL    HW2 5928   2.178   2.464   2.377
 1677SOL     OW 5929   3.827   3.920   3.289
 1677SOL    HW1 5930   3.798   3.944   3.381
 1677SOL    HW2 5931   3.788   3.986   3.224
 1678SOL     OW 5932   0.644   6.007   1.409
 1678SOL    HW1 5933   0.709   6.063   1.459
 1678SOL    HW2 5934   0.565   6.062   1.382
 1679SOL     OW 5935   1.534   1.367   5.190
 1679SOL    HW1 5936   1.436   1.347   5.178
 1679SOL    HW2 5937   1.586   1.329   5.114
 1680SOL     OW 5938   5.495   3.301   5.261
 1680SOL    HW1 5939   5.421   3.251   5.216
 1680SOL    HW2 5940   5.583   3.268   5.227
 1681SOL     OW 5941   1.950   5.616   4.780
 1681SOL    HW1 5942   2.036   5.639   4.827
 1681SOL    HW2 5943   1.886   5.692   4.789
 1682SOL     OW 5944   2.253   0.603   6.036
 1682SOL    HW1 5945   2.161   0.607   6.077
 1682SOL    HW2 5946   2.252   0.543   5.957
 1683SOL     OW 5947   5.737   6.511   2.855
 1683SOL    HW1 5948   5.802   6.493   2.781
 1683SOL    HW2 5949   5.729   6.430   2.913
 1684SOL     OW 5950   0.840   4.666   1.608
 1684SOL    HW1 5951   0.810   4.711   1.524
 1684SOL    HW2 5952   0.860   4.570   1.589
 1685SOL     OW 5953   1.674   1.870   5.394
 1685SOL    HW1 5954   1.587   1.881   5.442
 1685SOL    HW2 5955   1.697   1.773   5.387
 1686SOL     OW 5956   3.734   5.721   3.791
 1686SOL    HW1 5957   3.770   5.814   3.803
 1686SOL    HW2 5958   3.642   5.716   3.829
 1687SOL     OW 5959   0.664   4.086   1.877
 1687SOL    HW1 5960   0.599   4.037   1.935
 1687SOL    HW2 5961   0.631   4.179   1.861
 1688SOL     OW 5962   1.505   2.445   3.632
 1688SOL    HW1 5963   1.522   2.442   3.533
 1688SOL    HW2 5964   1.592   2.449   3.680
 1689SOL     OW 5965   6.580   1.152   2.705
 1689SOL    HW1 5966   6.518   1.189   2.774
 1689SOL    HW2 5967   6.566   1.053   2.696
 1690SOL     OW 5968   0.988   3.035   4.221
 1690SOL    HW1 5969   1.047   2.986   4.157
 1690SOL    HW2 5970   0.912   3.078   4.171
 1691SOL     OW 5971   5.331   3.396   4.246
 1691SOL    HW1 5972   5.364   3.490   4.232
 1691SOL    HW2 5973   5.401   3.343   4.293
 1692SOL     OW 5974   5.173   5.313   1.139
 1692SOL    HW1 5975   5.231   5.233   1.126
 1692SOL    HW2 5976   5.231   5.395   1.142
 1693SOL     OW 5977   0.120   1.733   4.744
 1693SOL    HW1 5978   0.184   1.777   4.807
 1693SOL    HW2 5979   0.138   1.765   4.651
 1694SOL     OW 5980   6.177   0.910   4.553
 1694SOL    HW1 5981   6.140   0.845   4.487
 1694SOL    HW2 5982   6.105   0.975   4.579
 1695SOL     OW 5983   3.464   0.708   0.081
 1695SOL    HW1 5984   3.550   0.711   0.132
 1695SOL    HW2 5985   3.483   0.711   7.010
 1696SOL     OW 5986   4.057   6.003   0.920
 1696SOL    HW1 5987   4.055   5.917   0.970
 1696SOL    HW2 5988   4.152   6.030   0.904
 1697SOL     OW 5989   5.688   2.346   0.791
 1697SOL    HW1 5990   5.692   2.305   0.882
 1697SOL    HW2 5991   5.779   2.344   0.749
 1698SOL     OW 5992   3.574   0.764   1.679
 1698SOL    HW1 5993   3.492   0.811   1.712
 1698SOL    HW2 5994   3.568   0.752   1.580
 1699SOL     OW 5995   2.772   2.033   6.206
 1699SOL    HW1 5996   2.845   2.094   6.177
 1699SOL    HW2 5997   2.796   1.938   6.184
 1700SOL     OW 5998   5.586   3.355   3.523
 1700SOL    HW1 5999   5.489   3.362   3.545
 1700SOL    HW2 6000   5.599   3.287   3.451
 1701SOL     OW 6001   6.062   5.204   4.827
 1701SOL    HW1 6002   5.966   5.233   4.832
 1701SOL    HW2 6003   6.117   5.279   4.789
 1702SOL     OW 6004   1.160   1.248   6.376
 1702SOL    HW1 6005   1.162   1.339   6.333
 1702SOL    HW2 6006   1.249   1.230   6.418
 1703SOL     OW 6007   4.251   1.154   6.119
 1703SOL    HW1 6008   4.215   1.233   6.070
 1703SOL    HW2 6009   4.341   1.176   6.157
 1704SOL     OW 6010   1.189   1.887   6.924
 1704SOL    HW1 6011   1.252   1.810   6.919
 1704SOL    HW2 6012   1.220   1.952   6.993
 1705SOL     OW 6013   3.769   1.778   1.909
 1705SOL    HW1 6014   3.693   1.843   1.900
 1705SOL    HW2 6015   3.782   1.730   1.822
 1706SOL     OW 6016   4.691   1.611   1.432
 1706SOL    HW1 6017   4.660   1.695   1.477
 1706SOL    HW2 6018   4.779   1.628   1.389
 1707SOL     OW 6019   5.138   1.948   2.764
 1707SOL    HW1 6020   5.200   1.964   2.840
 1707SOL    HW2 6021   5.044   1.963   2.794
 1708SOL     OW 6022   4.133   5.407   1.785
 1708SOL    HW1 6023   4.176   5.483   1.737
 1708SOL    HW2 6024   4.034   5.422   1.790
 1709SOL     OW 6025   4.368   6.568   0.556
 1709SOL    HW1 6026   4.318   6.596   0.638
 1709SOL    HW2 6027   4.459   6.534   0.582
 1710SOL     OW 6028   4.010   4.799   3.411
 1710SOL    HW1 6029   3.914   4.795   3.382
 1710SOL    HW2 6030   4.070   4.799   3.331
 1711SOL     OW 6031   2.661   4.981   5.537
 1711SOL    HW1 6032   2.666   5.077   5.564
 1711SOL    HW2 6033   2.651   4.975   5.437
 1712SOL     OW 6034   0.235   2.067   4.806
 1712SOL    HW1 6035   0.136   2.082   4.805
 1712SOL    HW2 6036   0.271   2.076   4.713
 1713SOL     OW 6037   3.553   1.198   3.036
 1713SOL    HW1 6038   3.468   1.208   3.087
 1713SOL    HW2 6039   3.537   1.146   2.953
 1714SOL     OW 6040   3.321   2.049   0.173
 1714SOL    HW1 6041   3.239   2.014   0.128
 1714SOL    HW2 6042   3.326   2.012   0.266
 1715SOL     OW 6043   2.293   5.734   2.502
 1715SOL    HW1 6044   2.383   5.704   2.469
 1715SOL    HW2 6045   2.302   5.822   2.548
 1716SOL     OW 6046   4.911   0.284   4.050
 1716SOL    HW1 6047   4.823   0.272   4.096
 1716SOL    HW2 6048   4.958   0.364   4.088
 1717SOL     OW 6049   3.857   5.278   5.384
 1717SOL    HW1 6050   3.946   5.244   5.416
 1717SOL    HW2 6051   3.871   5.334   5.302
 1718SOL     OW 6052   2.504   1.991   2.521
 1718SOL    HW1 6053   2.509   1.892   2.510
 1718SOL    HW2 6054   2.591   2.032   2.496
 1719SOL     OW 6055   1.794   4.712   0.927
 1719SOL    HW1 6056   1.825   4.673   0.841
 1719SOL    HW2 6057   1.694   4.705   0.933
 1720SOL     OW 6058   6.864   2.869   6.009
 1720SOL    HW1 6059   6.858   2.885   6.108
 1720SOL    HW2 6060   6.815   2.941   5.960
 1721SOL     OW 6061   1.237   0.357   2.141
 1721SOL    HW1 6062   1.188   0.285   2.093
 1721SOL    HW2 6063   1.185   0.442   2.135
 1722SOL     OW 6064   3.291   1.769   3.345
 1722SOL    HW1 6065   3.238   1.709   3.286
 1722SOL    HW2 6066   3.299   1.729   3.436
 1723SOL     OW 6067   4.370   2.090   6.909
 1723SOL    HW1 6068   4.446   2.129   6.960
 1723SOL    HW2 6069   4.398   2.002   6.869
 1724SOL     OW 6070   6.496   1.787   1.578
 1724SOL    HW1 6071   6.493   1.786   1.478
 1724SOL    HW2 6072   6.590   1.769   1.609
 1725SOL     OW 6073   1.858   4.692   6.728
 1725SOL    HW1 6074   1.812   4.745   6.799
 1725SOL    HW2 6075   1.931   4.638   6.768
 1726SOL     OW 6076   5.653   4.119   4.064
 1726SOL    HW1 6077   5.569   4.113   4.118
 1726SOL    HW2 6078   5.631   4.107   3.967
 1727SOL     OW 6079   3.741   3.679   2.951
 1727SOL    HW1 6080   3.655   3.643   2.915
 1727SOL    HW2 6081   3.809   3.684   2.878
 1728SOL     OW 6082   4.541   4.013   5.642
 1728SOL    HW1 6083   4.548   4.107   5.608
 1728SOL    HW2 6084   4.615   3.997   5.709
 1729SOL     OW 6085   1.011   3.880   2.827
 1729SOL    HW1 6086   1.031   3.876   2.729
 1729SOL    HW2 6087   0.924   3.927   2.841
 1730SOL     OW 6088   3.044   6.120   5.567
 1730SOL    HW1 6089   3.144   6.134   5.569
 1730SOL    HW2 6090   3.002   6.174   5.640
 1731SOL     OW 6091   5.573   5.115   3.665
 1731SOL    HW1 6092   5.567   5.192   3.600
 1731SOL    HW2 6093   5.594   5.151   3.756
 1732SOL     OW 6094   1.746   4.253   6.637
 1732SOL    HW1 6095   1.846   4.263   6.640
 1732SOL    HW2 6096   1.705   4.340   6.608
 1733SOL     OW 6097   2.533   4.664   0.771
 1733SOL    HW1 6098   2.563   4.570   0.781
 1733SOL    HW2 6099   2.507   4.701   0.861
 1734SOL     OW 6100   5.878   2.859   1.186
 1734SOL    HW1 6101   5.909   2.884   1.278
 1734SOL    HW2 6102   5.778   2.853   1.186
 1735SOL     OW 6103   4.530   5.498   6.346
 1735SOL    HW1 6104   4.502   5.548   6.264
 1735SOL    HW2 6105   4.580   5.560   6.408
 1736SOL     OW 6106   4.481   3.728   1.265
 1736SOL    HW1 6107   4.499   3.814   1.313
 1736SOL    HW2 6108   4.561   3.668   1.275
 1737SOL     OW 6109   5.426   0.598   4.238
 1737SOL    HW1 6110   5.360   0.645   4.297
 1737SOL    HW2 6111   5.381   0.572   4.152
 1738SOL     OW 6112   2.121   3.691   4.720
 1738SOL    HW1 6113   2.099   3.598   4.692
 1738SOL    HW2 6114   2.204   3.690   4.776
 1739SOL     OW 6115   6.083   0.468   4.197
 1739SOL    HW1 6116   5.985   0.454   4.187
 1739SOL    HW2 6117   6.106   0.476   4.294
 1740SOL     OW 6118   0.290   1.857   4.945
 1740SOL    HW1 6119   0.311   1.874   5.042
 1740SOL    HW2 6120   0.264   1.943   4.902
 1741SOL     OW 6121   2.005   1.512   3.387
 1741SOL    HW1 6122   1.965   1.492   3.298
 1741SOL    HW2 6123   2.097   1.550   3.374
 1742SOL     OW 6124   5.984   1.069   6.577
 1742SOL    HW1 6125   6.034   1.071   6.490
 1742SOL    HW2 6126   5.900   1.016   6.566
 1743SOL     OW 6127   1.292   1.255   3.060
 1743SOL    HW1 6128   1.246   1.176   3.101
 1743SOL    HW2 6129   1.304   1.240   2.962
 1744SOL     OW 6130   5.238   2.441   3.270
 1744SOL    HW1 6131   5.236   2.382   3.351
 1744SOL    HW2 6132   5.145   2.459   3.240
 1745SOL     OW 6133   6.285   5.931   1.514
 1745SOL    HW1 6134   6.222   5.995   1.469
 1745SOL    HW2 6135   6.257   5.918   1.609
 1746SOL     OW 6136   2.101   3.629   3.784
 1746SOL    HW1 6137   2.129   3.534   3.796
 1746SOL    HW2 6138   2.159   3.672   3.715
 1747SOL     OW 6139   3.569   1.686   2.238
 1747SOL    HW1 6140   3.596   1.637   2.155
 1747SOL    HW2 6141   3.649   1.731   2.278
 1748SOL     OW 6142   6.567   1.250   4.357
 1748SOL    HW1 6143   6.473   1.217   4.351
 1748SOL    HW2 6144   6.628   1.185   4.311
 1749SOL     OW 6145   2.995   6.221   0.535
 1749SOL    HW1 6146   3.023   6.300   0.481
 1749SOL    HW2 6147   3.070   6.155   0.537
 1750SOL     OW 6148   3.807   0.434   4.914
 1750SOL    HW1 6149   3.894   0.468   4.880
 1750SOL    HW2 6150   3.821   0.383   4.999
 1751SOL     OW 6151   6.062   2.508   4.670
 1751SOL    HW1 6152   6.097   2.433   4.614
 1751SOL    HW2 6153   6.006   2.569   4.614
 1752SOL     OW 6154   6.555   1.131   1.544
 1752SOL    HW1 6155   6.629   1.167   1.488
 1752SOL    HW2 6156   6.496   1.206   1.574
 1753SOL     OW 6157   6.885   1.477   1.987
 1753SOL    HW1 6158   6.818   1.470   2.061
 1753SOL    HW2 6159   6.898   1.387   1.945
 1754SOL     OW 6160   2.530   5.553   5.889
 1754SOL    HW1 6161   2.451   5.500   5.922
 1754SOL    HW2 6162   2.611   5.526   5.940
 1755SOL     OW 6163   6.142   6.320   5.211
 1755SOL    HW1 6164   6.060   6.325   5.268
 1755SOL    HW2 6165   6.216   6.277   5.263
 1756SOL     OW 6166   4.806   0.038   5.925
 1756SOL    HW1 6167   4.745   0.114   5.901
 1756SOL    HW2 6168   4.878   0.071   5.986
 1757SOL     OW 6169   2.390   5.204   4.020
 1757SOL    HW1 6170   2.361   5.108   4.019
 1757SOL    HW2 6171   2.343   5.252   4.093
 1758SOL     OW 6172   1.616   6.583   5.247
 1758SOL    HW1 6173   1.650   6.568   5.340
 1758SOL    HW2 6174   1.694   6.597   5.185
 1759SOL     OW 6175   1.398   6.236   5.888
 1759SOL    HW1 6176   1.343   6.162   5.848
 1759SOL    HW2 6177   1.392   6.232   5.988
 1760SOL     OW 6178   5.836   0.925   5.246
 1760SOL    HW1 6179   5.842   0.867   5.165
 1760SOL    HW2 6180   5.777   1.004   5.226
 1761SOL     OW 6181   0.064   1.031   1.033
 1761SOL    HW1 6182   0.086   1.113   1.086
 1761SOL    HW2 6183   0.048   1.057   0.938
 1762SOL     OW 6184   0.595   1.130   5.010
 1762SOL    HW1 6185   0.570   1.039   4.977
 1762SOL    HW2 6186   0.585   1.196   4.937
 1763SOL     OW 6187   1.107   4.405   4.835
 1763SOL    HW1 6188   1.019   4.390   4.791
 1763SOL    HW2 6189   1.156   4.318   4.842
 1764SOL     OW 6190   0.816   3.970   2.352
 1764SOL    HW1 6191   0.901   3.955   2.402
 1764SOL    HW2 6192   0.795   3.888   2.298
 1765SOL     OW 6193   4.654   2.626   1.770
 1765SOL    HW1 6194   4.732   2.572   1.738
 1765SOL    HW2 6195   4.685   2.692   1.838
 1766SOL     OW 6196   4.700   4.254   3.873
 1766SOL    HW1 6197   4.668   4.307   3.794
 1766SOL    HW2 6198   4.638   4.269   3.950
 1767SOL     OW 6199   0.660   5.043   2.459
 1767SOL    HW1 6200   0.638   5.010   2.368
 1767SOL    HW2 6201   0.580   5.091   2.497
 1768SOL     OW 6202   4.155   6.988   0.999
 1768SOL    HW1 6203   4.097   6.974   0.918
 1768SOL    HW2 6204   4.246   7.019   0.970
 1769SOL     OW 6205   6.010   0.797   6.757
 1769SOL    HW1 6206   6.025   0.871   6.823
 1769SOL    HW2 6207   5.918   0.804   6.719
 1770SOL     OW 6208   0.828   4.325   5.650
 1770SOL    HW1 6209   0.877   4.387   5.589
 1770SOL    HW2 6210   0.891   4.257   5.687
 1771SOL     OW 6211   1.028   4.612   0.056
 1771SOL    HW1 6212   1.045   4.567   0.143
 1771SOL    HW2 6213   1.107   4.601   7.023
 1772SOL     OW 6214   3.825   5.400   3.837
 1772SOL    HW1 6215   3.728   5.409   3.859
 1772SOL    HW2 6216   3.855   5.307   3.856
 1773SOL     OW 6217   1.170   0.871   5.033
 1773SOL    HW1 6218   1.256   0.876   5.084
 1773SOL    HW2 6219   1.105   0.813   5.081
 1774SOL     OW 6220   5.804   6.929   1.921
 1774SOL    HW1 6221   5.720   6.960   1.966
 1774SOL    HW2 6222   5.794   6.940   1.822
 1775SOL     OW 6223   2.099   5.265   6.217
 1775SOL    HW1 6224   2.173   5.253   6.151
 1775SOL    HW2 6225   2.027   5.198   6.199
 1776SOL     OW 6226   5.112   0.992   5.372
 1776SOL    HW1 6227   5.180   0.961   5.439
 1776SOL    HW2 6228   5.023   1.001   5.417
 1777SOL     OW 6229   4.249   7.019   6.302
 1777SOL    HW1 6230   4.241   6.920   6.289
 1777SOL    HW2 6231   4.283   0.034   6.218
 1778SOL     OW 6232   5.423   1.237   4.348
 1778SOL    HW1 6233   5.324   1.245   4.361
 1778SOL    HW2 6234   5.445   1.255   4.252
 1779SOL     OW 6235   4.874   0.015   5.063
 1779SOL    HW1 6236   4.860   6.973   4.991
 1779SOL    HW2 6237   4.870   0.106   5.023
 1780SOL     OW 6238   1.632   5.298   4.551
 1780SOL    HW1 6239   1.600   5.390   4.529
 1780SOL    HW2 6240   1.608   5.276   4.645
 1781SOL     OW 6241   4.709   0.131   4.648
 1781SOL    HW1 6242   4.805   0.123   4.622
 1781SOL    HW2 6243   4.653   0.076   4.586
 1782SOL     OW 6244   1.627   1.373   2.695
 1782SOL    HW1 6245   1.543   1.401   2.741
 1782SOL    HW2 6246   1.645   1.435   2.619
 1783SOL     OW 6247   2.214   3.685   6.149
 1783SOL    HW1 6248   2.131   3.644   6.186
 1783SOL    HW2 6249   2.213   3.783   6.165
 1784SOL     OW 6250   2.431   0.536   1.256
 1784SOL    HW1 6251   2.474   0.469   1.316
 1784SOL    HW2 6252   2.366   0.490   1.194
 1785SOL     OW 6253   0.212   6.517   4.300
 1785SOL    HW1 6254   0.266   6.589   4.344
 1785SOL    HW2 6255   0.273   6.449   4.261
 1786SOL     OW 6256   1.755   5.364   0.995
 1786SOL    HW1 6257   1.795   5.375   1.086
 1786SOL    HW2 6258   1.674   5.422   0.986
 1787SOL     OW 6259   1.237   2.179   5.620
 1787SOL    HW1 6260   1.290   2.218   5.695
 1787SOL    HW2 6261   1.154   2.234   5.606
 1788SOL     OW 6262   4.659   3.777   0.370
 1788SOL    HW1 6263   4.719   3.716   0.422
 1788SOL    HW2 6264   4.652   3.744   0.276
 1789SOL     OW 6265   6.375   3.426   1.681
 1789SOL    HW1 6266   6.316   3.368   1.737
 1789SOL    HW2 6267   6.381   3.387   1.589
 1790SOL     OW 6268   3.142   1.633   4.910
 1790SOL    HW1 6269   3.066   1.578   4.946
 1790SOL    HW2 6270   3.206   1.573   4.862
 1791SOL     OW 6271   6.393   0.770   3.783
 1791SOL    HW1 6272   6.470   0.707   3.788
 1791SOL    HW2 6273   6.425   0.860   3.752
 1792SOL     OW 6274   6.820   2.154   5.481
 1792SOL    HW1 6275   6.788   2.145   5.575
 1792SOL    HW2 6276   6.845   2.249   5.463
 1793SOL     OW 6277   6.995   1.303   5.274
 1793SOL    HW1 6278   6.992   1.314   5.175
 1793SOL    HW2 6279   6.919   1.245   5.303
 1794SOL     OW 6280   6.400   0.522   6.856
 1794SOL    HW1 6281   6.438   0.452   6.917
 1794SOL    HW2 6282   6.354   0.477   6.779
 1795SOL     OW 6283   5.659   4.634   6.949
 1795SOL    HW1 6284   5.562   4.647   6.972
 1795SOL    HW2 6285   5.667   4.605   6.854
 1796SOL     OW 6286   1.677   0.698   5.778
 1796SOL    HW1 6287   1.765   0.668   5.814
 1796SOL    HW2 6288   1.692   0.750   5.694
 1797SOL     OW 6289   1.864   6.861   4.949
 1797SOL    HW1 6290   1.852   6.958   4.972
 1797SOL    HW2 6291   1.833   6.845   4.856
 1798SOL     OW 6292   3.777   2.964   4.342
 1798SOL    HW1 6293   3.712   2.956   4.266
 1798SOL    HW2 6294   3.755   2.896   4.412
 1799SOL     OW 6295   3.520   0.693   6.844
 1799SOL    HW1 6296   3.494   0.603   6.808
 1799SOL    HW2 6297   3.597   0.729   6.791
 1800SOL     OW 6298   4.931   4.390   3.915
 1800SOL    HW1 6299   4.919   4.479   3.961
 1800SOL    HW2 6300   4.848   4.336   3.926
 1801SOL     OW 6301   1.477   1.244   1.706
 1801SOL    HW1 6302   1.535   1.265   1.785
 1801SOL    HW2 6303   1.479   1.321   1.642
 1802SOL     OW 6304   6.497   5.186   3.576
 1802SOL    HW1 6305   6.524   5.202   3.481
 1802SOL    HW2 6306   6.484   5.273   3.622
 1803SOL     OW 6307   6.611   6.375   2.229
 1803SOL    HW1 6308   6.622   6.283   2.268
 1803SOL    HW2 6309   6.548   6.371   2.152
 1804SOL     OW 6310   3.071   3.429   6.035
 1804SOL    HW1 6311   3.039   3.400   5.945
 1804SOL    HW2 6312   3.134   3.360   6.072
 1805SOL     OW 6313   0.901   6.784   5.917
 1805SOL    HW1 6314   0.941   6.692   5.917
 1805SOL    HW2 6315   0.906   6.823   5.825
 1806SOL     OW 6316   6.610   2.378   2.244
 1806SOL    HW1 6317   6.545   2.425   2.184
 1806SOL    HW2 6318   6.563   2.305   2.294
 1807SOL     OW 6319   6.513   3.823   0.726
 1807SOL    HW1 6320   6.569   3.783   0.653
 1807SOL    HW2 6321   6.536   3.920   0.736
 1808SOL     OW 6322   5.113   2.280   5.365
 1808SOL    HW1 6323   5.145   2.372   5.341
 1808SOL    HW2 6324   5.065   2.284   5.454
 1809SOL     OW 6325   3.659   2.323   5.638
 1809SOL    HW1 6326   3.632   2.309   5.542
 1809SOL    HW2 6327   3.648   2.419   5.662
 1810SOL     OW 6328   0.484   0.388   3.873
 1810SOL    HW1 6329   0.540   0.465   3.842
 1810SOL    HW2 6330   0.389   0.402   3.844
 1811SOL     OW 6331   4.047   5.018   2.210
 1811SOL    HW1 6332   4.013   5.098   2.160
 1811SOL    HW2 6333   3.970   4.965   2.246
 1812SOL     OW 6334   4.301   0.128   6.076
 1812SOL    HW1 6335   4.347   0.216   6.085
 1812SOL    HW2 6336   4.332   0.083   5.992
 1813SOL     OW 6337   4.800   4.542   2.615
 1813SOL    HW1 6338   4.704   4.515   2.611
 1813SOL    HW2 6339   4.853   4.470   2.660
 1814SOL     OW 6340   0.066   0.047   0.700
 1814SOL    HW1 6341   0.052   0.087   0.791
 1814SOL    HW2 6342   0.160   0.066   0.670
 1815SOL     OW 6343   5.766   6.048   1.923
 1815SOL    HW1 6344   5.748   6.117   1.993
 1815SOL    HW2 6345   5.725   6.076   1.836
 1816SOL     OW 6346   4.536   6.309   5.454
 1816SOL    HW1 6347   4.478   6.289   5.533
 1816SOL    HW2 6348   4.478   6.329   5.375
 1817SOL     OW 6349   2.848   1.681   3.116
 1817SOL    HW1 6350   2.804   1.769   3.133
 1817SOL    HW2 6351   2.803   1.610   3.170
 1818SOL     OW 6352   1.839   6.549   0.061
 1818SOL    HW1 6353   1.884   6.468   0.098
 1818SOL    HW2 6354   1.884   6.631   0.096
 1819SOL     OW 6355   0.770   4.532   2.563
 1819SOL    HW1 6356   0.733   4.447   2.525
 1819SOL    HW2 6357   0.773   4.524   2.663
 1820SOL     OW 6358   3.604   0.112   3.198
 1820SOL    HW1 6359   3.700   0.131   3.178
 1820SOL    HW2 6360   3.577   0.025   3.157
 1821SOL     OW 6361   3.530   0.941   2.051
 1821SOL    HW1 6362   3.520   0.974   1.957
 1821SOL    HW2 6363   3.442   0.947   2.098
 1822SOL     OW 6364   0.953   2.987   2.374
 1822SOL    HW1 6365   0.994   3.078   2.375
 1822SOL    HW2 6366   0.854   2.995   2.373
 1823SOL     OW 6367   3.696   6.925   2.964
 1823SOL    HW1 6368   3.761   6.957   3.033
 1823SOL    HW2 6369   3.697   6.825   2.961
 1824SOL     OW 6370   4.569   4.077   1.016
 1824SOL    HW1 6371   4.596   4.163   1.058
 1824SOL    HW2 6372   4.474   4.082   0.985
 1825SOL     OW 6373   1.348   2.554   5.153
 1825SOL    HW1 6374   1.335   2.498   5.071
 1825SOL    HW2 6375   1.382   2.644   5.127
 1826SOL     OW 6376   3.557   1.828   1.482
 1826SOL    HW1 6377   3.537   1.730   1.492
 1826SOL    HW2 6378   3.483   1.881   1.525
 1827SOL     OW 6379   5.124   5.266   0.883
 1827SOL    HW1 6380   5.159   5.173   0.873
 1827SOL    HW2 6381   5.110   5.286   0.980
 1828SOL     OW 6382   1.428   3.088   5.880
 1828SOL    HW1 6383   1.446   3.036   5.964
 1828SOL    HW2 6384   1.425   3.186   5.902
 1829SOL     OW 6385   4.075   0.158   3.925
 1829SOL    HW1 6386   4.082   0.254   3.952
 1829SOL    HW2 6387   3.988   0.121   3.956
 1830SOL     OW 6388   6.178   0.059   5.036
 1830SOL    HW1 6389   6.268   0.039   5.075
 1830SOL    HW2 6390   6.109   0.057   5.108
 1831SOL     OW 6391   5.113   5.538   2.750
 1831SOL    HW1 6392   5.189   5.549   2.814
 1831SOL    HW2 6393   5.099   5.440   2.732
 1832SOL     OW 6394   2.163   4.076   0.372
 1832SOL    HW1 6395   2.130   4.123   0.290
 1832SOL    HW2 6396   2.225   4.003   0.346
 1833SOL     OW 6397   4.694   0.510   1.833
 1833SOL    HW1 6398   4.729   0.550   1.917
 1833SOL    HW2 6399   4.751   0.540   1.756
 1834SOL     OW 6400   3.093   2.467   0.230
 1834SOL    HW1 6401   3.066   2.546   0.174
 1834SOL    HW2 6402   3.068   2.484   0.326
 1835SOL     OW 6403   0.796   4.976   1.130
 1835SOL    HW1 6404   0.772   5.067   1.166
 1835SOL    HW2 6405   0.786   4.908   1.203
 1836SOL     OW 6406   5.108   1.465   2.273
 1836SOL    HW1 6407   5.080   1.488   2.180
 1836SOL    HW2 6408   5.155   1.377   2.273
 1837SOL     OW 6409   2.519   1.001   5.734
 1837SOL    HW1 6410   2.455   0.933   5.770
 1837SOL    HW2 6411   2.604   0.956   5.706
 1838SOL     OW 6412   6.731   0.664   0.735
 1838SOL    HW1 6413   6.821   0.706   0.728
 1838SOL    HW2 6414   6.695   0.677   0.828
 1839SOL     OW 6415   5.862   2.083   0.300
 1839SOL    HW1 6416   5.810   2.108   0.219
 1839SOL    HW2 6417   5.853   2.155   0.369
 1840SOL     OW 6418   3.427   0.268   3.391
 1840SOL    HW1 6419   3.412   0.356   3.345
 1840SOL    HW2 6420   3.494   0.215   3.339
 1841SOL     OW 6421   2.191   0.122   2.113
 1841SOL    HW1 6422   2.245   0.182   2.172
 1841SOL    HW2 6423   2.176   0.167   2.024
 1842SOL     OW 6424   1.874   4.722   0.434
 1842SOL    HW1 6425   1.933   4.798   0.409
 1842SOL    HW2 6426   1.906   4.681   0.519
 1843SOL     OW 6427   3.863   1.240   4.621
 1843SOL    HW1 6428   3.779   1.250   4.568
 1843SOL    HW2 6429   3.931   1.192   4.567
 1844SOL     OW 6430   4.829   1.359   5.823
 1844SOL    HW1 6431   4.764   1.416   5.873
 1844SOL    HW2 6432   4.903   1.332   5.884
 1845SOL     OW 6433   2.590   0.595   3.612
 1845SOL    HW1 6434   2.609   0.538   3.532
 1845SOL    HW2 6435   2.673   0.644   3.639
 1846SOL     OW 6436   4.533   0.746   3.305
 1846SOL    HW1 6437   4.605   0.679   3.324
 1846SOL    HW2 6438   4.447   0.697   3.288
 1847SOL     OW 6439   2.246   0.482   4.361
 1847SOL    HW1 6440   2.306   0.498   4.283
 1847SOL    HW2 6441   2.197   0.566   4.384
 1848SOL     OW 6442   2.075   5.739   4.154
 1848SOL    HW1 6443   2.041   5.655   4.197
 1848SOL    HW2 6444   2.062   5.734   4.055
 1849SOL     OW 6445   4.763   2.898   2.606
 1849SOL    HW1 6446   4.791   2.992   2.584
 1849SOL    HW2 6447   4.784   2.879   2.702
 1850SOL     OW 6448   5.175   1.953   2.224
 1850SOL    HW1 6449   5.115   2.030   2.248
 1850SOL    HW2 6450   5.182   1.947   2.124
 1851SOL     OW 6451   0.284   2.867   6.457
 1851SOL    HW1 6452   0.328   2.835   6.373
 1851SOL    HW2 6453   0.305   2.964   6.470
 1852SOL     OW 6454   0.867   3.938   1.803
 1852SOL    HW1 6455   0.783   3.982   1.832
 1852SOL    HW2 6456   0.846   3.846   1.770
 1853SOL     OW 6457   6.902   3.121   4.545
 1853SOL    HW1 6458   6.972   3.174   4.496
 1853SOL    HW2 6459   6.927   3.114   4.641
 1854SOL     OW 6460   0.714   5.707   3.240
 1854SOL    HW1 6461   0.688   5.752   3.325
 1854SOL    HW2 6462   0.755   5.617   3.260
 1855SOL     OW 6463   5.131   3.554   4.479
 1855SOL    HW1 6464   5.152   3.487   4.408
 1855SOL    HW2 6465   5.211   3.610   4.497
 1856SOL     OW 6466   3.536   3.179   0.159
 1856SOL    HW1 6467   3.609   3.246   0.172
 1856SOL    HW2 6468   3.564   3.112   0.090
 1857SOL     OW 6469   5.394   1.178   0.456
 1857SOL    HW1 6470   5.480   1.157   0.502
 1857SOL    HW2 6471   5.331   1.219   0.522
 1858SOL     OW 6472   4.408   1.913   4.535
 1858SOL    HW1 6473   4.321   1.910   4.486
 1858SOL    HW2 6474   4.392   1.943   4.629
 1859SOL     OW 6475   5.432   1.741   5.162
 1859SOL    HW1 6476   5.363   1.685   5.116
 1859SOL    HW2 6477   5.523   1.716   5.130
 1860SOL     OW 6478   0.980   1.725   4.912
 1860SOL    HW1 6479   1.027   1.742   4.825
 1860SOL    HW2 6480   1.043   1.682   4.976
 1861SOL     OW 6481   5.813   0.808   2.887
 1861SOL    HW1 6482   5.818   0.790   2.985
 1861SOL    HW2 6483   5.899   0.782   2.844
 1862SOL     OW 6484   2.159   6.461   6.782
 1862SOL    HW1 6485   2.104   6.389   6.824
 1862SOL    HW2 6486   2.125   6.550   6.813
 1863SOL     OW 6487   0.575   2.983   1.070
 1863SOL    HW1 6488   0.594   2.895   1.113
 1863SOL    HW2 6489   0.518   2.969   0.989
 1864SOL     OW 6490   2.683   5.914   4.303
 1864SOL    HW1 6491   2.676   5.847   4.229
 1864SOL    HW2 6492   2.766   5.898   4.356
 1865SOL     OW 6493   4.880   1.547   0.621
 1865SOL    HW1 6494   4.878   1.641   0.656
 1865SOL    HW2 6495   4.878   1.482   0.697
 1866SOL     OW 6496   0.297   3.918   4.218
 1866SOL    HW1 6497   0.366   3.942   4.287
 1866SOL    HW2 6498   0.342   3.879   4.138
 1867SOL     OW 6499   2.596   2.393   1.380
 1867SOL    HW1 6500   2.520   2.459   1.373
 1867SOL    HW2 6501   2.636   2.399   1.471
 1868SOL     OW 6502   5.123   4.312   4.773
 1868SOL    HW1 6503   5.149   4.318   4.869
 1868SOL    HW2 6504   5.132   4.217   4.743
 1869SOL     OW 6505   4.751   2.164   3.938
 1869SOL    HW1 6506   4.768   2.230   4.012
 1869SOL    HW2 6507   4.659   2.126   3.948
 1870SOL     OW 6508   1.412   4.087   4.056
 1870SOL    HW1 6509   1.505   4.102   4.022
 1870SOL    HW2 6510   1.367   4.175   4.069
 1871SOL     OW 6511   0.983   6.726   0.460
 1871SOL    HW1 6512   0.978   6.785   0.541
 1871SOL    HW2 6513   0.893   6.688   0.441
 1872SOL     OW 6514   3.310   1.974   0.445
 1872SOL    HW1 6515   3.315   2.025   0.531
 1872SOL    HW2 6516   3.347   1.882   0.459
 1873SOL     OW 6517   6.652   0.873   6.913
 1873SOL    HW1 6518   6.604   0.785   6.912
 1873SOL    HW2 6519   6.682   0.896   6.820
 1874SOL     OW 6520   0.692   6.915   6.479
 1874SOL    HW1 6521   0.771   6.854   6.468
 1874SOL    HW2 6522   0.635   6.883   6.554
 1875SOL     OW 6523   6.235   5.850   6.912
 1875SOL    HW1 6524   6.247   5.751   6.909
 1875SOL    HW2 6525   6.324   5.895   6.903
 1876SOL     OW 6526   5.539   6.594   5.820
 1876SOL    HW1 6527   5.468   6.597   5.890
 1876SOL    HW2 6528   5.498   6.609   5.730
 1877SOL     OW 6529   0.109   0.672   2.107
 1877SOL    HW1 6530   0.091   0.712   2.197
 1877SOL    HW2 6531   0.139   0.743   2.044
 1878SOL     OW 6532   0.703   4.451   3.295
 1878SOL    HW1 6533   0.625   4.513   3.302
 1878SOL    HW2 6534   0.675   4.358   3.321
 1879SOL     OW 6535   2.800   5.532   5.026
 1879SOL    HW1 6536   2.759   5.622   5.035
 1879SOL    HW2 6537   2.810   5.509   4.929
 1880SOL     OW 6538   0.186   2.887   3.124
 1880SOL    HW1 6539   0.282   2.899   3.098
 1880SOL    HW2 6540   0.177   2.892   3.223
 1881SOL     OW 6541   0.974   2.216   3.485
 1881SOL    HW1 6542   1.043   2.148   3.508
 1881SOL    HW2 6543   0.913   2.230   3.564
 1882SOL     OW 6544   1.313   5.788   0.380
 1882SOL    HW1 6545   1.331   5.885   0.363
 1882SOL    HW2 6546   1.370   5.757   0.456
 1883SOL     OW 6547   1.150   3.911   2.274
 1883SOL    HW1 6548   1.183   4.005   2.284
 1883SOL    HW2 6549   1.129   3.894   2.178
 1884SOL     OW 6550   3.745   0.932   0.393
 1884SOL    HW1 6551   3.737   0.849   0.337
 1884SOL    HW2 6552   3.690   1.005   0.353
 1885SOL     OW 6553   6.833   2.544   0.795
 1885SOL    HW1 6554   6.890   2.568   0.873
 1885SOL    HW2 6555   6.835   2.445   0.781
 1886SOL     OW 6556   2.202   1.607   6.655
 1886SOL    HW1 6557   2.262   1.558   6.717
 1886SOL    HW2 6558   2.212   1.706   6.670
 1887SOL     OW 6559   0.521   4.924   5.625
 1887SOL    HW1 6560   0.593   4.865   5.662
 1887SOL    HW2 6561   0.551   4.961   5.537
 1888SOL     OW 6562   1.822   1.625   5.551
 1888SOL    HW1 6563   1.850   1.685   5.626
 1888SOL    HW2 6564   1.896   1.562   5.529
 1889SOL     OW 6565   4.646   3.149   0.600
 1889SOL    HW1 6566   4.636   3.064   0.653
 1889SOL    HW2 6567   4.681   3.221   0.660
 1890SOL     OW 6568   1.073   6.191   6.176
 1890SOL    HW1 6569   1.167   6.219   6.196
 1890SOL    HW2 6570   1.044   6.230   6.089
 1891SOL     OW 6571   6.088   3.187   5.596
 1891SOL    HW1 6572   6.004   3.197   5.649
 1891SOL    HW2 6573   6.134   3.276   5.589
 1892SOL     OW 6574   3.837   5.986   1.216
 1892SOL    HW1 6575   3.909   5.955   1.154
 1892SOL    HW2 6576   3.789   5.907   1.253
 1893SOL     OW 6577   3.648   2.078   4.321
 1893SOL    HW1 6578   3.686   2.036   4.403
 1893SOL    HW2 6579   3.722   2.103   4.259
 1894SOL     OW 6580   4.420   3.947   1.686
 1894SOL    HW1 6581   4.341   3.891   1.712
 1894SOL    HW2 6582   4.407   4.041   1.719
 1895SOL     OW 6583   6.293   1.433   2.553
 1895SOL    HW1 6584   6.335   1.394   2.635
 1895SOL    HW2 6585   6.213   1.378   2.527
 1896SOL     OW 6586   6.187   1.368   4.363
 1896SOL    HW1 6587   6.197   1.397   4.458
 1896SOL    HW2 6588   6.215   1.272   4.354
 1897SOL     OW 6589   6.264   5.325   3.358
 1897SOL    HW1 6590   6.354   5.294   3.326
 1897SOL    HW2 6591   6.216   5.369   3.283
 1898SOL     OW 6592   5.195   5.664   1.010
 1898SOL    HW1 6593   5.096   5.655   1.000
 1898SOL    HW2 6594   5.238   5.655   0.920
 1899SOL     OW 6595   0.040   3.287   3.274
 1899SOL    HW1 6596   0.091   3.251   3.352
 1899SOL    HW2 6597   0.095   3.356   3.227
 1900SOL     OW 6598   1.573   6.629   6.767
 1900SOL    HW1 6599   1.670   6.603   6.758
 1900SOL    HW2 6600   1.543   6.614   6.861
 1901SOL     OW 6601   1.742   0.637   6.856
 1901SOL    HW1 6602   1.829   0.675   6.889
 1901SOL    HW2 6603   1.748   0.537   6.854
 1902SOL     OW 6604   0.840   2.760   4.014
 1902SOL    HW1 6605   0.921   2.786   4.067
 1902SOL    HW2 6606   0.760   2.760   4.073
 1903SOL     OW 6607   6.263   4.804   3.541
 1903SOL    HW1 6608   6.271   4.705   3.532
 1903SOL    HW2 6609   6.335   4.838   3.601
 1904SOL     OW 6610   0.390   0.298   4.546
 1904SOL    HW1 6611   0.487   0.308   4.571
 1904SOL    HW2 6612   0.382   0.296   4.446
 1905SOL     OW 6613   6.858   2.287   4.051
 1905SOL    HW1 6614   6.863   2.342   4.135
 1905SOL    HW2 6615   6.830   2.344   3.975
 1906SOL     OW 6616   2.238   6.907   6.031
 1906SOL    HW1 6617   2.229   6.865   5.940
 1906SOL    HW2 6618   2.177   6.985   6.037
 1907SOL     OW 6619   2.979   0.234   3.416
 1907SOL    HW1 6620   2.912   0.255   3.487
 1907SOL    HW2 6621   3.071   0.257   3.449
 1908SOL     OW 6622   4.603   0.990   5.927
 1908SOL    HW1 6623   4.627   1.041   5.844
 1908SOL    HW2 6624   4.633   1.042   6.008
 1909SOL     OW 6625   2.554   4.579   4.443
 1909SOL    HW1 6626   2.621   4.582   4.368
 1909SOL    HW2 6627   2.598   4.609   4.528
 1910SOL     OW 6628   5.184   2.344   6.869
 1910SOL    HW1 6629   5.146   2.436   6.878
 1910SOL    HW2 6630   5.187   2.300   6.959
 1911SOL     OW 6631   6.823   2.320   5.150
 1911SOL    HW1 6632   6.768   2.395   5.185
 1911SOL    HW2 6633   6.768   2.265   5.087
 1912SOL     OW 6634   2.934   6.591   2.224
 1912SOL    HW1 6635   3.000   6.650   2.270
 1912SOL    HW2 6636   2.982   6.520   2.173
 1913SOL     OW 6637   2.137   6.207   4.961
 1913SOL    HW1 6638   2.170   6.301   4.963
 1913SOL    HW2 6639   2.100   6.183   5.051
 1914SOL     OW 6640   2.423   2.623   6.498
 1914SOL    HW1 6641   2.338   2.641   6.548
 1914SOL    HW2 6642   2.429   2.526   6.476
 1915SOL     OW 6643   4.172   0.603   6.390
 1915SOL    HW1 6644   4.215   0.517   6.361
 1915SOL    HW2 6645   4.110   0.586   6.466
 1916SOL     OW 6646   4.022   5.790   1.103
 1916SOL    HW1 6647   4.114   5.769   1.134
 1916SOL    HW2 6648   3.964   5.708   1.110
 1917SOL     OW 6649   3.471   4.192   4.360
 1917SOL    HW1 6650   3.507   4.164   4.449
 1917SOL    HW2 6651   3.451   4.290   4.360
 1918SOL     OW 6652   6.242   6.259   6.038
 1918SOL    HW1 6653   6.154   6.238   6.080
 1918SOL    HW2 6654   6.299   6.177   6.038
 1919SOL     OW 6655   0.819   6.064   2.545
 1919SOL    HW1 6656   0.816   6.033   2.640
 1919SOL    HW2 6657   0.726   6.081   2.513
 1920SOL     OW 6658   0.846   4.419   3.571
 1920SOL    HW1 6659   0.799   4.435   3.484
 1920SOL    HW2 6660   0.944   4.413   3.555
 1921SOL     OW 6661   1.037   5.757   0.081
 1921SOL    HW1 6662   1.110   5.818   0.111
 1921SOL    HW2 6663   1.077   5.679   0.033
 1922SOL     OW 6664   4.378   3.380   1.352
 1922SOL    HW1 6665   4.368   3.419   1.260
 1922SOL    HW2 6666   4.322   3.298   1.359
 1923SOL     OW 6667   2.530   1.327   0.736
 1923SOL    HW1 6668   2.515   1.416   0.694
 1923SOL    HW2 6669   2.503   1.331   0.833
 1924SOL     OW 6670   6.589   4.319   1.954
 1924SOL    HW1 6671   6.520   4.277   2.013
 1924SOL    HW2 6672   6.657   4.366   2.010
 1925SOL     OW 6673   3.455   3.673   1.906
 1925SOL    HW1 6674   3.426   3.678   2.001
 1925SOL    HW2 6675   3.428   3.756   1.858
 1926SOL     OW 6676   1.707   1.045   4.535
 1926SOL    HW1 6677   1.641   1.115   4.509
 1926SOL    HW2 6678   1.667   0.986   4.605
 1927SOL     OW 6679   4.174   3.407   6.938
 1927SOL    HW1 6680   4.094   3.351   6.918
 1927SOL    HW2 6681   4.227   3.421   6.855
 1928SOL     OW 6682   6.648   3.653   5.978
 1928SOL    HW1 6683   6.583   3.711   6.027
 1928SOL    HW2 6684   6.681   3.702   5.897
 1929SOL     OW 6685   1.622   5.974   2.056
 1929SOL    HW1 6686   1.700   6.037   2.051
 1929SOL    HW2 6687   1.543   6.021   2.095
 1930SOL     OW 6688   6.266   4.653   6.655
 1930SOL    HW1 6689   6.185   4.596   6.662
 1930SOL    HW2 6690   6.324   4.620   6.580
 1931SOL     OW 6691   0.517   3.882   3.089
 1931SOL    HW1 6692   0.536   3.833   3.004
 1931SOL    HW2 6693   0.524   3.818   3.166
 1932SOL     OW 6694   4.934   3.826   2.396
 1932SOL    HW1 6695   4.864   3.885   2.357
 1932SOL    HW2 6696   4.992   3.790   2.323
 1933SOL     OW 6697   2.995   4.699   0.693
 1933SOL    HW1 6698   2.967   4.608   0.723
 1933SOL    HW2 6699   3.095   4.703   0.686
 1934SOL     OW 6700   1.444   0.003   5.707
 1934SOL    HW1 6701   1.478   6.939   5.679
 1934SOL    HW2 6702   1.398   7.022   5.795
 1935SOL     OW 6703   2.512   0.113   4.909
 1935SOL    HW1 6704   2.583   0.115   4.979
 1935SOL    HW2 6705   2.547   0.066   4.827
 1936SOL     OW 6706   5.414   5.903   4.610
 1936SOL    HW1 6707   5.481   5.920   4.538
 1936SOL    HW2 6708   5.455   5.921   4.699
 1937SOL     OW 6709   3.857   6.352   2.030
 1937SOL    HW1 6710   3.861   6.381   1.935
 1937SOL    HW2 6711   3.761   6.341   2.058
 1938SOL     OW 6712   3.622   1.728   3.373
 1938SOL    HW1 6713   3.554   1.792   3.337
 1938SOL    HW2 6714   3.703   1.779   3.402
 1939SOL     OW 6715   1.336   0.907   3.662
 1939SOL    HW1 6716   1.349   0.808   3.658
 1939SOL    HW2 6717   1.243   0.928   3.693
 1940SOL     OW 6718   5.327   5.502   6.861
 1940SOL    HW1 6719   5.330   5.418   6.914
 1940SOL    HW2 6720   5.275   5.486   6.777
 1941SOL     OW 6721   6.602   4.574   3.463
 1941SOL    HW1 6722   6.532   4.568   3.534
 1941SOL    HW2 6723   6.622   4.670   3.443
 1942SOL     OW 6724   5.566   5.584   1.938
 1942SOL    HW1 6725   5.623   5.644   1.881
 1942SOL    HW2 6726   5.586   5.489   1.915
 1943SOL     OW 6727   3.027   5.286   2.829
 1943SOL    HW1 6728   3.113   5.264   2.783
 1943SOL    HW2 6729   3.023   5.385   2.845
 1944SOL     OW 6730   5.249   1.787   6.856
 1944SOL    HW1 6731   5.238   1.720   6.929
 1944SOL    HW2 6732   5.178   1.857   6.864
 1945SOL     OW 6733   4.893   5.454   2.932
 1945SOL    HW1 6734   4.917   5.358   2.919
 1945SOL    HW2 6735   4.962   5.512   2.887
 1946SOL     OW 6736   0.901   0.995   0.661
 1946SOL    HW1 6737   0.921   1.018   0.565
 1946SOL    HW2 6738   0.987   0.977   0.710
 1947SOL     OW 6739   5.244   6.543   4.764
 1947SOL    HW1 6740   5.288   6.557   4.675
 1947SOL    HW2 6741   5.314   6.529   4.834
 1948SOL     OW 6742   7.008   5.844   4.795
 1948SOL    HW1 6743   0.014   5.796   4.714
 1948SOL    HW2 6744   6.962   5.780   4.856
 1949SOL     OW 6745   4.087   4.013   5.746
 1949SOL    HW1 6746   4.119   4.086   5.808
 1949SOL    HW2 6747   4.008   3.967   5.787
 1950SOL     OW 6748   3.942   3.455   0.075
 1950SOL    HW1 6749   3.998   3.521   0.024
 1950SOL    HW2 6750   3.944   3.478   0.172
 1951SOL     OW 6751   6.303   2.701   0.158
 1951SOL    HW1 6752   6.305   2.634   0.084
 1951SOL    HW2 6753   6.396   2.723   0.184
 1952SOL     OW 6754   3.499   2.392   0.584
 1952SOL    HW1 6755   3.562   2.330   0.630
 1952SOL    HW2 6756   3.526   2.487   0.603
 1953SOL     OW 6757   6.700   2.187   6.833
 1953SOL    HW1 6758   6.705   2.094   6.797
 1953SOL    HW2 6759   6.789   2.232   6.822
 1954SOL     OW 6760   5.142   2.036   4.130
 1954SOL    HW1 6761   5.124   2.068   4.223
 1954SOL    HW2 6762   5.142   2.113   4.067
 1955SOL     OW 6763   1.549   0.052   2.000
 1955SOL    HW1 6764   1.565   0.107   1.919
 1955SOL    HW2 6765   1.533   0.113   2.079
 1956SOL     OW 6766   5.411   6.414   2.614
 1956SOL    HW1 6767   5.456   6.503   2.614
 1956SOL    HW2 6768   5.345   6.410   2.689
 1957SOL     OW 6769   6.736   5.789   5.231
 1957SOL    HW1 6770   6.734   5.770   5.330
 1957SOL    HW2 6771   6.653   5.753   5.189
 1958SOL     OW 6772   5.996   3.250   4.350
 1958SOL    HW1 6773   5.917   3.304   4.322
 1958SOL    HW2 6774   5.992   3.234   4.449
 1959SOL     OW 6775   0.421   2.878   5.631
 1959SOL    HW1 6776   0.409   2.787   5.668
 1959SOL    HW2 6777   0.491   2.876   5.559
 1960SOL     OW 6778   6.503   4.789   0.940
 1960SOL    HW1 6779   6.553   4.717   0.987
 1960SOL    HW2 6780   6.406   4.764   0.934
 1961SOL     OW 6781   5.742   4.614   4.893
 1961SOL    HW1 6782   5.692   4.529   4.879
 1961SOL    HW2 6783   5.787   4.612   4.983
 1962SOL     OW 6784   1.504   6.122   4.167
 1962SOL    HW1 6785   1.470   6.045   4.221
 1962SOL    HW2 6786   1.428   6.164   4.118
 1963SOL     OW 6787   0.872   0.586   1.792
 1963SOL    HW1 6788   0.869   0.542   1.882
 1963SOL    HW2 6789   0.954   0.643   1.785
 1964SOL     OW 6790   4.429   2.569   1.608
 1964SOL    HW1 6791   4.508   2.576   1.668
 1964SOL    HW2 6792   4.449   2.507   1.533
 1965SOL     OW 6793   0.639   2.937   2.891
 1965SOL    HW1 6794   0.731   2.909   2.920
 1965SOL    HW2 6795   0.622   2.903   2.798
 1966SOL     OW 6796   0.748   5.324   5.246
 1966SOL    HW1 6797   0.807   5.403   5.258
 1966SOL    HW2 6798   0.659   5.342   5.288
 1967SOL     OW 6799   4.654   2.095   6.163
 1967SOL    HW1 6800   4.620   2.000   6.163
 1967SOL    HW2 6801   4.576   2.157   6.155
 1968SOL     OW 6802   3.128   6.044   6.833
 1968SOL    HW1 6803   3.128   6.043   6.933
 1968SOL    HW2 6804   3.034   6.031   6.800
 1969SOL     OW 6805   6.878   1.772   2.004
 1969SOL    HW1 6806   6.858   1.677   1.983
 1969SOL    HW2 6807   6.921   1.779   2.094
 1970SOL     OW 6808   2.334   0.802   5.879
 1970SOL    HW1 6809   2.308   0.716   5.923
 1970SOL    HW2 6810   2.269   0.874   5.905
 1971SOL     OW 6811   6.830   6.951   6.367
 1971SOL    HW1 6812   6.918   6.916   6.398
 1971SOL    HW2 6813   6.758   6.885   6.390
 1972SOL     OW 6814   0.421   3.168   3.127
 1972SOL    HW1 6815   0.424   3.069   3.114
 1972SOL    HW2 6816   0.485   3.194   3.199
 1973SOL     OW 6817   3.408   3.011   1.814
 1973SOL    HW1 6818   3.431   2.985   1.720
 1973SOL    HW2 6819   3.480   2.978   1.875
 1974SOL     OW 6820   6.420   6.047   4.029
 1974SOL    HW1 6821   6.466   6.042   4.118
 1974SOL    HW2 6822   6.337   6.102   4.039
 1975SOL     OW 6823   2.370   0.930   3.652
 1975SOL    HW1 6824   2.381   0.840   3.695
 1975SOL    HW2 6825   2.273   0.951   3.642
 1976SOL     OW 6826   0.434   6.076   0.296
 1976SOL    HW1 6827   0.514   6.019   0.315
 1976SOL    HW2 6828   0.415   6.075   0.198
 1977SOL     OW 6829   1.237   3.003   3.746
 1977SOL    HW1 6830   1.184   2.974   3.826
 1977SOL    HW2 6831   1.296   2.927   3.716
 1978SOL     OW 6832   1.543   1.340   4.256
 1978SOL    HW1 6833   1.594   1.255   4.240
 1978SOL    HW2 6834   1.606   1.412   4.286
 1979SOL     OW 6835   0.069   4.537   4.897
 1979SOL    HW1 6836   7.018   4.476   4.913
 1979SOL    HW2 6837   0.080   4.551   4.798
 1980SOL     OW 6838   3.344   6.830   0.393
 1980SOL    HW1 6839   3.349   6.791   0.301
 1980SOL    HW2 6840   3.266   6.792   0.442
 1981SOL     OW 6841   5.337   2.306   2.361
 1981SOL    HW1 6842   5.276   2.324   2.283
 1981SOL    HW2 6843   5.358   2.209   2.364
 1982SOL     OW 6844   5.995   4.731   4.729
 1982SOL    HW1 6845   5.965   4.659   4.792
 1982SOL    HW2 6846   6.092   4.720   4.710
 1983SOL     OW 6847   0.843   2.224   2.780
 1983SOL    HW1 6848   0.775   2.246   2.710
 1983SOL    HW2 6849   0.834   2.288   2.857
 1984SOL     OW 6850   4.685   1.156   5.704
 1984SOL    HW1 6851   4.719   1.237   5.751
 1984SOL    HW2 6852   4.687   1.171   5.605
 1985SOL     OW 6853   1.302   1.256   2.332
 1985SOL    HW1 6854   1.219   1.309   2.311
 1985SOL    HW2 6855   1.276   1.164   2.363
 1986SOL     OW 6856   1.333   1.591   6.981
 1986SOL    HW1 6857   1.367   1.548   6.897
 1986SOL    HW2 6858   1.341   1.526   0.030
 1987SOL     OW 6859   2.679   3.006   1.568
 1987SOL    HW1 6860   2.766   2.973   1.604
 1987SOL    HW2 6861   2.667   3.102   1.592
 1988SOL     OW 6862   5.044   4.285   0.691
 1988SOL    HW1 6863   5.066   4.365   0.635
 1988SOL    HW2 6864   5.106   4.210   0.668
 1989SOL     OW 6865   2.107   0.655   5.157
 1989SOL    HW1 6866   2.065   0.638   5.068
 1989SOL    HW2 6867   2.066   0.593   5.225
 1990SOL     OW 6868   2.966   0.214   2.065
 1990SOL    HW1 6869   2.927   0.130   2.027
 1990SOL    HW2 6870   2.895   0.265   2.113
 1991SOL     OW 6871   3.436   5.625   5.856
 1991SOL    HW1 6872   3.428   5.649   5.953
 1991SOL    HW2 6873   3.345   5.622   5.815
 1992SOL     OW 6874   2.675   6.773   6.230
 1992SOL    HW1 6875   2.588   6.822   6.236
 1992SOL    HW2 6876   2.661   6.685   6.186
 1993SOL     OW 6877   3.903   3.384   5.369
 1993SOL    HW1 6878   3.863   3.440   5.296
 1993SOL    HW2 6879   3.944   3.302   5.329
 1994SOL     OW 6880   1.166   2.071   2.006
 1994SOL    HW1 6881   1.112   2.001   2.055
 1994SOL    HW2 6882   1.256   2.079   2.049
 1995SOL     OW 6883   6.135   2.246   2.311
 1995SOL    HW1 6884   6.228   2.223   2.284
 1995SOL    HW2 6885   6.125   2.346   2.312
 1996SOL     OW 6886   2.980   3.309   1.252
 1996SOL    HW1 6887   3.015   3.385   1.197
 1996SOL    HW2 6888   2.881   3.306   1.245
 1997SOL     OW 6889   5.191   0.722   5.760
 1997SOL    HW1 6890   5.220   0.687   5.849
 1997SOL    HW2 6891   5.147   0.649   5.708
 1998SOL     OW 6892   3.177   3.736   6.019
 1998SOL    HW1 6893   3.239   3.702   6.089
 1998SOL    HW2 6894   3.084   3.706   6.038
 1999SOL     OW 6895   2.828   0.299   1.756
 1999SOL    HW1 6896   2.923   0.327   1.768
 1999SOL    HW2 6897   2.825   0.213   1.705
 2000SOL     OW 6898   4.200   1.662   5.095
 2000SOL    HW1 6899   4.167   1.707   5.178
 2000SOL    HW2 6900   4.122   1.640   5.036
 2001SOL     OW 6901   3.441   2.423   1.729
 2001SOL    HW1 6902   3.528   2.412   1.778
 2001SOL    HW2 6903   3.429   2.346   1.666
 2002SOL     OW 6904   1.362   6.262   6.157
 2002SOL    HW1 6905   1.357   6.336   6.224
 2002SOL    HW2 6906   1.416   6.187   6.195
 2003SOL     OW 6907   4.525   0.000   3.590
 2003SOL    HW1 6908   4.550   6.991   3.500
 2003SOL    HW2 6909   4.528   6.954   3.658
 2004SOL     OW 6910   5.187   0.976   4.470
 2004SOL    HW1 6911   5.151   1.009   4.558
 2004SOL    HW2 6912   5.259   1.037   4.438
 2005SOL     OW 6913   1.723   5.714   0.275
 2005SOL    HW1 6914   1.692   5.774   0.202
 2005SOL    HW2 6915   1.698   5.620   0.254
 2006SOL     OW 6916   5.076   4.196   3.650
 2006SOL    HW1 6917   5.084   4.247   3.564
 2006SOL    HW2 6918   5.008   4.124   3.639
 2007SOL     OW 6919   4.592   5.745   0.714
 2007SOL    HW1 6920   4.584   5.669   0.779
 2007SOL    HW2 6921   4.503   5.763   0.673
 2008SOL     OW 6922   0.421   5.548   3.652
 2008SOL    HW1 6923   0.351   5.487   3.688
 2008SOL    HW2 6924   0.391   5.643   3.661
 2009SOL     OW 6925   6.899   0.228   1.564
 2009SOL    HW1 6926   6.914   0.239   1.662
 2009SOL    HW2 6927   6.916   0.132   1.539
 2010SOL     OW 6928   1.759   1.131   0.867
 2010SOL    HW1 6929   1.683   1.066   0.872
 2010SOL    HW2 6930   1.845   1.084   0.886
 2011SOL     OW 6931   6.306   2.221   4.820
 2011SOL    HW1 6932   6.207   2.207   4.816
 2011SOL    HW2 6933   6.350   2.171   4.746
 2012SOL     OW 6934   0.539   3.488   1.232
 2012SOL    HW1 6935   0.513   3.396   1.260
 2012SOL    HW2 6936   0.636   3.490   1.208
 2013SOL     OW 6937   5.635   1.006   3.410
 2013SOL    HW1 6938   5.557   0.944   3.424
 2013SOL    HW2 6939   5.603   1.090   3.365
 2014SOL     OW 6940   1.299   5.780   3.362
 2014SOL    HW1 6941   1.393   5.780   3.328
 2014SOL    HW2 6942   1.300   5.773   3.462
 2015SOL     OW 6943   2.896   1.300   6.692
 2015SOL    HW1 6944   2.960   1.302   6.769
 2015SOL    HW2 6945   2.937   1.247   6.617
 2016SOL     OW 6946   0.624   6.135   5.038
 2016SOL    HW1 6947   0.625   6.191   5.121
 2016SOL    HW2 6948   0.602   6.041   5.062
 2017SOL     OW 6949   3.318   6.885   3.451
 2017SOL    HW1 6950   3.376   6.828   3.510
 2017SOL    HW2 6951   3.223   6.876   3.480
 2018SOL     OW 6952   6.423   5.574   5.773
 2018SOL    HW1 6953   6.366   5.652   5.800
 2018SOL    HW2 6954   6.448   5.583   5.677
 2019SOL     OW 6955   5.166   3.103   2.005
 2019SOL    HW1 6956   5.164   3.106   2.105
 2019SOL    HW2 6957   5.250   3.146   1.972
 2020SOL     OW 6958   1.369   5.280   5.229
 2020SOL    HW1 6959   1.443   5.215   5.209
 2020SOL    HW2 6960   1.301   5.276   5.155
 2021SOL     OW 6961   2.165   7.004   3.160
 2021SOL    HW1 6962   2.162   6.992   3.061
 2021SOL    HW2 6963   2.231   0.049   3.183
 2022SOL     OW 6964   1.776   3.691   1.845
 2022SOL    HW1 6965   1.715   3.614   1.866
 2022SOL    HW2 6966   1.721   3.770   1.818
 2023SOL     OW 6967   0.132   2.052   0.210
 2023SOL    HW1 6968   0.215   2.106   0.225
 2023SOL    HW2 6969   0.053   2.113   0.213
 2024SOL     OW 6970   6.859   0.772   2.986
 2024SOL    HW1 6971   6.926   0.846   2.979
 2024SOL    HW2 6972   6.801   0.789   3.066
 2025SOL     OW 6973   1.599   2.701   1.736
 2025SOL    HW1 6974   1.692   2.673   1.763
 2025SOL    HW2 6975   1.573   2.651   1.653
 2026SOL     OW 6976   1.476   2.462   6.171
 2026SOL    HW1 6977   1.446   2.383   6.225
 2026SOL    HW2 6978   1.397   2.518   6.147
 2027SOL     OW 6979   1.013   1.233   1.198
 2027SOL    HW1 6980   1.105   1.272   1.194
 2027SOL    HW2 6981   0.958   1.271   1.124
 2028SOL     OW 6982   3.469   1.361   6.938
 2028SOL    HW1 6983   3.484   1.436   7.002
 2028SOL    HW2 6984   3.556   1.319   6.914
 2029SOL     OW 6985   0.227   0.534   6.777
 2029SOL    HW1 6986   0.151   0.517   6.714
 2029SOL    HW2 6987   0.193   0.576   6.860
 2030SOL     OW 6988   1.717   1.914   3.511
 2030SOL    HW1 6989   1.672   1.936   3.598
 2030SOL    HW2 6990   1.653   1.868   3.450
 2031SOL     OW 6991   5.097   6.272   2.128
 2031SOL    HW1 6992   5.063   6.258   2.035
 2031SOL    HW2 6993   5.137   6.364   2.135
 2032SOL     OW 6994   5.565   5.666   0.911
 2032SOL    HW1 6995   5.598   5.586   0.962
 2032SOL    HW2 6996   5.554   5.742   0.975
 2033SOL     OW 6997   3.702   4.225   6.778
 2033SOL    HW1 6998   3.643   4.146   6.759
 2033SOL    HW2 6999   3.712   4.235   6.877
 2034SOL     OW 7000   2.396   6.414   3.949
 2034SOL    HW1 7001   2.318   6.441   3.893
 2034SOL    HW2 7002   2.432   6.493   3.998
 2035SOL     OW 7003   7.009   1.298   2.689
 2035SOL    HW1 7004   6.978   1.393   2.693
 2035SOL    HW2 7005   0.060   1.285   2.750
 2036SOL     OW 7006   7.020   6.067   2.236
 2036SOL    HW1 7007   7.007   5.968   2.234
 2036SOL    HW2 7008   0.062   6.093   2.168
 2037SOL     OW 7009   6.196   2.137   5.996
 2037SOL    HW1 7010   6.219   2.070   6.066
 2037SOL    HW2 7011   6.261   2.131   5.920
 2038SOL     OW 7012   0.700   1.893   0.072
 2038SOL    HW1 7013   0.699   1.823   0.143
 2038SOL    HW2 7014   0.705   1.849   7.009
 2039SOL     OW 7015   0.335   5.858   3.376
 2039SOL    HW1 7016   0.266   5.853   3.304
 2039SOL    HW2 7017   0.290   5.850   3.465
 2040SOL     OW 7018   3.096   2.997   5.077
 2040SOL    HW1 7019   3.158   3.075   5.073
 2040SOL    HW2 7020   3.039   2.995   4.995
 2041SOL     OW 7021   6.892   6.357   6.757
 2041SOL    HW1 7022   6.820   6.424   6.774
 2041SOL    HW2 7023   6.938   6.379   6.671
 2042SOL     OW 7024   5.881   5.258   6.942
 2042SOL    HW1 7025   5.791   5.283   6.907
 2042SOL    HW2 7026   5.878   5.255   0.015
 2043SOL     OW 7027   6.637   4.663   2.265
 2043SOL    HW1 7028   6.545   4.658   2.304
 2043SOL    HW2 7029   6.634   4.716   2.180
 2044SOL     OW 7030   4.908   0.559   2.304
 2044SOL    HW1 7031   4.886   0.513   2.390
 2044SOL    HW2 7032   4.934   0.654   2.322
 2045SOL     OW 7033   2.184   4.352   5.238
 2045SOL    HW1 7034   2.194   4.303   5.152
 2045SOL    HW2 7035   2.273   4.385   5.269
 2046SOL     OW 7036   0.109   0.276   4.260
 2046SOL    HW1 7037   0.025   0.265   4.313
 2046SOL    HW2 7038   0.095   0.346   4.190
 2047SOL     OW 7039   3.989   2.119   0.295
 2047SOL    HW1 7040   4.076   2.076   0.320
 2047SOL    HW2 7041   4.007   2.210   0.256
 2048SOL     OW 7042   4.156   6.288   0.028
 2048SOL    HW1 7043   4.138   6.205   0.080
 2048SOL    HW2 7044   4.087   6.357   0.052
 2049SOL     OW 7045   4.276   1.834   6.449
 2049SOL    HW1 7046   4.278   1.892   6.367
 2049SOL    HW2 7047   4.215   1.875   6.517
 2050SOL     OW 7048   6.063   2.896   3.691
 2050SOL    HW1 7049   6.133   2.832   3.724
 2050SOL    HW2 7050   6.011   2.852   3.617
 2051SOL     OW 7051   6.643   4.703   6.699
 2051SOL    HW1 7052   6.655   4.695   6.600
 2051SOL    HW2 7053   6.582   4.780   6.719
 2052SOL     OW 7054   0.265   3.573   0.034
 2052SOL    HW1 7055   0.336   3.547   6.995
 2052SOL    HW2 7056   0.177   3.574   7.014
 2053SOL     OW 7057   6.331   0.540   1.180
 2053SOL    HW1 7058   6.344   0.539   1.081
 2053SOL    HW2 7059   6.300   0.630   1.209
 2054SOL     OW 7060   5.433   2.798   1.583
 2054SOL    HW1 7061   5.353   2.825   1.637
 2054SOL    HW2 7062   5.406   2.729   1.516
 2055SOL     OW 7063   6.025   3.333   2.603
 2055SOL    HW1 7064   6.090   3.259   2.589
 2055SOL    HW2 7065   6.059   3.416   2.558
 2056SOL     OW 7066   2.230   1.326   2.582
 2056SOL    HW1 7067   2.161   1.352   2.515
 2056SOL    HW2 7068   2.204   1.361   2.672
 2057SOL     OW 7069   5.400   2.364   3.676
 2057SOL    HW1 7070   5.481   2.421   3.663
 2057SOL    HW2 7071   5.362   2.339   3.586
 2058SOL     OW 7072   1.312   1.691   3.324
 2058SOL    HW1 7073   1.339   1.787   3.337
 2058SOL    HW2 7074   1.236   1.670   3.386
 2059SOL     OW 7075   2.619   6.512   6.166
 2059SOL    HW1 7076   2.571   6.502   6.079
 2059SOL    HW2 7077   2.665   6.426   6.189
 2060SOL     OW 7078   6.514   4.237   0.939
 2060SOL    HW1 7079   6.552   4.198   1.022
 2060SOL    HW2 7080   6.425   4.197   0.920
 2061SOL     OW 7081   0.898   1.829   3.124
 2061SOL    HW1 7082   0.910   1.925   3.098
 2061SOL    HW2 7083   0.985   1.780   3.114
 2062SOL     OW 7084   5.426   0.841   3.406
 2062SOL    HW1 7085   5.399   0.871   3.315
 2062SOL    HW2 7086   5.392   0.906   3.474
 2063SOL     OW 7087   0.612   1.661   6.291
 2063SOL    HW1 7088   0.527   1.609   6.299
 2063SOL    HW2 7089   0.649   1.649   6.198
 2064SOL     OW 7090   0.746   1.510   5.476
 2064SOL    HW1 7091   0.806   1.490   5.399
 2064SOL    HW2 7092   0.758   1.606   5.504
 2065SOL     OW 7093   6.566   4.089   2.332
 2065SOL    HW1 7094   6.660   4.099   2.300
 2065SOL    HW2 7095   6.548   3.993   2.353
 2066SOL     OW 7096   0.752   6.088   4.256
 2066SOL    HW1 7097   0.805   6.037   4.188
 2066SOL    HW2 7098   0.804   6.095   4.341
 2067SOL     OW 7099   0.719   6.733   0.835
 2067SOL    HW1 7100   0.647   6.676   0.795
 2067SOL    HW2 7101   0.678   6.809   0.885
 2068SOL     OW 7102   1.029   1.545   5.701
 2068SOL    HW1 7103   1.066   1.454   5.719
 2068SOL    HW2 7104   1.091   1.595   5.640
 2069SOL     OW 7105   0.872   2.723   3.594
 2069SOL    HW1 7106   0.826   2.636   3.612
 2069SOL    HW2 7107   0.825   2.772   3.521
 2070SOL     OW 7108   1.930   6.871   2.066
 2070SOL    HW1 7109   1.931   6.958   2.115
 2070SOL    HW2 7110   1.967   6.883   1.974
 2071SOL     OW 7111   6.787   6.296   4.940
 2071SOL    HW1 7112   6.822   6.230   5.006
 2071SOL    HW2 7113   6.806   6.264   4.847
 2072SOL     OW 7114   4.623   6.593   2.015
 2072SOL    HW1 7115   4.565   6.512   2.025
 2072SOL    HW2 7116   4.714   6.565   1.985
 2073SOL     OW 7117   3.650   6.979   4.689
 2073SOL    HW1 7118   3.569   7.020   4.648
 2073SOL    HW2 7119   3.674   0.002   4.773
 2074SOL     OW 7120   0.559   2.763   6.866
 2074SOL    HW1 7121   0.642   2.781   6.812
 2074SOL    HW2 7122   0.479   2.791   6.814
 2075SOL     OW 7123   5.110   2.340   1.545
 2075SOL    HW1 7124   5.095   2.393   1.629
 2075SOL    HW2 7125   5.022   2.325   1.499
 2076SOL     OW 7126   5.227   6.488   0.151
 2076SOL    HW1 7127   5.294   6.533   0.211
 2076SOL    HW2 7128   5.135   6.518   0.176
 2077SOL     OW 7129   4.787   2.922   2.259
 2077SOL    HW1 7130   4.717   2.852   2.274
 2077SOL    HW2 7131   4.771   2.967   2.171
 2078SOL     OW 7132   1.892   6.148   6.536
 2078SOL    HW1 7133   1.920   6.086   6.463
 2078SOL    HW2 7134   1.840   6.096   6.604
 2079SOL     OW 7135   6.161   1.215   3.697
 2079SOL    HW1 7136   6.186   1.312   3.695
 2079SOL    HW2 7137   6.068   1.203   3.664
 2080SOL     OW 7138   1.847   1.430   4.717
 2080SOL    HW1 7139   1.929   1.487   4.720
 2080SOL    HW2 7140   1.874   1.334   4.731
 2081SOL     OW 7141   1.915   5.948   5.294
 2081SOL    HW1 7142   2.004   5.951   5.340
 2081SOL    HW2 7143   1.863   5.869   5.327
 2082SOL     OW 7144   6.746   0.207   2.719
 2082SOL    HW1 7145   6.743   0.110   2.694
 2082SOL    HW2 7146   6.838   0.230   2.752
 2083SOL     OW 7147   4.346   4.168   6.119
 2083SOL    HW1 7148   4.418   4.217   6.070
 2083SOL    HW2 7149   4.312   4.093   6.062
 2084SOL     OW 7150   7.021   4.604   3.895
 2084SOL    HW1 7151   6.954   4.673   3.868
 2084SOL    HW2 7152   0.037   4.630   3.981
 2085SOL     OW 7153   5.457   1.023   0.154
 2085SOL    HW1 7154   5.548   1.057   0.129
 2085SOL    HW2 7155   5.433   1.056   0.245
 2086SOL     OW 7156   2.952   6.287   5.765
 2086SOL    HW1 7157   2.983   6.375   5.800
 2086SOL    HW2 7158   2.922   6.230   5.842
 2087SOL     OW 7159   4.350   0.114   1.863
 2087SOL    HW1 7160   4.405   0.030   1.864
 2087SOL    HW2 7161   4.256   0.094   1.890
 2088SOL     OW 7162   2.465   5.421   0.946
 2088SOL    HW1 7163   2.486   5.461   1.035
 2088SOL    HW2 7164   2.539   5.360   0.919
 2089SOL     OW 7165   4.162   1.347   6.909
 2089SOL    HW1 7166   4.213   1.355   6.994
 2089SOL    HW2 7167   4.218   1.379   6.832
 2090SOL     OW 7168   4.083   3.696   4.833
 2090SOL    HW1 7169   4.124   3.634   4.765
 2090SOL    HW2 7170   4.090   3.654   4.924
 2091SOL     OW 7171   7.011   5.835   7.003
 2091SOL    HW1 7172   0.060   5.783   0.017
 2091SOL    HW2 7173   6.999   5.920   0.028
 2092SOL     OW 7174   5.007   5.846   0.322
 2092SOL    HW1 7175   4.951   5.848   0.405
 2092SOL    HW2 7176   5.022   5.940   0.290
 2093SOL     OW 7177   1.812   2.454   1.669
 2093SOL    HW1 7178   1.777   2.361   1.662
 2093SOL    HW2 7179   1.850   2.469   1.761
 2094SOL     OW 7180   5.625   1.889   1.946
 2094SOL    HW1 7181   5.673   1.838   2.018
 2094SOL    HW2 7182   5.537   1.921   1.982
 2095SOL     OW 7183   5.277   0.297   4.625
 2095SOL    HW1 7184   5.373   0.269   4.627
 2095SOL    HW2 7185   5.240   0.295   4.717
 2096SOL     OW 7186   4.784   4.271   2.915
 2096SOL    HW1 7187   4.716   4.267   2.842
 2096SOL    HW2 7188   4.875   4.255   2.877
 2097SOL     OW 7189   1.394   2.947   0.285
 2097SOL    HW1 7190   1.413   2.857   0.246
 2097SOL    HW2 7191   1.433   3.017   0.225
 2098SOL     OW 7192   4.138   5.493   3.082
 2098SOL    HW1 7193   4.233   5.482   3.110
 2098SOL    HW2 7194   4.114   5.422   3.016
 2099SOL     OW 7195   2.642   2.614   5.253
 2099SOL    HW1 7196   2.558   2.660   5.281
 2099SOL    HW2 7197   2.720   2.655   5.300
 2100SOL     OW 7198   3.659   3.410   5.531
 2100SOL    HW1 7199   3.702   3.375   5.448
 2100SOL    HW2 7200   3.646   3.509   5.523
 2101SOL     OW 7201   1.574   6.380   2.743
 2101SOL    HW1 7202   1.609   6.400   2.652
 2101SOL    HW2 7203   1.492   6.322   2.736
 2102SOL     OW 7204   0.183   5.596   1.907
 2102SOL    HW1 7205   0.170   5.623   1.812
 2102SOL    HW2 7206   0.180   5.678   1.965
 2103SOL     OW 7207   3.006   3.537   6.333
 2103SOL    HW1 7208   2.974   3.546   6.239
 2103SOL    HW2 7209   2.979   3.448   6.370
 2104SOL     OW 7210   0.988   3.510   6.302
 2104SOL    HW1 7211   1.000   3.462   6.389
 2104SOL    HW2 7212   0.899   3.487   6.263
 2105SOL     OW 7213   4.766   5.090   4.152
 2105SOL    HW1 7214   4.858   5.101   4.116
 2105SOL    HW2 7215   4.699   5.105   4.079
 2106SOL     OW 7216   4.582   4.650   0.233
 2106SOL    HW1 7217   4.636   4.656   0.149
 2106SOL    HW2 7218   4.624   4.707   0.304
 2107SOL     OW 7219   4.511   2.850   5.551
 2107SOL    HW1 7220   4.471   2.909   5.482
 2107SOL    HW2 7221   4.597   2.811   5.517
 2108SOL     OW 7222   0.100   6.126   5.608
 2108SOL    HW1 7223   0.076   6.055   5.542
 2108SOL    HW2 7224   0.097   6.088   5.701
 2109SOL     OW 7225   4.632   6.673   3.319
 2109SOL    HW1 7226   4.599   6.579   3.315
 2109SOL    HW2 7227   4.650   6.707   3.227
 2110SOL     OW 7228   2.923   2.871   5.847
 2110SOL    HW1 7229   2.928   2.923   5.932
 2110SOL    HW2 7230   2.854   2.913   5.787
 2111SOL     OW 7231   0.675   1.999   6.682
 2111SOL    HW1 7232   0.704   2.020   6.589
 2111SOL    HW2 7233   0.753   1.965   6.735
 2112SOL     OW 7234   4.724   2.433   1.336
 2112SOL    HW1 7235   4.739   2.407   1.240
 2112SOL    HW2 7236   4.625   2.441   1.353
 2113SOL     OW 7237   1.579   0.372   4.573
 2113SOL    HW1 7238   1.537   0.358   4.663
 2113SOL    HW2 7239   1.584   0.470   4.554
 2114SOL     OW 7240   1.527   3.132   0.709
 2114SOL    HW1 7241   1.476   3.210   0.745
 2114SOL    HW2 7242   1.568   3.082   0.784
 2115SOL     OW 7243   2.223   3.994   2.682
 2115SOL    HW1 7244   2.197   3.910   2.635
 2115SOL    HW2 7245   2.142   4.052   2.695
 2116SOL     OW 7246   6.875   4.756   3.395
 2116SOL    HW1 7247   6.884   4.663   3.360
 2116SOL    HW2 7248   6.782   4.788   3.380
 2117SOL     OW 7249   6.964   4.300   0.933
 2117SOL    HW1 7250   6.943   4.329   0.839
 2117SOL    HW2 7251   6.939   4.374   0.996
 2118SOL     OW 7252   6.822   3.713   2.036
 2118SOL    HW1 7253   6.862   3.626   2.064
 2118SOL    HW2 7254   6.722   3.705   2.037
 2119SOL     OW 7255   2.303   5.218   1.080
 2119SOL    HW1 7256   2.306   5.298   1.019
 2119SOL    HW2 7257   2.344   5.243   1.168
 2120SOL     OW 7258   0.339   5.168   4.247
 2120SOL    HW1 7259   0.370   5.149   4.154
 2120SOL    HW2 7260   0.256   5.223   4.244
 2121SOL     OW 7261   0.380   4.682   5.850
 2121SOL    HW1 7262   0.364   4.778   5.828
 2121SOL    HW2 7263   0.362   4.667   5.948
 2122SOL     OW 7264   5.983   4.469   5.362
 2122SOL    HW1 7265   6.052   4.415   5.315
 2122SOL    HW2 7266   5.972   4.437   5.456
 2123SOL     OW 7267   0.143   4.978   1.942
 2123SOL    HW1 7268   0.058   5.019   1.976
 2123SOL    HW2 7269   0.128   4.880   1.926
 2124SOL     OW 7270   2.541   1.586   2.035
 2124SOL    HW1 7271   2.635   1.606   2.009
 2124SOL    HW2 7272   2.499   1.668   2.077
 2125SOL     OW 7273   1.894   0.305   0.334
 2125SOL    HW1 7274   1.849   0.341   0.253
 2125SOL    HW2 7275   1.911   0.207   0.322
 2126SOL     OW 7276   3.165   1.018   1.060
 2126SOL    HW1 7277   3.135   1.013   1.155
 2126SOL    HW2 7278   3.091   1.054   1.003
 2127SOL     OW 7279   6.540   3.356   4.227
 2127SOL    HW1 7280   6.579   3.269   4.197
 2127SOL    HW2 7281   6.452   3.340   4.271
 2128SOL     OW 7282   6.450   3.849   4.284
 2128SOL    HW1 7283   6.545   3.837   4.256
 2128SOL    HW2 7284   6.403   3.912   4.222
 2129SOL     OW 7285   4.634   2.893   5.208
 2129SOL    HW1 7286   4.534   2.891   5.215
 2129SOL    HW2 7287   4.662   2.846   5.124
 2130SOL     OW 7288   3.970   0.129   2.750
 2130SOL    HW1 7289   4.000   0.095   2.838
 2130SOL    HW2 7290   4.028   0.091   2.677
 2131SOL     OW 7291   6.872   0.935   1.508
 2131SOL    HW1 7292   6.815   0.854   1.516
 2131SOL    HW2 7293   6.861   0.974   1.416
 2132SOL     OW 7294   4.158   2.147   1.430
 2132SOL    HW1 7295   4.160   2.048   1.433
 2132SOL    HW2 7296   4.079   2.178   1.378
 2133SOL     OW 7297   2.450   3.041   5.900
 2133SOL    HW1 7298   2.465   2.944   5.881
 2133SOL    HW2 7299   2.387   3.050   5.978
 2134SOL     OW 7300   0.482   2.665   0.783
 2134SOL    HW1 7301   0.483   2.760   0.814
 2134SOL    HW2 7302   0.571   2.624   0.799
 2135SOL     OW 7303   0.952   3.853   4.755
 2135SOL    HW1 7304   0.923   3.844   4.660
 2135SOL    HW2 7305   1.049   3.833   4.762
 2136SOL     OW 7306   2.075   4.611   2.713
 2136SOL    HW1 7307   2.141   4.608   2.638
 2136SOL    HW2 7308   1.987   4.577   2.682
 2137SOL     OW 7309   2.633   5.448   5.371
 2137SOL    HW1 7310   2.604   5.423   5.279
 2137SOL    HW2 7311   2.690   5.375   5.409
 2138SOL     OW 7312   6.106   6.844   2.962
 2138SOL    HW1 7313   6.017   6.800   2.954
 2138SOL    HW2 7314   6.173   6.778   2.997
 2139SOL     OW 7315   4.538   0.718   4.068
 2139SOL    HW1 7316   4.551   0.805   4.116
 2139SOL    HW2 7317   4.568   0.643   4.126
 2140SOL     OW 7318   2.668   6.730   4.187
 2140SOL    HW1 7319   2.636   6.637   4.166
 2140SOL    HW2 7320   2.643   6.791   4.112
 2141SOL     OW 7321   6.430   2.749   2.422
 2141SOL    HW1 7322   6.444   2.844   2.394
 2141SOL    HW2 7323   6.508   2.718   2.476
 2142SOL     OW 7324   1.087   1.580   3.493
 2142SOL    HW1 7325   1.144   1.539   3.564
 2142SOL    HW2 7326   0.992   1.549   3.503
 2143SOL     OW 7327   2.892   4.975   1.557
 2143SOL    HW1 7328   2.979   4.949   1.598
 2143SOL    HW2 7329   2.835   5.020   1.626
 2144SOL     OW 7330   0.715   5.746   4.980
 2144SOL    HW1 7331   0.813   5.745   4.995
 2144SOL    HW2 7332   0.696   5.730   4.883
 2145SOL     OW 7333   3.917   6.608   4.413
 2145SOL    HW1 7334   4.005   6.598   4.461
 2145SOL    HW2 7335   3.864   6.680   4.458
 2146SOL     OW 7336   2.493   2.439   0.745
 2146SOL    HW1 7337   2.423   2.379   0.784
 2146SOL    HW2 7338   2.584   2.410   0.777
 2147SOL     OW 7339   5.932   1.182   0.016
 2147SOL    HW1 7340   5.877   1.204   6.962
 2147SOL    HW2 7341   5.925   1.256   0.083
 2148SOL     OW 7342   6.137   3.766   6.035
 2148SOL    HW1 7343   6.174   3.705   6.105
 2148SOL    HW2 7344   6.177   3.742   5.946
 2149SOL     OW 7345   2.293   1.593   1.140
 2149SOL    HW1 7346   2.271   1.683   1.103
 2149SOL    HW2 7347   2.211   1.535   1.136
 2150SOL     OW 7348   2.268   2.590   1.912
 2150SOL    HW1 7349   2.351   2.547   1.874
 2150SOL    HW2 7350   2.288   2.627   2.002
 2151SOL     OW 7351   1.418   6.386   6.650
 2151SOL    HW1 7352   1.477   6.462   6.675
 2151SOL    HW2 7353   1.408   6.383   6.550
 2152SOL     OW 7354   4.514   4.513   2.577
 2152SOL    HW1 7355   4.547   4.537   2.485
 2152SOL    HW2 7356   4.427   4.559   2.593
 2153SOL     OW 7357   4.470   1.951   2.064
 2153SOL    HW1 7358   4.538   1.897   2.016
 2153SOL    HW2 7359   4.517   2.018   2.123
 2154SOL     OW 7360   3.620   0.029   4.219
 2154SOL    HW1 7361   3.549   0.070   4.162
 2154SOL    HW2 7362   3.603   6.958   4.228
 2155SOL     OW 7363   3.996   0.325   1.255
 2155SOL    HW1 7364   4.068   0.258   1.274
 2155SOL    HW2 7365   4.033   0.398   1.197
 2156SOL     OW 7366   0.205   0.360   5.069
 2156SOL    HW1 7367   0.215   0.392   5.163
 2156SOL    HW2 7368   0.157   0.429   5.015
 2157SOL     OW 7369   5.433   5.925   3.564
 2157SOL    HW1 7370   5.438   5.909   3.663
 2157SOL    HW2 7371   5.432   6.023   3.546
 2158SOL     OW 7372   3.817   5.843   0.337
 2158SOL    HW1 7373   3.851   5.934   0.311
 2158SOL    HW2 7374   3.843   5.777   0.267
 2159SOL     OW 7375   1.581   0.672   4.969
 2159SOL    HW1 7376   1.617   0.580   4.952
 2159SOL    HW2 7377   1.536   0.674   5.058
 2160SOL     OW 7378   4.832   4.690   6.777
 2160SOL    HW1 7379   4.883   4.749   6.714
 2160SOL    HW2 7380   4.745   4.665   6.735
 2161SOL     OW 7381   6.474   4.489   1.727
 2161SOL    HW1 7382   6.508   4.437   1.805
 2161SOL    HW2 7383   6.539   4.562   1.705
 2162SOL     OW 7384   2.919   0.301   2.788
 2162SOL    HW1 7385   2.871   0.230   2.738
 2162SOL    HW2 7386   3.018   0.290   2.774
 2163SOL     OW 7387   1.451   5.100   0.766
 2163SOL    HW1 7388   1.549   5.082   0.775
 2163SOL    HW2 7389   1.399   5.021   0.798
 2164SOL     OW 7390   2.139   2.182   6.552
 2164SOL    HW1 7391   2.215   2.139   6.503
 2164SOL    HW2 7392   2.056   2.129   6.538
 2165SOL     OW 7393   0.533   2.402   3.723
 2165SOL    HW1 7394   0.523   2.323   3.783
 2165SOL    HW2 7395   0.445   2.422   3.679
 2166SOL     OW 7396   0.429   3.642   4.326
 2166SOL    HW1 7397   0.406   3.548   4.303
 2166SOL    HW2 7398   0.350   3.701   4.308
 2167SOL     OW 7399   0.328   2.899   3.705
 2167SOL    HW1 7400   0.404   2.930   3.762
 2167SOL    HW2 7401   0.363   2.875   3.614
 2168SOL     OW 7402   1.150   1.678   3.104
 2168SOL    HW1 7403   1.233   1.654   3.155
 2168SOL    HW2 7404   1.100   1.595   3.080
 2169SOL     OW 7405   6.312   0.816   1.273
 2169SOL    HW1 7406   6.232   0.875   1.262
 2169SOL    HW2 7407   6.395   0.870   1.256
 2170SOL     OW 7408   0.197   4.351   5.064
 2170SOL    HW1 7409   0.147   4.265   5.055
 2170SOL    HW2 7410   0.159   4.419   5.001
 2171SOL     OW 7411   0.900   5.672   1.207
 2171SOL    HW1 7412   0.848   5.715   1.280
 2171SOL    HW2 7413   0.997   5.698   1.215
 2172SOL     OW 7414   2.325   2.389   5.789
 2172SOL    HW1 7415   2.400   2.412   5.851
 2172SOL    HW2 7416   2.321   2.456   5.715
 2173SOL     OW 7417   4.684   0.542   5.267
 2173SOL    HW1 7418   4.773   0.500   5.250
 2173SOL    HW2 7419   4.675   0.625   5.210
 2174SOL     OW 7420   6.860   6.087   4.740
 2174SOL    HW1 7421   6.864   6.033   4.823
 2174SOL    HW2 7422   6.950   6.089   4.696
 2175SOL     OW 7423   1.629   3.538   4.357
 2175SOL    HW1 7424   1.576   3.605   4.304
 2175SOL    HW2 7425   1.721   3.573   4.372
 2176SOL     OW 7426   5.393   1.925   1.611
 2176SOL    HW1 7427   5.490   1.903   1.599
 2176SOL    HW2 7428   5.357   1.876   1.690
 2177SOL     OW 7429   0.153   0.125   2.687
 2177SOL    HW1 7430   0.071   0.104   2.740
 2177SOL    HW2 7431   0.153   0.221   2.661
 2178SOL     OW 7432   1.679   1.008   1.670
 2178SOL    HW1 7433   1.777   0.988   1.672
 2178SOL    HW2 7434   1.661   1.089   1.725
 2179SOL     OW 7435   1.928   3.992   6.185
 2179SOL    HW1 7436   1.865   4.029   6.252
 2179SOL    HW2 7437   1.947   4.060   6.114
 2180SOL     OW 7438   1.013   2.697   2.371
 2180SOL    HW1 7439   1.008   2.792   2.341
 2180SOL    HW2 7440   1.050   2.641   2.297
 2181SOL     OW 7441   4.230   5.130   3.856
 2181SOL    HW1 7442   4.273   5.218   3.837
 2181SOL    HW2 7443   4.277   5.059   3.802
 2182SOL     OW 7444   1.395   4.664   3.604
 2182SOL    HW1 7445   1.350   4.700   3.686
 2182SOL    HW2 7446   1.326   4.637   3.537
 2183SOL     OW 7447   2.074   4.406   0.178
 2183SOL    HW1 7448   2.086   4.319   0.129
 2183SOL    HW2 7449   1.978   4.432   0.178
 2184SOL     OW 7450   3.960   6.682   5.872
 2184SOL    HW1 7451   3.918   6.706   5.784
 2184SOL    HW2 7452   4.058   6.667   5.858
 2185SOL     OW 7453   0.605   1.060   6.967
 2185SOL    HW1 7454   0.571   0.981   6.917
 2185SOL    HW2 7455   0.612   1.138   6.905
 2186SOL     OW 7456   6.718   5.846   6.950
 2186SOL    HW1 7457   6.716   5.899   0.009
 2186SOL    HW2 7458   6.813   5.834   6.922
 2187SOL     OW 7459   0.560   5.574   2.199
 2187SOL    HW1 7460   0.654   5.606   2.215
 2187SOL    HW2 7461   0.529   5.523   2.279
 2188SOL     OW 7462   1.569   5.556   5.437
 2188SOL    HW1 7463   1.605   5.468   5.407
 2188SOL    HW2 7464   1.589   5.569   5.534
 2189SOL     OW 7465   1.306   6.746   1.425
 2189SOL    HW1 7466   1.346   6.833   1.395
 2189SOL    HW2 7467   1.232   6.720   1.362
 2190SOL     OW 7468   6.693   2.747   1.290
 2190SOL    HW1 7469   6.632   2.672   1.265
 2190SOL    HW2 7470   6.715   2.740   1.388
 2191SOL     OW 7471   2.199   1.803   5.535
 2191SOL    HW1 7472   2.209   1.710   5.572
 2191SOL    HW2 7473   2.147   1.859   5.600
 2192SOL     OW 7474   5.326   0.955   2.747
 2192SOL    HW1 7475   5.245   0.993   2.792
 2192SOL    HW2 7476   5.298   0.882   2.685
 2193SOL     OW 7477   6.630   0.123   6.409
 2193SOL    HW1 7478   6.563   0.080   6.348
 2193SOL    HW2 7479   6.718   0.077   6.399
 2194SOL     OW 7480   1.721   3.979   6.727
 2194SOL    HW1 7481   1.685   3.966   6.819
 2194SOL    HW2 7482   1.724   4.077   6.706
 2195SOL     OW 7483   6.830   6.425   5.569
 2195SOL    HW1 7484   6.764   6.467   5.631
 2195SOL    HW2 7485   6.896   6.493   5.538
 2196SOL     OW 7486   2.978   6.694   4.484
 2196SOL    HW1 7487   2.948   6.711   4.390
 2196SOL    HW2 7488   2.912   6.733   4.548
 2197SOL     OW 7489   2.941   3.647   6.069
 2197SOL    HW1 7490   2.844   3.634   6.049
 2197SOL    HW2 7491   2.990   3.563   6.049
 2198SOL     OW 7492   6.011   0.467   1.920
 2198SOL    HW1 7493   6.075   0.540   1.900
 2198SOL    HW2 7494   6.030   0.429   2.010
 2199SOL     OW 7495   5.163   6.835   4.016
 2199SOL    HW1 7496   5.215   6.869   3.938
 2199SOL    HW2 7497   5.118   6.911   4.062
 2200SOL     OW 7498   2.110   1.918   4.488
 2200SOL    HW1 7499   2.049   1.931   4.409
 2200SOL    HW2 7500   2.205   1.914   4.456
 2201SOL     OW 7501   6.453   2.992   2.906
 2201SOL    HW1 7502   6.456   2.999   3.006
 2201SOL    HW2 7503   6.361   2.966   2.877
 2202SOL     OW 7504   3.605   5.961   1.657
 2202SOL    HW1 7505   3.603   6.027   1.581
 2202SOL    HW2 7506   3.561   5.876   1.628
 2203SOL     OW 7507   2.678   3.413   1.347
 2203SOL    HW1 7508   2.652   3.319   1.326
 2203SOL    HW2 7509   2.657   3.433   1.443
 2204SOL     OW 7510   4.258   2.450   1.093
 2204SOL    HW1 7511   4.225   2.357   1.074
 2204SOL    HW2 7512   4.180   2.509   1.113
 2205SOL     OW 7513   1.561   0.377   6.698
 2205SOL    HW1 7514   1.561   0.296   6.757
 2205SOL    HW2 7515   1.468   0.410   6.687
 2206SOL     OW 7516   3.121   4.237   5.840
 2206SOL    HW1 7517   3.116   4.336   5.851
 2206SOL    HW2 7518   3.190   4.214   5.771
 2207SOL     OW 7519   3.193   4.421   6.654
 2207SOL    HW1 7520   3.236   4.462   6.574
 2207SOL    HW2 7521   3.167   4.327   6.634
 2208SOL     OW 7522   1.293   4.880   3.326
 2208SOL    HW1 7523   1.392   4.896   3.317
 2208SOL    HW2 7524   1.251   4.884   3.236
 2209SOL     OW 7525   2.632   6.926   5.208
 2209SOL    HW1 7526   2.574   6.862   5.158
 2209SOL    HW2 7527   2.702   6.963   5.146
 2210SOL     OW 7528   0.595   4.470   3.681
 2210SOL    HW1 7529   0.687   4.442   3.653
 2210SOL    HW2 7530   0.583   4.568   3.664
 2211SOL     OW 7531   6.909   0.681   1.117
 2211SOL    HW1 7532   6.997   0.702   1.074
 2211SOL    HW2 7533   6.877   0.592   1.086
 2212SOL     OW 7534   2.090   5.703   0.543
 2212SOL    HW1 7535   2.176   5.710   0.493
 2212SOL    HW2 7536   2.038   5.625   0.508
 2213SOL     OW 7537   3.650   1.826   5.454
 2213SOL    HW1 7538   3.683   1.907   5.503
 2213SOL    HW2 7539   3.590   1.855   5.380
 2214SOL     OW 7540   3.031   3.629   4.893
 2214SOL    HW1 7541   2.955   3.690   4.914
 2214SOL    HW2 7542   3.070   3.593   4.978
 2215SOL     OW 7543   5.554   0.651   0.162
 2215SOL    HW1 7544   5.581   0.572   0.217
 2215SOL    HW2 7545   5.608   0.730   0.188
 2216SOL     OW 7546   0.837   0.977   6.166
 2216SOL    HW1 7547   0.936   0.960   6.166
 2216SOL    HW2 7548   0.796   0.929   6.088
 2217SOL     OW 7549   4.073   6.937   2.238
 2217SOL    HW1 7550   4.023   7.012   2.280
 2217SOL    HW2 7551   4.169   6.961   2.230
 2218SOL     OW 7552   0.055   5.197   6.893
 2218SOL    HW1 7553   0.141   5.206   6.941
 2218SOL    HW2 7554   0.046   5.104   6.858
 2219SOL     OW 7555   5.956   1.852   0.673
 2219SOL    HW1 7556   5.952   1.840   0.772
 2219SOL    HW2 7557   5.944   1.763   0.628
 2220SOL     OW 7558   2.188   5.920   5.416
 2220SOL    HW1 7559   2.231   5.944   5.329
 2220SOL    HW2 7560   2.180   6.002   5.473
 2221SOL     OW 7561   5.922   1.741   5.444
 2221SOL    HW1 7562   5.982   1.752   5.523
 2221SOL    HW2 7563   5.977   1.711   5.365
 2222SOL     OW 7564   6.262   0.387   1.399
 2222SOL    HW1 7565   6.175   0.428   1.428
 2222SOL    HW2 7566   6.294   0.433   1.315
 2223SOL     OW 7567   5.853   1.180   6.069
 2223SOL    HW1 7568   5.910   1.218   5.997
 2223SOL    HW2 7569   5.786   1.118   6.028
 2224SOL     OW 7570   6.238   3.818   0.578
 2224SOL    HW1 7571   6.266   3.767   0.659
 2224SOL    HW2 7572   6.237   3.756   0.499
 2225SOL     OW 7573   6.167   6.715   3.805
 2225SOL    HW1 7574   6.235   6.698   3.876
 2225SOL    HW2 7575   6.102   6.639   3.803
 2226SOL     OW 7576   3.609   5.049   1.100
 2226SOL    HW1 7577   3.549   5.091   1.032
 2226SOL    HW2 7578   3.690   5.012   1.055
 2227SOL     OW 7579   5.769   2.705   0.399
 2227SOL    HW1 7580   5.846   2.642   0.387
 2227SOL    HW2 7581   5.788   2.790   0.349
 2228SOL     OW 7582   4.144   5.225   0.815
 2228SOL    HW1 7583   4.081   5.289   0.770
 2228SOL    HW2 7584   4.218   5.277   0.858
 2229SOL     OW 7585   3.768   2.820   5.373
 2229SOL    HW1 7586   3.751   2.848   5.279
 2229SOL    HW2 7587   3.802   2.726   5.374
 2230SOL     OW 7588   6.439   6.253   0.904
 2230SOL    HW1 7589   6.446   6.275   1.002
 2230SOL    HW2 7590   6.395   6.328   0.856
 2231SOL     OW 7591   0.149   1.126   1.468
 2231SOL    HW1 7592   0.126   1.196   1.535
 2231SOL    HW2 7593   0.124   1.159   1.376
 2232SOL     OW 7594   1.085   1.776   4.663
 2232SOL    HW1 7595   1.092   1.871   4.694
 2232SOL    HW2 7596   1.139   1.764   4.579
 2233SOL     OW 7597   2.495   2.855   0.638
 2233SOL    HW1 7598   2.450   2.902   0.714
 2233SOL    HW2 7599   2.496   2.915   0.558
 2234SOL     OW 7600   3.443   1.409   0.933
 2234SOL    HW1 7601   3.406   1.325   0.974
 2234SOL    HW2 7602   3.542   1.411   0.947
 2235SOL     OW 7603   2.696   0.245   2.018
 2235SOL    HW1 7604   2.677   0.320   2.081
 2235SOL    HW2 7605   2.721   0.282   1.928
 2236SOL     OW 7606   1.957   4.108   5.956
 2236SOL    HW1 7607   1.899   4.031   5.928
 2236SOL    HW2 7608   1.976   4.166   5.877
 2237SOL     OW 7609   5.322   4.673   3.822
 2237SOL    HW1 7610   5.406   4.639   3.864
 2237SOL    HW2 7611   5.261   4.708   3.893
 2238SOL     OW 7612   4.492   5.484   1.803
 2238SOL    HW1 7613   4.402   5.510   1.770
 2238SOL    HW2 7614   4.506   5.522   1.895
 2239SOL     OW 7615   3.701   5.476   4.121
 2239SOL    HW1 7616   3.615   5.527   4.127
 2239SOL    HW2 7617   3.690   5.387   4.165
 2240SOL     OW 7618   3.496   5.388   2.811
 2240SOL    HW1 7619   3.561   5.360   2.881
 2240SOL    HW2 7620   3.449   5.472   2.840
 2241SOL     OW 7621   6.871   6.037   2.968
 2241SOL    HW1 7622   6.911   6.034   2.876
 2241SOL    HW2 7623   6.845   6.131   2.989
 2242SOL     OW 7624   5.124   2.880   2.495
 2242SOL    HW1 7625   5.183   2.953   2.530
 2242SOL    HW2 7626   5.101   2.817   2.568
 2243SOL     OW 7627   1.579   6.834   6.185
 2243SOL    HW1 7628   1.481   6.822   6.173
 2243SOL    HW2 7629   1.627   6.757   6.143
 2244SOL     OW 7630   2.896   6.693   0.674
 2244SOL    HW1 7631   2.855   6.763   0.733
 2244SOL    HW2 7632   2.929   6.617   0.730
 2245SOL     OW 7633   0.874   1.284   1.650
 2245SOL    HW1 7634   0.925   1.235   1.721
 2245SOL    HW2 7635   0.929   1.285   1.566
 2246SOL     OW 7636   2.262   1.040   4.280
 2246SOL    HW1 7637   2.220   1.053   4.190
 2246SOL    HW2 7638   2.299   1.127   4.311
 2247SOL     OW 7639   3.552   2.865   3.270
 2247SOL    HW1 7640   3.485   2.805   3.225
 2247SOL    HW2 7641   3.571   2.944   3.211
 2248SOL     OW 7642   6.778   3.849   5.092
 2248SOL    HW1 7643   6.877   3.855   5.109
 2248SOL    HW2 7644   6.762   3.837   4.994
 2249SOL     OW 7645   5.498   7.025   3.239
 2249SOL    HW1 7646   5.579   6.979   3.202
 2249SOL    HW2 7647   5.426   6.957   3.254
 2250SOL     OW 7648   3.418   4.042   4.839
 2250SOL    HW1 7649   3.408   3.980   4.761
 2250SOL    HW2 7650   3.508   4.085   4.836
 2251SOL     OW 7651   5.317   0.155   6.646
 2251SOL    HW1 7652   5.352   0.062   6.658
 2251SOL    HW2 7653   5.391   0.214   6.613
 2252SOL     OW 7654   4.653   1.442   3.160
 2252SOL    HW1 7655   4.555   1.427   3.168
 2252SOL    HW2 7656   4.694   1.448   3.251
 2253SOL     OW 7657   0.002   3.410   0.134
 2253SOL    HW1 7658   0.039   3.502   0.120
 2253SOL    HW2 7659   0.021   3.354   0.053
 2254SOL     OW 7660   3.473   3.166   4.581
 2254SOL    HW1 7661   3.547   3.184   4.516
 2254SOL    HW2 7662   3.404   3.107   4.539
 2255SOL     OW 7663   3.919   3.040   6.045
 2255SOL    HW1 7664   3.916   2.958   5.987
 2255SOL    HW2 7665   3.896   3.015   6.139
 2256SOL     OW 7666   5.022   6.263   1.841
 2256SOL    HW1 7667   5.049   6.190   1.778
 2256SOL    HW2 7668   5.075   6.345   1.821
 2257SOL     OW 7669   0.829   2.044   4.754
 2257SOL    HW1 7670   0.751   2.016   4.811
 2257SOL    HW2 7671   0.836   1.983   4.675
 2258SOL     OW 7672   1.580   5.151   4.313
 2258SOL    HW1 7673   1.644   5.195   4.250
 2258SOL    HW2 7674   1.549   5.218   4.380
 2259SOL     OW 7675   5.318   2.593   5.551
 2259SOL    HW1 7676   5.303   2.505   5.595
 2259SOL    HW2 7677   5.277   2.665   5.606
 2260SOL     OW 7678   7.021   4.694   1.269
 2260SOL    HW1 7679   6.945   4.630   1.263
 2260SOL    HW2 7680   0.062   4.660   1.335
 2261SOL     OW 7681   6.231   4.980   0.315
 2261SOL    HW1 7682   6.208   5.042   0.240
 2261SOL    HW2 7683   6.191   5.015   0.400
 2262SOL     OW 7684   5.981   0.333   3.567
 2262SOL    HW1 7685   5.991   0.252   3.509
 2262SOL    HW2 7686   6.062   0.343   3.625
 2263SOL     OW 7687   3.305   5.700   0.309
 2263SOL    HW1 7688   3.366   5.779   0.304
 2263SOL    HW2 7689   3.223   5.718   0.254
 2264SOL     OW 7690   3.124   5.310   6.480
 2264SOL    HW1 7691   3.178   5.252   6.542
 2264SOL    HW2 7692   3.027   5.302   6.503
 2265SOL     OW 7693   2.400   0.824   4.033
 2265SOL    HW1 7694   2.379   0.920   4.015
 2265SOL    HW2 7695   2.498   0.809   4.025
 2266SOL     OW 7696   5.177   1.272   0.644
 2266SOL    HW1 7697   5.156   1.335   0.570
 2266SOL    HW2 7698   5.102   1.273   0.710
 2267SOL     OW 7699   5.091   3.071   4.872
 2267SOL    HW1 7700   5.095   3.168   4.847
 2267SOL    HW2 7701   5.070   3.063   4.969
 2268SOL     OW 7702   5.661   4.071   6.521
 2268SOL    HW1 7703   5.721   4.142   6.484
 2268SOL    HW2 7704   5.612   4.026   6.447
 2269SOL     OW 7705   0.092   4.455   5.573
 2269SOL    HW1 7706   0.155   4.461   5.496
 2269SOL    HW2 7707   0.143   4.442   5.658
 2270SOL     OW 7708   3.798   2.251   5.908
 2270SOL    HW1 7709   3.886   2.206   5.897
 2270SOL    HW2 7710   3.742   2.237   5.827
 2271SOL     OW 7711   5.866   4.638   0.113
 2271SOL    HW1 7712   5.853   4.541   0.133
 2271SOL    HW2 7713   5.816   4.662   0.030
 2272SOL     OW 7714   5.978   2.073   6.868
 2272SOL    HW1 7715   5.961   1.975   6.865
 2272SOL    HW2 7716   5.895   2.121   6.895
 2273SOL     OW 7717   1.707   1.261   1.875
 2273SOL    HW1 7718   1.740   1.177   1.918
 2273SOL    HW2 7719   1.758   1.277   1.790
 2274SOL     OW 7720   0.957   1.963   6.175
 2274SOL    HW1 7721   0.920   1.890   6.233
 2274SOL    HW2 7722   1.047   1.990   6.209
 2275SOL     OW 7723   6.493   6.630   4.307
 2275SOL    HW1 7724   6.549   6.584   4.238
 2275SOL    HW2 7725   6.536   6.621   4.396
 2276SOL     OW 7726   2.392   5.390   1.880
 2276SOL    HW1 7727   2.372   5.477   1.925
 2276SOL    HW2 7728   2.486   5.364   1.899
 2277SOL     OW 7729   3.515   4.153   3.893
 2277SOL    HW1 7730   3.576   4.074   3.895
 2277SOL    HW2 7731   3.569   4.237   3.902
 2278SOL     OW 7732   6.108   3.800   4.659
 2278SOL    HW1 7733   6.156   3.790   4.572
 2278SOL    HW2 7734   6.009   3.801   4.643
 2279SOL     OW 7735   5.813   6.819   5.969
 2279SOL    HW1 7736   5.833   6.722   5.974
 2279SOL    HW2 7737   5.845   6.865   6.051
 2280SOL     OW 7738   6.986   0.620   4.663
 2280SOL    HW1 7739   6.910   0.653   4.607
 2280SOL    HW2 7740   6.966   0.527   4.695
 2281SOL     OW 7741   3.366   0.667   1.970
 2281SOL    HW1 7742   3.439   0.682   2.037
 2281SOL    HW2 7743   3.303   0.745   1.971
 2282SOL     OW 7744   5.510   6.938   5.401
 2282SOL    HW1 7745   5.603   6.914   5.428
 2282SOL    HW2 7746   5.513   7.013   5.334
 2283SOL     OW 7747   1.437   6.427   2.046
 2283SOL    HW1 7748   1.469   6.428   2.140
 2283SOL    HW2 7749   1.494   6.487   1.990
 2284SOL     OW 7750   1.565   2.890   7.020
 2284SOL    HW1 7751   1.517   2.959   0.049
 2284SOL    HW2 7752   1.662   2.912   7.016
 2285SOL     OW 7753   1.822   2.675   1.513
 2285SOL    HW1 7754   1.787   2.730   1.589
 2285SOL    HW2 7755   1.827   2.579   1.540
 2286SOL     OW 7756   5.765   6.778   3.679
 2286SOL    HW1 7757   5.718   6.849   3.627
 2286SOL    HW2 7758   5.725   6.772   3.771
 2287SOL     OW 7759   2.486   0.019   3.665
 2287SOL    HW1 7760   2.451   6.985   3.736
 2287SOL    HW2 7761   2.431   0.103   3.662
 2288SOL     OW 7762   5.885   4.893   3.818
 2288SOL    HW1 7763   5.853   4.909   3.725
 2288SOL    HW2 7764   5.870   4.976   3.873
 2289SOL     OW 7765   0.445   4.956   0.773
 2289SOL    HW1 7766   0.531   4.911   0.751
 2289SOL    HW2 7767   0.372   4.922   0.714
 2290SOL     OW 7768   0.142   3.634   0.869
 2290SOL    HW1 7769   0.154   3.733   0.877
 2290SOL    HW2 7770   0.199   3.588   0.937
 2291SOL     OW 7771   1.620   2.306   5.175
 2291SOL    HW1 7772   1.548   2.350   5.228
 2291SOL    HW2 7773   1.663   2.235   5.230
 2292SOL     OW 7774   0.582   1.929   4.370
 2292SOL    HW1 7775   0.626   1.864   4.308
 2292SOL    HW2 7776   0.649   1.964   4.435
 2293SOL     OW 7777   5.123   6.268   1.327
 2293SOL    HW1 7778   5.033   6.277   1.284
 2293SOL    HW2 7779   5.164   6.358   1.337
 2294SOL     OW 7780   3.233   0.203   6.849
 2294SOL    HW1 7781   3.227   0.271   6.921
 2294SOL    HW2 7782   3.154   0.211   6.788
 2295SOL     OW 7783   0.808   1.566   3.029
 2295SOL    HW1 7784   0.894   1.518   3.043
 2295SOL    HW2 7785   0.811   1.655   3.074
 2296SOL     OW 7786   4.390   5.041   0.703
 2296SOL    HW1 7787   4.361   5.136   0.698
 2296SOL    HW2 7788   4.364   4.993   0.619
 2297SOL     OW 7789   4.509   3.958   5.320
 2297SOL    HW1 7790   4.591   3.920   5.362
 2297SOL    HW2 7791   4.454   4.004   5.389
 2298SOL     OW 7792   4.158   3.154   1.779
 2298SOL    HW1 7793   4.095   3.125   1.707
 2298SOL    HW2 7794   4.252   3.147   1.746
 2299SOL     OW 7795   4.699   6.193   5.172
 2299SOL    HW1 7796   4.643   6.225   5.095
 2299SOL    HW2 7797   4.660   6.226   5.258
 2300SOL     OW 7798   2.490   5.379   2.542
 2300SOL    HW1 7799   2.569   5.320   2.528
 2300SOL    HW2 7800   2.408   5.322   2.554
 2301SOL     OW 7801   3.088   3.080   2.774
 2301SOL    HW1 7802   3.132   3.168   2.755
 2301SOL    HW2 7803   3.087   3.064   2.873
 2302SOL     OW 7804   3.779   0.352   0.598
 2302SOL    HW1 7805   3.804   0.359   0.694
 2302SOL    HW2 7806   3.788   0.256   0.568
 2303SOL     OW 7807   2.025   3.193   6.455
 2303SOL    HW1 7808   2.029   3.119   6.388
 2303SOL    HW2 7809   2.098   3.259   6.436
 2304SOL     OW 7810   4.177   6.946   3.829
 2304SOL    HW1 7811   4.272   6.952   3.861
 2304SOL    HW2 7812   4.130   0.006   3.846
 2305SOL     OW 7813   2.514   6.847   2.806
 2305SOL    HW1 7814   2.557   6.937   2.817
 2305SOL    HW2 7815   2.582   6.776   2.819
 2306SOL     OW 7816   2.956   5.078   2.213
 2306SOL    HW1 7817   2.957   4.979   2.202
 2306SOL    HW2 7818   3.018   5.120   2.146
 2307SOL     OW 7819   0.347   4.155   2.323
 2307SOL    HW1 7820   0.301   4.240   2.297
 2307SOL    HW2 7821   0.444   4.162   2.300
 2308SOL     OW 7822   1.695   6.567   0.327
 2308SOL    HW1 7823   1.746   6.593   0.245
 2308SOL    HW2 7824   1.704   6.468   0.342
 2309SOL     OW 7825   2.445   6.389   6.729
 2309SOL    HW1 7826   2.477   6.476   6.691
 2309SOL    HW2 7827   2.353   6.401   6.767
 2310SOL     OW 7828   5.603   6.253   1.156
 2310SOL    HW1 7829   5.614   6.352   1.153
 2310SOL    HW2 7830   5.587   6.218   1.064
 2311SOL     OW 7831   2.490   5.899   2.065
 2311SOL    HW1 7832   2.550   5.973   2.034
 2311SOL    HW2 7833   2.466   5.841   1.988
 2312SOL     OW 7834   3.454   6.510   4.128
 2312SOL    HW1 7835   3.498   6.500   4.217
 2312SOL    HW2 7836   3.370   6.563   4.137
 2313SOL     OW 7837   5.181   5.642   1.362
 2313SOL    HW1 7838   5.083   5.620   1.367
 2313SOL    HW2 7839   5.233   5.558   1.346
 2314SOL     OW 7840   5.611   0.624   5.056
 2314SOL    HW1 7841   5.549   0.629   4.978
 2314SOL    HW2 7842   5.658   0.535   5.055
 2315SOL     OW 7843   5.125   3.428   5.294
 2315SOL    HW1 7844   5.046   3.490   5.294
 2315SOL    HW2 7845   5.193   3.460   5.359
 2316SOL     OW 7846   3.133   0.732   4.415
 2316SOL    HW1 7847   3.205   0.769   4.475
 2316SOL    HW2 7848   3.171   0.658   4.359
 2317SOL     OW 7849   6.551   5.999   3.274
 2317SOL    HW1 7850   6.464   6.041   3.247
 2317SOL    HW2 7851   6.603   6.064   3.330
 2318SOL     OW 7852   2.301   2.981   4.037
 2318SOL    HW1 7853   2.343   2.891   4.025
 2318SOL    HW2 7854   2.241   3.001   3.959
 2319SOL     OW 7855   2.899   5.766   4.699
 2319SOL    HW1 7856   2.982   5.821   4.698
 2319SOL    HW2 7857   2.843   5.790   4.620
 2320SOL     OW 7858   0.681   3.049   4.385
 2320SOL    HW1 7859   0.706   3.121   4.450
 2320SOL    HW2 7860   0.751   3.043   4.314
 2321SOL     OW 7861   2.120   5.476   6.895
 2321SOL    HW1 7862   2.123   5.468   6.994
 2321SOL    HW2 7863   2.026   5.462   6.863
 2322SOL     OW 7864   1.726   4.126   3.285
 2322SOL    HW1 7865   1.779   4.080   3.214
 2322SOL    HW2 7866   1.734   4.225   3.274
 2323SOL     OW 7867   3.346   4.792   1.764
 2323SOL    HW1 7868   3.421   4.794   1.697
 2323SOL    HW2 7869   3.375   4.839   1.847
 2324SOL     OW 7870   6.668   6.032   0.642
 2324SOL    HW1 7871   6.656   6.090   0.562
 2324SOL    HW2 7872   6.642   5.938   0.620
 2325SOL     OW 7873   1.135   4.343   1.127
 2325SOL    HW1 7874   1.074   4.382   1.057
 2325SOL    HW2 7875   1.100   4.365   1.218
 2326SOL     OW 7876   3.443   5.670   6.678
 2326SOL    HW1 7877   3.531   5.680   6.724
 2326SOL    HW2 7878   3.450   5.707   6.585
 2327SOL     OW 7879   6.475   1.385   3.998
 2327SOL    HW1 7880   6.443   1.293   4.019
 2327SOL    HW2 7881   6.559   1.380   3.945
 2328SOL     OW 7882   1.508   1.892   3.185
 2328SOL    HW1 7883   1.464   1.835   3.116
 2328SOL    HW2 7884   1.486   1.988   3.168
 2329SOL     OW 7885   1.859   4.533   4.631
 2329SOL    HW1 7886   1.917   4.582   4.566
 2329SOL    HW2 7887   1.849   4.438   4.603
 2330SOL     OW 7888   0.379   3.691   1.335
 2330SOL    HW1 7889   0.361   3.740   1.250
 2330SOL    HW2 7890   0.462   3.636   1.325
 2331SOL     OW 7891   3.992   5.635   6.682
 2331SOL    HW1 7892   3.971   5.587   6.597
 2331SOL    HW2 7893   4.007   5.568   6.755
 2332SOL     OW 7894   5.367   1.353   5.691
 2332SOL    HW1 7895   5.340   1.333   5.785
 2332SOL    HW2 7896   5.381   1.452   5.680
 2333SOL     OW 7897   0.321   4.339   2.709
 2333SOL    HW1 7898   0.337   4.435   2.685
 2333SOL    HW2 7899   0.339   4.325   2.806
 2334SOL     OW 7900   2.295   0.465   6.868
 2334SOL    HW1 7901   2.333   0.551   6.903
 2334SOL    HW2 7902   2.207   0.447   6.914
 2335SOL     OW 7903   6.597   1.134   3.616
 2335SOL    HW1 7904   6.500   1.127   3.642
 2335SOL    HW2 7905   6.651   1.165   3.694
 2336SOL     OW 7906   4.372   2.429   4.726
 2336SOL    HW1 7907   4.310   2.450   4.801
 2336SOL    HW2 7908   4.437   2.358   4.755
 2337SOL     OW 7909   4.457   0.952   1.834
 2337SOL    HW1 7910   4.483   1.027   1.894
 2337SOL    HW2 7911   4.478   0.976   1.739
 2338SOL     OW 7912   1.182   3.132   5.336
 2338SOL    HW1 7913   1.186   3.151   5.434
 2338SOL    HW2 7914   1.221   3.042   5.318
 2339SOL     OW 7915   3.296   3.373   4.041
 2339SOL    HW1 7916   3.261   3.425   4.119
 2339SOL    HW2 7917   3.386   3.408   4.015
 2340SOL     OW 7918   6.264   4.440   6.932
 2340SOL    HW1 7919   6.234   4.512   6.994
 2340SOL    HW2 7920   6.256   4.471   6.838
 2341SOL     OW 7921   3.837   4.876   2.073
 2341SOL    HW1 7922   3.853   4.841   2.165
 2341SOL    HW2 7923   3.762   4.825   2.030
 2342SOL     OW 7924   0.696   6.951   5.145
 2342SOL    HW1 7925   0.656   6.997   5.225
 2342SOL    HW2 7926   0.623   6.928   5.081
 2343SOL     OW 7927   1.904   5.838   3.465
 2343SOL    HW1 7928   1.990   5.791   3.444
 2343SOL    HW2 7929   1.909   5.932   3.433
 2344SOL     OW 7930   1.646   5.861   0.043
 2344SOL    HW1 7931   1.743   5.852   0.019
 2344SOL    HW2 7932   1.593   5.870   6.985
 2345SOL     OW 7933   3.575   5.622   4.969
 2345SOL    HW1 7934   3.498   5.676   5.002
 2345SOL    HW2 7935   3.558   5.525   4.986
 2346SOL     OW 7936   3.935   3.115   5.211
 2346SOL    HW1 7937   3.856   3.068   5.251
 2346SOL    HW2 7938   4.019   3.073   5.243
 2347SOL     OW 7939   2.948   2.808   1.401
 2347SOL    HW1 7940   3.019   2.761   1.454
 2347SOL    HW2 7941   2.888   2.741   1.359
 2348SOL     OW 7942   2.322   0.177   3.267
 2348SOL    HW1 7943   2.413   0.158   3.303
 2348SOL    HW2 7944   2.325   0.259   3.210
 2349SOL     OW 7945   1.073   4.607   6.574
 2349SOL    HW1 7946   1.014   4.649   6.643
 2349SOL    HW2 7947   1.074   4.508   6.587
 2350SOL     OW 7948   5.088   0.109   6.536
 2350SOL    HW1 7949   5.020   0.182   6.532
 2350SOL    HW2 7950   5.162   0.135   6.597
 2351SOL     OW 7951   3.103   5.100   4.064
 2351SOL    HW1 7952   3.003   5.095   4.073
 2351SOL    HW2 7953   3.145   5.083   4.153
 2352SOL     OW 7954   0.565   4.409   2.144
 2352SOL    HW1 7955   0.620   4.477   2.194
 2352SOL    HW2 7956   0.613   4.322   2.143
 2353SOL     OW 7957   3.209   4.945   5.919
 2353SOL    HW1 7958   3.116   4.909   5.912
 2353SOL    HW2 7959   3.271   4.870   5.943
 2354SOL     OW 7960   3.326   1.304   5.723
 2354SOL    HW1 7961   3.373   1.391   5.711
 2354SOL    HW2 7962   3.227   1.319   5.723
 2355SOL     OW 7963   2.334   5.945   0.210
 2355SOL    HW1 7964   2.370   6.036   0.230
 2355SOL    HW2 7965   2.357   5.921   0.116
 2356SOL     OW 7966   1.542   3.139   6.371
 2356SOL    HW1 7967   1.625   3.165   6.420
 2356SOL    HW2 7968   1.551   3.161   6.274
 2357SOL     OW 7969   4.081   6.722   2.623
 2357SOL    HW1 7970   4.129   6.804   2.655
 2357SOL    HW2 7971   3.997   6.749   2.576
 2358SOL     OW 7972   4.048   4.981   4.969
 2358SOL    HW1 7973   4.050   4.937   5.059
 2358SOL    HW2 7974   4.114   5.056   4.967
 2359SOL     OW 7975   6.115   0.970   5.862
 2359SOL    HW1 7976   6.056   0.924   5.796
 2359SOL    HW2 7977   6.209   0.974   5.826
 2360SOL     OW 7978   5.362   4.643   6.937
 2360SOL    HW1 7979   5.401   4.672   6.849
 2360SOL    HW2 7980   5.358   4.543   6.941
 2361SOL     OW 7981   2.326   1.343   5.075
 2361SOL    HW1 7982   2.332   1.382   4.983
 2361SOL    HW2 7983   2.299   1.247   5.068
 2362SOL     OW 7984   2.220   6.953   4.927
 2362SOL    HW1 7985   2.317   6.971   4.940
 2362SOL    HW2 7986   2.182   7.020   4.863
 2363SOL     OW 7987   4.470   2.359   5.374
 2363SOL    HW1 7988   4.509   2.303   5.302
 2363SOL    HW2 7989   4.495   2.322   5.463
 2364SOL     OW 7990   1.384   1.873   2.944
 2364SOL    HW1 7991   1.300   1.848   2.896
 2364SOL    HW2 7992   1.401   1.971   2.930
 2365SOL     OW 7993   6.454   2.658   6.404
 2365SOL    HW1 7994   6.418   2.576   6.360
 2365SOL    HW2 7995   6.542   2.638   6.446
 2366SOL     OW 7996   2.092   5.710   6.527
 2366SOL    HW1 7997   2.062   5.794   6.482
 2366SOL    HW2 7998   2.094   5.635   6.461
 2367SOL     OW 7999   2.661   4.601   0.518
 2367SOL    HW1 8000   2.608   4.606   0.603
 2367SOL    HW2 8001   2.654   4.509   0.480
 2368SOL     OW 8002   4.290   0.105   3.453
 2368SOL    HW1 8003   4.325   0.095   3.360
 2368SOL    HW2 8004   4.359   0.072   3.518
 2369SOL     OW 8005   0.979   2.339   5.664
 2369SOL    HW1 8006   0.919   2.302   5.734
 2369SOL    HW2 8007   0.943   2.427   5.632
 2370SOL     OW 8008   5.040   3.694   6.892
 2370SOL    HW1 8009   4.995   3.782   6.886
 2370SOL    HW2 8010   5.076   3.669   6.801
 2371SOL     OW 8011   0.687   6.991   2.554
 2371SOL    HW1 8012   0.686   6.905   2.604
 2371SOL    HW2 8013   0.664   0.039   2.617
 2372SOL     OW 8014   0.073   2.424   2.217
 2372SOL    HW1 8015   7.018   2.402   2.270
 2372SOL    HW2 8016   0.061   2.512   2.171
 2373SOL     OW 8017   0.413   1.706   0.413
 2373SOL    HW1 8018   0.473   1.626   0.420
 2373SOL    HW2 8019   0.426   1.765   0.492
 2374SOL     OW 8020   6.207   0.930   3.522
 2374SOL    HW1 8021   6.170   0.902   3.610
 2374SOL    HW2 8022   6.203   0.852   3.458
 2375SOL     OW 8023   2.761   6.752   4.629
 2375SOL    HW1 8024   2.695   6.745   4.555
 2375SOL    HW2 8025   2.726   6.707   4.711
 2376SOL     OW 8026   6.630   2.797   4.197
 2376SOL    HW1 8027   6.608   2.867   4.129
 2376SOL    HW2 8028   6.575   2.715   4.180
 2377SOL     OW 8029   3.166   4.079   3.225
 2377SOL    HW1 8030   3.091   4.013   3.225
 2377SOL    HW2 8031   3.207   4.083   3.316
 2378SOL     OW 8032   4.743   1.922   0.419
 2378SOL    HW1 8033   4.675   1.854   0.389
 2378SOL    HW2 8034   4.791   1.889   0.500
 2379SOL     OW 8035   5.800   2.277   6.622
 2379SOL    HW1 8036   5.783   2.230   6.709
 2379SOL    HW2 8037   5.755   2.227   6.548
 2380SOL     OW 8038   0.637   0.665   6.547
 2380SOL    HW1 8039   0.665   0.627   6.636
 2380SOL    HW2 8040   0.714   0.714   6.506
 2381SOL     OW 8041   2.206   3.902   4.473
 2381SOL    HW1 8042   2.226   3.999   4.482
 2381SOL    HW2 8043   2.194   3.862   4.564
 2382SOL     OW 8044   2.444   4.387   3.549
 2382SOL    HW1 8045   2.404   4.300   3.577
 2382SOL    HW2 8046   2.488   4.376   3.459
 2383SOL     OW 8047   5.761   6.535   1.132
 2383SOL    HW1 8048   5.720   6.546   1.222
 2383SOL    HW2 8049   5.721   6.601   1.068
 2384SOL     OW 8050   5.892   0.359   2.833
 2384SOL    HW1 8051   5.862   0.388   2.923
 2384SOL    HW2 8052   5.966   0.292   2.842
 2385SOL     OW 8053   0.922   6.625   1.445
 2385SOL    HW1 8054   0.989   6.642   1.518
 2385SOL    HW2 8055   0.894   6.529   1.447
 2386SOL     OW 8056   5.419   5.148   4.125
 2386SOL    HW1 8057   5.438   5.194   4.212
 2386SOL    HW2 8058   5.463   5.058   4.124
 2387SOL     OW 8059   1.394   1.449   4.027
 2387SOL    HW1 8060   1.432   1.407   4.109
 2387SOL    HW2 8061   1.296   1.464   4.040
 2388SOL     OW 8062   0.862   2.304   3.732
 2388SOL    HW1 8063   0.838   2.341   3.822
 2388SOL    HW2 8064   0.825   2.362   3.660
 2389SOL     OW 8065   4.909   3.708   2.859
 2389SOL    HW1 8066   5.007   3.709   2.880
 2389SOL    HW2 8067   4.890   3.777   2.789
 2390SOL     OW 8068   3.923   3.623   2.741
 2390SOL    HW1 8069   4.014   3.596   2.770
 2390SOL    HW2 8070   3.882   3.550   2.687
 2391SOL     OW 8071   4.781   4.530   5.493
 2391SOL    HW1 8072   4.772   4.447   5.547
 2391SOL    HW2 8073   4.872   4.533   5.452
 2392SOL     OW 8074   3.704   6.672   5.346
 2392SOL    HW1 8075   3.755   6.650   5.263
 2392SOL    HW2 8076   3.655   6.591   5.378
 2393SOL     OW 8077   5.131   3.747   6.118
 2393SOL    HW1 8078   5.122   3.737   6.019
 2393SOL    HW2 8079   5.197   3.679   6.152
 2394SOL     OW 8080   1.644   3.243   4.302
 2394SOL    HW1 8081   1.586   3.324   4.316
 2394SOL    HW2 8082   1.588   3.169   4.263
 2395SOL     OW 8083   5.922   2.474   6.763
 2395SOL    HW1 8084   5.973   2.526   6.695
 2395SOL    HW2 8085   5.861   2.409   6.717
 2396SOL     OW 8086   3.722   5.068   1.864
 2396SOL    HW1 8087   3.710   5.015   1.948
 2396SOL    HW2 8088   3.721   5.006   1.785
 2397SOL     OW 8089   6.994   3.799   6.720
 2397SOL    HW1 8090   0.017   3.779   6.636
 2397SOL    HW2 8091   6.896   3.799   6.701
 2398SOL     OW 8092   2.542   3.845   6.583
 2398SOL    HW1 8093   2.464   3.862   6.522
 2398SOL    HW2 8094   2.626   3.878   6.540
 2399SOL     OW 8095   4.249   1.824   2.188
 2399SOL    HW1 8096   4.316   1.891   2.157
 2399SOL    HW2 8097   4.225   1.763   2.113
 2400SOL     OW 8098   3.176   4.523   0.303
 2400SOL    HW1 8099   3.083   4.536   0.338
 2400SOL    HW2 8100   3.189   4.580   0.222
 2401SOL     OW 8101   3.583   6.251   6.043
 2401SOL    HW1 8102   3.581   6.195   6.126
 2401SOL    HW2 8103   3.663   6.226   5.989
 2402SOL     OW 8104   6.927   1.491   3.911
 2402SOL    HW1 8105   6.844   1.520   3.862
 2402SOL    HW2 8106   7.008   1.524   3.862
 2403SOL     OW 8107   1.920   2.632   0.211
 2403SOL    HW1 8108   1.828   2.670   0.210
 2403SOL    HW2 8109   1.931   2.573   0.291
 2404SOL     OW 8110   3.824   0.984   1.336
 2404SOL    HW1 8111   3.920   1.011   1.329
 2404SOL    HW2 8112   3.819   0.887   1.361
 2405SOL     OW 8113   3.871   3.313   2.804
 2405SOL    HW1 8114   3.918   3.351   2.884
 2405SOL    HW2 8115   3.773   3.309   2.821
 2406SOL     OW 8116   2.839   6.804   3.020
 2406SOL    HW1 8117   2.864   6.859   2.941
 2406SOL    HW2 8118   2.920   6.788   3.077
 2407SOL     OW 8119   4.681   1.780   2.364
 2407SOL    HW1 8120   4.749   1.752   2.296
 2407SOL    HW2 8121   4.706   1.741   2.453
 2408SOL     OW 8122   4.091   5.093   3.315
 2408SOL    HW1 8123   4.040   5.040   3.382
 2408SOL    HW2 8124   4.079   5.191   3.334
 2409SOL     OW 8125   1.074   3.872   2.012
 2409SOL    HW1 8126   1.005   3.907   1.949
 2409SOL    HW2 8127   1.094   3.776   1.990
 2410SOL     OW 8128   4.622   2.408   5.943
 2410SOL    HW1 8129   4.715   2.442   5.961
 2410SOL    HW2 8130   4.588   2.447   5.858
 2411SOL     OW 8131   4.285   5.151   4.964
 2411SOL    HW1 8132   4.303   5.205   4.882
 2411SOL    HW2 8133   4.286   5.211   5.044
 2412SOL     OW 8134   4.372   5.247   1.640
 2412SOL    HW1 8135   4.380   5.305   1.559
 2412SOL    HW2 8136   4.298   5.280   1.698
 2413SOL     OW 8137   6.154   2.091   1.059
 2413SOL    HW1 8138   6.165   2.180   1.102
 2413SOL    HW2 8139   6.072   2.047   1.096
 2414SOL     OW 8140   4.653   4.518   2.330
 2414SOL    HW1 8141   4.632   4.430   2.287
 2414SOL    HW2 8142   4.752   4.525   2.345
 2415SOL     OW 8143   0.237   6.561   1.993
 2415SOL    HW1 8144   0.239   6.545   2.092
 2415SOL    HW2 8145   0.171   6.498   1.951
 2416SOL     OW 8146   4.194   2.222   5.334
 2416SOL    HW1 8147   4.120   2.168   5.292
 2416SOL    HW2 8148   4.257   2.160   5.381
 2417SOL     OW 8149   3.875   3.285   5.879
 2417SOL    HW1 8150   3.913   3.194   5.897
 2417SOL    HW2 8151   3.904   3.316   5.789
 2418SOL     OW 8152   2.901   3.778   4.202
 2418SOL    HW1 8153   2.940   3.861   4.163
 2418SOL    HW2 8154   2.873   3.717   4.127
 2419SOL     OW 8155   0.833   6.392   4.853
 2419SOL    HW1 8156   0.875   6.412   4.941
 2419SOL    HW2 8157   0.890   6.429   4.780
 2420SOL     OW 8158   2.768   1.282   2.009
 2420SOL    HW1 8159   2.836   1.209   1.997
 2420SOL    HW2 8160   2.773   1.316   2.103
 2421SOL     OW 8161   2.758   1.763   5.178
 2421SOL    HW1 8162   2.731   1.857   5.158
 2421SOL    HW2 8163   2.842   1.764   5.233
 2422SOL     OW 8164   5.539   1.158   1.705
 2422SOL    HW1 8165   5.610   1.222   1.735
 2422SOL    HW2 8166   5.578   1.092   1.641
 2423SOL     OW 8167   0.632   6.436   3.017
 2423SOL    HW1 8168   0.564   6.410   3.086
 2423SOL    HW2 8169   0.597   6.512   2.962
 2424SOL     OW 8170   5.942   6.581   6.239
 2424SOL    HW1 8171   5.845   6.598   6.257
 2424SOL    HW2 8172   5.997   6.629   6.307
 2425SOL     OW 8173   5.750   0.133   4.159
 2425SOL    HW1 8174   5.773   0.035   4.163
 2425SOL    HW2 8175   5.731   0.159   4.064
 2426SOL     OW 8176   1.005   5.733   5.019
 2426SOL    HW1 8177   1.057   5.654   4.986
 2426SOL    HW2 8178   1.036   5.815   4.971
 2427SOL     OW 8179   6.153   5.408   5.085
 2427SOL    HW1 8180   6.202   5.494   5.100
 2427SOL    HW2 8181   6.219   5.333   5.079
 2428SOL     OW 8182   6.305   0.213   3.214
 2428SOL    HW1 8183   6.269   0.122   3.196
 2428SOL    HW2 8184   6.347   0.249   3.131
 2429SOL     OW 8185   5.169   5.430   3.445
 2429SOL    HW1 8186   5.114   5.350   3.469
 2429SOL    HW2 8187   5.205   5.420   3.352
 2430SOL     OW 8188   6.211   1.613   1.401
 2430SOL    HW1 8189   6.153   1.673   1.346
 2430SOL    HW2 8190   6.194   1.629   1.498
 2431SOL     OW 8191   4.494   1.006   2.363
 2431SOL    HW1 8192   4.458   0.915   2.344
 2431SOL    HW2 8193   4.500   1.019   2.462
 2432SOL     OW 8194   3.081   6.808   3.156
 2432SOL    HW1 8195   3.072   6.879   3.226
 2432SOL    HW2 8196   3.166   6.820   3.106
 2433SOL     OW 8197   3.389   0.926   1.438
 2433SOL    HW1 8198   3.314   0.957   1.497
 2433SOL    HW2 8199   3.352   0.869   1.365
 2434SOL     OW 8200   4.453   0.519   4.771
 2434SOL    HW1 8201   4.374   0.570   4.737
 2434SOL    HW2 8202   4.533   0.540   4.715
 2435SOL     OW 8203   4.576   4.669   6.687
 2435SOL    HW1 8204   4.502   4.620   6.640
 2435SOL    HW2 8205   4.538   4.722   6.762
 2436SOL     OW 8206   1.627   5.896   1.212
 2436SOL    HW1 8207   1.581   5.860   1.131
 2436SOL    HW2 8208   1.717   5.854   1.220
 2437SOL     OW 8209   5.142   6.681   6.627
 2437SOL    HW1 8210   5.165   6.585   6.614
 2437SOL    HW2 8211   5.198   6.738   6.566
 2438SOL     OW 8212   3.391   0.996   6.591
 2438SOL    HW1 8213   3.397   0.903   6.554
 2438SOL    HW2 8214   3.398   0.993   6.690
 2439SOL     OW 8215   1.026   4.393   6.201
 2439SOL    HW1 8216   0.997   4.347   6.117
 2439SOL    HW2 8217   0.976   4.479   6.210
 2440SOL     OW 8218   4.556   6.039   5.625
 2440SOL    HW1 8219   4.650   6.044   5.593
 2440SOL    HW2 8220   4.534   6.121   5.677
 2441SOL     OW 8221   0.972   1.048   0.407
 2441SOL    HW1 8222   0.911   1.060   0.329
 2441SOL    HW2 8223   1.025   0.964   0.395
 2442SOL     OW 8224   0.460   4.340   5.528
 2442SOL    HW1 8225   0.480   4.310   5.434
 2442SOL    HW2 8226   0.439   4.260   5.584
 2443SOL     OW 8227   4.043   5.232   5.845
 2443SOL    HW1 8228   4.006   5.174   5.772
 2443SOL    HW2 8229   4.142   5.218   5.851
 2444SOL     OW 8230   3.492   4.099   5.940
 2444SOL    HW1 8231   3.576   4.047   5.955
 2444SOL    HW2 8232   3.442   4.107   6.026
 2445SOL     OW 8233   0.282   0.603   1.730
 2445SOL    HW1 8234   0.264   0.692   1.774
 2445SOL    HW2 8235   0.201   0.575   1.679
 2446SOL     OW 8236   6.646   5.088   3.775
 2446SOL    HW1 8237   6.633   5.150   3.698
 2446SOL    HW2 8238   6.670   5.141   3.857
 2447SOL     OW 8239   1.974   2.689   0.823
 2447SOL    HW1 8240   1.894   2.725   0.869
 2447SOL    HW2 8241   2.045   2.759   0.819
 2448SOL     OW 8242   0.572   0.767   4.130
 2448SOL    HW1 8243   0.531   0.691   4.181
 2448SOL    HW2 8244   0.607   0.835   4.194
 2449SOL     OW 8245   6.935   4.693   0.706
 2449SOL    HW1 8246   6.936   4.757   0.782
 2449SOL    HW2 8247   6.872   4.726   0.635
 2450SOL     OW 8248   2.798   4.890   3.458
 2450SOL    HW1 8249   2.894   4.863   3.455
 2450SOL    HW2 8250   2.790   4.990   3.458
 2451SOL     OW 8251   0.923   0.517   3.020
 2451SOL    HW1 8252   0.963   0.453   2.953
 2451SOL    HW2 8253   0.879   0.465   3.093
 2452SOL     OW 8254   1.751   3.655   2.849
 2452SOL    HW1 8255   1.726   3.732   2.908
 2452SOL    HW2 8256   1.710   3.667   2.759
 2453SOL     OW 8257   6.450   4.353   1.268
 2453SOL    HW1 8258   6.383   4.318   1.333
 2453SOL    HW2 8259   6.501   4.277   1.229
 2454SOL     OW 8260   3.011   0.542   1.260
 2454SOL    HW1 8261   3.038   0.621   1.206
 2454SOL    HW2 8262   3.075   0.467   1.246
 2455SOL     OW 8263   5.732   5.932   0.272
 2455SOL    HW1 8264   5.638   5.899   0.264
 2455SOL    HW2 8265   5.754   5.948   0.368
 2456SOL     OW 8266   4.992   6.777   1.590
 2456SOL    HW1 8267   5.035   6.847   1.648
 2456SOL    HW2 8268   5.033   6.781   1.498
 2457SOL     OW 8269   6.304   6.243   0.533
 2457SOL    HW1 8270   6.288   6.251   0.435
 2457SOL    HW2 8271   6.220   6.265   0.582
 2458SOL     OW 8272   2.020   5.586   3.192
 2458SOL    HW1 8273   2.040   5.670   3.243
 2458SOL    HW2 8274   1.942   5.601   3.132
 2459SOL     OW 8275   2.413   6.761   0.647
 2459SOL    HW1 8276   2.336   6.727   0.594
 2459SOL    HW2 8277   2.460   6.684   0.691
 2460SOL     OW 8278   1.949   0.957   0.961
 2460SOL    HW1 8279   1.919   0.935   1.054
 2460SOL    HW2 8280   1.943   0.875   0.903
 2461SOL     OW 8281   5.510   0.866   2.920
 2461SOL    HW1 8282   5.592   0.870   2.862
 2461SOL    HW2 8283   5.428   0.871   2.862
 2462SOL     OW 8284   2.724   5.572   0.230
 2462SOL    HW1 8285   2.704   5.640   0.159
 2462SOL    HW2 8286   2.748   5.485   0.187
 2463SOL     OW 8287   5.593   2.888   4.234
 2463SOL    HW1 8288   5.545   2.801   4.244
 2463SOL    HW2 8289   5.689   2.870   4.213
 2464SOL     OW 8290   0.744   4.787   1.357
 2464SOL    HW1 8291   0.666   4.839   1.393
 2464SOL    HW2 8292   0.712   4.700   1.321
 2465SOL     OW 8293   0.289   5.381   1.248
 2465SOL    HW1 8294   0.275   5.337   1.336
 2465SOL    HW2 8295   0.369   5.441   1.253
 2466SOL     OW 8296   3.251   0.801   2.420
 2466SOL    HW1 8297   3.164   0.847   2.406
 2466SOL    HW2 8298   3.286   0.822   2.512
 2467SOL     OW 8299   5.768   1.064   5.819
 2467SOL    HW1 8300   5.672   1.036   5.822
 2467SOL    HW2 8301   5.826   0.983   5.808
 2468SOL     OW 8302   6.716   6.023   1.897
 2468SOL    HW1 8303   6.784   6.092   1.919
 2468SOL    HW2 8304   6.760   5.933   1.892
 2469SOL     OW 8305   3.366   4.223   5.704
 2469SOL    HW1 8306   3.348   4.165   5.625
 2469SOL    HW2 8307   3.417   4.172   5.772
 2470SOL     OW 8308   2.771   3.980   6.013
 2470SOL    HW1 8309   2.732   4.069   6.035
 2470SOL    HW2 8310   2.698   3.911   6.009
 2471SOL     OW 8311   1.213   6.786   1.026
 2471SOL    HW1 8312   1.172   6.728   1.097
 2471SOL    HW2 8313   1.299   6.825   1.061
 2472SOL     OW 8314   5.487   1.388   4.776
 2472SOL    HW1 8315   5.525   1.480   4.768
 2472SOL    HW2 8316   5.522   1.331   4.702
 2473SOL     OW 8317   2.060   4.809   4.930
 2473SOL    HW1 8318   2.097   4.828   4.839
 2473SOL    HW2 8319   2.123   4.840   5.000
 2474SOL     OW 8320   0.133   4.648   6.872
 2474SOL    HW1 8321   0.124   4.739   6.830
 2474SOL    HW2 8322   0.087   4.580   6.815
 2475SOL     OW 8323   4.001   2.566   1.081
 2475SOL    HW1 8324   4.036   2.652   1.045
 2475SOL    HW2 8325   3.901   2.569   1.083
 2476SOL     OW 8326   1.075   2.597   3.440
 2476SOL    HW1 8327   1.135   2.557   3.509
 2476SOL    HW2 8328   1.010   2.658   3.484
 2477SOL     OW 8329   6.473   6.339   1.885
 2477SOL    HW1 8330   6.444   6.287   1.966
 2477SOL    HW2 8331   6.401   6.335   1.816
 2478SOL     OW 8332   5.377   6.712   2.364
 2478SOL    HW1 8333   5.310   6.697   2.436
 2478SOL    HW2 8334   5.388   6.628   2.310
 2479SOL     OW 8335   0.099   3.852   1.142
 2479SOL    HW1 8336   0.118   3.886   1.234
 2479SOL    HW2 8337   0.186   3.836   1.094
 2480SOL     OW 8338   6.954   2.645   1.251
 2480SOL    HW1 8339   7.021   2.696   1.196
 2480SOL    HW2 8340   6.866   2.691   1.245
 2481SOL     OW 8341   3.548   5.901   0.269
 2481SOL    HW1 8342   3.570   5.985   0.318
 2481SOL    HW2 8343   3.626   5.838   0.273
 2482SOL     OW 8344   4.651   3.661   5.699
 2482SOL    HW1 8345   4.598   3.577   5.685
 2482SOL    HW2 8346   4.699   3.685   5.614
 2483SOL     OW 8347   2.018   1.101   0.460
 2483SOL    HW1 8348   1.997   1.004   0.476
 2483SOL    HW2 8349   1.967   1.157   0.526
 2484SOL     OW 8350   2.181   0.871   0.634
 2484SOL    HW1 8351   2.085   0.858   0.659
 2484SOL    HW2 8352   2.228   0.920   0.707
 2485SOL     OW 8353   5.767   5.010   2.158
 2485SOL    HW1 8354   5.669   5.026   2.169
 2485SOL    HW2 8355   5.791   4.920   2.195
 2486SOL     OW 8356   1.432   5.725   3.631
 2486SOL    HW1 8357   1.459   5.643   3.681
 2486SOL    HW2 8358   1.432   5.803   3.693
 2487SOL     OW 8359   4.381   6.446   6.994
 2487SOL    HW1 8360   4.319   6.519   6.965
 2487SOL    HW2 8361   4.328   6.371   0.007
 2488SOL     OW 8362   2.693   4.155   1.728
 2488SOL    HW1 8363   2.636   4.126   1.652
 2488SOL    HW2 8364   2.758   4.083   1.752
 2489SOL     OW 8365   2.554   5.734   4.743
 2489SOL    HW1 8366   2.571   5.737   4.842
 2489SOL    HW2 8367   2.459   5.707   4.726
 2490SOL     OW 8368   6.868   5.075   0.737
 2490SOL    HW1 8369   6.773   5.085   0.707
 2490SOL    HW2 8370   6.926   5.135   0.683
 2491SOL     OW 8371   2.791   5.843   2.959
 2491SOL    HW1 8372   2.830   5.929   2.992
 2491SOL    HW2 8373   2.756   5.790   3.036
 2492SOL     OW 8374   4.810   3.336   6.451
 2492SOL    HW1 8375   4.801   3.239   6.428
 2492SOL    HW2 8376   4.808   3.390   6.366
 2493SOL     OW 8377   5.629   0.597   2.740
 2493SOL    HW1 8378   5.705   0.653   2.772
 2493SOL    HW2 8379   5.608   0.527   2.808
 2494SOL     OW 8380   4.815   3.102   2.903
 2494SOL    HW1 8381   4.812   3.002   2.912
 2494SOL    HW2 8382   4.802   3.144   2.992
 2495SOL     OW 8383   4.859   1.195   5.008
 2495SOL    HW1 8384   4.929   1.132   5.040
 2495SOL    HW2 8385   4.902   1.281   4.980
 2496SOL     OW 8386   1.131   5.342   0.321
 2496SOL    HW1 8387   1.041   5.301   0.333
 2496SOL    HW2 8388   1.178   5.299   0.243
 2497SOL     OW 8389   6.907   1.569   0.582
 2497SOL    HW1 8390   6.816   1.590   0.617
 2497SOL    HW2 8391   6.908   1.581   0.482
 2498SOL     OW 8392   2.034   3.345   3.332
 2498SOL    HW1 8393   1.992   3.360   3.421
 2498SOL    HW2 8394   2.067   3.432   3.296
 2499SOL     OW 8395   5.622   0.887   4.866
 2499SOL    HW1 8396   5.646   0.795   4.834
 2499SOL    HW2 8397   5.566   0.880   4.948
 2500SOL     OW 8398   4.713   3.687   5.960
 2500SOL    HW1 8399   4.744   3.601   6.000
 2500SOL    HW2 8400   4.674   3.670   5.870
 2501SOL     OW 8401   5.760   3.898   6.757
 2501SOL    HW1 8402   5.766   3.810   6.709
 2501SOL    HW2 8403   5.731   3.969   6.693
 2502SOL     OW 8404   2.171   6.520   3.763
 2502SOL    HW1 8405   2.172   6.556   3.670
 2502SOL    HW2 8406   2.092   6.556   3.812
 2503SOL     OW 8407   4.129   5.687   5.559
 2503SOL    HW1 8408   4.080   5.774   5.549
 2503SOL    HW2 8409   4.072   5.622   5.609
 2504SOL     OW 8410   2.288   5.106   4.849
 2504SOL    HW1 8411   2.262   5.178   4.784
 2504SOL    HW2 8412   2.386   5.112   4.867
 2505SOL     OW 8413   3.669   5.714   4.728
 2505SOL    HW1 8414   3.604   5.681   4.796
 2505SOL    HW2 8415   3.702   5.637   4.673
 2506SOL     OW 8416   6.494   3.208   5.970
 2506SOL    HW1 8417   6.426   3.231   6.040
 2506SOL    HW2 8418   6.448   3.164   5.892
 2507SOL     OW 8419   6.594   5.495   0.174
 2507SOL    HW1 8420   6.568   5.399   0.181
 2507SOL    HW2 8421   6.606   5.534   0.266
 2508SOL     OW 8422   3.066   2.151   1.948
 2508SOL    HW1 8423   3.019   2.078   1.899
 2508SOL    HW2 8424   3.002   2.224   1.971
 2509SOL     OW 8425   5.856   2.034   2.543
 2509SOL    HW1 8426   5.829   1.939   2.559
 2509SOL    HW2 8427   5.828   2.061   2.451
 2510SOL     OW 8428   3.381   4.816   0.755
 2510SOL    HW1 8429   3.321   4.788   0.680
 2510SOL    HW2 8430   3.348   4.776   0.841
 2511SOL     OW 8431   1.433   1.071   4.810
 2511SOL    HW1 8432   1.344   1.026   4.807
 2511SOL    HW2 8433   1.429   1.158   4.760
 2512SOL     OW 8434   5.125   4.082   4.222
 2512SOL    HW1 8435   5.132   4.181   4.232
 2512SOL    HW2 8436   5.140   4.057   4.126
 2513SOL     OW 8437   1.000   2.310   6.741
 2513SOL    HW1 8438   0.951   2.252   6.806
 2513SOL    HW2 8439   1.073   2.360   6.787
 2514SOL     OW 8440   0.781   1.718   4.598
 2514SOL    HW1 8441   0.840   1.658   4.651
 2514SOL    HW2 8442   0.832   1.799   4.570
 2515SOL     OW 8443   1.543   6.797   0.439
 2515SOL    HW1 8444   1.455   6.755   0.463
 2515SOL    HW2 8445   1.603   6.729   0.397
 2516SOL     OW 8446   6.016   5.793   3.625
 2516SOL    HW1 8447   5.964   5.796   3.540
 2516SOL    HW2 8448   5.960   5.751   3.697
 2517SOL     OW 8449   2.433   4.321   5.998
 2517SOL    HW1 8450   2.400   4.373   5.920
 2517SOL    HW2 8451   2.450   4.227   5.971
 2518SOL     OW 8452   2.225   2.723   6.651
 2518SOL    HW1 8453   2.191   2.698   6.742
 2518SOL    HW2 8454   2.151   2.765   6.598
 2519SOL     OW 8455   4.900   5.422   4.677
 2519SOL    HW1 8456   4.885   5.401   4.773
 2519SOL    HW2 8457   4.910   5.338   4.624
 2520SOL     OW 8458   2.265   3.494   0.967
 2520SOL    HW1 8459   2.191   3.528   1.025
 2520SOL    HW2 8460   2.246   3.515   0.871
 2521SOL     OW 8461   0.770   0.439   5.534
 2521SOL    HW1 8462   0.789   0.353   5.582
 2521SOL    HW2 8463   0.705   0.421   5.460
 2522SOL     OW 8464   1.533   3.441   4.596
 2522SOL    HW1 8465   1.564   3.455   4.502
 2522SOL    HW2 8466   1.605   3.471   4.659
 2523SOL     OW 8467   6.636   3.416   0.660
 2523SOL    HW1 8468   6.644   3.502   0.609
 2523SOL    HW2 8469   6.660   3.340   0.600
 2524SOL     OW 8470   0.920   6.366   4.439
 2524SOL    HW1 8471   0.977   6.415   4.506
 2524SOL    HW2 8472   0.892   6.430   4.367
 2525SOL     OW 8473   0.927   4.132   4.243
 2525SOL    HW1 8474   0.868   4.165   4.316
 2525SOL    HW2 8475   1.005   4.083   4.283
 2526SOL     OW 8476   0.417   2.577   3.965
 2526SOL    HW1 8477   0.356   2.630   3.906
 2526SOL    HW2 8478   0.425   2.484   3.931
 2527SOL     OW 8479   5.842   6.523   5.131
 2527SOL    HW1 8480   5.773   6.573   5.184
 2527SOL    HW2 8481   5.871   6.442   5.182
 2528SOL     OW 8482   6.163   5.125   0.092
 2528SOL    HW1 8483   6.194   5.075   0.011
 2528SOL    HW2 8484   6.076   5.169   0.073
 2529SOL     OW 8485   4.819   5.582   5.461
 2529SOL    HW1 8486   4.787   5.645   5.390
 2529SOL    HW2 8487   4.873   5.509   5.420
 2530SOL     OW 8488   1.194   5.968   4.099
 2530SOL    HW1 8489   1.228   5.962   4.005
 2530SOL    HW2 8490   1.094   5.972   4.098
 2531SOL     OW 8491   5.132   0.208   4.858
 2531SOL    HW1 8492   5.040   0.223   4.895
 2531SOL    HW2 8493   5.125   0.163   4.769
 2532SOL     OW 8494   1.094   5.702   0.697
 2532SOL    HW1 8495   1.160   5.738   0.632
 2532SOL    HW2 8496   1.003   5.699   0.655
 2533SOL     OW 8497   5.146   7.009   4.612
 2533SOL    HW1 8498   5.098   6.930   4.648
 2533SOL    HW2 8499   5.243   6.987   4.601
 2534SOL     OW 8500   2.135   0.268   3.473
 2534SOL    HW1 8501   2.187   0.229   3.396
 2534SOL    HW2 8502   2.053   0.214   3.489
 2535SOL     OW 8503   1.660   1.914   4.240
 2535SOL    HW1 8504   1.596   1.895   4.315
 2535SOL    HW2 8505   1.632   1.865   4.158
 2536SOL     OW 8506   6.136   1.006   4.154
 2536SOL    HW1 8507   6.058   1.036   4.100
 2536SOL    HW2 8508   6.149   0.907   4.142
 2537SOL     OW 8509   4.779   6.550   0.846
 2537SOL    HW1 8510   4.858   6.494   0.872
 2537SOL    HW2 8511   4.810   6.636   0.806
 2538SOL     OW 8512   1.738   4.740   4.888
 2538SOL    HW1 8513   1.773   4.648   4.906
 2538SOL    HW2 8514   1.814   4.804   4.883
 2539SOL     OW 8515   4.561   7.012   5.443
 2539SOL    HW1 8516   4.589   0.068   5.394
 2539SOL    HW2 8517   4.609   6.933   5.405
 2540SOL     OW 8518   5.315   0.598   1.848
 2540SOL    HW1 8519   5.400   0.650   1.846
 2540SOL    HW2 8520   5.257   0.631   1.922
 2541SOL     OW 8521   1.593   0.355   5.051
 2541SOL    HW1 8522   1.547   0.340   4.963
 2541SOL    HW2 8523   1.692   0.360   5.037
 2542SOL     OW 8524   4.160   1.969   4.387
 2542SOL    HW1 8525   4.158   1.949   4.289
 2542SOL    HW2 8526   4.119   1.894   4.438
 2543SOL     OW 8527   1.111   0.556   3.320
 2543SOL    HW1 8528   1.187   0.531   3.259
 2543SOL    HW2 8529   1.074   0.644   3.292
 2544SOL     OW 8530   6.910   5.181   1.564
 2544SOL    HW1 8531   6.860   5.140   1.640
 2544SOL    HW2 8532   6.981   5.118   1.532
 2545SOL     OW 8533   2.005   2.227   0.699
 2545SOL    HW1 8534   1.984   2.300   0.764
 2545SOL    HW2 8535   2.082   2.255   0.641
 2546SOL     OW 8536   6.492   3.517   1.915
 2546SOL    HW1 8537   6.457   3.467   1.836
 2546SOL    HW2 8538   6.468   3.467   1.999
 2547SOL     OW 8539   5.902   5.334   0.765
 2547SOL    HW1 8540   5.903   5.434   0.759
 2547SOL    HW2 8541   5.856   5.297   0.684
 2548SOL     OW 8542   1.598   7.010   4.422
 2548SOL    HW1 8543   1.502   7.012   4.394
 2548SOL    HW2 8544   1.604   6.979   4.517
 2549SOL     OW 8545   1.854   2.748   1.903
 2549SOL    HW1 8546   1.876   2.796   1.988
 2549SOL    HW2 8547   1.881   2.804   1.825
 2550SOL     OW 8548   5.815   6.859   0.495
 2550SOL    HW1 8549   5.848   6.881   0.587
 2550SOL    HW2 8550   5.837   6.933   0.432
 2551SOL     OW 8551   3.578   4.772   6.816
 2551SOL    HW1 8552   3.568   4.793   6.914
 2551SOL    HW2 8553   3.668   4.802   6.785
 2552SOL     OW 8554   2.202   4.803   6.730
 2552SOL    HW1 8555   2.258   4.828   6.809
 2552SOL    HW2 8556   2.129   4.870   6.718
 2553SOL     OW 8557   3.574   1.746   5.926
 2553SOL    HW1 8558   3.634   1.825   5.921
 2553SOL    HW2 8559   3.493   1.761   5.870
 2554SOL     OW 8560   2.247   5.328   0.089
 2554SOL    HW1 8561   2.218   5.244   0.041
 2554SOL    HW2 8562   2.209   5.328   0.181
 2555SOL     OW 8563   6.554   5.816   6.212
 2555SOL    HW1 8564   6.497   5.813   6.294
 2555SOL    HW2 8565   6.511   5.877   6.145
 2556SOL     OW 8566   3.585   6.754   1.065
 2556SOL    HW1 8567   3.611   6.841   1.106
 2556SOL    HW2 8568   3.486   6.742   1.071
 2557SOL     OW 8569   3.094   0.349   0.009
 2557SOL    HW1 8570   3.083   0.371   0.106
 2557SOL    HW2 8571   3.011   0.305   7.002
 2558SOL     OW 8572   5.851   4.295   5.544
 2558SOL    HW1 8573   5.781   4.366   5.541
 2558SOL    HW2 8574   5.867   4.267   5.639
 2559SOL     OW 8575   6.857   3.450   3.310
 2559SOL    HW1 8576   6.935   3.387   3.311
 2559SOL    HW2 8577   6.790   3.419   3.241
 2560SOL     OW 8578   5.270   3.272   3.582
 2560SOL    HW1 8579   5.264   3.172   3.578
 2560SOL    HW2 8580   5.200   3.307   3.645
 2561SOL     OW 8581   3.524   1.236   3.913
 2561SOL    HW1 8582   3.562   1.193   3.995
 2561SOL    HW2 8583   3.522   1.335   3.926
 2562SOL     OW 8584   3.456   6.640   3.067
 2562SOL    HW1 8585   3.364   6.622   3.030
 2562SOL    HW2 8586   3.450   6.709   3.139
 2563SOL     OW 8587   3.230   1.395   6.820
 2563SOL    HW1 8588   3.145   1.412   6.871
 2563SOL    HW2 8589   3.303   1.371   6.883
 2564SOL     OW 8590   2.453   0.628   0.221
 2564SOL    HW1 8591   2.553   0.628   0.222
 2564SOL    HW2 8592   2.419   0.686   0.296
 2565SOL     OW 8593   6.971   1.500   6.863
 2565SOL    HW1 8594   6.914   1.453   6.795
 2565SOL    HW2 8595   6.914   1.529   6.940
 2566SOL     OW 8596   2.874   0.016   1.310
 2566SOL    HW1 8597   2.860   0.066   1.395
 2566SOL    HW2 8598   2.894   0.081   1.236
 2567SOL     OW 8599   1.397   1.381   0.453
 2567SOL    HW1 8600   1.367   1.285   0.448
 2567SOL    HW2 8601   1.470   1.389   0.521
 2568SOL     OW 8602   2.885   0.002   0.977
 2568SOL    HW1 8603   2.945   0.018   0.899
 2568SOL    HW2 8604   2.886   0.082   1.037
 2569SOL     OW 8605   2.464   1.042   0.632
 2569SOL    HW1 8606   2.519   0.961   0.651
 2569SOL    HW2 8607   2.521   1.124   0.640
 2570SOL     OW 8608   5.342   5.754   6.474
 2570SOL    HW1 8609   5.305   5.693   6.403
 2570SOL    HW2 8610   5.336   5.710   6.563
 2571SOL     OW 8611   3.646   2.899   4.672
 2571SOL    HW1 8612   3.566   2.900   4.613
 2571SOL    HW2 8613   3.646   2.816   4.728
 2572SOL     OW 8614   2.822   5.684   1.463
 2572SOL    HW1 8615   2.814   5.703   1.560
 2572SOL    HW2 8616   2.786   5.594   1.443
 2573SOL     OW 8617   6.285   2.612   3.485
 2573SOL    HW1 8618   6.266   2.568   3.572
 2573SOL    HW2 8619   6.321   2.704   3.501
 2574SOL     OW 8620   6.056   2.856   0.986
 2574SOL    HW1 8621   6.076   2.954   0.992
 2574SOL    HW2 8622   5.986   2.832   1.052
 2575SOL     OW 8623   5.097   4.199   0.323
 2575SOL    HW1 8624   5.144   4.247   0.249
 2575SOL    HW2 8625   5.077   4.105   0.294
 2576SOL     OW 8626   3.021   0.107   3.699
 2576SOL    HW1 8627   3.096   0.162   3.662
 2576SOL    HW2 8628   2.943   0.166   3.719
 2577SOL     OW 8629   3.538   0.237   3.997
 2577SOL    HW1 8630   3.448   0.233   4.041
 2577SOL    HW2 8631   3.550   0.158   3.938
 2578SOL     OW 8632   4.995   2.643   4.619
 2578SOL    HW1 8633   5.090   2.616   4.636
 2578SOL    HW2 8634   4.939   2.561   4.607
 2579SOL     OW 8635   0.661   1.597   6.047
 2579SOL    HW1 8636   0.662   1.507   6.004
 2579SOL    HW2 8637   0.709   1.663   5.989
 2580SOL     OW 8638   1.612   2.531   5.946
 2580SOL    HW1 8639   1.613   2.440   5.905
 2580SOL    HW2 8640   1.565   2.528   6.034
 2581SOL     OW 8641   5.296   5.647   1.886
 2581SOL    HW1 8642   5.386   5.605   1.897
 2581SOL    HW2 8643   5.306   5.744   1.864
 2582SOL     OW 8644   1.844   5.330   2.587
 2582SOL    HW1 8645   1.915   5.270   2.550
 2582SOL    HW2 8646   1.886   5.399   2.647
 2583SOL     OW 8647   1.013   1.139   1.455
 2583SOL    HW1 8648   1.013   1.172   1.361
 2583SOL    HW2 8649   1.017   1.039   1.455
 2584SOL     OW 8650   3.393   6.159   0.884
 2584SOL    HW1 8651   3.305   6.114   0.867
 2584SOL    HW2 8652   3.438   6.116   0.962
 2585SOL     OW 8653   3.353   0.191   1.050
 2585SOL    HW1 8654   3.286   0.165   0.980
 2585SOL    HW2 8655   3.320   0.161   1.140
 2586SOL     OW 8656   5.986   1.731   5.162
 2586SOL    HW1 8657   5.929   1.810   5.138
 2586SOL    HW2 8658   6.061   1.723   5.096
 2587SOL     OW 8659   6.955   0.480   4.397
 2587SOL    HW1 8660   0.024   0.499   4.419
 2587SOL    HW2 8661   6.921   0.406   4.454
 2588SOL     OW 8662   5.608   6.564   1.359
 2588SOL    HW1 8663   5.609   6.577   1.458
 2588SOL    HW2 8664   5.548   6.632   1.317
 2589SOL     OW 8665   6.588   0.250   5.634
 2589SOL    HW1 8666   6.673   0.225   5.588
 2589SOL    HW2 8667   6.510   0.215   5.582
 2590SOL     OW 8668   3.290   7.003   2.565
 2590SOL    HW1 8669   3.376   7.020   2.518
 2590SOL    HW2 8670   3.302   6.929   2.632
 2591SOL     OW 8671   5.317   6.078   0.882
 2591SOL    HW1 8672   5.334   6.033   0.794
 2591SOL    HW2 8673   5.343   6.016   0.956
 2592SOL     OW 8674   3.199   5.819   1.637
 2592SOL    HW1 8675   3.296   5.798   1.650
 2592SOL    HW2 8676   3.189   5.895   1.572
 2593SOL     OW 8677   3.131   0.089   2.878
 2593SOL    HW1 8678   3.200   0.147   2.835
 2593SOL    HW2 8679   3.106   0.127   2.967
 2594SOL     OW 8680   0.498   0.259   6.100
 2594SOL    HW1 8681   0.476   0.349   6.139
 2594SOL    HW2 8682   0.572   0.269   6.034
 2595SOL     OW 8683   6.796   2.779   5.217
 2595SOL    HW1 8684   6.817   2.724   5.137
 2595SOL    HW2 8685   6.782   2.874   5.190
 2596SOL     OW 8686   3.748   2.509   1.633
 2596SOL    HW1 8687   3.848   2.510   1.626
 2596SOL    HW2 8688   3.720   2.440   1.700
 2597SOL     OW 8689   2.532   3.374   0.669
 2597SOL    HW1 8690   2.470   3.302   0.701
 2597SOL    HW2 8691   2.503   3.405   0.579
 2598SOL     OW 8692   6.577   2.745   4.498
 2598SOL    HW1 8693   6.607   2.830   4.543
 2598SOL    HW2 8694   6.588   2.755   4.399
 2599SOL     OW 8695   3.438   5.679   6.121
 2599SOL    HW1 8696   3.513   5.705   6.181
 2599SOL    HW2 8697   3.352   5.680   6.172
 2600SOL     OW 8698   4.934   3.482   3.952
 2600SOL    HW1 8699   4.972   3.451   4.039
 2600SOL    HW2 8700   4.915   3.580   3.956
 2601SOL     OW 8701   3.217   2.318   6.441
 2601SOL    HW1 8702   3.228   2.362   6.352
 2601SOL    HW2 8703   3.121   2.290   6.452
 2602SOL     OW 8704   6.990   4.875   4.349
 2602SOL    HW1 8705   6.954   4.813   4.419
 2602SOL    HW2 8706   6.920   4.889   4.279
 2603SOL     OW 8707   2.505   2.495   1.751
 2603SOL    HW1 8708   2.452   2.476   1.669
 2603SOL    HW2 8709   2.598   2.459   1.740
 2604SOL     OW 8710   5.467   0.428   0.974
 2604SOL    HW1 8711   5.408   0.402   0.896
 2604SOL    HW2 8712   5.437   0.516   1.011
 2605SOL     OW 8713   5.028   4.907   2.936
 2605SOL    HW1 8714   4.984   4.829   2.981
 2605SOL    HW2 8715   5.026   4.894   2.837
 2606SOL     OW 8716   6.769   4.021   6.859
 2606SOL    HW1 8717   6.754   4.000   6.956
 2606SOL    HW2 8718   6.754   3.939   6.805
 2607SOL     OW 8719   1.585   1.692   4.600
 2607SOL    HW1 8720   1.660   1.757   4.612
 2607SOL    HW2 8721   1.522   1.726   4.530
 2608SOL     OW 8722   4.903   0.364   2.735
 2608SOL    HW1 8723   4.916   0.346   2.637
 2608SOL    HW2 8724   4.981   0.330   2.786
 2609SOL     OW 8725   0.838   2.171   1.866
 2609SOL    HW1 8726   0.909   2.211   1.924
 2609SOL    HW2 8727   0.849   2.072   1.865
 2610SOL     OW 8728   6.690   5.489   4.341
 2610SOL    HW1 8729   6.590   5.490   4.346
 2610SOL    HW2 8730   6.726   5.573   4.381
 2611SOL     OW 8731   6.480   6.344   1.153
 2611SOL    HW1 8732   6.440   6.411   1.216
 2611SOL    HW2 8733   6.573   6.321   1.183
 2612SOL     OW 8734   6.014   6.450   4.590
 2612SOL    HW1 8735   6.067   6.371   4.559
 2612SOL    HW2 8736   5.935   6.419   4.642
 2613SOL     OW 8737   3.077   6.364   2.061
 2613SOL    HW1 8738   3.112   6.412   1.981
 2613SOL    HW2 8739   3.076   6.266   2.044
 2614SOL     OW 8740   6.383   6.343   5.618
 2614SOL    HW1 8741   6.431   6.381   5.539
 2614SOL    HW2 8742   6.285   6.347   5.603
 2615SOL     OW 8743   5.600   5.591   3.394
 2615SOL    HW1 8744   5.587   5.569   3.490
 2615SOL    HW2 8745   5.516   5.632   3.357
 2616SOL     OW 8746   4.128   3.576   4.026
 2616SOL    HW1 8747   4.188   3.639   4.076
 2616SOL    HW2 8748   4.085   3.513   4.091
 2617SOL     OW 8749   3.141   5.012   0.834
 2617SOL    HW1 8750   3.161   4.973   0.744
 2617SOL    HW2 8751   3.042   5.029   0.842
 2618SOL     OW 8752   6.990   6.266   3.300
 2618SOL    HW1 8753   6.976   6.319   3.384
 2618SOL    HW2 8754   6.952   6.174   3.312
 2619SOL     OW 8755   4.473   1.638   2.272
 2619SOL    HW1 8756   4.552   1.690   2.304
 2619SOL    HW2 8757   4.395   1.699   2.258
 2620SOL     OW 8758   1.729   5.416   3.470
 2620SOL    HW1 8759   1.651   5.405   3.408
 2620SOL    HW2 8760   1.756   5.512   3.473
 2621SOL     OW 8761   1.000   5.529   3.511
 2621SOL    HW1 8762   1.088   5.491   3.541
 2621SOL    HW2 8763   0.926   5.472   3.547
 2622SOL     OW 8764   1.812   3.121   5.909
 2622SOL    HW1 8765   1.786   3.075   5.824
 2622SOL    HW2 8766   1.911   3.132   5.912
 2623SOL     OW 8767   3.969   0.952   4.911
 2623SOL    HW1 8768   3.873   0.968   4.885
 2623SOL    HW2 8769   3.978   0.862   4.952
 2624SOL     OW 8770   6.360   3.122   3.236
 2624SOL    HW1 8771   6.289   3.057   3.261
 2624SOL    HW2 8772   6.321   3.213   3.228
 2625SOL     OW 8773   1.604   2.922   4.601
 2625SOL    HW1 8774   1.691   2.900   4.645
 2625SOL    HW2 8775   1.575   3.013   4.629
 2626SOL     OW 8776   0.515   6.223   3.863
 2626SOL    HW1 8777   0.426   6.212   3.820
 2626SOL    HW2 8778   0.533   6.320   3.879
 2627SOL     OW 8779   0.292   0.823   5.124
 2627SOL    HW1 8780   0.386   0.824   5.158
 2627SOL    HW2 8781   0.271   0.911   5.082
 2628SOL     OW 8782   3.611   6.268   6.593
 2628SOL    HW1 8783   3.540   6.197   6.600
 2628SOL    HW2 8784   3.660   6.274   6.680
 2629SOL     OW 8785   3.870   3.737   1.925
 2629SOL    HW1 8786   3.936   3.803   1.890
 2629SOL    HW2 8787   3.918   3.666   1.976
 2630SOL     OW 8788   3.336   2.102   2.250
 2630SOL    HW1 8789   3.425   2.063   2.271
 2630SOL    HW2 8790   3.331   2.125   2.153
 2631SOL     OW 8791   4.064   6.879   4.072
 2631SOL    HW1 8792   4.129   6.890   3.997
 2631SOL    HW2 8793   4.093   6.802   4.129
 2632SOL     OW 8794   3.433   2.095   6.162
 2632SOL    HW1 8795   3.335   2.084   6.142
 2632SOL    HW2 8796   3.476   2.145   6.087
 2633SOL     OW 8797   6.055   2.550   6.362
 2633SOL    HW1 8798   6.031   2.454   6.377
 2633SOL    HW2 8799   5.973   2.603   6.345
 2634SOL     OW 8800   1.868   3.834   2.458
 2634SOL    HW1 8801   1.806   3.764   2.493
 2634SOL    HW2 8802   1.816   3.903   2.408
 2635SOL     OW 8803   5.221   5.845   4.100
 2635SOL    HW1 8804   5.164   5.764   4.090
 2635SOL    HW2 8805   5.232   5.890   4.011
 2636SOL     OW 8806   5.802   0.214   6.845
 2636SOL    HW1 8807   5.724   0.277   6.840
 2636SOL    HW2 8808   5.819   0.176   6.753
 2637SOL     OW 8809   6.526   0.924   3.427
 2637SOL    HW1 8810   6.434   0.958   3.448
 2637SOL    HW2 8811   6.593   0.996   3.445
 2638SOL     OW 8812   5.939   0.079   2.093
 2638SOL    HW1 8813   5.904   0.172   2.096
 2638SOL    HW2 8814   5.891   0.027   2.022
 2639SOL     OW 8815   6.375   0.043   2.603
 2639SOL    HW1 8816   6.465   0.031   2.646
 2639SOL    HW2 8817   6.386   0.046   2.504
 2640SOL     OW 8818   6.997   6.332   5.746
 2640SOL    HW1 8819   0.001   6.251   5.696
 2640SOL    HW2 8820   6.939   6.388   5.687
 2641SOL     OW 8821   5.720   3.127   1.006
 2641SOL    HW1 8822   5.765   3.053   1.057
 2641SOL    HW2 8823   5.644   3.089   0.953
 2642SOL     OW 8824   5.976   0.688   4.806
 2642SOL    HW1 8825   6.058   0.745   4.815
 2642SOL    HW2 8826   5.938   0.698   4.714
 2643SOL     OW 8827   0.029   5.409   3.309
 2643SOL    HW1 8828   0.071   5.325   3.343
 2643SOL    HW2 8829   6.956   5.405   3.325
 2644SOL     OW 8830   0.615   4.415   5.802
 2644SOL    HW1 8831   0.560   4.486   5.757
 2644SOL    HW2 8832   0.694   4.394   5.745
 2645SOL     OW 8833   4.394   6.528   5.046
 2645SOL    HW1 8834   4.446   6.598   4.997
 2645SOL    HW2 8835   4.370   6.454   4.982
 2646SOL     OW 8836   6.413   7.004   6.261
 2646SOL    HW1 8837   6.363   0.065   6.266
 2646SOL    HW2 8838   6.351   6.930   6.287
 2647SOL     OW 8839   5.160   0.724   1.098
 2647SOL    HW1 8840   5.128   0.775   1.178
 2647SOL    HW2 8841   5.259   0.711   1.104
 2648SOL     OW 8842   6.435   0.012   3.543
 2648SOL    HW1 8843   6.405   0.026   3.637
 2648SOL    HW2 8844   6.410   0.092   3.488
 2649SOL     OW 8845   4.092   1.182   5.682
 2649SOL    HW1 8846   4.047   1.130   5.610
 2649SOL    HW2 8847   4.189   1.156   5.686
 2650SOL     OW 8848   0.938   4.812   3.874
 2650SOL    HW1 8849   0.908   4.905   3.850
 2650SOL    HW2 8850   1.030   4.797   3.840
 2651SOL     OW 8851   1.028   1.696   0.820
 2651SOL    HW1 8852   1.076   1.624   0.769
 2651SOL    HW2 8853   1.068   1.785   0.797
 2652SOL     OW 8854   3.308   3.118   3.644
 2652SOL    HW1 8855   3.231   3.171   3.608
 2652SOL    HW2 8856   3.318   3.034   3.590
 2653SOL     OW 8857   4.969   6.688   5.388
 2653SOL    HW1 8858   5.010   6.605   5.350
 2653SOL    HW2 8859   4.915   6.665   5.469
 2654SOL     OW 8860   4.890   3.134   0.035
 2654SOL    HW1 8861   4.819   3.081   7.016
 2654SOL    HW2 8862   4.924   3.205   7.000
 2655SOL     OW 8863   4.492   4.607   4.210
 2655SOL    HW1 8864   4.504   4.706   4.205
 2655SOL    HW2 8865   4.470   4.581   4.304
 2656SOL     OW 8866   4.497   4.479   3.842
 2656SOL    HW1 8867   4.591   4.508   3.826
 2656SOL    HW2 8868   4.495   4.417   3.921
 2657SOL     OW 8869   2.702   4.255   6.110
 2657SOL    HW1 8870   2.675   4.325   6.043
 2657SOL    HW2 8871   2.755   4.297   6.183
 2658SOL     OW 8872   5.650   4.894   6.609
 2658SOL    HW1 8873   5.715   4.952   6.659
 2658SOL    HW2 8874   5.701   4.827   6.554
 2659SOL     OW 8875   6.808   2.138   4.318
 2659SOL    HW1 8876   6.839   2.232   4.308
 2659SOL    HW2 8877   6.722   2.126   4.268
 2660SOL     OW 8878   0.379   2.117   1.275
 2660SOL    HW1 8879   0.421   2.130   1.365
 2660SOL    HW2 8880   0.297   2.060   1.284
 2661SOL     OW 8881   2.140   6.632   1.812
 2661SOL    HW1 8882   2.151   6.562   1.882
 2661SOL    HW2 8883   2.050   6.622   1.769
 2662SOL     OW 8884   4.245   6.684   5.257
 2662SOL    HW1 8885   4.278   6.617   5.190
 2662SOL    HW2 8886   4.202   6.761   5.208
 2663SOL     OW 8887   2.183   4.238   1.655
 2663SOL    HW1 8888   2.083   4.245   1.660
 2663SOL    HW2 8889   2.218   4.310   1.596
 2664SOL     OW 8890   3.539   4.125   3.317
 2664SOL    HW1 8891   3.604   4.126   3.393
 2664SOL    HW2 8892   3.589   4.116   3.231
 2665SOL     OW 8893   3.720   2.054   5.128
 2665SOL    HW1 8894   3.648   2.030   5.193
 2665SOL    HW2 8895   3.679   2.091   5.045
 2666SOL     OW 8896   4.805   4.066   1.320
 2666SOL    HW1 8897   4.716   4.109   1.306
 2666SOL    HW2 8898   4.792   3.970   1.345
 2667SOL     OW 8899   1.707   6.217   4.775
 2667SOL    HW1 8900   1.664   6.138   4.731
 2667SOL    HW2 8901   1.702   6.206   4.875
 2668SOL     OW 8902   6.699   3.429   3.844
 2668SOL    HW1 8903   6.671   3.472   3.930
 2668SOL    HW2 8904   6.788   3.386   3.856
 2669SOL     OW 8905   3.330   4.933   5.616
 2669SOL    HW1 8906   3.415   4.981   5.594
 2669SOL    HW2 8907   3.289   4.973   5.698
 2670SOL     OW 8908   6.138   1.643   6.750
 2670SOL    HW1 8909   6.201   1.716   6.776
 2670SOL    HW2 8910   6.152   1.564   6.810
 2671SOL     OW 8911   2.647   4.074   0.272
 2671SOL    HW1 8912   2.678   4.099   0.181
 2671SOL    HW2 8913   2.547   4.086   0.278
 2672SOL     OW 8914   1.130   5.403   6.875
 2672SOL    HW1 8915   1.192   5.478   6.900
 2672SOL    HW2 8916   1.170   5.316   6.903
 2673SOL     OW 8917   5.573   2.588   3.652
 2673SOL    HW1 8918   5.528   2.676   3.669
 2673SOL    HW2 8919   5.585   2.576   3.553
 2674SOL     OW 8920   1.703   4.278   4.200
 2674SOL    HW1 8921   1.795   4.244   4.182
 2674SOL    HW2 8922   1.650   4.278   4.115
 2675SOL     OW 8923   1.192   4.369   5.369
 2675SOL    HW1 8924   1.184   4.354   5.270
 2675SOL    HW2 8925   1.288   4.373   5.395
 2676SOL     OW 8926   4.468   0.948   2.655
 2676SOL    HW1 8927   4.543   0.989   2.706
 2676SOL    HW2 8928   4.430   0.871   2.708
 2677SOL     OW 8929   3.484   4.989   1.488
 2677SOL    HW1 8930   3.534   4.906   1.514
 2677SOL    HW2 8931   3.444   5.030   1.570
 2678SOL     OW 8932   0.575   4.564   0.300
 2678SOL    HW1 8933   0.653   4.595   0.246
 2678SOL    HW2 8934   0.530   4.488   0.253
 2679SOL     OW 8935   3.947   5.482   1.378
 2679SOL    HW1 8936   3.973   5.394   1.416
 2679SOL    HW2 8937   3.981   5.555   1.437
 2680SOL     OW 8938   1.753   1.787   0.487
 2680SOL    HW1 8939   1.779   1.858   0.552
 2680SOL    HW2 8940   1.664   1.810   0.447
 2681SOL     OW 8941   1.693   2.937   4.314
 2681SOL    HW1 8942   1.651   2.916   4.402
 2681SOL    HW2 8943   1.634   2.998   4.262
 2682SOL     OW 8944   5.589   3.125   2.608
 2682SOL    HW1 8945   5.597   3.123   2.508
 2682SOL    HW2 8946   5.638   3.205   2.643
 2683SOL     OW 8947   1.324   4.085   1.344
 2683SOL    HW1 8948   1.345   4.129   1.257
 2683SOL    HW2 8949   1.250   4.019   1.331
 2684SOL     OW 8950   3.827   5.514   2.370
 2684SOL    HW1 8951   3.763   5.511   2.447
 2684SOL    HW2 8952   3.792   5.458   2.295
 2685SOL     OW 8953   6.093   0.019   4.746
 2685SOL    HW1 8954   6.157   6.996   4.686
 2685SOL    HW2 8955   6.139   0.040   4.833
 2686SOL     OW 8956   1.467   2.380   3.955
 2686SOL    HW1 8957   1.449   2.332   4.041
 2686SOL    HW2 8958   1.551   2.434   3.965
 2687SOL     OW 8959   4.262   4.656   2.663
 2687SOL    HW1 8960   4.312   4.664   2.749
 2687SOL    HW2 8961   4.173   4.701   2.671
 2688SOL     OW 8962   4.277   6.004   6.133
 2688SOL    HW1 8963   4.331   6.085   6.107
 2688SOL    HW2 8964   4.322   5.957   6.208
 2689SOL     OW 8965   2.110   1.909   3.699
 2689SOL    HW1 8966   2.140   1.915   3.604
 2689SOL    HW2 8967   2.064   1.822   3.715
 2690SOL     OW 8968   3.707   2.953   3.815
 2690SOL    HW1 8969   3.624   2.918   3.857
 2690SOL    HW2 8970   3.770   2.986   3.885
 2691SOL     OW 8971   1.510   5.231   2.043
 2691SOL    HW1 8972   1.439   5.289   2.004
 2691SOL    HW2 8973   1.468   5.164   2.105
 2692SOL     OW 8974   5.782   6.027   4.164
 2692SOL    HW1 8975   5.856   5.964   4.186
 2692SOL    HW2 8976   5.818   6.121   4.160
 2693SOL     OW 8977   2.215   4.458   2.927
 2693SOL    HW1 8978   2.206   4.522   2.850
 2693SOL    HW2 8979   2.310   4.454   2.956
 2694SOL     OW 8980   3.095   1.074   2.955
 2694SOL    HW1 8981   3.071   1.141   2.885
 2694SOL    HW2 8982   3.188   1.040   2.938
 2695SOL     OW 8983   5.346   1.714   2.622
 2695SOL    HW1 8984   5.311   1.783   2.559
 2695SOL    HW2 8985   5.353   1.753   2.714
 2696SOL     OW 8986   3.162   2.676   5.509
 2696SOL    HW1 8987   3.257   2.649   5.492
 2696SOL    HW2 8988   3.101   2.628   5.445
 2697SOL     OW 8989   4.061   2.225   4.197
 2697SOL    HW1 8990   4.129   2.288   4.158
 2697SOL    HW2 8991   4.075   2.217   4.295
 2698SOL     OW 8992   1.694   4.835   0.178
 2698SOL    HW1 8993   1.729   4.901   0.244
 2698SOL    HW2 8994   1.752   4.753   0.179
 2699SOL     OW 8995   3.939   5.488   6.453
 2699SOL    HW1 8996   3.973   5.401   6.418
 2699SOL    HW2 8997   3.983   5.563   6.404
 2700SOL     OW 8998   1.799   3.569   2.147
 2700SOL    HW1 8999   1.777   3.548   2.052
 2700SOL    HW2 9000   1.898   3.572   2.158
 2701SOL     OW 9001   3.795   6.847   6.912
 2701SOL    HW1 9002   3.806   6.748   6.900
 2701SOL    HW2 9003   3.735   6.882   6.841
 2702SOL     OW 9004   6.943   1.556   2.742
 2702SOL    HW1 9005   7.002   1.632   2.770
 2702SOL    HW2 9006   6.850   1.572   2.776
 2703SOL     OW 9007   2.473   0.799   3.362
 2703SOL    HW1 9008   2.499   0.729   3.428
 2703SOL    HW2 9009   2.398   0.765   3.305
 2704SOL     OW 9010   1.487   5.529   1.493
 2704SOL    HW1 9011   1.536   5.447   1.522
 2704SOL    HW2 9012   1.409   5.545   1.553
 2705SOL     OW 9013   0.623   5.364   4.391
 2705SOL    HW1 9014   0.541   5.306   4.394
 2705SOL    HW2 9015   0.698   5.318   4.438
 2706SOL     OW 9016   0.204   0.861   1.935
 2706SOL    HW1 9017   0.219   0.899   1.844
 2706SOL    HW2 9018   0.213   0.933   2.003
 2707SOL     OW 9019   2.298   0.675   5.638
 2707SOL    HW1 9020   2.352   0.723   5.707
 2707SOL    HW2 9021   2.244   0.603   5.682
 2708SOL     OW 9022   2.120   2.858   1.435
 2708SOL    HW1 9023   2.175   2.926   1.485
 2708SOL    HW2 9024   2.061   2.903   1.369
 2709SOL     OW 9025   5.001   6.788   0.882
 2709SOL    HW1 9026   4.989   6.887   0.875
 2709SOL    HW2 9027   4.985   6.759   0.977
 2710SOL     OW 9028   6.328   4.176   2.468
 2710SOL    HW1 9029   6.419   4.165   2.427
 2710SOL    HW2 9030   6.260   4.131   2.410
 2711SOL     OW 9031   2.040   0.256   2.559
 2711SOL    HW1 9032   1.944   0.267   2.533
 2711SOL    HW2 9033   2.091   0.338   2.533
 2712SOL     OW 9034   4.119   5.213   6.585
 2712SOL    HW1 9035   4.075   5.152   6.651
 2712SOL    HW2 9036   4.083   5.195   6.493
 2713SOL     OW 9037   1.342   2.503   4.503
 2713SOL    HW1 9038   1.295   2.416   4.489
 2713SOL    HW2 9039   1.370   2.510   4.599
 2714SOL     OW 9040   4.883   1.758   7.026
 2714SOL    HW1 9041   4.948   1.705   0.053
 2714SOL    HW2 9042   4.905   1.751   6.929
 2715SOL     OW 9043   6.372   0.628   0.259
 2715SOL    HW1 9044   6.326   0.558   0.204
 2715SOL    HW2 9045   6.362   0.717   0.215
 2716SOL     OW 9046   6.230   5.329   2.060
 2716SOL    HW1 9047   6.215   5.334   1.961
 2716SOL    HW2 9048   6.193   5.243   2.095
 2717SOL     OW 9049   1.065   5.464   2.016
 2717SOL    HW1 9050   0.971   5.447   1.989
 2717SOL    HW2 9051   1.087   5.561   2.001
 2718SOL     OW 9052   1.821   3.935   3.879
 2718SOL    HW1 9053   1.910   3.904   3.847
 2718SOL    HW2 9054   1.752   3.867   3.857
 2719SOL     OW 9055   4.747   4.978   1.721
 2719SOL    HW1 9056   4.678   5.004   1.652
 2719SOL    HW2 9057   4.826   4.937   1.676
 2720SOL     OW 9058   2.008   5.905   3.815
 2720SOL    HW1 9059   2.060   5.936   3.894
 2720SOL    HW2 9060   2.049   5.941   3.731
 2721SOL     OW 9061   2.690   0.563   5.362
 2721SOL    HW1 9062   2.677   0.660   5.383
 2721SOL    HW2 9063   2.777   0.551   5.315
 2722SOL     OW 9064   6.576   5.434   2.623
 2722SOL    HW1 9065   6.525   5.355   2.588
 2722SOL    HW2 9066   6.672   5.426   2.596
 2723SOL     OW 9067   1.730   1.241   6.120
 2723SOL    HW1 9068   1.644   1.206   6.158
 2723SOL    HW2 9069   1.720   1.338   6.099
 2724SOL     OW 9070   2.881   6.132   5.354
 2724SOL    HW1 9071   2.947   6.122   5.429
 2724SOL    HW2 9072   2.844   6.042   5.330
 2725SOL     OW 9073   6.526   5.210   3.294
 2725SOL    HW1 9074   6.504   5.151   3.216
 2725SOL    HW2 9075   6.610   5.260   3.275
 2726SOL     OW 9076   5.551   4.687   1.915
 2726SOL    HW1 9077   5.540   4.778   1.875
 2726SOL    HW2 9078   5.489   4.676   1.993
 2727SOL     OW 9079   0.753   4.668   2.969
 2727SOL    HW1 9080   0.766   4.596   2.900
 2727SOL    HW2 9081   0.730   4.754   2.924
 2728SOL     OW 9082   2.909   0.613   4.897
 2728SOL    HW1 9083   2.895   0.687   4.963
 2728SOL    HW2 9084   2.834   0.548   4.903
 2729SOL     OW 9085   6.670   5.832   2.133
 2729SOL    HW1 9086   6.670   5.903   2.063
 2729SOL    HW2 9087   6.627   5.750   2.096
 2730SOL     OW 9088   1.769   6.983   0.723
 2730SOL    HW1 9089   1.851   6.975   0.666
 2730SOL    HW2 9090   1.743   6.892   0.757
 2731SOL     OW 9091   3.072   3.682   1.479
 2731SOL    HW1 9092   3.170   3.671   1.493
 2731SOL    HW2 9093   3.026   3.596   1.499
 2732SOL     OW 9094   6.100   3.089   2.423
 2732SOL    HW1 9095   6.091   2.991   2.439
 2732SOL    HW2 9096   6.057   3.112   2.335
 2733SOL     OW 9097   0.630   6.760   5.665
 2733SOL    HW1 9098   0.665   6.710   5.744
 2733SOL    HW2 9099   0.703   6.776   5.599
 2734SOL     OW 9100   1.841   5.558   2.957
 2734SOL    HW1 9101   1.753   5.603   2.946
 2734SOL    HW2 9102   1.884   5.546   2.867
 2735SOL     OW 9103   0.181   3.196   2.244
 2735SOL    HW1 9104   0.256   3.141   2.208
 2735SOL    HW2 9105   0.168   3.277   2.187
 2736SOL     OW 9106   4.929   0.812   4.921
 2736SOL    HW1 9107   4.930   0.802   5.020
 2736SOL    HW2 9108   5.018   0.847   4.890
 2737SOL     OW 9109   3.477   3.287   6.249
 2737SOL    HW1 9110   3.519   3.355   6.188
 2737SOL    HW2 9111   3.386   3.264   6.216
 2738SOL     OW 9112   5.041   5.974   4.700
 2738SOL    HW1 9113   5.003   6.020   4.620
 2738SOL    HW2 9114   5.114   6.030   4.739
 2739SOL     OW 9115   5.727   3.903   0.557
 2739SOL    HW1 9116   5.667   3.825   0.572
 2739SOL    HW2 9117   5.817   3.871   0.524
 2740SOL     OW 9118   4.967   2.137   2.323
 2740SOL    HW1 9119   4.997   2.069   2.390
 2740SOL    HW2 9120   4.882   2.179   2.353
 2741SOL     OW 9121   0.147   2.164   6.164
 2741SOL    HW1 9122   0.200   2.243   6.134
 2741SOL    HW2 9123   0.105   2.184   6.253
 2742SOL     OW 9124   1.534   6.094   6.295
 2742SOL    HW1 9125   1.497   6.075   6.386
 2742SOL    HW2 9126   1.584   6.014   6.262
 2743SOL     OW 9127   6.256   5.383   1.760
 2743SOL    HW1 9128   6.229   5.472   1.725
 2743SOL    HW2 9129   6.216   5.311   1.704
 2744SOL     OW 9130   3.817   1.996   0.130
 2744SOL    HW1 9131   3.883   2.050   0.182
 2744SOL    HW2 9132   3.805   1.906   0.173
 2745SOL     OW 9133   2.114   6.159   0.061
 2745SOL    HW1 9134   2.214   6.161   0.057
 2745SOL    HW2 9135   2.076   6.166   6.995
 2746SOL     OW 9136   2.192   3.020   4.572
 2746SOL    HW1 9137   2.224   2.996   4.480
 2746SOL    HW2 9138   2.252   2.977   4.640
 2747SOL     OW 9139   5.281   4.473   5.225
 2747SOL    HW1 9140   5.373   4.495   5.194
 2747SOL    HW2 9141   5.272   4.495   5.322
 2748SOL     OW 9142   3.322   1.166   2.380
 2748SOL    HW1 9143   3.287   1.115   2.301
 2748SOL    HW2 9144   3.415   1.197   2.361
 2749SOL     OW 9145   4.859   4.971   4.386
 2749SOL    HW1 9146   4.878   4.876   4.360
 2749SOL    HW2 9147   4.794   5.010   4.321
 2750SOL     OW 9148   0.985   5.321   1.604
 2750SOL    HW1 9149   0.960   5.267   1.684
 2750SOL    HW2 9150   0.905   5.334   1.546
 2751SOL     OW 9151   1.753   0.027   6.915
 2751SOL    HW1 9152   1.786   0.103   6.859
 2751SOL    HW2 9153   1.687   7.000   6.863
 2752SOL     OW 9154   5.065   5.790   5.453
 2752SOL    HW1 9155   4.974   5.776   5.492
 2752SOL    HW2 9156   5.088   5.712   5.394
 2753SOL     OW 9157   2.811   5.772   6.060
 2753SOL    HW1 9158   2.763   5.688   6.032
 2753SOL    HW2 9159   2.858   5.756   6.147
 2754SOL     OW 9160   6.693   0.320   4.560
 2754SOL    HW1 9161   6.598   0.291   4.568
 2754SOL    HW2 9162   6.742   0.259   4.498
 2755SOL     OW 9163   2.770   6.950   3.265
 2755SOL    HW1 9164   2.865   6.977   3.279
 2755SOL    HW2 9165   2.759   6.909   3.175
 2756SOL     OW 9166   6.382   4.482   4.039
 2756SOL    HW1 9167   6.410   4.497   4.134
 2756SOL    HW2 9168   6.446   4.418   3.996
 2757SOL     OW 9169   2.993   1.539   6.591
 2757SOL    HW1 9170   3.088   1.540   6.622
 2757SOL    HW2 9171   2.954   1.448   6.603
 2758SOL     OW 9172   5.197   5.967   3.235
 2758SOL    HW1 9173   5.167   6.045   3.290
 2758SOL    HW2 9174   5.269   5.917   3.283
 2759SOL     OW 9175   3.319   4.431   5.400
 2759SOL    HW1 9176   3.310   4.371   5.479
 2759SOL    HW2 9177   3.239   4.490   5.393
 2760SOL     OW 9178   6.320   5.557   2.599
 2760SOL    HW1 9179   6.293   5.611   2.679
 2760SOL    HW2 9180   6.407   5.511   2.618
 2761SOL     OW 9181   1.337   4.172   3.062
 2761SOL    HW1 9182   1.395   4.146   3.139
 2761SOL    HW2 9183   1.394   4.206   2.987
 2762SOL     OW 9184   1.385   2.120   6.808
 2762SOL    HW1 9185   1.427   2.208   6.786
 2762SOL    HW2 9186   1.312   2.135   6.875
 2763SOL     OW 9187   5.018   1.856   6.053
 2763SOL    HW1 9188   5.063   1.790   5.992
 2763SOL    HW2 9189   5.079   1.880   6.128
 2764SOL     OW 9190   0.402   4.653   2.720
 2764SOL    HW1 9191   0.306   4.641   2.747
 2764SOL    HW2 9192   0.423   4.751   2.719
 2765SOL     OW 9193   0.076   0.088   0.970
 2765SOL    HW1 9194   0.163   0.136   0.985
 2765SOL    HW2 9195   0.008   0.123   1.034
 2766SOL     OW 9196   4.095   0.833   6.842
 2766SOL    HW1 9197   4.140   0.838   6.753
 2766SOL    HW2 9198   4.070   0.925   6.872
 2767SOL     OW 9199   6.193   5.872   6.265
 2767SOL    HW1 9200   6.208   5.773   6.261
 2767SOL    HW2 9201   6.242   5.910   6.343
 2768SOL     OW 9202   3.734   0.714   0.842
 2768SOL    HW1 9203   3.792   0.672   0.772
 2768SOL    HW2 9204   3.678   0.644   0.885
 2769SOL     OW 9205   1.373   4.207   6.025
 2769SOL    HW1 9206   1.439   4.145   5.982
 2769SOL    HW2 9207   1.339   4.272   5.958
 2770SOL     OW 9208   3.790   6.273   5.831
 2770SOL    HW1 9209   3.886   6.252   5.847
 2770SOL    HW2 9210   3.764   6.245   5.739
 2771SOL     OW 9211   5.851   6.626   4.167
 2771SOL    HW1 9212   5.902   6.622   4.254
 2771SOL    HW2 9213   5.834   6.722   4.143
 2772SOL     OW 9214   3.478   0.646   2.381
 2772SOL    HW1 9215   3.533   0.683   2.307
 2772SOL    HW2 9216   3.398   0.704   2.395
 2773SOL     OW 9217   0.522   2.664   3.515
 2773SOL    HW1 9218   0.560   2.692   3.603
 2773SOL    HW2 9219   0.443   2.604   3.530
 2774SOL     OW 9220   5.188   2.575   2.933
 2774SOL    HW1 9221   5.145   2.487   2.955
 2774SOL    HW2 9222   5.258   2.596   3.001
 2775SOL     OW 9223   6.669   3.882   3.535
 2775SOL    HW1 9224   6.575   3.915   3.526
 2775SOL    HW2 9225   6.670   3.798   3.589
 2776SOL     OW 9226   5.396   5.755   6.929
 2776SOL    HW1 9227   5.318   5.813   6.905
 2776SOL    HW2 9228   5.373   5.660   6.912
 2777SOL     OW 9229   2.506   1.950   5.812
 2777SOL    HW1 9230   2.584   2.001   5.850
 2777SOL    HW2 9231   2.533   1.909   5.725
 2778SOL     OW 9232   2.285   5.942   6.378
 2778SOL    HW1 9233   2.317   5.982   6.292
 2778SOL    HW2 9234   2.329   5.853   6.391
 2779SOL     OW 9235   5.785   6.458   1.828
 2779SOL    HW1 9236   5.821   6.542   1.870
 2779SOL    HW2 9237   5.861   6.394   1.812
 2780SOL     OW 9238   0.478   0.470   6.441
 2780SOL    HW1 9239   0.464   0.387   6.494
 2780SOL    HW2 9240   0.528   0.537   6.496
 2781SOL     OW 9241   6.273   0.888   2.291
 2781SOL    HW1 9242   6.266   0.986   2.271
 2781SOL    HW2 9243   6.249   0.871   2.386
 2782SOL     OW 9244   4.384   0.816   5.798
 2782SOL    HW1 9245   4.414   0.793   5.891
 2782SOL    HW2 9246   4.399   0.913   5.781
 2783SOL     OW 9247   6.317   3.420   0.647
 2783SOL    HW1 9248   6.415   3.427   0.632
 2783SOL    HW2 9249   6.294   3.327   0.676
 2784SOL     OW 9250   2.743   1.712   2.264
 2784SOL    HW1 9251   2.798   1.676   2.188
 2784SOL    HW2 9252   2.795   1.784   2.310
 2785SOL     OW 9253   5.095   2.554   1.756
 2785SOL    HW1 9254   5.033   2.571   1.679
 2785SOL    HW2 9255   5.100   2.635   1.814
 2786SOL     OW 9256   6.748   5.821   1.268
 2786SOL    HW1 9257   6.793   5.790   1.351
 2786SOL    HW2 9258   6.702   5.744   1.224
 2787SOL     OW 9259   6.368   5.944   5.650
 2787SOL    HW1 9260   6.401   5.927   5.557
 2787SOL    HW2 9261   6.424   6.015   5.693
 2788SOL     OW 9262   3.535   6.521   6.027
 2788SOL    HW1 9263   3.526   6.422   6.030
 2788SOL    HW2 9264   3.471   6.563   6.091
 2789SOL     OW 9265   0.772   2.487   3.957
 2789SOL    HW1 9266   0.836   2.564   3.953
 2789SOL    HW2 9267   0.703   2.497   3.885
 2790SOL     OW 9268   2.953   5.143   0.273
 2790SOL    HW1 9269   3.051   5.131   0.256
 2790SOL    HW2 9270   2.906   5.056   0.260
 2791SOL     OW 9271   0.164   4.348   2.213
 2791SOL    HW1 9272   0.090   4.392   2.164
 2791SOL    HW2 9273   0.140   4.253   2.233
 2792SOL     OW 9274   3.177   0.502   4.927
 2792SOL    HW1 9275   3.090   0.550   4.939
 2792SOL    HW2 9276   3.234   0.552   4.862
 2793SOL     OW 9277   4.589   4.223   1.267
 2793SOL    HW1 9278   4.530   4.178   1.333
 2793SOL    HW2 9279   4.656   4.279   1.315
 2794SOL     OW 9280   0.057   0.918   6.716
 2794SOL    HW1 9281   0.084   0.896   6.623
 2794SOL    HW2 9282   0.138   0.936   6.771
 2795SOL     OW 9283   0.776   4.818   0.846
 2795SOL    HW1 9284   0.699   4.755   0.844
 2795SOL    HW2 9285   0.789   4.853   0.938
 2796SOL     OW 9286   0.799   5.788   5.556
 2796SOL    HW1 9287   0.850   5.705   5.576
 2796SOL    HW2 9288   0.857   5.851   5.503
 2797SOL     OW 9289   5.729   5.576   5.343
 2797SOL    HW1 9290   5.756   5.480   5.353
 2797SOL    HW2 9291   5.804   5.635   5.373
 2798SOL     OW 9292   6.388   6.240   2.122
 2798SOL    HW1 9293   6.400   6.163   2.184
 2798SOL    HW2 9294   6.291   6.266   2.120
 2799SOL     OW 9295   5.001   5.484   5.697
 2799SOL    HW1 9296   5.055   5.566   5.714
 2799SOL    HW2 9297   4.921   5.506   5.641
 2800SOL     OW 9298   5.875   1.197   0.306
 2800SOL    HW1 9299   5.848   1.133   0.234
 2800SOL    HW2 9300   5.797   1.215   0.365
 2801SOL     OW 9301   0.846   5.508   5.897
 2801SOL    HW1 9302   0.884   5.428   5.850
 2801SOL    HW2 9303   0.779   5.552   5.838
 2802SOL     OW 9304   6.491   6.394   5.365
 2802SOL    HW1 9305   6.573   6.337   5.356
 2802SOL    HW2 9306   6.464   6.429   5.275
 2803SOL     OW 9307   3.537   3.629   5.886
 2803SOL    HW1 9308   3.456   3.571   5.890
 2803SOL    HW2 9309   3.510   3.722   5.862
 2804SOL     OW 9310   0.620   2.553   4.169
 2804SOL    HW1 9311   0.675   2.525   4.090
 2804SOL    HW2 9312   0.543   2.608   4.138
 2805SOL     OW 9313   5.035   3.683   2.177
 2805SOL    HW1 9314   4.968   3.710   2.107
 2805SOL    HW2 9315   5.015   3.590   2.207
 2806SOL     OW 9316   2.558   4.064   6.210
 2806SOL    HW1 9317   2.486   4.057   6.141
 2806SOL    HW2 9318   2.618   4.141   6.188
 2807SOL     OW 9319   2.873   0.777   3.076
 2807SOL    HW1 9320   2.942   0.827   3.024
 2807SOL    HW2 9321   2.836   0.703   3.019
 2808SOL     OW 9322   5.912   5.583   0.664
 2808SOL    HW1 9323   5.921   5.666   0.719
 2808SOL    HW2 9324   5.833   5.591   0.604
 2809SOL     OW 9325   5.682   3.873   2.237
 2809SOL    HW1 9326   5.693   3.777   2.261
 2809SOL    HW2 9327   5.620   3.881   2.159
 2810SOL     OW 9328   2.464   6.266   3.397
 2810SOL    HW1 9329   2.437   6.362   3.405
 2810SOL    HW2 9330   2.435   6.230   3.308
 2811SOL     OW 9331   0.912   0.451   2.663
 2811SOL    HW1 9332   0.955   0.539   2.643
 2811SOL    HW2 9333   0.831   0.440   2.606
 2812SOL     OW 9334   0.604   2.883   0.292
 2812SOL    HW1 9335   0.544   2.950   0.336
 2812SOL    HW2 9336   0.670   2.848   0.359
 2813SOL     OW 9337   1.017   1.755   1.088
 2813SOL    HW1 9338   0.936   1.798   1.127
 2813SOL    HW2 9339   1.001   1.735   0.992
 2814SOL     OW 9340   2.851   3.879   6.894
 2814SOL    HW1 9341   2.872   3.924   6.808
 2814SOL    HW2 9342   2.898   3.926   6.969
 2815SOL     OW 9343   0.045   5.928   5.447
 2815SOL    HW1 9344   7.016   5.862   5.496
 2815SOL    HW2 9345   0.132   5.887   5.420
 2816SOL     OW 9346   6.827   6.021   5.038
 2816SOL    HW1 9347   6.800   5.934   5.078
 2816SOL    HW2 9348   6.919   6.045   5.070
 2817SOL     OW 9349   3.800   0.491   2.129
 2817SOL    HW1 9350   3.764   0.411   2.178
 2817SOL    HW2 9351   3.749   0.572   2.156
 2818SOL     OW 9352   0.999   0.857   0.917
 2818SOL    HW1 9353   0.903   0.871   0.892
 2818SOL    HW2 9354   1.006   0.830   1.013
 2819SOL     OW 9355   0.866   0.530   0.890
 2819SOL    HW1 9356   0.776   0.535   0.934
 2819SOL    HW2 9357   0.877   0.608   0.828
 2820SOL     OW 9358   0.863   2.367   2.224
 2820SOL    HW1 9359   0.913   2.348   2.139
 2820SOL    HW2 9360   0.912   2.326   2.301
 2821SOL     OW 9361   4.082   5.162   6.106
 2821SOL    HW1 9362   4.043   5.215   6.030
 2821SOL    HW2 9363   4.089   5.066   6.080
 2822SOL     OW 9364   3.855   3.233   1.014
 2822SOL    HW1 9365   3.911   3.283   1.080
 2822SOL    HW2 9366   3.773   3.197   1.059
 2823SOL     OW 9367   4.850   0.674   0.680
 2823SOL    HW1 9368   4.768   0.705   0.632
 2823SOL    HW2 9369   4.915   0.635   0.614
 2824SOL     OW 9370   1.662   3.741   5.687
 2824SOL    HW1 9371   1.651   3.743   5.588
 2824SOL    HW2 9372   1.628   3.654   5.723
 2825SOL     OW 9373   5.458   0.762   6.837
 2825SOL    HW1 9374   5.371   0.764   6.886
 2825SOL    HW2 9375   5.487   0.856   6.818
 2826SOL     OW 9376   1.641   3.242   6.080
 2826SOL    HW1 9377   1.686   3.179   6.016
 2826SOL    HW2 9378   1.710   3.288   6.135
 2827SOL     OW 9379   0.407   0.739   6.720
 2827SOL    HW1 9380   0.334   0.671   6.715
 2827SOL    HW2 9381   0.495   0.692   6.732
 2828SOL     OW 9382   1.588   3.232   1.365
 2828SOL    HW1 9383   1.517   3.295   1.335
 2828SOL    HW2 9384   1.634   3.270   1.445
 2829SOL     OW 9385   3.015   3.782   3.332
 2829SOL    HW1 9386   2.993   3.706   3.272
 2829SOL    HW2 9387   3.100   3.762   3.382
 2830SOL     OW 9388   3.576   4.657   5.318
 2830SOL    HW1 9389   3.596   4.643   5.415
 2830SOL    HW2 9390   3.521   4.581   5.284
 2831SOL     OW 9391   6.933   2.209   1.957
 2831SOL    HW1 9392   6.957   2.175   2.047
 2831SOL    HW2 9393   6.866   2.284   1.966
 2832SOL     OW 9394   0.794   3.447   1.487
 2832SOL    HW1 9395   0.882   3.490   1.507
 2832SOL    HW2 9396   0.807   3.348   1.480
 2833SOL     OW 9397   2.228   0.737   1.886
 2833SOL    HW1 9398   2.317   0.723   1.931
 2833SOL    HW2 9399   2.243   0.775   1.795
 2834SOL     OW 9400   4.375   6.131   4.521
 2834SOL    HW1 9401   4.425   6.136   4.608
 2834SOL    HW2 9402   4.395   6.044   4.477
 2835SOL     OW 9403   1.419   6.250   0.626
 2835SOL    HW1 9404   1.518   6.232   0.629
 2835SOL    HW2 9405   1.378   6.220   0.712
 2836SOL     OW 9406   3.698   6.782   3.375
 2836SOL    HW1 9407   3.642   6.792   3.457
 2836SOL    HW2 9408   3.756   6.700   3.384
 2837SOL     OW 9409   5.914   4.046   2.145
 2837SOL    HW1 9410   5.828   3.996   2.153
 2837SOL    HW2 9411   5.936   4.089   2.233
 2838SOL     OW 9412   4.998   4.028   6.064
 2838SOL    HW1 9413   4.935   4.082   6.119
 2838SOL    HW2 9414   4.998   3.933   6.096
 2839SOL     OW 9415   6.583   3.031   3.783
 2839SOL    HW1 9416   6.560   3.122   3.750
 2839SOL    HW2 9417   6.563   2.964   3.711
 2840SOL     OW 9418   0.869   5.430   2.966
 2840SOL    HW1 9419   0.774   5.457   2.952
 2840SOL    HW2 9420   0.874   5.331   2.980
 2841SOL     OW 9421   5.942   2.419   0.677
 2841SOL    HW1 9422   6.007   2.346   0.697
 2841SOL    HW2 9423   5.987   2.508   0.688
 2842SOL     OW 9424   1.080   5.878   4.620
 2842SOL    HW1 9425   1.051   5.783   4.628
 2842SOL    HW2 9426   1.012   5.929   4.568
 2843SOL     OW 9427   2.149   3.244   3.108
 2843SOL    HW1 9428   2.084   3.187   3.058
 2843SOL    HW2 9429   2.110   3.268   3.197
 2844SOL     OW 9430   5.068   4.182   1.341
 2844SOL    HW1 9431   5.069   4.271   1.296
 2844SOL    HW2 9432   4.979   4.139   1.329
 2845SOL     OW 9433   4.823   3.140   3.584
 2845SOL    HW1 9434   4.837   3.217   3.522
 2845SOL    HW2 9435   4.846   3.167   3.677
 2846SOL     OW 9436   4.440   0.498   0.107
 2846SOL    HW1 9437   4.512   0.447   0.155
 2846SOL    HW2 9438   4.482   0.561   0.042
 2847SOL     OW 9439   4.693   4.309   2.125
 2847SOL    HW1 9440   4.705   4.217   2.162
 2847SOL    HW2 9441   4.630   4.307   2.047
 2848SOL     OW 9442   0.585   2.980   5.012
 2848SOL    HW1 9443   0.572   3.067   5.059
 2848SOL    HW2 9444   0.673   2.940   5.038
 2849SOL     OW 9445   3.668   0.757   2.209
 2849SOL    HW1 9446   3.756   0.790   2.246
 2849SOL    HW2 9447   3.640   0.816   2.134
 2850SOL     OW 9448   2.323   6.724   3.555
 2850SOL    HW1 9449   2.396   6.778   3.511
 2850SOL    HW2 9450   2.262   6.785   3.605
 2851SOL     OW 9451   4.560   3.321   0.130
 2851SOL    HW1 9452   4.587   3.236   0.174
 2851SOL    HW2 9453   4.588   3.320   0.034
 2852SOL     OW 9454   6.193   4.295   6.515
 2852SOL    HW1 9455   6.241   4.378   6.487
 2852SOL    HW2 9456   6.169   4.301   6.611
 2853SOL     OW 9457   0.272   3.371   0.275
 2853SOL    HW1 9458   0.279   3.461   0.232
 2853SOL    HW2 9459   0.361   3.326   0.273
 2854SOL     OW 9460   3.177   1.133   6.749
 2854SOL    HW1 9461   3.245   1.207   6.739
 2854SOL    HW2 9462   3.192   1.065   6.678
 2855SOL     OW 9463   0.874   1.928   4.472
 2855SOL    HW1 9464   0.918   1.867   4.407
 2855SOL    HW2 9465   0.862   2.018   4.429
 2856SOL     OW 9466   1.637   3.842   3.019
 2856SOL    HW1 9467   1.713   3.907   3.029
 2856SOL    HW2 9468   1.613   3.805   3.109
 2857SOL     OW 9469   0.131   3.112   0.293
 2857SOL    HW1 9470   0.151   3.201   0.252
 2857SOL    HW2 9471   0.040   3.113   0.333
 2858SOL     OW 9472   5.400   6.025   2.942
 2858SOL    HW1 9473   5.429   6.104   2.889
 2858SOL    HW2 9474   5.472   6.000   3.007
 2859SOL     OW 9475   5.415   5.947   0.662
 2859SOL    HW1 9476   5.493   5.901   0.705
 2859SOL    HW2 9477   5.449   6.025   0.608
 2860SOL     OW 9478   1.961   6.062   1.614
 2860SOL    HW1 9479   1.911   5.976   1.626
 2860SOL    HW2 9480   1.985   6.073   1.517
 2861SOL     OW 9481   3.786   5.032   6.005
 2861SOL    HW1 9482   3.781   5.112   6.065
 2861SOL    HW2 9483   3.710   4.970   6.025
 2862SOL     OW 9484   4.559   3.115   1.215
 2862SOL    HW1 9485   4.580   3.159   1.128
 2862SOL    HW2 9486   4.636   3.126   1.277
 2863SOL     OW 9487   5.220   0.488   6.373
 2863SOL    HW1 9488   5.197   0.583   6.355
 2863SOL    HW2 9489   5.311   0.468   6.338
 2864SOL     OW 9490   4.326   3.379   1.641
 2864SOL    HW1 9491   4.338   3.281   1.654
 2864SOL    HW2 9492   4.318   3.399   1.543
 2865SOL     OW 9493   4.739   6.316   4.116
 2865SOL    HW1 9494   4.706   6.226   4.091
 2865SOL    HW2 9495   4.728   6.331   4.214
 2866SOL     OW 9496   5.448   4.720   6.692
 2866SOL    HW1 9497   5.424   4.672   6.608
 2866SOL    HW2 9498   5.529   4.777   6.675
 2867SOL     OW 9499   6.151   6.785   2.292
 2867SOL    HW1 9500   6.201   6.734   2.362
 2867SOL    HW2 9501   6.215   6.814   2.221
 2868SOL     OW 9502   1.226   1.569   5.992
 2868SOL    HW1 9503   1.218   1.485   5.939
 2868SOL    HW2 9504   1.321   1.600   5.991
 2869SOL     OW 9505   5.483   6.599   4.061
 2869SOL    HW1 9506   5.527   6.524   4.012
 2869SOL    HW2 9507   5.502   6.685   4.012
 2870SOL     OW 9508   1.197   1.554   0.619
 2870SOL    HW1 9509   1.146   1.537   0.535
 2870SOL    HW2 9510   1.284   1.599   0.597
 2871SOL     OW 9511   6.774   1.054   1.724
 2871SOL    HW1 9512   6.824   1.025   1.643
 2871SOL    HW2 9513   6.675   1.045   1.708
 2872SOL     OW 9514   2.575   1.746   2.479
 2872SOL    HW1 9515   2.620   1.740   2.390
 2872SOL    HW2 9516   2.612   1.677   2.540
 2873SOL     OW 9517   0.588   5.877   1.183
 2873SOL    HW1 9518   0.659   5.911   1.122
 2873SOL    HW2 9519   0.615   5.894   1.278
 2874SOL     OW 9520   3.252   0.342   2.831
 2874SOL    HW1 9521   3.232   0.307   2.922
 2874SOL    HW2 9522   3.346   0.378   2.829
 2875SOL     OW 9523   2.967   6.928   2.806
 2875SOL    HW1 9524   3.029   6.997   2.842
 2875SOL    HW2 9525   2.948   6.947   2.710
 2876SOL     OW 9526   1.787   5.813   2.228
 2876SOL    HW1 9527   1.743   5.867   2.157
 2876SOL    HW2 9528   1.872   5.857   2.256
 2877SOL     OW 9529   1.847   2.048   6.025
 2877SOL    HW1 9530   1.922   2.104   6.059
 2877SOL    HW2 9531   1.818   1.984   6.097
 2878SOL     OW 9532   3.205   2.967   4.686
 2878SOL    HW1 9533   3.117   2.927   4.711
 2878SOL    HW2 9534   3.198   3.067   4.689
 2879SOL     OW 9535   4.907   4.787   5.827
 2879SOL    HW1 9536   4.943   4.773   5.735
 2879SOL    HW2 9537   4.892   4.885   5.842
 2880SOL     OW 9538   0.595   1.988   4.031
 2880SOL    HW1 9539   0.618   1.891   4.029
 2880SOL    HW2 9540   0.673   2.041   4.063
 2881SOL     OW 9541   3.252   5.484   6.677
 2881SOL    HW1 9542   3.219   5.471   6.583
 2881SOL    HW2 9543   3.323   5.554   6.678
 2882SOL     OW 9544   5.947   6.172   0.748
 2882SOL    HW1 9545   5.878   6.111   0.709
 2882SOL    HW2 9546   5.973   6.139   0.839
 2883SOL     OW 9547   6.622   6.454   3.056
 2883SOL    HW1 9548   6.624   6.489   2.963
 2883SOL    HW2 9549   6.533   6.412   3.076
 2884SOL     OW 9550   0.104   5.270   2.738
 2884SOL    HW1 9551   0.191   5.291   2.784
 2884SOL    HW2 9552   0.033   5.255   2.807
 2885SOL     OW 9553   1.577   3.141   3.522
 2885SOL    HW1 9554   1.501   3.202   3.498
 2885SOL    HW2 9555   1.626   3.180   3.600
 2886SOL     OW 9556   2.374   4.537   0.211
 2886SOL    HW1 9557   2.361   4.608   0.279
 2886SOL    HW2 9558   2.291   4.527   0.156
 2887SOL     OW 9559   0.506   5.978   4.412
 2887SOL    HW1 9560   0.587   6.004   4.361
 2887SOL    HW2 9561   0.524   5.894   4.463
 2888SOL     OW 9562   0.168   6.184   0.143
 2888SOL    HW1 9563   0.099   6.206   0.075
 2888SOL    HW2 9564   0.239   6.127   0.102
 2889SOL     OW 9565   2.543   0.019   3.076
 2889SOL    HW1 9566   2.494   6.962   3.100
 2889SOL    HW2 9567   2.559   0.073   3.158
 2890SOL     OW 9568   2.322   6.089   0.840
 2890SOL    HW1 9569   2.364   6.002   0.865
 2890SOL    HW2 9570   2.355   6.119   0.750
 2891SOL     OW 9571   0.453   3.093   2.508
 2891SOL    HW1 9572   0.464   2.996   2.488
 2891SOL    HW2 9573   0.364   3.107   2.552
 2892SOL     OW 9574   6.363   3.813   1.024
 2892SOL    HW1 9575   6.448   3.806   1.076
 2892SOL    HW2 9576   6.374   3.768   0.935
 2893SOL     OW 9577   1.198   5.882   5.162
 2893SOL    HW1 9578   1.281   5.828   5.176
 2893SOL    HW2 9579   1.166   5.870   5.068
 2894SOL     OW 9580   1.922   4.284   1.633
 2894SOL    HW1 9581   1.920   4.362   1.696
 2894SOL    HW2 9582   1.864   4.211   1.668
 2895SOL     OW 9583   3.859   0.378   6.429
 2895SOL    HW1 9584   3.832   0.429   6.347
 2895SOL    HW2 9585   3.937   0.319   6.407
 2896SOL     OW 9586   5.621   6.983   5.852
 2896SOL    HW1 9587   5.656   6.898   5.892
 2896SOL    HW2 9588   5.604   6.970   5.755
 2897SOL     OW 9589   3.609   5.505   2.564
 2897SOL    HW1 9590   3.538   5.545   2.506
 2897SOL    HW2 9591   3.567   5.453   2.638
 2898SOL     OW 9592   6.167   3.647   3.564
 2898SOL    HW1 9593   6.095   3.716   3.573
 2898SOL    HW2 9594   6.223   3.668   3.484
 2899SOL     OW 9595   0.021   2.224   1.271
 2899SOL    HW1 9596   0.065   2.135   1.265
 2899SOL    HW2 9597   0.090   2.295   1.282
 2900SOL     OW 9598   3.428   3.800   0.315
 2900SOL    HW1 9599   3.414   3.828   0.220
 2900SOL    HW2 9600   3.381   3.865   0.376
 2901SOL     OW 9601   1.880   4.699   3.753
 2901SOL    HW1 9602   1.788   4.729   3.778
 2901SOL    HW2 9603   1.875   4.610   3.708
 2902SOL     OW 9604   0.146   5.688   3.918
 2902SOL    HW1 9605   0.137   5.739   4.003
 2902SOL    HW2 9606   0.080   5.612   3.917
 2903SOL     OW 9607   4.657   6.233   0.506
 2903SOL    HW1 9608   4.659   6.309   0.571
 2903SOL    HW2 9609   4.649   6.269   0.413
 2904SOL     OW 9610   2.872   4.823   4.753
 2904SOL    HW1 9611   2.871   4.756   4.827
 2904SOL    HW2 9612   2.927   4.902   4.780
 2905SOL     OW 9613   1.030   4.655   2.661
 2905SOL    HW1 9614   0.968   4.577   2.655
 2905SOL    HW2 9615   1.113   4.635   2.608
 2906SOL     OW 9616   5.211   6.220   3.041
 2906SOL    HW1 9617   5.125   6.186   3.079
 2906SOL    HW2 9618   5.271   6.142   3.021
 2907SOL     OW 9619   1.015   0.801   4.056
 2907SOL    HW1 9620   0.974   0.876   4.004
 2907SOL    HW2 9621   0.950   0.726   4.064
 2908SOL     OW 9622   4.894   0.464   3.556
 2908SOL    HW1 9623   4.954   0.481   3.478
 2908SOL    HW2 9624   4.943   0.411   3.625
 2909SOL     OW 9625   1.088   6.323   3.154
 2909SOL    HW1 9626   1.140   6.249   3.196
 2909SOL    HW2 9627   1.126   6.344   3.064
 2910SOL     OW 9628   6.797   0.812   4.118
 2910SOL    HW1 9629   6.884   0.824   4.166
 2910SOL    HW2 9630   6.804   0.731   4.059
 2911SOL     OW 9631   0.795   5.064   3.890
 2911SOL    HW1 9632   0.783   5.024   3.981
 2911SOL    HW2 9633   0.776   5.162   3.893
 2912SOL     OW 9634   6.803   6.350   0.750
 2912SOL    HW1 9635   6.720   6.300   0.776
 2912SOL    HW2 9636   6.883   6.306   0.790
 2913SOL     OW 9637   2.075   4.311   2.032
 2913SOL    HW1 9638   2.066   4.326   2.131
 2913SOL    HW2 9639   2.157   4.257   2.014
 2914SOL     OW 9640   5.426   4.974   0.556
 2914SOL    HW1 9641   5.473   4.911   0.496
 2914SOL    HW2 9642   5.361   4.924   0.614
 2915SOL     OW 9643   3.240   2.131   2.742
 2915SOL    HW1 9644   3.222   2.216   2.792
 2915SOL    HW2 9645   3.215   2.144   2.646
 2916SOL     OW 9646   2.685   5.161   6.943
 2916SOL    HW1 9647   2.604   5.183   6.998
 2916SOL    HW2 9648   2.744   5.242   6.937
 2917SOL     OW 9649   2.691   0.030   4.113
 2917SOL    HW1 9650   2.731   0.079   4.191
 2917SOL    HW2 9651   2.599   0.065   4.096
 2918SOL     OW 9652   6.085   3.705   0.982
 2918SOL    HW1 9653   6.025   3.722   1.060
 2918SOL    HW2 9654   6.174   3.745   0.999
 2919SOL     OW 9655   0.274   5.783   4.739
 2919SOL    HW1 9656   0.213   5.795   4.817
 2919SOL    HW2 9657   0.313   5.872   4.713
 2920SOL     OW 9658   2.028   0.547   1.916
 2920SOL    HW1 9659   2.106   0.606   1.896
 2920SOL    HW2 9660   2.017   0.537   2.015
 2921SOL     OW 9661   6.919   0.160   5.788
 2921SOL    HW1 9662   6.992   0.104   5.828
 2921SOL    HW2 9663   6.837   0.154   5.845
 2922SOL     OW 9664   4.398   0.046   2.896
 2922SOL    HW1 9665   4.481   0.070   2.946
 2922SOL    HW2 9666   4.369   0.124   2.840
 2923SOL     OW 9667   6.395   4.918   4.493
 2923SOL    HW1 9668   6.364   4.857   4.420
 2923SOL    HW2 9669   6.365   5.011   4.474
 2924SOL     OW 9670   0.114   1.713   5.231
 2924SOL    HW1 9671   0.141   1.806   5.204
 2924SOL    HW2 9672   0.023   1.715   5.271
 2925SOL     OW 9673   5.234   1.052   6.615
 2925SOL    HW1 9674   5.180   1.042   6.699
 2925SOL    HW2 9675   5.180   1.102   6.547
 2926SOL     OW 9676   0.178   2.116   5.493
 2926SOL    HW1 9677   0.229   2.177   5.554
 2926SOL    HW2 9678   0.089   2.095   5.534
 2927SOL     OW 9679   2.209   3.189   1.057
 2927SOL    HW1 9680   2.173   3.282   1.069
 2927SOL    HW2 9681   2.289   3.177   1.116
 2928SOL     OW 9682   6.659   1.660   0.324
 2928SOL    HW1 9683   6.671   1.599   0.403
 2928SOL    HW2 9684   6.624   1.748   0.355
 2929SOL     OW 9685   1.057   2.744   4.621
 2929SOL    HW1 9686   1.055   2.747   4.521
 2929SOL    HW2 9687   1.151   2.725   4.651
 2930SOL     OW 9688   6.261   5.212   5.401
 2930SOL    HW1 9689   6.314   5.291   5.369
 2930SOL    HW2 9690   6.280   5.196   5.498
 2931SOL     OW 9691   4.083   4.463   0.187
 2931SOL    HW1 9692   4.143   4.422   0.118
 2931SOL    HW2 9693   4.019   4.525   0.142
 2932SOL     OW 9694   6.813   5.773   1.874
 2932SOL    HW1 9695   6.857   5.753   1.787
 2932SOL    HW2 9696   6.755   5.695   1.901
 2933SOL     OW 9697   0.750   0.089   1.948
 2933SOL    HW1 9698   0.819   0.067   2.017
 2933SOL    HW2 9699   0.668   0.124   1.994
 2934SOL     OW 9700   4.012   3.144   1.265
 2934SOL    HW1 9701   4.096   3.095   1.241
 2934SOL    HW2 9702   4.003   3.224   1.205
 2935SOL     OW 9703   0.641   2.596   6.042
 2935SOL    HW1 9704   0.636   2.507   5.997
 2935SOL    HW2 9705   0.679   2.584   6.134
 2936SOL     OW 9706   4.509   0.353   0.587
 2936SOL    HW1 9707   4.451   0.427   0.621
 2936SOL    HW2 9708   4.533   0.292   0.662
 2937SOL     OW 9709   4.589   5.288   1.327
 2937SOL    HW1 9710   4.512   5.323   1.381
 2937SOL    HW2 9711   4.652   5.239   1.386
 2938SOL     OW 9712   6.168   5.676   0.177
 2938SOL    HW1 9713   6.142   5.625   0.095
 2938SOL    HW2 9714   6.100   5.747   0.195
 2939SOL     OW 9715   0.490   6.158   1.834
 2939SOL    HW1 9716   0.536   6.243   1.858
 2939SOL    HW2 9717   0.468   6.158   1.737
 2940SOL     OW 9718   5.993   5.983   4.532
 2940SOL    HW1 9719   5.980   6.016   4.439
 2940SOL    HW2 9720   5.929   6.030   4.593
 2941SOL     OW 9721   2.040   2.934   3.190
 2941SOL    HW1 9722   1.944   2.943   3.161
 2941SOL    HW2 9723   2.095   2.903   3.113
 2942SOL     OW 9724   2.700   2.001   6.915
 2942SOL    HW1 9725   2.661   1.944   6.842
 2942SOL    HW2 9726   2.627   2.048   6.964
 2943SOL     OW 9727   6.086   4.503   3.799
 2943SOL    HW1 9728   6.170   4.452   3.781
 2943SOL    HW2 9729   6.070   4.505   3.898
 2944SOL     OW 9730   2.600   6.123   3.706
 2944SOL    HW1 9731   2.511   6.169   3.707
 2944SOL    HW2 9732   2.612   6.073   3.792
 2945SOL     OW 9733   5.344   4.055   1.862
 2945SOL    HW1 9734   5.361   3.972   1.809
 2945SOL    HW2 9735   5.272   4.037   1.929
 2946SOL     OW 9736   2.860   4.177   5.796
 2946SOL    HW1 9737   2.954   4.207   5.809
 2946SOL    HW2 9738   2.849   4.083   5.828
 2947SOL     OW 9739   6.619   6.238   0.469
 2947SOL    HW1 9740   6.565   6.313   0.509
 2947SOL    HW2 9741   6.582   6.216   0.378
 2948SOL     OW 9742   5.981   4.540   3.348
 2948SOL    HW1 9743   5.944   4.595   3.422
 2948SOL    HW2 9744   5.953   4.445   3.359
 2949SOL     OW 9745   0.908   6.269   0.628
 2949SOL    HW1 9746   0.978   6.236   0.565
 2949SOL    HW2 9747   0.913   6.368   0.635
 2950SOL     OW 9748   5.519   4.583   2.571
 2950SOL    HW1 9749   5.428   4.595   2.530
 2950SOL    HW2 9750   5.511   4.526   2.653
 2951SOL     OW 9751   5.759   0.739   1.680
 2951SOL    HW1 9752   5.716   0.655   1.712
 2951SOL    HW2 9753   5.802   0.723   1.591
 2952SOL     OW 9754   6.119   0.816   5.062
 2952SOL    HW1 9755   6.020   0.805   5.070
 2952SOL    HW2 9756   6.139   0.884   4.991
 2953SOL     OW 9757   0.138   5.641   3.206
 2953SOL    HW1 9758   0.208   5.620   3.138
 2953SOL    HW2 9759   0.088   5.558   3.229
 2954SOL     OW 9760   0.651   4.513   6.443
 2954SOL    HW1 9761   0.616   4.471   6.359
 2954SOL    HW2 9762   0.715   4.450   6.487
 2955SOL     OW 9763   1.256   4.127   0.081
 2955SOL    HW1 9764   1.199   4.184   0.139
 2955SOL    HW2 9765   1.247   4.031   0.110
 2956SOL     OW 9766   0.095   4.713   4.127
 2956SOL    HW1 9767   0.172   4.751   4.077
 2956SOL    HW2 9768   0.064   4.779   4.196
 2957SOL     OW 9769   3.604   5.220   1.679
 2957SOL    HW1 9770   3.514   5.177   1.690
 2957SOL    HW2 9771   3.672   5.167   1.730
 2958SOL     OW 9772   1.667   5.342   3.041
 2958SOL    HW1 9773   1.609   5.393   3.105
 2958SOL    HW2 9774   1.735   5.404   3.002
 2959SOL     OW 9775   5.392   2.265   3.095
 2959SOL    HW1 9776   5.461   2.312   3.149
 2959SOL    HW2 9777   5.302   2.303   3.115
 2960SOL     OW 9778   3.705   0.748   0.195
 2960SOL    HW1 9779   3.752   0.774   0.111
 2960SOL    HW2 9780   3.724   0.652   0.216
 2961SOL     OW 9781   5.559   4.648   3.080
 2961SOL    HW1 9782   5.632   4.590   3.116
 2961SOL    HW2 9783   5.555   4.734   3.131
 2962SOL     OW 9784   5.261   6.649   3.095
 2962SOL    HW1 9785   5.226   6.598   3.017
 2962SOL    HW2 9786   5.340   6.704   3.067
 2963SOL     OW 9787   1.397   1.294   5.941
 2963SOL    HW1 9788   1.482   1.323   5.898
 2963SOL    HW2 9789   1.415   1.269   6.036
 2964SOL     OW 9790   0.214   2.619   6.955
 2964SOL    HW1 9791   0.263   2.611   0.015
 2964SOL    HW2 9792   0.265   2.569   6.884
 2965SOL     OW 9793   0.846   0.889   4.878
 2965SOL    HW1 9794   0.749   0.866   4.891
 2965SOL    HW2 9795   0.874   0.955   4.948
 2966SOL     OW 9796   4.491   5.749   4.004
 2966SOL    HW1 9797   4.392   5.740   4.011
 2966SOL    HW2 9798   4.515   5.795   3.918
 2967SOL     OW 9799   0.100   1.488   5.833
 2967SOL    HW1 9800   0.183   1.433   5.818
 2967SOL    HW2 9801   0.033   1.433   5.883
 2968SOL     OW 9802   2.372   2.959   0.864
 2968SOL    HW1 9803   2.275   2.937   0.851
 2968SOL    HW2 9804   2.405   2.915   0.947
 2969SOL     OW 9805   4.958   3.710   4.630
 2969SOL    HW1 9806   5.007   3.647   4.570
 2969SOL    HW2 9807   4.894   3.765   4.577
 2970SOL     OW 9808   2.772   2.672   5.662
 2970SOL    HW1 9809   2.816   2.742   5.718
 2970SOL    HW2 9810   2.757   2.708   5.570
 2971SOL     OW 9811   5.705   4.039   0.194
 2971SOL    HW1 9812   5.769   3.963   0.204
 2971SOL    HW2 9813   5.619   4.016   0.240
 2972SOL     OW 9814   6.185   5.057   6.832
 2972SOL    HW1 9815   6.273   5.059   6.784
 2972SOL    HW2 9816   6.153   5.150   6.847
 2973SOL     OW 9817   4.579   0.173   2.389
 2973SOL    HW1 9818   4.603   0.226   2.308
 2973SOL    HW2 9819   4.551   0.081   2.361
 2974SOL     OW 9820   6.371   4.757   3.250
 2974SOL    HW1 9821   6.337   4.850   3.236
 2974SOL    HW2 9822   6.457   4.759   3.301
 2975SOL     OW 9823   4.937   4.681   3.650
 2975SOL    HW1 9824   4.888   4.697   3.564
 2975SOL    HW2 9825   5.017   4.741   3.655
 2976SOL     OW 9826   4.420   2.098   3.162
 2976SOL    HW1 9827   4.461   2.186   3.187
 2976SOL    HW2 9828   4.464   2.025   3.215
 2977SOL     OW 9829   0.869   0.211   2.351
 2977SOL    HW1 9830   0.917   0.282   2.300
 2977SOL    HW2 9831   0.812   0.253   2.422
 2978SOL     OW 9832   4.413   3.919   6.645
 2978SOL    HW1 9833   4.335   3.888   6.699
 2978SOL    HW2 9834   4.380   3.962   6.561
 2979SOL     OW 9835   3.497   1.728   4.627
 2979SOL    HW1 9836   3.448   1.811   4.601
 2979SOL    HW2 9837   3.592   1.734   4.595
 2980SOL     OW 9838   3.686   4.528   6.375
 2980SOL    HW1 9839   3.639   4.472   6.307
 2980SOL    HW2 9840   3.619   4.577   6.431
 2981SOL     OW 9841   2.044   1.717   6.952
 2981SOL    HW1 9842   2.114   1.760   6.894
 2981SOL    HW2 9843   2.088   1.655   7.016
 2982SOL     OW 9844   1.799   6.467   2.295
 2982SOL    HW1 9845   1.713   6.484   2.343
 2982SOL    HW2 9846   1.782   6.469   2.196
 2983SOL     OW 9847   6.958   2.561   6.673
 2983SOL    HW1 9848   0.013   2.569   6.616
 2983SOL    HW2 9849   6.916   2.651   6.684
 2984SOL     OW 9850   6.400   4.860   6.764
 2984SOL    HW1 9851   6.340   4.782   6.748
 2984SOL    HW2 9852   6.431   4.860   6.859
 2985SOL     OW 9853   0.657   0.301   4.851
 2985SOL    HW1 9854   0.715   0.345   4.919
 2985SOL    HW2 9855   0.714   0.248   4.787
 2986SOL     OW 9856   3.294   4.068   2.583
 2986SOL    HW1 9857   3.356   4.096   2.656
 2986SOL    HW2 9858   3.203   4.050   2.622
 2987SOL     OW 9859   1.127   2.318   4.094
 2987SOL    HW1 9860   1.127   2.280   4.002
 2987SOL    HW2 9861   1.147   2.415   4.091
 2988SOL     OW 9862   1.194   0.535   1.468
 2988SOL    HW1 9863   1.101   0.538   1.432
 2988SOL    HW2 9864   1.200   0.466   1.540
 2989SOL     OW 9865   5.261   3.214   5.151
 2989SOL    HW1 9866   5.212   3.271   5.217
 2989SOL    HW2 9867   5.230   3.236   5.058
 2990SOL     OW 9868   5.346   2.128   4.443
 2990SOL    HW1 9869   5.370   2.192   4.516
 2990SOL    HW2 9870   5.262   2.080   4.468
 2991SOL     OW 9871   5.992   3.778   0.735
 2991SOL    HW1 9872   6.058   3.829   0.679
 2991SOL    HW2 9873   6.031   3.759   0.825
 2992SOL     OW 9874   0.699   3.876   4.480
 2992SOL    HW1 9875   0.749   3.797   4.444
 2992SOL    HW2 9876   0.678   3.860   4.577
 2993SOL     OW 9877   0.499   4.315   0.212
 2993SOL    HW1 9878   0.582   4.277   0.170
 2993SOL    HW2 9879   0.421   4.302   0.151
 2994SOL     OW 9880   4.876   6.380   6.655
 2994SOL    HW1 9881   4.974   6.390   6.640
 2994SOL    HW2 9882   4.841   6.463   6.700
 2995SOL     OW 9883   4.352   0.582   0.567
 2995SOL    HW1 9884   4.323   0.541   0.480
 2995SOL    HW2 9885   4.382   0.676   0.551
 2996SOL     OW 9886   1.441   1.977   4.778
 2996SOL    HW1 9887   1.500   2.007   4.853
 2996SOL    HW2 9888   1.347   1.966   4.812
 2997SOL     OW 9889   4.297   0.608   3.268
 2997SOL    HW1 9890   4.221   0.665   3.298
 2997SOL    HW2 9891   4.261   0.523   3.229
 2998SOL     OW 9892   2.794   0.502   4.081
 2998SOL    HW1 9893   2.716   0.449   4.116
 2998SOL    HW2 9894   2.760   0.581   4.031
 2999SOL     OW 9895   3.031   4.632   6.722
 2999SOL    HW1 9896   3.032   4.703   6.652
 2999SOL    HW2 9897   3.114   4.577   6.714
 3000SOL     OW 9898   2.765   3.297   6.018
 3000SOL    HW1 9899   2.824   3.223   5.986
 3000SOL    HW2 9900   2.791   3.382   5.972
 3001SOL     OW 9901   5.645   1.193   0.001
 3001SOL    HW1 9902   5.710   1.132   0.046
 3001SOL    HW2 9903   5.676   1.211   6.934
 3002SOL     OW 9904   2.840   1.548   0.995
 3002SOL    HW1 9905   2.861   1.596   0.909
 3002SOL    HW2 9906   2.923   1.542   1.051
 3003SOL     OW 9907   1.737   6.161   1.134
 3003SOL    HW1 9908   1.664   6.223   1.104
 3003SOL    HW2 9909   1.697   6.076   1.169
 3004SOL     OW 9910   1.984   4.398   4.163
 3004SOL    HW1 9911   1.998   4.454   4.081
 3004SOL    HW2 9912   2.070   4.355   4.189
 3005SOL     OW 9913   0.894   3.234   5.520
 3005SOL    HW1 9914   0.959   3.182   5.575
 3005SOL    HW2 9915   0.821   3.173   5.488
 3006SOL     OW 9916   5.147   1.713   5.843
 3006SOL    HW1 9917   5.071   1.656   5.814
 3006SOL    HW2 9918   5.212   1.658   5.896
 3007SOL     OW 9919   4.919   5.757   0.100
 3007SOL    HW1 9920   4.957   5.777   0.190
 3007SOL    HW2 9921   4.874   5.839   0.064
 3008SOL     OW 9922   3.965   2.151   6.168
 3008SOL    HW1 9923   3.906   2.170   6.247
 3008SOL    HW2 9924   4.012   2.235   6.141
 3009SOL     OW 9925   6.631   2.642   3.111
 3009SOL    HW1 9926   6.697   2.689   3.053
 3009SOL    HW2 9927   6.676   2.569   3.162
 3010SOL     OW 9928   4.100   5.673   5.907
 3010SOL    HW1 9929   4.025   5.614   5.934
 3010SOL    HW2 9930   4.066   5.746   5.848
 3011SOL     OW 9931   6.692   0.143   2.090
 3011SOL    HW1 9932   6.734   0.092   2.015
 3011SOL    HW2 9933   6.668   0.235   2.059
 3012SOL     OW 9934   2.809   3.606   6.626
 3012SOL    HW1 9935   2.812   3.606   6.726
 3012SOL    HW2 9936   2.874   3.674   6.591
 3013SOL     OW 9937   6.750   5.457   3.120
 3013SOL    HW1 9938   6.664   5.447   3.070
 3013SOL    HW2 9939   6.819   5.397   3.082
 3014SOL     OW 9940   5.128   0.730   6.358
 3014SOL    HW1 9941   5.203   0.791   6.382
 3014SOL    HW2 9942   5.080   0.765   6.277
 3015SOL     OW 9943   2.758   1.029   0.467
 3015SOL    HW1 9944   2.696   1.033   0.388
 3015SOL    HW2 9945   2.731   0.954   0.527
 3016SOL     OW 9946   3.313   6.678   4.375
 3016SOL    HW1 9947   3.377   6.660   4.449
 3016SOL    HW2 9948   3.287   6.775   4.376
 3017SOL     OW 9949   6.437   5.071   2.145
 3017SOL    HW1 9950   6.341   5.094   2.127
 3017SOL    HW2 9951   6.468   5.002   2.079
 3018SOL     OW 9952   3.939   0.041   0.441
 3018SOL    HW1 9953   3.916   6.977   0.405
 3018SOL    HW2 9954   3.860   0.102   0.430
 3019SOL     OW 9955   1.409   6.894   0.008
 3019SOL    HW1 9956   1.369   6.811   0.047
 3019SOL    HW2 9957   1.508   6.890   0.015
 3020SOL     OW 9958   5.026   3.315   6.911
 3020SOL    HW1 9959   5.077   3.359   6.985
 3020SOL    HW2 9960   5.074   3.330   6.825
 3021SOL     OW 9961   3.041   6.433   4.423
 3021SOL    HW1 9962   3.036   6.530   4.448
 3021SOL    HW2 9963   3.046   6.425   4.323
 3022SOL     OW 9964   3.644   6.145   3.360
 3022SOL    HW1 9965   3.570   6.211   3.351
 3022SOL    HW2 9966   3.730   6.194   3.374
 3023SOL     OW 9967   4.099   0.036   2.960
 3023SOL    HW1 9968   4.150   6.977   2.965
 3023SOL    HW2 9969   4.064   0.060   3.050
 3024SOL     OW 9970   6.406   6.406   4.850
 3024SOL    HW1 9971   6.423   6.449   4.761
 3024SOL    HW2 9972   6.412   6.306   4.840
 3025SOL     OW 9973   4.283   5.811   0.511
 3025SOL    HW1 9974   4.361   5.874   0.516
 3025SOL    HW2 9975   4.238   5.806   0.600
 3026SOL     OW 9976   6.046   1.183   0.535
 3026SOL    HW1 9977   6.070   1.280   0.537
 3026SOL    HW2 9978   5.978   1.168   0.463
 3027SOL     OW 9979   4.258   1.497   1.938
 3027SOL    HW1 9980   4.187   1.566   1.944
 3027SOL    HW2 9981   4.218   1.410   1.908
 3028SOL     OW 9982   1.745   4.081   6.394
 3028SOL    HW1 9983   1.759   4.134   6.478
 3028SOL    HW2 9984   1.696   3.997   6.416
 3029SOL     OW 9985   0.610   2.401   4.400
 3029SOL    HW1 9986   0.599   2.306   4.369
 3029SOL    HW2 9987   0.622   2.460   4.320
 3030SOL     OW 9988   1.420   3.973   0.740
 3030SOL    HW1 9989   1.504   4.004   0.697
 3030SOL    HW2 9990   1.360   3.931   0.672
 3031SOL     OW 9991   1.363   4.907   1.412
 3031SOL    HW1 9992   1.265   4.906   1.392
 3031SOL    HW2 9993   1.378   4.951   1.501
 3032SOL     OW 9994   1.924   0.020   3.512
 3032SOL    HW1 9995   1.939   6.967   3.455
 3032SOL    HW2 9996   1.988   0.019   3.589
 3033SOL     OW 9997   6.213   2.692   3.828
 3033SOL    HW1 9998   6.203   2.723   3.923
 3033SOL    HW2 9999   6.310   2.679   3.808
 3034SOL     OW10000   0.944   5.955   3.797
 3034SOL    HW110001   0.903   5.876   3.752
 3034SOL    HW210002   1.028   5.981   3.750
 3035SOL     OW10003   1.406   2.849   6.072
 3035SOL    HW110004   1.387   2.807   5.983
 3035SOL    HW210005   1.320   2.879   6.114
 3036SOL     OW10006   1.229   2.467   5.871
 3036SOL    HW110007   1.267   2.378   5.845
 3036SOL    HW210008   1.133   2.455   5.898
 3037SOL     OW10009   0.575   5.082   5.397
 3037SOL    HW110010   0.636   5.156   5.370
 3037SOL    HW210011   0.480   5.112   5.390
 3038SOL     OW10012   4.936   5.324   5.951
 3038SOL    HW110013   4.891   5.345   6.038
 3038SOL    HW210014   5.000   5.398   5.929
 3039SOL     OW10015   6.391   3.412   0.029
 3039SOL    HW110016   6.342   3.433   6.971
 3039SOL    HW210017   6.448   3.490   0.055
 3040SOL     OW10018   3.706   3.973   6.089
 3040SOL    HW110019   3.674   3.921   6.168
 3040SOL    HW210020   3.751   4.057   6.120
 3041SOL     OW10021   1.228   4.157   4.858
 3041SOL    HW110022   1.181   4.103   4.928
 3041SOL    HW210023   1.189   4.135   4.768
 3042SOL     OW10024   0.004   5.061   3.012
 3042SOL    HW110025   7.024   5.011   3.099
 3042SOL    HW210026   0.094   5.045   2.972
 3043SOL     OW10027   2.521   3.740   0.662
 3043SOL    HW110028   2.511   3.661   0.602
 3043SOL    HW210029   2.505   3.713   0.757
 3044SOL     OW10030   3.081   3.621   5.690
 3044SOL    HW110031   3.035   3.706   5.665
 3044SOL    HW210032   3.180   3.636   5.696
 3045SOL     OW10033   4.883   0.885   3.576
 3045SOL    HW110034   4.834   0.968   3.551
 3045SOL    HW210035   4.820   0.821   3.620
 3046SOL     OW10036   5.248   5.602   0.359
 3046SOL    HW110037   5.226   5.504   0.363
 3046SOL    HW210038   5.177   5.654   0.406
 3047SOL     OW10039   6.253   6.445   0.760
 3047SOL    HW110040   6.198   6.457   0.843
 3047SOL    HW210041   6.193   6.422   0.684
 3048SOL     OW10042   4.187   3.013   0.867
 3048SOL    HW110043   4.191   3.043   0.772
 3048SOL    HW210044   4.193   3.092   0.928
 3049SOL     OW10045   0.985   0.639   4.841
 3049SOL    HW110046   0.951   0.621   4.749
 3049SOL    HW210047   0.943   0.723   4.876
 3050SOL     OW10048   2.121   2.530   1.672
 3050SOL    HW110049   2.172   2.573   1.747
 3050SOL    HW210050   2.029   2.507   1.704
 3051SOL     OW10051   3.342   7.010   6.222
 3051SOL    HW110052   3.269   0.051   6.212
 3051SOL    HW210053   3.389   7.025   6.309
 3052SOL     OW10054   5.496   6.213   2.790
 3052SOL    HW110055   5.476   6.284   2.722
 3052SOL    HW210056   5.595   6.206   2.803
 3053SOL     OW10057   1.593   4.683   0.455
 3053SOL    HW110058   1.574   4.620   0.380
 3053SOL    HW210059   1.681   4.729   0.439
 3054SOL     OW10060   5.572   0.756   3.663
 3054SOL    HW110061   5.512   0.746   3.583
 3054SOL    HW210062   5.621   0.671   3.679
 3055SOL     OW10063   6.477   6.505   6.537
 3055SOL    HW110064   6.550   6.518   6.603
 3055SOL    HW210065   6.507   6.441   6.466
 3056SOL     OW10066   5.195   1.779   6.251
 3056SOL    HW110067   5.262   1.824   6.310
 3056SOL    HW210068   5.121   1.743   6.307
 3057SOL     OW10069   5.798   6.327   3.466
 3057SOL    HW110070   5.782   6.235   3.502
 3057SOL    HW210071   5.885   6.329   3.417
 3058SOL     OW10072   6.297   4.393   1.005
 3058SOL    HW110073   6.387   4.361   0.976
 3058SOL    HW210074   6.229   4.320   0.992
 3059SOL     OW10075   2.462   2.660   4.372
 3059SOL    HW110076   2.536   2.699   4.426
 3059SOL    HW210077   2.421   2.583   4.421
 3060SOL     OW10078   2.899   4.866   6.209
 3060SOL    HW110079   2.998   4.862   6.194
 3060SOL    HW210080   2.876   4.952   6.254
 3061SOL     OW10081   5.797   4.939   5.741
 3061SOL    HW110082   5.824   4.852   5.783
 3061SOL    HW210083   5.771   5.004   5.812
 3062SOL     OW10084   3.961   4.917   1.238
 3062SOL    HW110085   3.996   5.004   1.204
 3062SOL    HW210086   3.903   4.874   1.170
 3063SOL     OW10087   0.418   4.136   0.566
 3063SOL    HW110088   0.410   4.120   0.665
 3063SOL    HW210089   0.481   4.213   0.550
 3064SOL     OW10090   4.447   2.767   0.079
 3064SOL    HW110091   4.406   2.858   0.067
 3064SOL    HW210092   4.464   2.725   7.016
 3065SOL     OW10093   0.873   1.126   6.475
 3065SOL    HW110094   0.778   1.098   6.464
 3065SOL    HW210095   0.928   1.085   6.402
 3066SOL     OW10096   5.126   5.245   5.703
 3066SOL    HW110097   5.194   5.248   5.630
 3066SOL    HW210098   5.071   5.328   5.702
 3067SOL     OW10099   2.446   1.595   0.012
 3067SOL    HW110100   2.384   1.585   0.089
 3067SOL    HW210101   2.541   1.591   0.045
 3068SOL     OW10102   0.626   0.658   1.975
 3068SOL    HW110103   0.666   0.672   1.884
 3068SOL    HW210104   0.540   0.608   1.967
 3069SOL     OW10105   5.593   6.961   3.517
 3069SOL    HW110106   5.594   0.015   3.576
 3069SOL    HW210107   5.539   6.981   3.435
 3070SOL     OW10108   2.985   1.413   6.942
 3070SOL    HW110109   2.898   1.437   6.898
 3070SOL    HW210110   3.007   1.482   7.011
 3071SOL     OW10111   7.010   4.325   3.443
 3071SOL    HW110112   6.932   4.283   3.397
 3071SOL    HW210113   0.055   4.345   3.376
 3072SOL     OW10114   2.268   5.653   6.723
 3072SOL    HW110115   2.222   5.585   6.780
 3072SOL    HW210116   2.210   5.678   6.647
 3073SOL     OW10117   6.645   4.851   0.554
 3073SOL    HW110118   6.626   4.941   0.515
 3073SOL    HW210119   6.715   4.805   0.499
 3074SOL     OW10120   0.687   4.178   1.196
 3074SOL    HW110121   0.618   4.190   1.125
 3074SOL    HW210122   0.778   4.197   1.159
 3075SOL     OW10123   2.633   5.219   3.868
 3075SOL    HW110124   2.633   5.255   3.775
 3075SOL    HW210125   2.539   5.216   3.903
 3076SOL     OW10126   0.252   1.116   5.046
 3076SOL    HW110127   0.220   1.210   5.060
 3076SOL    HW210128   0.352   1.117   5.037
 3077SOL     OW10129   6.114   3.766   1.529
 3077SOL    HW110130   6.185   3.829   1.496
 3077SOL    HW210131   6.144   3.724   1.615
 3078SOL     OW10132   6.463   3.085   1.886
 3078SOL    HW110133   6.498   3.080   1.793
 3078SOL    HW210134   6.508   3.018   1.943
 3079SOL     OW10135   2.475   2.656   5.025
 3079SOL    HW110136   2.552   2.654   5.089
 3079SOL    HW210137   2.505   2.620   4.936
 3080SOL     OW10138   4.518   4.564   1.600
 3080SOL    HW110139   4.437   4.506   1.588
 3080SOL    HW210140   4.554   4.552   1.692
 3081SOL     OW10141   0.975   4.193   6.989
 3081SOL    HW110142   0.990   4.117   0.025
 3081SOL    HW210143   0.887   4.236   7.009
 3082SOL     OW10144   3.177   5.511   4.654
 3082SOL    HW110145   3.123   5.516   4.739
 3082SOL    HW210146   3.250   5.580   4.658
 3083SOL     OW10147   2.746   5.256   2.530
 3083SOL    HW110148   2.819   5.190   2.510
 3083SOL    HW210149   2.781   5.349   2.519
 3084SOL     OW10150   0.707   3.524   2.807
 3084SOL    HW110151   0.679   3.428   2.816
 3084SOL    HW210152   0.786   3.529   2.746
 3085SOL     OW10153   4.934   4.635   0.776
 3085SOL    HW110154   5.013   4.618   0.835
 3085SOL    HW210155   4.965   4.654   0.683
 3086SOL     OW10156   5.303   0.704   0.202
 3086SOL    HW110157   5.390   0.659   0.182
 3086SOL    HW210158   5.321   0.795   0.240
 3087SOL     OW10159   2.250   6.264   2.409
 3087SOL    HW110160   2.191   6.322   2.352
 3087SOL    HW210161   2.244   6.296   2.504
 3088SOL     OW10162   0.272   3.291   5.770
 3088SOL    HW110163   0.330   3.210   5.777
 3088SOL    HW210164   0.322   3.371   5.805
 3089SOL     OW10165   4.724   1.127   4.409
 3089SOL    HW110166   4.723   1.227   4.413
 3089SOL    HW210167   4.653   1.090   4.468
 3090SOL     OW10168   1.072   1.503   2.082
 3090SOL    HW110169   1.128   1.572   2.130
 3090SOL    HW210170   1.117   1.477   1.997
 3091SOL     OW10171   0.746   1.361   0.576
 3091SOL    HW110172   0.805   1.280   0.576
 3091SOL    HW210173   0.803   1.443   0.573
 3092SOL     OW10174   4.968   0.412   2.030
 3092SOL    HW110175   4.894   0.446   2.088
 3092SOL    HW210176   5.048   0.390   2.087
 3093SOL     OW10177   5.659   6.105   6.201
 3093SOL    HW110178   5.747   6.058   6.199
 3093SOL    HW210179   5.590   6.043   6.240
 3094SOL     OW10180   2.319   1.123   4.893
 3094SOL    HW110181   2.412   1.156   4.907
 3094SOL    HW210182   2.288   1.149   4.801
 3095SOL     OW10183   2.682   3.095   5.344
 3095SOL    HW110184   2.759   3.034   5.327
 3095SOL    HW210185   2.598   3.053   5.310
 3096SOL     OW10186   0.539   3.219   5.093
 3096SOL    HW110187   0.579   3.278   5.022
 3096SOL    HW210188   0.460   3.265   5.134
 3097SOL     OW10189   5.821   2.975   6.433
 3097SOL    HW110190   5.788   2.886   6.465
 3097SOL    HW210191   5.896   3.005   6.491
 3098SOL     OW10192   1.730   2.363   2.139
 3098SOL    HW110193   1.779   2.379   2.224
 3098SOL    HW210194   1.632   2.375   2.153
 3099SOL     OW10195   0.473   6.280   3.491
 3099SOL    HW110196   0.534   6.211   3.452
 3099SOL    HW210197   0.384   6.238   3.510
 3100SOL     OW10198   6.410   6.249   2.829
 3100SOL    HW110199   6.338   6.240   2.760
 3100SOL    HW210200   6.499   6.235   2.786
 3101SOL     OW10201   4.978   6.915   5.519
 3101SOL    HW110202   4.904   6.869   5.568
 3101SOL    HW210203   5.028   6.848   5.464
 3102SOL     OW10204   0.741   5.449   0.364
 3102SOL    HW110205   0.709   5.525   0.308
 3102SOL    HW210206   0.679   5.436   0.442
 3103SOL     OW10207   3.867   0.400   0.851
 3103SOL    HW110208   3.954   0.449   0.859
 3103SOL    HW210209   3.840   0.365   0.941
 3104SOL     OW10210   4.846   6.889   6.204
 3104SOL    HW110211   4.845   6.989   6.193
 3104SOL    HW210212   4.905   6.865   6.281
 3105SOL     OW10213   5.176   3.249   0.964
 3105SOL    HW110214   5.133   3.160   0.976
 3105SOL    HW210215   5.158   3.306   1.044
 3106SOL     OW10216   5.699   1.164   5.203
 3106SOL    HW110217   5.646   1.203   5.128
 3106SOL    HW210218   5.785   1.215   5.213
 3107SOL     OW10219   4.238   1.546   4.583
 3107SOL    HW110220   4.186   1.485   4.643
 3107SOL    HW210221   4.332   1.515   4.577
 3108SOL     OW10222   2.037   4.618   4.421
 3108SOL    HW110223   2.026   4.567   4.336
 3108SOL    HW210224   2.133   4.640   4.435
 3109SOL     OW10225   6.279   0.386   4.707
 3109SOL    HW110226   6.183   0.405   4.728
 3109SOL    HW210227   6.325   0.471   4.682
 3110SOL     OW10228   2.560   4.624   3.625
 3110SOL    HW110229   2.536   4.534   3.590
 3110SOL    HW210230   2.533   4.694   3.560
 3111SOL     OW10231   6.625   5.084   4.313
 3111SOL    HW110232   6.694   5.027   4.269
 3111SOL    HW210233   6.614   5.055   4.408
 3112SOL     OW10234   3.805   2.872   6.792
 3112SOL    HW110235   3.892   2.890   6.837
 3112SOL    HW210236   3.816   2.883   6.693
 3113SOL     OW10237   2.977   5.740   2.559
 3113SOL    HW110238   2.946   5.796   2.636
 3113SOL    HW210239   2.962   5.790   2.474
 3114SOL     OW10240   3.585   1.112   0.175
 3114SOL    HW110241   3.488   1.114   0.201
 3114SOL    HW210242   3.593   1.131   0.078
 3115SOL     OW10243   4.289   4.064   5.536
 3115SOL    HW110244   4.369   4.038   5.590
 3115SOL    HW210245   4.206   4.041   5.587
 3116SOL     OW10246   0.917   2.309   0.892
 3116SOL    HW110247   0.995   2.370   0.907
 3116SOL    HW210248   0.843   2.334   0.954
 3117SOL     OW10249   4.980   2.455   6.223
 3117SOL    HW110250   4.980   2.432   6.320
 3117SOL    HW210251   5.028   2.383   6.172
 3118SOL     OW10252   1.277   0.411   3.135
 3118SOL    HW110253   1.243   0.329   3.181
 3118SOL    HW210254   1.315   0.385   3.046
 3119SOL     OW10255   3.156   2.815   5.751
 3119SOL    HW110256   3.059   2.812   5.775
 3119SOL    HW210257   3.169   2.785   5.657
 3120SOL     OW10258   3.040   0.314   5.249
 3120SOL    HW110259   3.029   0.410   5.276
 3120SOL    HW210260   2.969   0.290   5.183
 3121SOL     OW10261   5.159   1.956   4.576
 3121SOL    HW110262   5.090   1.906   4.524
 3121SOL    HW210263   5.120   2.039   4.614
 3122SOL     OW10264   4.476   4.598   4.475
 3122SOL    HW110265   4.418   4.679   4.484
 3122SOL    HW210266   4.476   4.547   4.561
 3123SOL     OW10267   2.359   0.672   3.760
 3123SOL    HW110268   2.432   0.626   3.710
 3123SOL    HW210269   2.364   0.647   3.857
 3124SOL     OW10270   5.449   6.410   4.366
 3124SOL    HW110271   5.547   6.403   4.348
 3124SOL    HW210272   5.400   6.351   4.303
 3125SOL     OW10273   0.816   2.899   5.127
 3125SOL    HW110274   0.911   2.910   5.100
 3125SOL    HW210275   0.806   2.812   5.177
 3126SOL     OW10276   5.883   5.454   5.006
 3126SOL    HW110277   5.815   5.394   5.049
 3126SOL    HW210278   5.974   5.431   5.041
 3127SOL     OW10279   1.082   2.595   4.970
 3127SOL    HW110280   1.171   2.621   4.932
 3127SOL    HW210281   1.012   2.604   4.900
 3128SOL     OW10282   3.377   0.751   0.582
 3128SOL    HW110283   3.392   0.772   0.678
 3128SOL    HW210284   3.439   0.678   0.553
 3129SOL     OW10285   5.248   3.264   1.313
 3129SOL    HW110286   5.201   3.343   1.275
 3129SOL    HW210287   5.342   3.289   1.338
 3130SOL     OW10288   1.523   4.210   0.878
 3130SOL    HW110289   1.598   4.145   0.884
 3130SOL    HW210290   1.498   4.241   0.969
 3131SOL     OW10291   6.888   3.458   2.352
 3131SOL    HW110292   6.900   3.460   2.253
 3131SOL    HW210293   6.922   3.371   2.388
 3132SOL     OW10294   4.388   4.927   0.222
 3132SOL    HW110295   4.389   4.829   0.242
 3132SOL    HW210296   4.391   4.941   0.123
 3133SOL     OW10297   3.276   0.613   3.383
 3133SOL    HW110298   3.251   0.705   3.414
 3133SOL    HW210299   3.369   0.593   3.412
 3134SOL     OW10300   3.530   4.856   2.312
 3134SOL    HW110301   3.607   4.798   2.337
 3134SOL    HW210302   3.469   4.808   2.249
 3135SOL     OW10303   5.758   0.188   5.979
 3135SOL    HW110304   5.740   0.259   5.911
 3135SOL    HW210305   5.720   0.101   5.947
 3136SOL     OW10306   6.089   0.860   2.534
 3136SOL    HW110307   6.052   0.768   2.551
 3136SOL    HW210308   6.029   0.908   2.471
 3137SOL     OW10309   6.446   0.172   1.546
 3137SOL    HW110310   6.464   0.092   1.489
 3137SOL    HW210311   6.387   0.236   1.496
 3138SOL     OW10312   5.243   5.255   3.954
 3138SOL    HW110313   5.264   5.353   3.956
 3138SOL    HW210314   5.304   5.206   4.016
 3139SOL     OW10315   3.106   4.880   1.704
 3139SOL    HW110316   3.061   4.804   1.658
 3139SOL    HW210317   3.201   4.857   1.722
 3140SOL     OW10318   6.656   6.038   5.498
 3140SOL    HW110319   6.626   6.082   5.583
 3140SOL    HW210320   6.707   6.104   5.443
 3141SOL     OW10321   0.339   2.206   0.287
 3141SOL    HW110322   0.416   2.256   0.246
 3141SOL    HW210323   0.355   2.194   0.385
 3142SOL     OW10324   4.335   0.317   2.777
 3142SOL    HW110325   4.349   0.341   2.681
 3142SOL    HW210326   4.241   0.341   2.803
 3143SOL     OW10327   6.115   2.259   0.084
 3143SOL    HW110328   6.090   2.188   0.018
 3143SOL    HW210329   6.210   2.284   0.071
 3144SOL     OW10330   4.219   3.810   6.787
 3144SOL    HW110331   4.149   3.804   6.715
 3144SOL    HW210332   4.183   3.768   6.870
 3145SOL     OW10333   2.116   6.410   1.994
 3145SOL    HW110334   2.130   6.408   2.093
 3145SOL    HW210335   2.078   6.323   1.964
 3146SOL     OW10336   0.531   0.930   5.328
 3146SOL    HW110337   0.543   1.028   5.347
 3146SOL    HW210338   0.620   0.886   5.319
 3147SOL     OW10339   3.959   5.232   6.344
 3147SOL    HW110340   3.867   5.259   6.315
 3147SOL    HW210341   4.017   5.220   6.263
 3148SOL     OW10342   0.263   6.824   2.968
 3148SOL    HW110343   0.166   6.800   2.970
 3148SOL    HW210344   0.273   6.923   2.975
 3149SOL     OW10345   2.996   1.129   6.996
 3149SOL    HW110346   3.031   1.144   6.903
 3149SOL    HW210347   2.971   1.216   0.010
 3150SOL     OW10348   6.749   5.345   5.540
 3150SOL    HW110349   6.699   5.352   5.454
 3150SOL    HW210350   6.725   5.423   5.599
 3151SOL     OW10351   6.995   2.099   6.384
 3151SOL    HW110352   6.962   2.055   6.301
 3151SOL    HW210353   6.976   2.041   6.463
 3152SOL     OW10354   1.092   4.279   6.621
 3152SOL    HW110355   1.113   4.321   6.710
 3152SOL    HW210356   1.170   4.224   6.591
 3153SOL     OW10357   6.392   4.768   0.198
 3153SOL    HW110358   6.361   4.859   0.226
 3153SOL    HW210359   6.441   4.725   0.274
 3154SOL     OW10360   5.853   1.193   1.819
 3154SOL    HW110361   5.952   1.193   1.832
 3154SOL    HW210362   5.814   1.276   1.859
 3155SOL     OW10363   6.415   4.693   0.607
 3155SOL    HW110364   6.401   4.688   0.706
 3155SOL    HW210365   6.508   4.727   0.589
 3156SOL     OW10366   3.460   4.129   2.344
 3156SOL    HW110367   3.410   4.105   2.427
 3156SOL    HW210368   3.510   4.214   2.359
 3157SOL     OW10369   1.019   2.237   4.857
 3157SOL    HW110370   0.974   2.256   4.945
 3157SOL    HW210371   0.954   2.194   4.794
 3158SOL     OW10372   2.756   2.042   5.835
 3158SOL    HW110373   2.829   2.111   5.843
 3158SOL    HW210374   2.796   1.951   5.845
 3159SOL     OW10375   5.401   7.011   0.809
 3159SOL    HW110376   5.493   6.987   0.779
 3159SOL    HW210377   5.390   0.084   0.808
 3160SOL     OW10378   1.753   7.006   5.455
 3160SOL    HW110379   1.666   6.958   5.443
 3160SOL    HW210380   1.827   6.950   5.417
 3161SOL     OW10381   2.024   2.879   2.775
 3161SOL    HW110382   2.055   2.784   2.778
 3161SOL    HW210383   1.966   2.893   2.695
 3162SOL     OW10384   2.528   5.466   6.880
 3162SOL    HW110385   2.471   5.512   6.949
 3162SOL    HW210386   2.478   5.388   6.843
 3163SOL     OW10387   4.294   3.251   0.069
 3163SOL    HW110388   4.378   3.305   0.079
 3163SOL    HW210389   4.241   3.286   7.019
 3164SOL     OW10390   3.401   5.851   1.993
 3164SOL    HW110391   3.411   5.927   1.929
 3164SOL    HW210392   3.303   5.830   2.005
 3165SOL     OW10393   1.245   4.791   0.641
 3165SOL    HW110394   1.262   4.695   0.665
 3165SOL    HW210395   1.185   4.832   0.710
 3166SOL     OW10396   4.046   1.109   4.441
 3166SOL    HW110397   4.072   1.017   4.412
 3166SOL    HW210398   4.046   1.170   4.362
 3167SOL     OW10399   6.059   4.390   0.518
 3167SOL    HW110400   5.969   4.404   0.476
 3167SOL    HW210401   6.051   4.322   0.591
 3168SOL     OW10402   5.580   2.100   1.465
 3168SOL    HW110403   5.632   2.186   1.473
 3168SOL    HW210404   5.483   2.121   1.455
 3169SOL     OW10405   1.957   4.846   2.817
 3169SOL    HW110406   1.861   4.849   2.844
 3169SOL    HW210407   1.992   4.753   2.828
 3170SOL     OW10408   4.034   6.202   2.474
 3170SOL    HW110409   4.035   6.114   2.521
 3170SOL    HW210410   3.955   6.205   2.412
 3171SOL     OW10411   5.121   2.365   2.202
 3171SOL    HW110412   5.079   2.427   2.136
 3171SOL    HW210413   5.054   2.296   2.231
 3172SOL     OW10414   0.593   5.287   0.072
 3172SOL    HW110415   0.683   5.289   0.029
 3172SOL    HW210416   0.555   5.379   0.073
 3173SOL     OW10417   2.735   2.641   6.754
 3173SOL    HW110418   2.637   2.620   6.762
 3173SOL    HW210419   2.778   2.577   6.690
 3174SOL     OW10420   2.348   2.687   6.057
 3174SOL    HW110421   2.418   2.667   5.989
 3174SOL    HW210422   2.293   2.605   6.073
 3175SOL     OW10423   5.874   1.468   2.745
 3175SOL    HW110424   5.879   1.381   2.793
 3175SOL    HW210425   5.862   1.451   2.647
 3176SOL     OW10426   0.148   3.370   5.262
 3176SOL    HW110427   0.176   3.274   5.271
 3176SOL    HW210428   0.048   3.373   5.250
 3177SOL     OW10429   5.390   4.327   3.918
 3177SOL    HW110430   5.450   4.255   3.882
 3177SOL    HW210431   5.441   4.413   3.923
 3178SOL     OW10432   5.779   2.242   6.933
 3178SOL    HW110433   5.818   2.319   6.984
 3178SOL    HW210434   5.704   2.202   6.984
 3179SOL     OW10435   1.484   1.919   1.929
 3179SOL    HW110436   1.433   1.843   1.888
 3179SOL    HW210437   1.450   1.935   2.022
 3180SOL     OW10438   5.956   6.457   0.011
 3180SOL    HW110439   5.940   6.555   0.026
 3180SOL    HW210440   5.942   6.407   0.096
 3181SOL     OW10441   6.947   1.262   4.059
 3181SOL    HW110442   6.946   1.339   3.995
 3181SOL    HW210443   6.970   1.178   4.011
 3182SOL     OW10444   2.977   0.733   6.868
 3182SOL    HW110445   3.037   0.793   6.921
 3182SOL    HW210446   2.885   0.735   6.906
 3183SOL     OW10447   4.639   4.801   2.446
 3183SOL    HW110448   4.564   4.780   2.383
 3183SOL    HW210449   4.714   4.737   2.431
 3184SOL     OW10450   0.591   2.068   3.191
 3184SOL    HW110451   0.526   2.125   3.242
 3184SOL    HW210452   0.683   2.080   3.228
 3185SOL     OW10453   6.247   6.457   5.859
 3185SOL    HW110454   6.234   6.430   5.763
 3185SOL    HW210455   6.247   6.375   5.916
 3186SOL     OW10456   2.282   1.068   0.375
 3186SOL    HW110457   2.358   1.071   0.441
 3186SOL    HW210458   2.195   1.075   0.423
 3187SOL     OW10459   3.367   5.315   2.200
 3187SOL    HW110460   3.314   5.294   2.281
 3187SOL    HW210461   3.378   5.415   2.192
 3188SOL     OW10462   2.175   5.645   4.911
 3188SOL    HW110463   2.220   5.640   4.822
 3188SOL    HW210464   2.238   5.612   4.982
 3189SOL     OW10465   2.044   1.233   0.165
 3189SOL    HW110466   2.078   1.187   0.247
 3189SOL    HW210467   1.957   1.193   0.138
 3190SOL     OW10468   6.583   5.334   6.262
 3190SOL    HW110469   6.601   5.305   6.168
 3190SOL    HW210470   6.510   5.403   6.262
 3191SOL     OW10471   4.345   5.667   2.139
 3191SOL    HW110472   4.422   5.604   2.140
 3191SOL    HW210473   4.364   5.744   2.078
 3192SOL     OW10474   0.014   2.772   0.802
 3192SOL    HW110475   0.056   2.694   0.755
 3192SOL    HW210476   0.029   2.765   0.900
 3193SOL     OW10477   4.205   1.064   5.168
 3193SOL    HW110478   4.181   1.151   5.125
 3193SOL    HW210479   4.256   1.082   5.253
 3194SOL     OW10480   0.802   1.108   5.553
 3194SOL    HW110481   0.741   1.137   5.479
 3194SOL    HW210482   0.847   1.189   5.592
 3195SOL     OW10483   0.508   1.062   2.042
 3195SOL    HW110484   0.589   1.080   2.098
 3195SOL    HW210485   0.529   1.081   1.946
 3196SOL     OW10486   0.087   1.052   6.331
 3196SOL    HW110487   0.073   1.122   6.401
 3196SOL    HW210488   0.136   0.974   6.370
 3197SOL     OW10489   2.373   6.821   5.575
 3197SOL    HW110490   2.400   6.906   5.620
 3197SOL    HW210491   2.451   6.759   5.572
 3198SOL     OW10492   6.248   2.313   3.664
 3198SOL    HW110493   6.193   2.388   3.701
 3198SOL    HW210494   6.259   2.242   3.734
 3199SOL     OW10495   5.573   4.857   3.287
 3199SOL    HW110496   5.486   4.889   3.324
 3199SOL    HW210497   5.638   4.933   3.282
 3200SOL     OW10498   6.205   3.981   2.935
 3200SOL    HW110499   6.245   3.900   2.977
 3200SOL    HW210500   6.208   4.057   3.000
 3201SOL     OW10501   5.828   5.260   3.547
 3201SOL    HW110502   5.808   5.172   3.505
 3201SOL    HW210503   5.917   5.293   3.514
 3202SOL     OW10504   1.172   5.373   1.153
 3202SOL    HW110505   1.175   5.281   1.191
 3202SOL    HW210506   1.251   5.425   1.184
 3203SOL     OW10507   5.034   1.096   1.426
 3203SOL    HW110508   4.947   1.100   1.377
 3203SOL    HW210509   5.037   1.169   1.494
 3204SOL     OW10510   3.085   1.368   3.375
 3204SOL    HW110511   3.051   1.306   3.305
 3204SOL    HW210512   3.163   1.419   3.340
 3205SOL     OW10513   4.903   2.571   5.749
 3205SOL    HW110514   4.883   2.571   5.847
 3205SOL    HW210515   4.851   2.643   5.705
 3206SOL     OW10516   2.792   3.685   1.423
 3206SOL    HW110517   2.890   3.701   1.434
 3206SOL    HW210518   2.777   3.596   1.381
 3207SOL     OW10519   1.462   1.168   6.193
 3207SOL    HW110520   1.458   1.069   6.183
 3207SOL    HW210521   1.418   1.195   6.278
 3208SOL     OW10522   5.939   5.580   6.154
 3208SOL    HW110523   5.902   5.637   6.227
 3208SOL    HW210524   5.865   5.526   6.113
 3209SOL     OW10525   3.470   5.382   5.047
 3209SOL    HW110526   3.444   5.409   5.140
 3209SOL    HW210527   3.421   5.300   5.020
 3210SOL     OW10528   0.930   5.159   1.850
 3210SOL    HW110529   0.897   5.078   1.801
 3210SOL    HW210530   1.016   5.137   1.896
 3211SOL     OW10531   1.654   5.052   0.469
 3211SOL    HW110532   1.562   5.012   0.470
 3211SOL    HW210533   1.707   5.016   0.545
 3212SOL     OW10534   2.938   6.881   2.259
 3212SOL    HW110535   2.892   6.850   2.342
 3212SOL    HW210536   3.008   6.948   2.283
 3213SOL     OW10537   1.674   0.069   6.280
 3213SOL    HW110538   1.639   7.002   6.266
 3213SOL    HW210539   1.743   0.089   6.212
 3214SOL     OW10540   4.501   6.600   2.954
 3214SOL    HW110541   4.407   6.603   2.919
 3214SOL    HW210542   4.528   6.691   2.984
 3215SOL     OW10543   1.003   3.618   0.441
 3215SOL    HW110544   0.953   3.532   0.446
 3215SOL    HW210545   0.956   3.687   0.497
 3216SOL     OW10546   5.561   4.855   1.039
 3216SOL    HW110547   5.587   4.948   1.014
 3216SOL    HW210548   5.606   4.829   1.124
 3217SOL     OW10549   0.435   5.432   2.408
 3217SOL    HW110550   0.355   5.468   2.455
 3217SOL    HW210551   0.406   5.371   2.333
 3218SOL     OW10552   5.874   2.198   3.614
 3218SOL    HW110553   5.787   2.218   3.660
 3218SOL    HW210554   5.938   2.157   3.679
 3219SOL     OW10555   7.021   1.083   4.941
 3219SOL    HW110556   6.985   0.999   4.900
 3219SOL    HW210557   0.093   1.074   4.956
 3220SOL     OW10558   0.857   5.701   6.806
 3220SOL    HW110559   0.878   5.773   6.873
 3220SOL    HW210560   0.790   5.638   6.845
 3221SOL     OW10561   3.526   6.952   2.290
 3221SOL    HW110562   3.583   6.870   2.283
 3221SOL    HW210563   3.584   0.005   2.308
 3222SOL     OW10564   2.930   1.081   1.945
 3222SOL    HW110565   2.935   0.981   1.939
 3222SOL    HW210566   3.015   1.117   1.982
 3223SOL     OW10567   2.482   6.173   0.309
 3223SOL    HW110568   2.548   6.117   0.359
 3223SOL    HW210569   2.508   6.269   0.315
 3224SOL     OW10570   5.373   2.286   4.990
 3224SOL    HW110571   5.304   2.355   4.969
 3224SOL    HW210572   5.370   2.264   5.087
 3225SOL     OW10573   4.428   1.468   5.078
 3225SOL    HW110574   4.445   1.440   4.984
 3225SOL    HW210575   4.377   1.554   5.080
 3226SOL     OW10576   1.804   0.289   1.309
 3226SOL    HW110577   1.716   0.263   1.269
 3226SOL    HW210578   1.878   0.242   1.261
 3227SOL     OW10579   3.445   2.980   6.709
 3227SOL    HW110580   3.510   2.903   6.705
 3227SOL    HW210581   3.360   2.954   6.663
 3228SOL     OW10582   6.727   3.939   0.106
 3228SOL    HW110583   6.768   3.896   0.186
 3228SOL    HW210584   6.715   4.036   0.123
 3229SOL     OW10585   3.625   0.287   5.556
 3229SOL    HW110586   3.545   0.239   5.522
 3229SOL    HW210587   3.625   0.284   5.656
 3230SOL     OW10588   1.609   5.566   5.693
 3230SOL    HW110589   1.704   5.569   5.726
 3230SOL    HW210590   1.566   5.482   5.724
 3231SOL     OW10591   2.579   0.990   2.501
 3231SOL    HW110592   2.504   1.003   2.566
 3231SOL    HW210593   2.650   1.058   2.518
 3232SOL     OW10594   4.218   5.717   3.961
 3232SOL    HW110595   4.164   5.801   3.950
 3232SOL    HW210596   4.193   5.651   3.890
 3233SOL     OW10597   6.798   2.897   0.390
 3233SOL    HW110598   6.887   2.936   0.416
 3233SOL    HW210599   6.766   2.943   0.307
 3234SOL     OW10600   1.715   2.861   0.278
 3234SOL    HW110601   1.746   2.862   0.373
 3234SOL    HW210602   1.756   2.938   0.229
 3235SOL     OW10603   6.452   6.571   2.043
 3235SOL    HW110604   6.504   6.643   1.998
 3235SOL    HW210605   6.472   6.483   2.000
 3236SOL     OW10606   1.408   4.314   0.659
 3236SOL    HW110607   1.443   4.253   0.730
 3236SOL    HW210608   1.375   4.260   0.581
 3237SOL     OW10609   6.334   1.955   3.392
 3237SOL    HW110610   6.290   1.890   3.331
 3237SOL    HW210611   6.293   2.045   3.380
 3238SOL     OW10612   6.093   5.340   6.794
 3238SOL    HW110613   6.009   5.311   6.841
 3238SOL    HW210614   6.069   5.383   6.707
 3239SOL     OW10615   6.721   0.100   3.253
 3239SOL    HW110616   6.724   0.178   3.316
 3239SOL    HW210617   6.700   0.132   3.160
 3240SOL     OW10618   6.840   0.458   5.733
 3240SOL    HW110619   6.820   0.360   5.738
 3240SOL    HW210620   6.788   0.499   5.658
 3241SOL     OW10621   4.917   1.614   6.216
 3241SOL    HW110622   4.825   1.576   6.211
 3241SOL    HW210623   4.925   1.690   6.152
 3242SOL     OW10624   5.077   3.451   5.695
 3242SOL    HW110625   5.030   3.423   5.611
 3242SOL    HW210626   5.027   3.527   5.738
 3243SOL     OW10627   4.638   5.386   0.392
 3243SOL    HW110628   4.734   5.402   0.415
 3243SOL    HW210629   4.601   5.465   0.345
 3244SOL     OW10630   5.960   6.065   6.674
 3244SOL    HW110631   5.937   6.124   6.752
 3244SOL    HW210632   5.995   6.121   6.599
 3245SOL     OW10633   4.847   2.334   4.135
 3245SOL    HW110634   4.871   2.428   4.111
 3245SOL    HW210635   4.822   2.329   4.232
 3246SOL     OW10636   6.429   0.340   2.989
 3246SOL    HW110637   6.413   0.329   2.891
 3246SOL    HW210638   6.518   0.302   3.013
 3247SOL     OW10639   6.905   4.897   2.094
 3247SOL    HW110640   6.826   4.848   2.056
 3247SOL    HW210641   6.873   4.964   2.161
 3248SOL     OW10642   5.547   2.485   2.458
 3248SOL    HW110643   5.620   2.417   2.456
 3248SOL    HW210644   5.460   2.443   2.433
 3249SOL     OW10645   3.530   3.753   3.889
 3249SOL    HW110646   3.461   3.708   3.946
 3249SOL    HW210647   3.591   3.807   3.948
 3250SOL     OW10648   5.073   6.909   3.227
 3250SOL    HW110649   5.159   6.867   3.256
 3250SOL    HW210650   4.999   6.879   3.287
 3251SOL     OW10651   2.795   0.771   4.555
 3251SOL    HW110652   2.739   0.765   4.638
 3251SOL    HW210653   2.857   0.849   4.563
 3252SOL     OW10654   2.760   0.605   2.893
 3252SOL    HW110655   2.759   0.668   2.815
 3252SOL    HW210656   2.723   0.517   2.866
 3253SOL     OW10657   4.624   3.487   0.903
 3253SOL    HW110658   4.548   3.550   0.889
 3253SOL    HW210659   4.590   3.393   0.899
 3254SOL     OW10660   5.109   0.077   5.964
 3254SOL    HW110661   5.121   0.090   6.063
 3254SOL    HW210662   5.113   0.166   5.918
 3255SOL     OW10663   5.557   6.199   0.899
 3255SOL    HW110664   5.609   6.129   0.850
 3255SOL    HW210665   5.464   6.201   0.864
 3256SOL     OW10666   4.088   1.708   1.280
 3256SOL    HW110667   4.006   1.698   1.225
 3256SOL    HW210668   4.162   1.654   1.240
 3257SOL     OW10669   2.585   1.754   1.778
 3257SOL    HW110670   2.567   1.834   1.836
 3257SOL    HW210671   2.663   1.703   1.814
 3258SOL     OW10672   3.397   5.069   3.609
 3258SOL    HW110673   3.345   4.984   3.607
 3258SOL    HW210674   3.334   5.146   3.624
 3259SOL     OW10675   4.965   5.354   4.248
 3259SOL    HW110676   4.972   5.299   4.165
 3259SOL    HW210677   4.886   5.325   4.302
 3260SOL     OW10678   1.376   3.662   1.732
 3260SOL    HW110679   1.340   3.597   1.799
 3260SOL    HW210680   1.471   3.639   1.711
 3261SOL     OW10681   4.461   0.614   2.159
 3261SOL    HW110682   4.555   0.625   2.124
 3261SOL    HW210683   4.460   0.635   2.257
 3262SOL     OW10684   3.983   2.125   2.044
 3262SOL    HW110685   3.901   2.182   2.038
 3262SOL    HW210686   3.961   2.040   2.093
 3263SOL     OW10687   3.415   1.156   3.337
 3263SOL    HW110688   3.377   1.230   3.282
 3263SOL    HW210689   3.364   1.149   3.423
 3264SOL     OW10690   2.090   5.025   1.226
 3264SOL    HW110691   1.991   5.026   1.240
 3264SOL    HW210692   2.126   5.117   1.239
 3265SOL     OW10693   5.652   6.332   6.337
 3265SOL    HW110694   5.686   6.330   6.431
 3265SOL    HW210695   5.634   6.238   6.306
 3266SOL     OW10696   2.862   4.206   6.866
 3266SOL    HW110697   2.862   4.149   6.784
 3266SOL    HW210698   2.954   4.205   6.907
 3267SOL     OW10699   2.900   6.971   1.983
 3267SOL    HW110700   2.811   6.986   2.026
 3267SOL    HW210701   2.961   6.927   2.049
 3268SOL     OW10702   1.303   4.593   1.057
 3268SOL    HW110703   1.252   4.515   1.094
 3268SOL    HW210704   1.393   4.597   1.101
 3269SOL     OW10705   0.274   5.253   1.540
 3269SOL    HW110706   0.304   5.197   1.617
 3269SOL    HW210707   0.338   5.328   1.526
 3270SOL     OW10708   1.746   3.142   6.558
 3270SOL    HW110709   1.742   3.223   6.616
 3270SOL    HW210710   1.841   3.120   6.538
 3271SOL     OW10711   6.992   3.335   1.270
 3271SOL    HW110712   6.894   3.328   1.285
 3271SOL    HW210713   7.018   3.431   1.259
 3272SOL     OW10714   2.851   4.512   6.866
 3272SOL    HW110715   2.906   4.569   6.805
 3272SOL    HW210716   2.874   4.416   6.850
 3273SOL     OW10717   5.757   5.009   6.153
 3273SOL    HW110718   5.705   4.956   6.220
 3273SOL    HW210719   5.831   5.058   6.199
 3274SOL     OW10720   5.881   0.473   1.184
 3274SOL    HW110721   5.919   0.426   1.264
 3274SOL    HW210722   5.934   0.448   1.103
 3275SOL     OW10723   4.779   1.152   0.610
 3275SOL    HW110724   4.722   1.098   0.671
 3275SOL    HW210725   4.765   1.122   0.516
 3276SOL     OW10726   4.522   6.059   7.007
 3276SOL    HW110727   4.496   5.987   6.942
 3276SOL    HW210728   4.533   6.145   6.958
 3277SOL     OW10729   3.700   1.477   0.954
 3277SOL    HW110730   3.702   1.562   0.901
 3277SOL    HW210731   3.793   1.445   0.971
 3278SOL     OW10732   0.403   0.398   5.796
 3278SOL    HW110733   0.416   0.489   5.755
 3278SOL    HW210734   0.492   0.357   5.814
 3279SOL     OW10735   5.083   0.088   1.070
 3279SOL    HW110736   5.125   0.172   1.104
 3279SOL    HW210737   4.999   0.070   1.120
 3280SOL     OW10738   4.671   4.302   4.341
 3280SOL    HW110739   4.696   4.276   4.434
 3280SOL    HW210740   4.718   4.243   4.276
 3281SOL     OW10741   0.659   4.516   1.262
 3281SOL    HW110742   0.673   4.468   1.349
 3281SOL    HW210743   0.679   4.453   1.187
 3282SOL     OW10744   6.719   4.386   5.077
 3282SOL    HW110745   6.717   4.486   5.081
 3282SOL    HW210746   6.668   4.349   5.155
 3283SOL     OW10747   3.702   1.353   1.570
 3283SOL    HW110748   3.650   1.270   1.547
 3283SOL    HW210749   3.652   1.433   1.537
 3284SOL     OW10750   1.514   5.826   5.239
 3284SOL    HW110751   1.600   5.827   5.290
 3284SOL    HW210752   1.441   5.791   5.297
 3285SOL     OW10753   5.839   1.581   4.871
 3285SOL    HW110754   5.766   1.571   4.804
 3285SOL    HW210755   5.918   1.626   4.830
 3286SOL     OW10756   3.223   2.617   1.493
 3286SOL    HW110757   3.305   2.671   1.507
 3286SOL    HW210758   3.167   2.619   1.576
 3287SOL     OW10759   0.529   0.458   0.240
 3287SOL    HW110760   0.546   0.551   0.272
 3287SOL    HW210761   0.465   0.460   0.163
 3288SOL     OW10762   2.082   0.010   0.145
 3288SOL    HW110763   2.109   0.104   0.124
 3288SOL    HW210764   2.000   0.011   0.202
 3289SOL     OW10765   2.748   1.972   6.484
 3289SOL    HW110766   2.749   1.872   6.486
 3289SOL    HW210767   2.734   2.003   6.390
 3290SOL     OW10768   6.980   5.223   0.952
 3290SOL    HW110769   6.973   5.153   0.882
 3290SOL    HW210770   0.049   5.229   0.983
 3291SOL     OW10771   2.871   0.856   6.004
 3291SOL    HW110772   2.931   0.936   6.010
 3291SOL    HW210773   2.878   0.803   6.088
 3292SOL     OW10774   0.233   1.147   0.777
 3292SOL    HW110775   0.300   1.142   0.851
 3292SOL    HW210776   0.181   1.232   0.785
 3293SOL     OW10777   6.395   5.113   1.472
 3293SOL    HW110778   6.451   5.033   1.450
 3293SOL    HW210779   6.451   5.196   1.464
 3294SOL     OW10780   4.846   2.059   5.976
 3294SOL    HW110781   4.904   1.994   6.024
 3294SOL    HW210782   4.769   2.084   6.035
 3295SOL     OW10783   1.022   3.571   1.582
 3295SOL    HW110784   1.082   3.492   1.592
 3295SOL    HW210785   1.072   3.655   1.605
 3296SOL     OW10786   0.431   0.865   3.925
 3296SOL    HW110787   0.338   0.887   3.953
 3296SOL    HW210788   0.479   0.821   4.000
 3297SOL     OW10789   3.163   1.919   5.299
 3297SOL    HW110790   3.172   1.868   5.384
 3297SOL    HW210791   3.161   2.017   5.319
 3298SOL     OW10792   6.743   2.455   5.531
 3298SOL    HW110793   6.729   2.491   5.438
 3298SOL    HW210794   6.660   2.410   5.562
 3299SOL     OW10795   3.933   5.900   2.765
 3299SOL    HW110796   3.980   5.974   2.813
 3299SOL    HW210797   3.837   5.923   2.754
 3300SOL     OW10798   1.357   0.516   5.786
 3300SOL    HW110799   1.290   0.456   5.829
 3300SOL    HW210800   1.358   0.604   5.833
 3301SOL     OW10801   1.627   3.495   3.470
 3301SOL    HW110802   1.716   3.458   3.444
 3301SOL    HW210803   1.596   3.451   3.554
 3302SOL     OW10804   1.273   4.562   6.094
 3302SOL    HW110805   1.372   4.571   6.101
 3302SOL    HW210806   1.238   4.510   6.173
 3303SOL     OW10807   3.127   3.478   0.425
 3303SOL    HW110808   3.195   3.443   0.490
 3303SOL    HW210809   3.037   3.477   0.469
 3304SOL     OW10810   2.273   5.576   6.141
 3304SOL    HW110811   2.247   5.541   6.051
 3304SOL    HW210812   2.241   5.670   6.151
 3305SOL     OW10813   3.026   0.529   1.789
 3305SOL    HW110814   3.017   0.588   1.870
 3305SOL    HW210815   3.123   0.518   1.768
 3306SOL     OW10816   1.023   5.793   5.395
 3306SOL    HW110817   1.074   5.818   5.477
 3306SOL    HW210818   1.071   5.826   5.314
 3307SOL     OW10819   0.656   0.031   5.390
 3307SOL    HW110820   0.565   0.015   5.427
 3307SOL    HW210821   0.719   6.989   5.427
 3308SOL     OW10822   3.533   5.360   1.184
 3308SOL    HW110823   3.520   5.371   1.282
 3308SOL    HW210824   3.483   5.280   1.152
 3309SOL     OW10825   6.277   4.761   4.307
 3309SOL    HW110826   6.325   4.676   4.285
 3309SOL    HW210827   6.179   4.742   4.318
 3310SOL     OW10828   0.641   4.140   4.667
 3310SOL    HW110829   0.562   4.200   4.681
 3310SOL    HW210830   0.622   4.050   4.707
 3311SOL     OW10831   2.947   3.673   0.662
 3311SOL    HW110832   3.028   3.666   0.720
 3311SOL    HW210833   2.868   3.697   0.718
 3312SOL     OW10834   4.029   2.881   5.643
 3312SOL    HW110835   4.024   2.972   5.601
 3312SOL    HW210836   4.124   2.850   5.646
 3313SOL     OW10837   0.827   6.947   3.526
 3313SOL    HW110838   0.917   6.949   3.482
 3313SOL    HW210839   0.770   6.878   3.483
 3314SOL     OW10840   3.110   0.780   2.075
 3314SOL    HW110841   3.106   0.680   2.079
 3314SOL    HW210842   3.019   0.816   2.052
 3315SOL     OW10843   0.859   4.244   4.844
 3315SOL    HW110844   0.760   4.233   4.832
 3315SOL    HW210845   0.906   4.212   4.762
 3316SOL     OW10846   4.020   0.707   5.063
 3316SOL    HW110847   4.081   0.691   5.141
 3316SOL    HW210848   3.925   0.709   5.095
 3317SOL     OW10849   5.014   1.959   2.526
 3317SOL    HW110850   4.953   1.880   2.539
 3317SOL    HW210851   5.087   1.956   2.595
 3318SOL     OW10852   1.466   1.127   6.925
 3318SOL    HW110853   1.531   1.186   6.973
 3318SOL    HW210854   1.501   1.108   6.833
 3319SOL     OW10855   5.779   0.520   3.640
 3319SOL    HW110856   5.811   0.575   3.717
 3319SOL    HW210857   5.853   0.461   3.607
 3320SOL     OW10858   6.326   0.837   0.081
 3320SOL    HW110859   6.372   0.924   0.099
 3320SOL    HW210860   6.331   0.816   7.010
 3321SOL     OW10861   5.946   1.803   0.948
 3321SOL    HW110862   6.042   1.777   0.943
 3321SOL    HW210863   5.889   1.721   0.944
 3322SOL     OW10864   0.128   2.740   1.099
 3322SOL    HW110865   0.112   2.835   1.071
 3322SOL    HW210866   0.201   2.737   1.167
 3323SOL     OW10867   2.489   1.919   0.870
 3323SOL    HW110868   2.498   1.948   0.775
 3323SOL    HW210869   2.472   1.999   0.928
 3324SOL     OW10870   4.695   5.340   5.785
 3324SOL    HW110871   4.669   5.433   5.813
 3324SOL    HW210872   4.776   5.312   5.836
 3325SOL     OW10873   0.071   3.254   6.933
 3325SOL    HW110874   0.160   3.212   6.919
 3325SOL    HW210875   0.076   3.351   6.910
 3326SOL     OW10876   4.597   1.432   1.605
 3326SOL    HW110877   4.637   1.481   1.528
 3326SOL    HW210878   4.550   1.497   1.664
 3327SOL     OW10879   2.382   5.306   1.381
 3327SOL    HW110880   2.286   5.284   1.393
 3327SOL    HW210881   2.412   5.367   1.454
 3328SOL     OW10882   3.541   2.043   1.085
 3328SOL    HW110883   3.494   2.116   1.133
 3328SOL    HW210884   3.639   2.047   1.106
 3329SOL     OW10885   5.796   6.871   5.425
 3329SOL    HW110886   5.851   6.912   5.353
 3329SOL    HW210887   5.836   6.894   5.514
 3330SOL     OW10888   6.259   3.682   1.766
 3330SOL    HW110889   6.292   3.591   1.740
 3330SOL    HW210890   6.201   3.675   1.847
 3331SOL     OW10891   2.437   2.880   1.139
 3331SOL    HW110892   2.437   2.961   1.199
 3331SOL    HW210893   2.531   2.859   1.112
 3332SOL     OW10894   5.886   5.239   0.183
 3332SOL    HW110895   5.845   5.167   0.239
 3332SOL    HW210896   5.891   5.323   0.236
 3333SOL     OW10897   4.365   5.942   6.401
 3333SOL    HW110898   4.378   6.024   6.455
 3333SOL    HW210899   4.319   5.872   6.456
 3334SOL     OW10900   3.610   3.418   1.433
 3334SOL    HW110901   3.597   3.349   1.362
 3334SOL    HW210902   3.677   3.384   1.499
 3335SOL     OW10903   4.733   5.775   5.310
 3335SOL    HW110904   4.671   5.765   5.232
 3335SOL    HW210905   4.684   5.817   5.387
 3336SOL     OW10906   3.081   5.261   5.064
 3336SOL    HW110907   3.013   5.191   5.046
 3336SOL    HW210908   3.171   5.229   5.032
 3337SOL     OW10909   3.272   3.056   1.327
 3337SOL    HW110910   3.369   3.061   1.352
 3337SOL    HW210911   3.218   3.105   1.395
 3338SOL     OW10912   6.306   3.345   1.426
 3338SOL    HW110913   6.238   3.287   1.380
 3338SOL    HW210914   6.295   3.439   1.396
 3339SOL     OW10915   6.951   6.927   0.033
 3339SOL    HW110916   6.952   7.011   0.087
 3339SOL    HW210917   6.989   6.852   0.088
 3340SOL     OW10918   3.621   0.302   1.472
 3340SOL    HW110919   3.677   0.248   1.536
 3340SOL    HW210920   3.678   0.372   1.430
 3341SOL     OW10921   1.600   6.559   4.008
 3341SOL    HW110922   1.508   6.520   4.009
 3341SOL    HW210923   1.628   6.580   4.102
 3342SOL     OW10924   2.376   6.151   4.059
 3342SOL    HW110925   2.403   6.232   4.008
 3342SOL    HW210926   2.353   6.177   4.153
 3343SOL     OW10927   4.834   2.857   0.433
 3343SOL    HW110928   4.907   2.794   0.461
 3343SOL    HW210929   4.848   2.946   0.476
 3344SOL     OW10930   5.428   4.172   4.879
 3344SOL    HW110931   5.418   4.076   4.851
 3344SOL    HW210932   5.343   4.203   4.921
 3345SOL     OW10933   2.340   3.726   5.902
 3345SOL    HW110934   2.297   3.693   5.985
 3345SOL    HW210935   2.421   3.671   5.882
 3346SOL     OW10936   1.422   0.975   1.506
 3346SOL    HW110937   1.366   0.967   1.588
 3346SOL    HW210938   1.503   1.030   1.525
 3347SOL     OW10939   0.771   5.414   3.635
 3347SOL    HW110940   0.739   5.319   3.631
 3347SOL    HW210941   0.759   5.449   3.728
 3348SOL     OW10942   3.203   2.937   3.291
 3348SOL    HW110943   3.160   2.847   3.303
 3348SOL    HW210944   3.153   3.004   3.346
 3349SOL     OW10945   0.891   4.612   4.685
 3349SOL    HW110946   0.821   4.610   4.613
 3349SOL    HW210947   0.980   4.632   4.644
 3350SOL     OW10948   1.348   2.115   6.542
 3350SOL    HW110949   1.262   2.164   6.531
 3350SOL    HW210950   1.376   2.116   6.638
 3351SOL     OW10951   5.008   0.324   2.447
 3351SOL    HW110952   5.104   0.342   2.466
 3351SOL    HW210953   4.985   0.359   2.355
 3352SOL     OW10954   6.999   3.632   0.407
 3352SOL    HW110955   0.014   3.701   0.466
 3352SOL    HW210956   0.021   3.545   0.418
 3353SOL     OW10957   1.333   6.870   2.139
 3353SOL    HW110958   1.420   6.827   2.114
 3353SOL    HW210959   1.296   6.825   2.220
 3354SOL     OW10960   6.427   2.536   4.115
 3354SOL    HW110961   6.352   2.574   4.169
 3354SOL    HW210962   6.391   2.473   4.047
 3355SOL     OW10963   1.149   1.246   0.182
 3355SOL    HW110964   1.116   1.218   0.273
 3355SOL    HW210965   1.217   1.318   0.192
 3356SOL     OW10966   1.996   3.072   0.183
 3356SOL    HW110967   1.984   3.072   0.282
 3356SOL    HW210968   2.040   3.157   0.154
 3357SOL     OW10969   2.406   4.765   1.917
 3357SOL    HW110970   2.450   4.818   1.990
 3357SOL    HW210971   2.460   4.683   1.898
 3358SOL     OW10972   4.537   6.702   1.539
 3358SOL    HW110973   4.603   6.643   1.585
 3358SOL    HW210974   4.571   6.796   1.536
 3359SOL     OW10975   0.094   0.455   4.044
 3359SOL    HW110976   0.012   0.449   3.988
 3359SOL    HW210977   0.175   0.458   3.985
 3360SOL     OW10978   0.422   1.192   0.972
 3360SOL    HW110979   0.513   1.234   0.974
 3360SOL    HW210980   0.414   1.126   1.047
 3361SOL     OW10981   0.110   4.552   2.463
 3361SOL    HW110982   0.198   4.533   2.419
 3361SOL    HW210983   0.058   4.615   2.406
 3362SOL     OW10984   3.551   1.271   4.466
 3362SOL    HW110985   3.625   1.290   4.401
 3362SOL    HW210986   3.464   1.272   4.417
 3363SOL     OW10987   0.469   0.533   6.181
 3363SOL    HW110988   0.460   0.510   6.278
 3363SOL    HW210989   0.388   0.584   6.152
 3364SOL     OW10990   1.310   4.866   5.095
 3364SOL    HW110991   1.320   4.939   5.028
 3364SOL    HW210992   1.399   4.847   5.137
 3365SOL     OW10993   0.257   2.702   5.364
 3365SOL    HW110994   0.160   2.697   5.387
 3365SOL    HW210995   0.281   2.794   5.334
 3366SOL     OW10996   6.457   0.775   5.158
 3366SOL    HW110997   6.393   0.846   5.130
 3366SOL    HW210998   6.496   0.731   5.077
 3367SOL     OW10999   1.970   2.881   1.672
 3367SOL    HW111000   2.016   2.964   1.704
 3367SOL    HW211001   2.006   2.855   1.582
 3368SOL     OW11002   0.331   5.980   0.059
 3368SOL    HW111003   0.408   5.916   0.060
 3368SOL    HW211004   0.271   5.961   7.008
 3369SOL     OW11005   3.526   2.104   5.844
 3369SOL    HW111006   3.517   2.204   5.841
 3369SOL    HW211007   3.440   2.064   5.875
 3370SOL     OW11008   6.509   6.687   5.476
 3370SOL    HW111009   6.501   6.595   5.439
 3370SOL    HW211010   6.603   6.719   5.465
 3371SOL     OW11011   0.627   4.314   2.461
 3371SOL    HW111012   0.585   4.259   2.533
 3371SOL    HW211013   0.627   4.262   2.375
 3372SOL     OW11014   1.059   1.389   2.763
 3372SOL    HW111015   1.070   1.452   2.686
 3372SOL    HW211016   1.148   1.354   2.792
 3373SOL     OW11017   6.726   1.245   3.827
 3373SOL    HW111018   6.755   1.340   3.816
 3373SOL    HW211019   6.796   1.193   3.876
 3374SOL     OW11020   3.102   5.684   4.312
 3374SOL    HW111021   3.147   5.617   4.253
 3374SOL    HW211022   3.163   5.709   4.387
 3375SOL     OW11023   4.280   4.790   4.551
 3375SOL    HW111024   4.329   4.876   4.567
 3375SOL    HW211025   4.197   4.789   4.606
 3376SOL     OW11026   4.168   3.530   2.837
 3376SOL    HW111027   4.160   3.587   2.919
 3376SOL    HW211028   4.265   3.511   2.819
 3377SOL     OW11029   0.300   6.731   4.462
 3377SOL    HW111030   0.389   6.767   4.437
 3377SOL    HW211031   0.311   6.657   4.528
 3378SOL     OW11032   6.686   0.755   1.502
 3378SOL    HW111033   6.663   0.706   1.418
 3378SOL    HW211034   6.684   0.692   1.580
 3379SOL     OW11035   6.804   5.039   6.240
 3379SOL    HW111036   6.829   5.115   6.300
 3379SOL    HW211037   6.867   4.962   6.256
 3380SOL     OW11038   6.229   5.787   5.828
 3380SOL    HW111039   6.266   5.818   5.740
 3380SOL    HW211040   6.153   5.847   5.855
 3381SOL     OW11041   1.891   1.940   0.167
 3381SOL    HW111042   1.944   1.940   0.082
 3381SOL    HW211043   1.797   1.914   0.148
 3382SOL     OW11044   0.885   1.334   0.975
 3382SOL    HW111045   0.961   1.311   0.915
 3382SOL    HW211046   0.799   1.304   0.933
 3383SOL     OW11047   5.488   4.953   2.254
 3383SOL    HW111048   5.558   4.925   2.319
 3383SOL    HW211049   5.423   4.878   2.239
 3384SOL     OW11050   2.880   3.370   5.056
 3384SOL    HW111051   2.809   3.413   5.112
 3384SOL    HW211052   2.958   3.346   5.114
 3385SOL     OW11053   0.486   3.690   4.007
 3385SOL    HW111054   0.568   3.747   3.997
 3385SOL    HW211055   0.432   3.693   3.922
 3386SOL     OW11056   6.130   3.030   5.358
 3386SOL    HW111057   6.216   2.980   5.360
 3386SOL    HW211058   6.121   3.086   5.440
 3387SOL     OW11059   2.249   0.809   2.738
 3387SOL    HW111060   2.265   0.900   2.698
 3387SOL    HW211061   2.329   0.782   2.792
 3388SOL     OW11062   5.849   3.522   1.015
 3388SOL    HW111063   5.917   3.501   0.945
 3388SOL    HW211064   5.859   3.458   1.092
 3389SOL     OW11065   4.311   5.342   4.739
 3389SOL    HW111066   4.236   5.391   4.695
 3389SOL    HW211067   4.386   5.331   4.674
 3390SOL     OW11068   4.812   4.280   5.690
 3390SOL    HW111069   4.781   4.344   5.759
 3390SOL    HW211070   4.801   4.186   5.723
 3391SOL     OW11071   5.651   2.385   4.917
 3391SOL    HW111072   5.555   2.360   4.929
 3391SOL    HW211073   5.677   2.375   4.821
 3392SOL     OW11074   2.746   1.074   3.428
 3392SOL    HW111075   2.790   1.006   3.488
 3392SOL    HW211076   2.647   1.066   3.436
 3393SOL     OW11077   6.696   6.573   0.652
 3393SOL    HW111078   6.757   6.497   0.671
 3393SOL    HW211079   6.606   6.538   0.627
 3394SOL     OW11080   5.960   3.467   1.325
 3394SOL    HW111081   6.017   3.385   1.329
 3394SOL    HW211082   5.865   3.442   1.342
 3395SOL     OW11083   6.999   3.792   3.955
 3395SOL    HW111084   6.992   3.764   3.859
 3395SOL    HW211085   7.010   3.891   3.960
 3396SOL     OW11086   0.517   2.678   3.245
 3396SOL    HW111087   0.511   2.581   3.221
 3396SOL    HW211088   0.509   2.689   3.344
 3397SOL     OW11089   3.052   1.313   5.730
 3397SOL    HW111090   2.992   1.316   5.811
 3397SOL    HW211091   2.996   1.301   5.648
 3398SOL     OW11092   1.376   6.829   4.362
 3398SOL    HW111093   1.426   6.743   4.371
 3398SOL    HW211094   1.357   6.847   4.265
 3399SOL     OW11095   4.857   4.040   3.990
 3399SOL    HW111096   4.843   4.059   4.087
 3399SOL    HW211097   4.810   4.109   3.936
 3400SOL     OW11098   3.979   0.926   5.285
 3400SOL    HW111099   4.017   0.963   5.200
 3400SOL    HW211100   3.922   0.846   5.263
 3401SOL     OW11101   6.894   3.763   0.720
 3401SOL    HW111102   6.946   3.825   0.779
 3401SOL    HW211103   6.936   3.672   0.722
 3402SOL     OW11104   4.785   6.065   0.686
 3402SOL    HW111105   4.740   6.124   0.619
 3402SOL    HW211106   4.758   5.970   0.670
 3403SOL     OW11107   3.566   0.496   4.421
 3403SOL    HW111108   3.633   0.568   4.440
 3403SOL    HW211109   3.612   0.407   4.422
 3404SOL     OW11110   3.884   1.533   0.502
 3404SOL    HW111111   3.836   1.453   0.467
 3404SOL    HW211112   3.982   1.513   0.509
 3405SOL     OW11113   6.601   3.527   4.470
 3405SOL    HW111114   6.646   3.464   4.407
 3405SOL    HW211115   6.505   3.502   4.480
 3406SOL     OW11116   1.173   4.024   1.741
 3406SOL    HW111117   1.219   4.101   1.697
 3406SOL    HW211118   1.160   4.045   1.838
 3407SOL     OW11119   1.649   5.361   0.486
 3407SOL    HW111120   1.608   5.353   0.395
 3407SOL    HW211121   1.707   5.281   0.502
 3408SOL     OW11122   4.796   4.559   4.883
 3408SOL    HW111123   4.716   4.521   4.929
 3408SOL    HW211124   4.871   4.569   4.948
 3409SOL     OW11125   3.503   6.263   5.718
 3409SOL    HW111126   3.527   6.333   5.786
 3409SOL    HW211127   3.524   6.173   5.755
 3410SOL     OW11128   5.892   6.236   0.356
 3410SOL    HW111129   5.838   6.174   0.413
 3410SOL    HW211130   5.830   6.295   0.304
 3411SOL     OW11131   6.980   2.573   2.011
 3411SOL    HW111132   6.952   2.664   2.042
 3411SOL    HW211133   0.005   2.582   1.925
 3412SOL     OW11134   4.520   2.639   6.828
 3412SOL    HW111135   4.439   2.650   6.771
 3412SOL    HW211136   4.595   2.603   6.773
 3413SOL     OW11137   4.926   0.965   2.938
 3413SOL    HW111138   4.935   0.923   3.029
 3413SOL    HW211139   4.830   0.963   2.910
 3414SOL     OW11140   2.310   1.460   5.333
 3414SOL    HW111141   2.399   1.500   5.353
 3414SOL    HW211142   2.314   1.409   5.247
 3415SOL     OW11143   2.185   4.214   4.278
 3415SOL    HW111144   2.234   4.223   4.365
 3415SOL    HW211145   2.216   4.131   4.231
 3416SOL     OW11146   6.566   5.105   6.979
 3416SOL    HW111147   6.626   5.182   6.956
 3416SOL    HW211148   6.552   5.049   6.897
 3417SOL     OW11149   6.317   6.117   3.261
 3417SOL    HW111150   6.291   6.140   3.354
 3417SOL    HW211151   6.239   6.076   3.213
 3418SOL     OW11152   3.953   0.159   4.828
 3418SOL    HW111153   4.027   0.172   4.893
 3418SOL    HW211154   3.867   0.145   4.877
 3419SOL     OW11155   3.172   5.667   5.760
 3419SOL    HW111156   3.094   5.729   5.762
 3419SOL    HW211157   3.182   5.628   5.669
 3420SOL     OW11158   5.206   2.272   3.482
 3420SOL    HW111159   5.125   2.263   3.540
 3420SOL    HW211160   5.238   2.182   3.454
 3421SOL     OW11161   6.404   0.397   6.169
 3421SOL    HW111162   6.393   0.340   6.088
 3421SOL    HW211163   6.500   0.398   6.197
 3422SOL     OW11164   2.292   6.504   0.951
 3422SOL    HW111165   2.251   6.585   0.993
 3422SOL    HW211166   2.391   6.509   0.958
 3423SOL     OW11167   2.322   0.003   0.610
 3423SOL    HW111168   2.337   0.065   0.687
 3423SOL    HW211169   2.374   6.945   0.624
 3424SOL     OW11170   2.949   0.291   2.366
 3424SOL    HW111171   2.904   0.242   2.440
 3424SOL    HW211172   3.014   0.230   2.321
 3425SOL     OW11173   4.913   4.437   2.031
 3425SOL    HW111174   4.824   4.418   2.071
 3425SOL    HW211175   4.913   4.410   1.934
 3426SOL     OW11176   3.384   2.848   7.011
 3426SOL    HW111177   3.463   2.902   0.013
 3426SOL    HW211178   3.394   2.753   0.016
 3427SOL     OW11179   6.507   6.814   6.633
 3427SOL    HW111180   6.417   6.851   6.659
 3427SOL    HW211181   6.579   6.864   6.682
 3428SOL     OW11182   3.797   4.898   1.642
 3428SOL    HW111183   3.830   4.947   1.562
 3428SOL    HW211184   3.745   4.818   1.614
 3429SOL     OW11185   0.443   1.712   0.067
 3429SOL    HW111186   0.540   1.690   0.058
 3429SOL    HW211187   0.431   1.778   0.142
 3430SOL     OW11188   0.224   0.108   5.784
 3430SOL    HW111189   0.250   0.195   5.743
 3430SOL    HW211190   0.215   0.119   5.883
 3431SOL     OW11191   1.944   6.936   1.254
 3431SOL    HW111192   1.875   6.905   1.188
 3431SOL    HW211193   1.967   0.005   1.236
 3432SOL     OW11194   2.697   2.464   6.296
 3432SOL    HW111195   2.665   2.555   6.318
 3432SOL    HW211196   2.795   2.457   6.319
 3433SOL     OW11197   1.578   6.593   6.411
 3433SOL    HW111198   1.617   6.653   6.481
 3433SOL    HW211199   1.609   6.623   6.321
 3434SOL     OW11200   3.489   2.979   1.042
 3434SOL    HW111201   3.518   2.914   0.972
 3434SOL    HW211202   3.453   2.929   1.121
 3435SOL     OW11203   0.951   2.369   1.693
 3435SOL    HW111204   1.010   2.297   1.658
 3435SOL    HW211205   0.921   2.346   1.785
 3436SOL     OW11206   4.376   6.822   5.558
 3436SOL    HW111207   4.285   6.847   5.591
 3436SOL    HW211208   4.422   6.904   5.523
 3437SOL     OW11209   4.537   0.274   6.485
 3437SOL    HW111210   4.612   0.214   6.458
 3437SOL    HW211211   4.560   0.320   6.571
 3438SOL     OW11212   1.203   2.427   6.847
 3438SOL    HW111213   1.197   2.493   6.922
 3438SOL    HW211214   1.298   2.397   6.837
 3439SOL     OW11215   1.969   0.345   6.028
 3439SOL    HW111216   1.911   0.411   6.075
 3439SOL    HW211217   1.935   0.331   5.935
 3440SOL     OW11218   4.578   3.472   1.698
 3440SOL    HW111219   4.480   3.455   1.698
 3440SOL    HW211220   4.625   3.399   1.745
 3441SOL     OW11221   5.216   0.579   3.750
 3441SOL    HW111222   5.248   0.599   3.843
 3441SOL    HW211223   5.191   0.483   3.743
 3442SOL     OW11224   3.072   4.902   2.620
 3442SOL    HW111225   3.007   4.926   2.692
 3442SOL    HW211226   3.165   4.915   2.653
 3443SOL     OW11227   5.664   0.877   2.543
 3443SOL    HW111228   5.603   0.799   2.558
 3443SOL    HW211229   5.620   0.943   2.482
 3444SOL     OW11230   5.241   4.860   0.013
 3444SOL    HW111231   5.297   4.779   7.021
 3444SOL    HW211232   5.300   4.938   0.034
 3445SOL     OW11233   5.875   5.115   3.986
 3445SOL    HW111234   5.920   5.189   3.936
 3445SOL    HW211235   5.907   5.114   4.081
 3446SOL     OW11236   6.364   1.159   3.214
 3446SOL    HW111237   6.342   1.179   3.310
 3446SOL    HW211238   6.311   1.219   3.155
 3447SOL     OW11239   5.813   4.337   0.718
 3447SOL    HW111240   5.771   4.423   0.687
 3447SOL    HW211241   5.762   4.260   0.680
 3448SOL     OW11242   3.140   0.289   0.509
 3448SOL    HW111243   3.233   0.279   0.472
 3448SOL    HW211244   3.089   0.204   0.495
 3449SOL     OW11245   5.732   6.501   3.721
 3449SOL    HW111246   5.747   6.461   3.631
 3449SOL    HW211247   5.766   6.595   3.722
 3450SOL     OW11248   0.607   2.605   0.375
 3450SOL    HW111249   0.530   2.631   0.434
 3450SOL    HW211250   0.625   2.678   0.310
 3451SOL     OW11251   0.536   5.457   3.417
 3451SOL    HW111252   0.496   5.466   3.509
 3451SOL    HW211253   0.503   5.531   3.359
 3452SOL     OW11254   5.517   1.583   0.075
 3452SOL    HW111255   5.520   1.510   0.143
 3452SOL    HW211256   5.599   1.581   0.019
 3453SOL     OW11257   6.874   5.811   5.600
 3453SOL    HW111258   6.811   5.885   5.577
 3453SOL    HW211259   6.864   5.788   5.696
 3454SOL     OW11260   2.283   1.082   5.638
 3454SOL    HW111261   2.380   1.056   5.644
 3454SOL    HW211262   2.249   1.105   5.729
 3455SOL     OW11263   1.932   2.952   4.163
 3455SOL    HW111264   1.837   2.961   4.192
 3455SOL    HW211265   1.989   3.015   4.214
 3456SOL     OW11266   5.329   6.504   2.160
 3456SOL    HW111267   5.371   6.416   2.182
 3456SOL    HW211268   5.374   6.542   2.079
 3457SOL     OW11269   2.386   5.551   3.983
 3457SOL    HW111270   2.331   5.634   3.973
 3457SOL    HW211271   2.352   5.480   3.921
 3458SOL     OW11272   5.451   6.776   0.212
 3458SOL    HW111273   5.376   6.842   0.219
 3458SOL    HW211274   5.517   6.792   0.286
 3459SOL     OW11275   6.225   4.358   2.940
 3459SOL    HW111276   6.130   4.387   2.942
 3459SOL    HW211277   6.256   4.353   2.845
 3460SOL     OW11278   3.001   3.725   0.303
 3460SOL    HW111279   2.911   3.703   0.264
 3460SOL    HW211280   3.014   3.673   0.387
 3461SOL     OW11281   4.395   5.531   4.442
 3461SOL    HW111282   4.376   5.519   4.345
 3461SOL    HW211283   4.415   5.443   4.484
 3462SOL     OW11284   6.563   3.812   2.450
 3462SOL    HW111285   6.547   3.796   2.547
 3462SOL    HW211286   6.660   3.833   2.435
 3463SOL     OW11287   1.043   3.006   2.735
 3463SOL    HW111288   1.093   2.943   2.675
 3463SOL    HW211289   0.954   3.026   2.693
 3464SOL     OW11290   6.465   2.055   6.972
 3464SOL    HW111291   6.392   2.101   6.921
 3464SOL    HW211292   6.551   2.106   6.960
 3465SOL     OW11293   0.628   3.245   1.931
 3465SOL    HW111294   0.619   3.299   1.848
 3465SOL    HW211295   0.683   3.163   1.912
 3466SOL     OW11296   6.635   4.818   5.931
 3466SOL    HW111297   6.669   4.732   5.891
 3466SOL    HW211298   6.535   4.821   5.924
 3467SOL     OW11299   1.829   1.570   0.102
 3467SOL    HW111300   1.893   1.607   0.169
 3467SOL    HW211301   1.757   1.638   0.084
 3468SOL     OW11302   5.463   1.532   3.319
 3468SOL    HW111303   5.440   1.531   3.416
 3468SOL    HW211304   5.563   1.534   3.308
 3469SOL     OW11305   4.450   0.050   4.162
 3469SOL    HW111306   4.456   7.015   4.241
 3469SOL    HW211307   4.365   0.103   4.168
 3470SOL     OW11308   0.651   2.376   1.830
 3470SOL    HW111309   0.654   2.428   1.915
 3470SOL    HW211310   0.730   2.315   1.825
 3471SOL     OW11311   4.705   4.513   3.425
 3471SOL    HW111312   4.803   4.494   3.420
 3471SOL    HW211313   4.691   4.609   3.449
 3472SOL     OW11314   2.689   0.865   1.597
 3472SOL    HW111315   2.631   0.843   1.519
 3472SOL    HW211316   2.770   0.807   1.596
 3473SOL     OW11317   6.244   3.538   2.614
 3473SOL    HW111318   6.336   3.503   2.627
 3473SOL    HW211319   6.190   3.522   2.697
 3474SOL     OW11320   6.988   4.066   2.478
 3474SOL    HW111321   6.911   4.064   2.542
 3474SOL    HW211322   0.046   4.084   2.529
 3475SOL     OW11323   1.052   4.681   4.448
 3475SOL    HW111324   1.134   4.722   4.408
 3475SOL    HW211325   0.991   4.650   4.376
 3476SOL     OW11326   2.355   2.581   2.365
 3476SOL    HW111327   2.415   2.557   2.441
 3476SOL    HW211328   2.312   2.670   2.383
 3477SOL     OW11329   1.531   4.792   0.930
 3477SOL    HW111330   1.480   4.729   0.871
 3477SOL    HW211331   1.468   4.834   0.996
 3478SOL     OW11332   2.655   5.873   6.443
 3478SOL    HW111333   2.673   5.898   6.538
 3478SOL    HW211334   2.711   5.930   6.383
 3479SOL     OW11335   0.451   0.453   2.673
 3479SOL    HW111336   0.490   0.363   2.690
 3479SOL    HW211337   0.495   0.495   2.594
 3480SOL     OW11338   0.400   6.309   5.211
 3480SOL    HW111339   0.325   6.368   5.239
 3480SOL    HW211340   0.465   6.361   5.155
 3481SOL     OW11341   4.967   0.580   0.456
 3481SOL    HW111342   4.904   0.566   0.379
 3481SOL    HW211343   5.057   0.542   0.433
 3482SOL     OW11344   6.314   1.212   2.099
 3482SOL    HW111345   6.382   1.190   2.169
 3482SOL    HW211346   6.349   1.184   2.009
 3483SOL     OW11347   5.341   2.038   2.433
 3483SOL    HW111348   5.406   2.006   2.364
 3483SOL    HW211349   5.250   2.001   2.412
 3484SOL     OW11350   1.220   3.261   0.542
 3484SOL    HW111351   1.214   3.306   0.631
 3484SOL    HW211352   1.215   3.162   0.554
 3485SOL     OW11353   1.601   1.917   3.919
 3485SOL    HW111354   1.630   2.003   3.878
 3485SOL    HW211355   1.662   1.844   3.889
 3486SOL     OW11356   1.858   0.198   3.227
 3486SOL    HW111357   1.891   0.236   3.140
 3486SOL    HW211358   1.908   0.115   3.248
 3487SOL     OW11359   0.165   1.767   0.674
 3487SOL    HW111360   0.145   1.848   0.729
 3487SOL    HW211361   0.123   1.778   0.584
 3488SOL     OW11362   5.565   1.393   5.381
 3488SOL    HW111363   5.566   1.330   5.459
 3488SOL    HW211364   5.655   1.435   5.372
 3489SOL     OW11365   3.668   0.073   1.837
 3489SOL    HW111366   3.738   0.108   1.899
 3489SOL    HW211367   3.703   0.076   1.743
 3490SOL     OW11368   3.732   4.477   1.084
 3490SOL    HW111369   3.823   4.520   1.084
 3490SOL    HW211370   3.663   4.547   1.064
 3491SOL     OW11371   4.443   2.278   6.133
 3491SOL    HW111372   4.507   2.305   6.061
 3491SOL    HW211373   4.371   2.347   6.141
 3492SOL     OW11374   6.268   4.644   0.881
 3492SOL    HW111375   6.194   4.618   0.819
 3492SOL    HW211376   6.275   4.577   0.955
 3493SOL     OW11377   4.897   3.773   4.023
 3493SOL    HW111378   4.934   3.754   4.114
 3493SOL    HW211379   4.895   3.871   4.007
 3494SOL     OW11380   2.515   1.034   1.743
 3494SOL    HW111381   2.554   1.125   1.761
 3494SOL    HW211382   2.564   0.992   1.667
 3495SOL     OW11383   6.646   4.798   2.009
 3495SOL    HW111384   6.555   4.758   2.017
 3495SOL    HW211385   6.656   4.841   1.919
 3496SOL     OW11386   5.981   4.973   0.970
 3496SOL    HW111387   6.033   5.019   0.898
 3496SOL    HW211388   6.044   4.940   1.041
 3497SOL     OW11389   3.005   1.830   3.741
 3497SOL    HW111390   3.049   1.787   3.662
 3497SOL    HW211391   2.961   1.915   3.712
 3498SOL     OW11392   2.883   1.471   1.556
 3498SOL    HW111393   2.909   1.397   1.618
 3498SOL    HW211394   2.889   1.439   1.462
 3499SOL     OW11395   5.503   4.643   4.219
 3499SOL    HW111396   5.496   4.742   4.208
 3499SOL    HW211397   5.585   4.621   4.273
 3500SOL     OW11398   1.910   3.131   2.957
 3500SOL    HW111399   1.891   3.204   2.891
 3500SOL    HW211400   1.824   3.099   2.997
 3501SOL     OW11401   3.458   6.721   6.248
 3501SOL    HW111402   3.435   6.808   6.205
 3501SOL    HW211403   3.397   6.706   6.326
 3502SOL     OW11404   0.041   1.737   1.440
 3502SOL    HW111405   7.005   1.781   1.376
 3502SOL    HW211406   0.101   1.674   1.391
 3503SOL     OW11407   5.996   6.080   4.928
 3503SOL    HW111408   6.034   6.172   4.925
 3503SOL    HW211409   5.919   6.074   4.863
 3504SOL     OW11410   2.365   0.211   1.742
 3504SOL    HW111411   2.436   0.276   1.719
 3504SOL    HW211412   2.406   0.127   1.777
 3505SOL     OW11413   5.267   4.191   5.461
 3505SOL    HW111414   5.260   4.123   5.388
 3505SOL    HW211415   5.186   4.184   5.520
 3506SOL     OW11416   5.343   5.050   5.073
 3506SOL    HW111417   5.378   5.043   4.979
 3506SOL    HW211418   5.379   4.974   5.127
 3507SOL     OW11419   3.091   0.639   0.831
 3507SOL    HW111420   3.127   0.665   0.921
 3507SOL    HW211421   2.991   0.635   0.836
 3508SOL     OW11422   1.896   1.758   5.782
 3508SOL    HW111423   1.938   1.834   5.732
 3508SOL    HW211424   1.963   1.718   5.844
 3509SOL     OW11425   5.881   0.024   0.327
 3509SOL    HW111426   5.924   0.087   0.392
 3509SOL    HW211427   5.864   0.071   0.240
 3510SOL     OW11428   1.360   0.997   2.114
 3510SOL    HW111429   1.286   0.946   2.070
 3510SOL    HW211430   1.348   0.994   2.213
 3511SOL     OW11431   1.821   4.032   1.699
 3511SOL    HW111432   1.862   3.941   1.686
 3511SOL    HW211433   1.721   4.024   1.697
 3512SOL     OW11434   0.110   4.437   0.228
 3512SOL    HW111435   0.161   4.377   0.290
 3512SOL    HW211436   0.101   4.393   0.139
 3513SOL     OW11437   5.846   2.097   0.708
 3513SOL    HW111438   5.788   2.075   0.787
 3513SOL    HW211439   5.879   2.012   0.667
 3514SOL     OW11440   6.892   0.846   1.957
 3514SOL    HW111441   6.959   0.831   1.885
 3514SOL    HW211442   6.927   0.913   2.023
 3515SOL     OW11443   4.378   6.085   2.709
 3515SOL    HW111444   4.452   6.057   2.770
 3515SOL    HW211445   4.317   6.008   2.693
 3516SOL     OW11446   4.984   0.029   0.795
 3516SOL    HW111447   5.037   0.080   0.863
 3516SOL    HW211448   5.035   0.022   0.710
 3517SOL     OW11449   0.622   1.883   1.422
 3517SOL    HW111450   0.631   1.805   1.361
 3517SOL    HW211451   0.528   1.888   1.456
 3518SOL     OW11452   5.295   2.725   5.176
 3518SOL    HW111453   5.291   2.815   5.133
 3518SOL    HW211454   5.371   2.673   5.137
 3519SOL     OW11455   1.400   0.600   5.522
 3519SOL    HW111456   1.401   0.579   5.620
 3519SOL    HW211457   1.308   0.629   5.495
 3520SOL     OW11458   3.325   5.806   6.951
 3520SOL    HW111459   3.320   5.797   6.852
 3520SOL    HW211460   3.243   5.767   6.992
 3521SOL     OW11461   4.661   2.890   0.228
 3521SOL    HW111462   4.718   2.857   0.302
 3521SOL    HW211463   4.587   2.825   0.211
 3522SOL     OW11464   0.401   5.241   0.856
 3522SOL    HW111465   0.453   5.157   0.841
 3522SOL    HW211466   0.348   5.262   0.773
 3523SOL     OW11467   1.593   4.782   5.149
 3523SOL    HW111468   1.587   4.682   5.151
 3523SOL    HW211469   1.621   4.812   5.058
 3524SOL     OW11470   4.377   1.255   1.621
 3524SOL    HW111471   4.466   1.297   1.641
 3524SOL    HW211472   4.389   1.183   1.553
 3525SOL     OW11473   6.428   4.570   3.697
 3525SOL    HW111474   6.388   4.648   3.744
 3525SOL    HW211475   6.369   4.490   3.709
 3526SOL     OW11476   1.978   6.730   3.852
 3526SOL    HW111477   1.920   6.666   3.801
 3526SOL    HW211478   1.921   6.782   3.917
 3527SOL     OW11479   5.738   3.260   6.372
 3527SOL    HW111480   5.677   3.185   6.396
 3527SOL    HW211481   5.716   3.292   6.279
 3528SOL     OW11482   1.101   6.665   5.297
 3528SOL    HW111483   1.159   6.717   5.360
 3528SOL    HW211484   1.102   6.709   5.207
 3529SOL     OW11485   4.005   6.939   0.696
 3529SOL    HW111486   3.977   6.978   0.609
 3529SOL    HW211487   3.927   6.894   0.739
 3530SOL     OW11488   6.558   5.995   1.433
 3530SOL    HW111489   6.481   5.947   1.475
 3530SOL    HW211490   6.608   5.932   1.374
 3531SOL     OW11491   4.890   2.251   0.969
 3531SOL    HW111492   4.844   2.339   0.961
 3531SOL    HW211493   4.833   2.189   1.023
 3532SOL     OW11494   2.476   7.004   1.849
 3532SOL    HW111495   2.445   6.919   1.890
 3532SOL    HW211496   2.551   0.016   1.903
 3533SOL     OW11497   1.042   1.445   3.049
 3533SOL    HW111498   1.074   1.405   2.963
 3533SOL    HW211499   1.059   1.382   3.124
 3534SOL     OW11500   0.411   2.023   1.029
 3534SOL    HW111501   0.435   1.926   1.033
 3534SOL    HW211502   0.419   2.063   1.120
 3535SOL     OW11503   2.208   5.006   6.364
 3535SOL    HW111504   2.135   5.066   6.332
 3535SOL    HW211505   2.170   4.920   6.397
 3536SOL     OW11506   3.474   1.853   2.626
 3536SOL    HW111507   3.490   1.898   2.714
 3536SOL    HW211508   3.549   1.873   2.563
 3537SOL     OW11509   2.522   5.413   2.865
 3537SOL    HW111510   2.523   5.314   2.849
 3537SOL    HW211511   2.602   5.454   2.821
 3538SOL     OW11512   2.170   6.870   5.751
 3538SOL    HW111513   2.114   6.934   5.697
 3538SOL    HW211514   2.251   6.844   5.698
 3539SOL     OW11515   3.311   2.821   5.184
 3539SOL    HW111516   3.371   2.831   5.105
 3539SOL    HW211517   3.226   2.872   5.168
 3540SOL     OW11518   1.657   2.425   4.931
 3540SOL    HW111519   1.696   2.374   4.855
 3540SOL    HW211520   1.658   2.369   5.014
 3541SOL     OW11521   2.289   2.960   6.111
 3541SOL    HW111522   2.204   2.973   6.162
 3541SOL    HW211523   2.305   2.862   6.098
 3542SOL     OW11524   1.161   5.209   3.358
 3542SOL    HW111525   1.247   5.188   3.406
 3542SOL    HW211526   1.146   5.307   3.359
 3543SOL     OW11527   0.502   2.608   5.080
 3543SOL    HW111528   0.548   2.546   5.016
 3543SOL    HW211529   0.411   2.630   5.044
 3544SOL     OW11530   1.897   4.163   5.644
 3544SOL    HW111531   1.954   4.185   5.566
 3544SOL    HW211532   1.819   4.108   5.614
 3545SOL     OW11533   4.277   5.782   0.231
 3545SOL    HW111534   4.251   5.786   0.327
 3545SOL    HW211535   4.366   5.825   0.219
 3546SOL     OW11536   1.758   4.196   3.802
 3546SOL    HW111537   1.800   4.114   3.840
 3546SOL    HW211538   1.693   4.234   3.868
 3547SOL     OW11539   6.675   4.425   3.760
 3547SOL    HW111540   6.609   4.485   3.714
 3547SOL    HW211541   6.765   4.438   3.718
 3548SOL     OW11542   5.766   1.662   5.860
 3548SOL    HW111543   5.794   1.604   5.783
 3548SOL    HW211544   5.840   1.723   5.884
 3549SOL     OW11545   6.481   4.880   5.679
 3549SOL    HW111546   6.399   4.839   5.639
 3549SOL    HW211547   6.513   4.954   5.620
 3550SOL     OW11548   5.800   2.347   2.516
 3550SOL    HW111549   5.816   2.248   2.522
 3550SOL    HW211550   5.878   2.391   2.471
 3551SOL     OW11551   3.522   0.009   2.783
 3551SOL    HW111552   3.469   6.953   2.765
 3551SOL    HW211553   3.592   7.016   2.852
 3552SOL     OW11554   5.435   6.071   1.499
 3552SOL    HW111555   5.390   6.024   1.423
 3552SOL    HW211556   5.441   6.169   1.478
 3553SOL     OW11557   5.534   3.652   1.508
 3553SOL    HW111558   5.446   3.653   1.461
 3553SOL    HW211559   5.525   3.602   1.594
 3554SOL     OW11560   3.825   2.813   0.990
 3554SOL    HW111561   3.839   2.886   0.922
 3554SOL    HW211562   3.845   2.849   1.082
 3555SOL     OW11563   1.279   3.955   2.875
 3555SOL    HW111564   1.181   3.955   2.859
 3555SOL    HW211565   1.304   4.037   2.927
 3556SOL     OW11566   4.568   0.885   3.565
 3556SOL    HW111567   4.510   0.871   3.485
 3556SOL    HW211568   4.597   0.797   3.601
 3557SOL     OW11569   1.016   0.385   4.164
 3557SOL    HW111570   1.091   0.442   4.198
 3557SOL    HW211571   0.947   0.443   4.120
 3558SOL     OW11572   1.041   5.860   0.915
 3558SOL    HW111573   1.074   5.799   0.843
 3558SOL    HW211574   1.095   5.845   0.998
 3559SOL     OW11575   0.508   6.796   4.690
 3559SOL    HW111576   0.509   6.888   4.730
 3559SOL    HW211577   0.542   6.801   4.596
 3560SOL     OW11578   1.595   5.776   1.456
 3560SOL    HW111579   1.595   5.819   1.366
 3560SOL    HW211580   1.538   5.693   1.453
 3561SOL     OW11581   3.905   4.589   5.298
 3561SOL    HW111582   3.997   4.620   5.322
 3561SOL    HW211583   3.854   4.569   5.382
 3562SOL     OW11584   5.806   0.804   4.226
 3562SOL    HW111585   5.890   0.831   4.274
 3562SOL    HW211586   5.764   0.728   4.274
 3563SOL     OW11587   5.817   0.794   0.983
 3563SOL    HW111588   5.899   0.823   0.934
 3563SOL    HW211589   5.811   0.694   0.979
 3564SOL     OW11590   1.680   4.569   4.273
 3564SOL    HW111591   1.742   4.640   4.239
 3564SOL    HW211592   1.698   4.483   4.224
 3565SOL     OW11593   3.734   6.367   5.209
 3565SOL    HW111594   3.635   6.368   5.190
 3565SOL    HW211595   3.783   6.350   5.124
 3566SOL     OW11596   6.600   3.212   6.374
 3566SOL    HW111597   6.672   3.171   6.430
 3566SOL    HW211598   6.617   3.310   6.365
 3567SOL     OW11599   1.096   3.053   0.065
 3567SOL    HW111600   1.019   2.992   0.082
 3567SOL    HW211601   1.086   3.135   0.122
 3568SOL     OW11602   5.130   6.094   3.971
 3568SOL    HW111603   5.052   6.150   3.999
 3568SOL    HW211604   5.201   6.153   3.933
 3569SOL     OW11605   3.194   2.468   6.215
 3569SOL    HW111606   3.146   2.553   6.238
 3569SOL    HW211607   3.276   2.490   6.162
 3570SOL     OW11608   5.330   0.492   4.877
 3570SOL    HW111609   5.274   0.432   4.933
 3570SOL    HW211610   5.422   0.454   4.869
 3571SOL     OW11611   2.234   0.780   4.797
 3571SOL    HW111612   2.212   0.876   4.815
 3571SOL    HW211613   2.275   0.740   4.879
 3572SOL     OW11614   5.352   3.781   2.732
 3572SOL    HW111615   5.427   3.720   2.757
 3572SOL    HW211616   5.333   3.772   2.634
 3573SOL     OW11617   6.054   3.901   2.502
 3573SOL    HW111618   6.038   3.905   2.601
 3573SOL    HW211619   6.001   3.826   2.463
 3574SOL     OW11620   1.178   3.454   0.335
 3574SOL    HW111621   1.181   3.369   0.388
 3574SOL    HW211622   1.124   3.522   0.385
 3575SOL     OW11623   4.865   6.027   1.901
 3575SOL    HW111624   4.868   6.127   1.904
 3575SOL    HW211625   4.926   5.990   1.971
 3576SOL     OW11626   0.627   2.067   0.406
 3576SOL    HW111627   0.546   2.021   0.370
 3576SOL    HW211628   0.611   2.166   0.408
 3577SOL     OW11629   2.026   3.169   6.764
 3577SOL    HW111630   2.026   3.187   6.666
 3577SOL    HW211631   2.109   3.120   6.789
 3578SOL     OW11632   5.098   1.879   1.339
 3578SOL    HW111633   5.166   1.933   1.290
 3578SOL    HW211634   5.039   1.939   1.393
 3579SOL     OW11635   6.826   2.903   2.652
 3579SOL    HW111636   6.785   2.993   2.637
 3579SOL    HW211637   6.922   2.913   2.678
 3580SOL     OW11638   6.125   2.797   6.861
 3580SOL    HW111639   6.104   2.751   6.775
 3580SOL    HW211640   6.077   2.884   6.866
 3581SOL     OW11641   0.440   6.161   2.746
 3581SOL    HW111642   0.471   6.105   2.823
 3581SOL    HW211643   0.504   6.236   2.732
 3582SOL     OW11644   2.115   4.577   5.999
 3582SOL    HW111645   2.113   4.486   6.039
 3582SOL    HW211646   2.111   4.570   5.899
 3583SOL     OW11647   1.310   4.987   0.240
 3583SOL    HW111648   1.351   4.944   0.320
 3583SOL    HW211649   1.317   4.925   0.162
 3584SOL     OW11650   5.532   4.913   5.613
 3584SOL    HW111651   5.626   4.919   5.646
 3584SOL    HW211652   5.528   4.858   5.530
 3585SOL     OW11653   3.312   2.089   5.104
 3585SOL    HW111654   3.266   2.177   5.109
 3585SOL    HW211655   3.244   2.016   5.092
 3586SOL     OW11656   6.987   2.011   5.137
 3586SOL    HW111657   6.939   2.025   5.224
 3586SOL    HW211658   6.938   2.057   5.063
 3587SOL     OW11659   2.751   5.509   6.048
 3587SOL    HW111660   2.845   5.529   6.078
 3587SOL    HW211661   2.726   5.417   6.076
 3588SOL     OW11662   6.723   3.027   4.959
 3588SOL    HW111663   6.807   3.046   4.909
 3588SOL    HW211664   6.645   3.067   4.909
 3589SOL     OW11665   6.075   0.179   6.950
 3589SOL    HW111666   6.024   0.093   6.947
 3589SOL    HW211667   6.025   0.250   6.901
 3590SOL     OW11668   0.482   3.793   0.068
 3590SOL    HW111669   0.407   3.728   0.064
 3590SOL    HW211670   0.472   3.852   0.148
 3591SOL     OW11671   5.821   3.586   0.630
 3591SOL    HW111672   5.888   3.519   0.596
 3591SOL    HW211673   5.869   3.656   0.683
 3592SOL     OW11674   0.506   0.083   3.102
 3592SOL    HW111675   0.409   0.060   3.104
 3592SOL    HW211676   0.518   0.180   3.123
 3593SOL     OW11677   0.732   4.323   6.048
 3593SOL    HW111678   0.828   4.319   6.020
 3593SOL    HW211679   0.675   4.342   5.968
 3594SOL     OW11680   4.991   0.487   4.195
 3594SOL    HW111681   5.046   0.469   4.277
 3594SOL    HW211682   4.961   0.582   4.195
 3595SOL     OW11683   5.066   5.729   6.312
 3595SOL    HW111684   5.051   5.670   6.391
 3595SOL    HW211685   5.005   5.808   6.317
 3596SOL     OW11686   4.747   2.777   3.717
 3596SOL    HW111687   4.715   2.872   3.707
 3596SOL    HW211688   4.673   2.714   3.693
 3597SOL     OW11689   1.992   2.972   5.162
 3597SOL    HW111690   1.994   2.883   5.115
 3597SOL    HW211691   2.035   2.963   5.252
 3598SOL     OW11692   1.986   6.526   5.367
 3598SOL    HW111693   2.081   6.550   5.352
 3598SOL    HW211694   1.970   6.431   5.339
 3599SOL     OW11695   4.332   1.985   0.160
 3599SOL    HW111696   4.316   1.951   0.067
 3599SOL    HW211697   4.340   2.085   0.158
 3600SOL     OW11698   0.501   3.650   1.971
 3600SOL    HW111699   0.491   3.604   2.059
 3600SOL    HW211700   0.589   3.628   1.930
 3601SOL     OW11701   5.302   2.615   5.964
 3601SOL    HW111702   5.238   2.690   5.980
 3601SOL    HW211703   5.272   2.562   5.884
 3602SOL     OW11704   1.220   3.604   0.931
 3602SOL    HW111705   1.269   3.640   1.010
 3602SOL    HW211706   1.162   3.528   0.960
 3603SOL     OW11707   3.534   1.037   4.994
 3603SOL    HW111708   3.586   1.049   5.079
 3603SOL    HW211709   3.447   0.993   5.014
 3604SOL     OW11710   6.675   0.584   4.313
 3604SOL    HW111711   6.736   0.655   4.277
 3604SOL    HW211712   6.729   0.514   4.360
 3605SOL     OW11713   1.069   4.368   3.842
 3605SOL    HW111714   1.040   4.446   3.897
 3605SOL    HW211715   1.019   4.286   3.871
 3606SOL     OW11716   0.949   6.546   3.320
 3606SOL    HW111717   0.996   6.470   3.275
 3606SOL    HW211718   0.867   6.512   3.366
 3607SOL     OW11719   5.727   3.595   1.912
 3607SOL    HW111720   5.700   3.688   1.888
 3607SOL    HW211721   5.669   3.561   1.986
 3608SOL     OW11722   5.100   1.612   4.260
 3608SOL    HW111723   5.028   1.543   4.256
 3608SOL    HW211724   5.171   1.583   4.324
 3609SOL     OW11725   2.295   0.187   4.341
 3609SOL    HW111726   2.260   0.281   4.340
 3609SOL    HW211727   2.379   0.184   4.395
 3610SOL     OW11728   1.484   0.822   5.411
 3610SOL    HW111729   1.574   0.841   5.449
 3610SOL    HW211730   1.441   0.747   5.463
 3611SOL     OW11731   4.090   4.756   3.952
 3611SOL    HW111732   4.087   4.787   3.857
 3611SOL    HW211733   4.176   4.707   3.968
 3612SOL     OW11734   6.975   1.332   0.130
 3612SOL    HW111735   6.896   1.355   0.073
 3612SOL    HW211736   7.010   1.242   0.103
 3613SOL     OW11737   4.409   4.844   1.817
 3613SOL    HW111738   4.335   4.785   1.849
 3613SOL    HW211739   4.392   4.870   1.722
 3614SOL     OW11740   3.052   4.013   0.223
 3614SOL    HW111741   3.136   4.015   0.278
 3614SOL    HW211742   3.033   3.920   0.193
 3615SOL     OW11743   5.784   2.354   6.099
 3615SOL    HW111744   5.752   2.423   6.163
 3615SOL    HW211745   5.726   2.354   6.017
 3616SOL     OW11746   1.164   0.643   6.117
 3616SOL    HW111747   1.218   0.559   6.126
 3616SOL    HW211748   1.137   0.656   6.022
 3617SOL     OW11749   4.370   0.663   6.130
 3617SOL    HW111750   4.449   0.706   6.085
 3617SOL    HW211751   4.297   0.731   6.141
 3618SOL     OW11752   2.707   3.376   5.282
 3618SOL    HW111753   2.618   3.422   5.288
 3618SOL    HW211754   2.695   3.278   5.293
 3619SOL     OW11755   5.463   3.666   6.869
 3619SOL    HW111756   5.454   3.573   6.835
 3619SOL    HW211757   5.547   3.674   6.923
 3620SOL     OW11758   6.037   5.449   5.663
 3620SOL    HW111759   6.056   5.483   5.755
 3620SOL    HW211760   5.988   5.361   5.670
 3621SOL     OW11761   3.352   3.581   4.592
 3621SOL    HW111762   3.358   3.652   4.522
 3621SOL    HW211763   3.256   3.565   4.616
 3622SOL     OW11764   1.842   0.721   0.336
 3622SOL    HW111765   1.782   0.643   0.320
 3622SOL    HW211766   1.818   0.795   0.272
 3623SOL     OW11767   0.145   5.555   4.963
 3623SOL    HW111768   0.240   5.537   4.936
 3623SOL    HW211769   0.118   5.489   5.034
 3624SOL     OW11770   1.397   6.888   2.522
 3624SOL    HW111771   1.470   6.840   2.473
 3624SOL    HW211772   1.320   6.826   2.537
 3625SOL     OW11773   0.096   3.748   6.174
 3625SOL    HW111774   0.154   3.667   6.179
 3625SOL    HW211775   0.000   3.720   6.185
 3626SOL     OW11776   0.527   3.035   3.837
 3626SOL    HW111777   0.607   3.066   3.787
 3626SOL    HW211778   0.551   3.021   3.934
 3627SOL     OW11779   4.733   3.275   1.761
 3627SOL    HW111780   4.813   3.224   1.731
 3627SOL    HW211781   4.672   3.214   1.813
 3628SOL     OW11782   1.639   1.068   2.115
 3628SOL    HW111783   1.713   1.001   2.114
 3628SOL    HW211784   1.554   1.025   2.086
 3629SOL     OW11785   1.115   0.456   4.572
 3629SOL    HW111786   1.127   0.482   4.476
 3629SOL    HW211787   1.194   0.487   4.625
 3630SOL     OW11788   6.487   2.686   3.906
 3630SOL    HW111789   6.479   2.618   3.978
 3630SOL    HW211790   6.461   2.776   3.941
 3631SOL     OW11791   1.567   6.667   3.553
 3631SOL    HW111792   1.600   6.733   3.620
 3631SOL    HW211793   1.534   6.715   3.472
 3632SOL     OW11794   4.393   4.427   0.067
 3632SOL    HW111795   4.453   4.500   0.101
 3632SOL    HW211796   4.423   4.339   0.104
 3633SOL     OW11797   4.289   2.744   5.694
 3633SOL    HW111798   4.377   2.778   5.660
 3633SOL    HW211799   4.295   2.729   5.793
 3634SOL     OW11800   2.050   6.468   6.209
 3634SOL    HW111801   2.065   6.563   6.183
 3634SOL    HW211802   1.962   6.460   6.257
 3635SOL     OW11803   2.230   1.193   0.679
 3635SOL    HW111804   2.203   1.236   0.593
 3635SOL    HW211805   2.303   1.127   0.663
 3636SOL     OW11806   0.045   5.944   1.280
 3636SOL    HW111807   0.132   5.901   1.303
 3636SOL    HW211808   0.029   5.936   1.181
 3637SOL     OW11809   0.823   2.837   0.980
 3637SOL    HW111810   0.885   2.862   0.906
 3637SOL    HW211811   0.772   2.918   1.009
 3638SOL     OW11812   6.672   4.219   2.764
 3638SOL    HW111813   6.693   4.274   2.845
 3638SOL    HW211814   6.674   4.278   2.683
 3639SOL     OW11815   3.670   4.857   6.286
 3639SOL    HW111816   3.628   4.786   6.342
 3639SOL    HW211817   3.621   4.943   6.296
 3640SOL     OW11818   5.265   1.760   0.806
 3640SOL    HW111819   5.210   1.841   0.832
 3640SOL    HW211820   5.232   1.681   0.858
 3641SOL     OW11821   5.325   4.185   1.218
 3641SOL    HW111822   5.377   4.261   1.257
 3641SOL    HW211823   5.251   4.159   1.280
 3642SOL     OW11824   4.823   2.353   6.841
 3642SOL    HW111825   4.835   2.256   6.820
 3642SOL    HW211826   4.819   2.365   6.940
 3643SOL     OW11827   4.273   6.630   6.074
 3643SOL    HW111828   4.289   6.700   6.004
 3643SOL    HW211829   4.236   6.673   6.156
 3644SOL     OW11830   2.931   0.325   1.422
 3644SOL    HW111831   2.943   0.416   1.382
 3644SOL    HW211832   2.870   0.331   1.501
 3645SOL     OW11833   1.365   3.743   4.372
 3645SOL    HW111834   1.283   3.719   4.321
 3645SOL    HW211835   1.381   3.674   4.443
 3646SOL     OW11836   1.558   4.837   4.721
 3646SOL    HW111837   1.532   4.753   4.674
 3646SOL    HW211838   1.635   4.819   4.782
 3647SOL     OW11839   2.620   5.974   6.709
 3647SOL    HW111840   2.611   5.895   6.770
 3647SOL    HW211841   2.563   6.048   6.743
 3648SOL     OW11842   4.958   6.229   3.197
 3648SOL    HW111843   4.930   6.307   3.253
 3648SOL    HW211844   4.907   6.229   3.111
 3649SOL     OW11845   6.427   4.050   0.248
 3649SOL    HW111846   6.386   3.989   0.180
 3649SOL    HW211847   6.486   4.116   0.202
 3650SOL     OW11848   6.039   4.147   0.670
 3650SOL    HW111849   6.038   4.073   0.603
 3650SOL    HW211850   6.040   4.108   0.762
 3651SOL     OW11851   1.753   1.527   4.300
 3651SOL    HW111852   1.823   1.571   4.243
 3651SOL    HW211853   1.763   1.556   4.395
 3652SOL     OW11854   5.463   0.062   2.681
 3652SOL    HW111855   5.555   0.092   2.656
 3652SOL    HW211856   5.457   0.054   2.780
 3653SOL     OW11857   1.542   0.875   3.341
 3653SOL    HW111858   1.514   0.818   3.263
 3653SOL    HW211859   1.525   0.825   3.426
 3654SOL     OW11860   5.032   6.235   0.670
 3654SOL    HW111861   5.076   6.145   0.666
 3654SOL    HW211862   4.934   6.224   0.656
 3655SOL     OW11863   3.193   1.329   4.026
 3655SOL    HW111864   3.267   1.272   4.060
 3655SOL    HW211865   3.121   1.335   4.095
 3656SOL     OW11866   1.106   5.045   1.570
 3656SOL    HW111867   1.020   5.051   1.621
 3656SOL    HW211868   1.113   5.122   1.507
 3657SOL     OW11869   4.908   5.986   5.236
 3657SOL    HW111870   4.842   6.051   5.199
 3657SOL    HW211871   4.868   5.895   5.238
 3658SOL     OW11872   1.916   4.839   6.512
 3658SOL    HW111873   1.894   4.793   6.598
 3658SOL    HW211874   1.969   4.776   6.454
 3659SOL     OW11875   0.516   1.784   6.599
 3659SOL    HW111876   0.572   1.866   6.615
 3659SOL    HW211877   0.425   1.812   6.570
 3660SOL     OW11878   6.206   5.959   5.105
 3660SOL    HW111879   6.299   5.972   5.070
 3660SOL    HW211880   6.141   5.982   5.033
 3661SOL     OW11881   0.357   0.691   4.509
 3661SOL    HW111882   0.366   0.656   4.416
 3661SOL    HW211883   0.447   0.693   4.553
 3662SOL     OW11884   3.774   0.684   4.413
 3662SOL    HW111885   3.838   0.695   4.337
 3662SOL    HW211886   3.823   0.697   4.500
 3663SOL     OW11887   2.126   2.836   0.122
 3663SOL    HW111888   2.062   2.766   0.152
 3663SOL    HW211889   2.115   2.918   0.179
 3664SOL     OW11890   3.640   1.546   2.017
 3664SOL    HW111891   3.725   1.565   1.966
 3664SOL    HW211892   3.575   1.501   1.957
 3665SOL     OW11893   0.775   5.855   5.910
 3665SOL    HW111894   0.738   5.775   5.863
 3665SOL    HW211895   0.875   5.854   5.904
 3666SOL     OW11896   1.091   3.067   3.006
 3666SOL    HW111897   1.114   3.062   2.909
 3666SOL    HW211898   1.166   3.111   3.056
 3667SOL     OW11899   0.955   1.248   3.930
 3667SOL    HW111900   0.895   1.263   3.852
 3667SOL    HW211901   0.976   1.335   3.974
 3668SOL     OW11902   1.222   0.671   0.890
 3668SOL    HW111903   1.212   0.617   0.973
 3668SOL    HW211904   1.163   0.752   0.896
 3669SOL     OW11905   5.890   1.566   3.942
 3669SOL    HW111906   5.812   1.522   3.986
 3669SOL    HW211907   5.868   1.584   3.846
 3670SOL     OW11908   3.045   4.989   1.226
 3670SOL    HW111909   3.031   4.909   1.168
 3670SOL    HW211910   3.142   4.996   1.250
 3671SOL     OW11911   6.690   1.456   3.030
 3671SOL    HW111912   6.683   1.374   3.086
 3671SOL    HW211913   6.599   1.483   3.000
 3672SOL     OW11914   4.664   1.502   2.762
 3672SOL    HW111915   4.672   1.581   2.702
 3672SOL    HW211916   4.681   1.418   2.710
 3673SOL     OW11917   4.170   5.518   6.970
 3673SOL    HW111918   4.187   5.578   0.022
 3673SOL    HW211919   4.250   5.519   6.910
 3674SOL     OW11920   1.231   6.148   5.531
 3674SOL    HW111921   1.285   6.063   5.536
 3674SOL    HW211922   1.293   6.226   5.526
 3675SOL     OW11923   0.134   2.819   3.395
 3675SOL    HW111924   0.102   2.812   3.490
 3675SOL    HW211925   0.081   2.757   3.337
 3676SOL     OW11926   5.512   2.633   2.852
 3676SOL    HW111927   5.523   2.720   2.805
 3676SOL    HW211928   5.477   2.649   2.944
 3677SOL     OW11929   2.269   1.028   5.136
 3677SOL    HW111930   2.171   1.020   5.154
 3677SOL    HW211931   2.284   1.054   5.041
 3678SOL     OW11932   1.455   1.771   4.365
 3678SOL    HW111933   1.459   1.705   4.289
 3678SOL    HW211934   1.390   1.844   4.342
 3679SOL     OW11935   6.927   0.235   3.859
 3679SOL    HW111936   6.899   0.324   3.822
 3679SOL    HW211937   6.893   0.227   3.953
 3680SOL     OW11938   4.270   2.380   3.709
 3680SOL    HW111939   4.204   2.321   3.756
 3680SOL    HW211940   4.279   2.350   3.614
 3681SOL     OW11941   0.466   1.149   6.175
 3681SOL    HW111942   0.553   1.198   6.171
 3681SOL    HW211943   0.428   1.156   6.267
 3682SOL     OW11944   5.465   2.226   0.645
 3682SOL    HW111945   5.483   2.134   0.679
 3682SOL    HW211946   5.547   2.283   0.655
 3683SOL     OW11947   0.725   1.086   4.702
 3683SOL    HW111948   0.755   1.162   4.761
 3683SOL    HW211949   0.788   1.009   4.711
 3684SOL     OW11950   1.638   6.151   0.136
 3684SOL    HW111951   1.678   6.227   0.085
 3684SOL    HW211952   1.669   6.064   0.096
 3685SOL     OW11953   2.455   6.198   5.297
 3685SOL    HW111954   2.523   6.220   5.227
 3685SOL    HW211955   2.457   6.100   5.316
 3686SOL     OW11956   6.640   4.652   4.100
 3686SOL    HW111957   6.595   4.708   4.031
 3686SOL    HW211958   6.665   4.563   4.060
 3687SOL     OW11959   5.312   6.816   3.327
 3687SOL    HW111960   5.318   6.777   3.419
 3687SOL    HW211961   5.306   6.743   3.259
 3688SOL     OW11962   5.893   3.207   0.036
 3688SOL    HW111963   5.925   3.196   0.130
 3688SOL    HW211964   5.795   3.223   0.035
 3689SOL     OW11965   2.069   1.971   5.703
 3689SOL    HW111966   2.139   2.037   5.677
 3689SOL    HW211967   1.979   2.013   5.694
 3690SOL     OW11968   4.776   5.859   0.928
 3690SOL    HW111969   4.817   5.922   0.862
 3690SOL    HW211970   4.733   5.783   0.879
 3691SOL     OW11971   2.602   2.253   6.161
 3691SOL    HW111972   2.620   2.343   6.199
 3691SOL    HW211973   2.687   2.201   6.155
 3692SOL     OW11974   6.281   4.378   6.048
 3692SOL    HW111975   6.352   4.427   5.997
 3692SOL    HW211976   6.233   4.442   6.108
 3693SOL     OW11977   2.014   2.016   2.386
 3693SOL    HW111978   2.104   2.021   2.342
 3693SOL    HW211979   2.021   1.960   2.469
 3694SOL     OW11980   1.066   0.345   1.629
 3694SOL    HW111981   1.030   0.265   1.579
 3694SOL    HW211982   1.146   0.317   1.682
 3695SOL     OW11983   6.287   1.952   1.655
 3695SOL    HW111984   6.313   1.973   1.749
 3695SOL    HW211985   6.361   1.902   1.609
 3696SOL     OW11986   5.110   0.494   5.641
 3696SOL    HW111987   5.028   0.440   5.663
 3696SOL    HW211988   5.186   0.432   5.621
 3697SOL     OW11989   6.381   6.321   3.086
 3697SOL    HW111990   6.396   6.284   2.994
 3697SOL    HW211991   6.376   6.245   3.151
 3698SOL     OW11992   2.474   1.386   3.747
 3698SOL    HW111993   2.573   1.393   3.745
 3698SOL    HW211994   2.436   1.453   3.810
 3699SOL     OW11995   2.221   2.168   3.326
 3699SOL    HW111996   2.226   2.256   3.278
 3699SOL    HW211997   2.180   2.182   3.416
 3700SOL     OW11998   1.619   5.456   5.112
 3700SOL    HW111999   1.689   5.522   5.084
 3700SOL    HW212000   1.547   5.503   5.163
 3701SOL     OW12001   0.655   6.562   2.404
 3701SOL    HW112002   0.664   6.661   2.406
 3701SOL    HW212003   0.581   6.535   2.343
 3702SOL     OW12004   5.443   6.488   3.620
 3702SOL    HW112005   5.406   6.407   3.665
 3702SOL    HW212006   5.486   6.463   3.534
 3703SOL     OW12007   0.442   0.848   6.416
 3703SOL    HW112008   0.452   0.858   6.317
 3703SOL    HW212009   0.505   0.778   6.449
 3704SOL     OW12010   5.638   3.501   0.817
 3704SOL    HW112011   5.708   3.498   0.888
 3704SOL    HW212012   5.678   3.540   0.734
 3705SOL     OW12013   4.640   4.751   3.528
 3705SOL    HW112014   4.680   4.842   3.533
 3705SOL    HW212015   4.575   4.746   3.453
 3706SOL     OW12016   0.837   3.997   6.837
 3706SOL    HW112017   0.788   4.001   6.750
 3706SOL    HW212018   0.909   4.067   6.838
 3707SOL     OW12019   4.059   5.526   3.746
 3707SOL    HW112020   3.978   5.487   3.789
 3707SOL    HW212021   4.032   5.589   3.674
 3708SOL     OW12022   4.468   0.064   1.283
 3708SOL    HW112023   4.510   0.136   1.338
 3708SOL    HW212024   4.443   7.013   1.342
 3709SOL     OW12025   1.780   6.989   1.462
 3709SOL    HW112026   1.796   0.044   1.518
 3709SOL    HW212027   1.851   6.984   1.391
 3710SOL     OW12028   0.572   5.612   5.360
 3710SOL    HW112029   0.532   5.567   5.280
 3710SOL    HW212030   0.652   5.666   5.331
 3711SOL     OW12031   1.600   5.993   4.662
 3711SOL    HW112032   1.669   5.921   4.674
 3711SOL    HW212033   1.522   5.955   4.612
 3712SOL     OW12034   1.997   5.919   6.364
 3712SOL    HW112035   1.963   5.960   6.280
 3712SOL    HW212036   2.092   5.946   6.379
 3713SOL     OW12037   0.446   6.840   5.071
 3713SOL    HW112038   0.393   6.809   4.993
 3713SOL    HW212039   0.400   6.917   5.114
 3714SOL     OW12040   0.315   5.143   0.030
 3714SOL    HW112041   0.397   5.185   0.067
 3714SOL    HW212042   0.287   5.067   0.088
 3715SOL     OW12043   0.544   5.245   3.213
 3715SOL    HW112044   0.473   5.305   3.175
 3715SOL    HW212045   0.560   5.270   3.309
 3716SOL     OW12046   5.731   5.315   4.320
 3716SOL    HW112047   5.765   5.359   4.236
 3716SOL    HW212048   5.796   5.332   4.394
 3717SOL     OW12049   5.798   1.608   0.316
 3717SOL    HW112050   5.845   1.691   0.344
 3717SOL    HW212051   5.707   1.604   0.357
 3718SOL     OW12052   0.301   0.105   6.808
 3718SOL    HW112053   0.389   0.063   6.786
 3718SOL    HW212054   0.269   0.071   6.897
 3719SOL     OW12055   4.513   3.298   6.453
 3719SOL    HW112056   4.604   3.285   6.493
 3719SOL    HW212057   4.519   3.290   6.353
 3720SOL     OW12058   5.364   3.638   0.806
 3720SOL    HW112059   5.307   3.695   0.865
 3720SOL    HW212060   5.450   3.617   0.853
 3721SOL     OW12061   6.767   5.067   0.168
 3721SOL    HW112062   6.696   5.098   0.104
 3721SOL    HW212063   6.736   5.084   0.262
 3722SOL     OW12064   5.202   0.033   1.402
 3722SOL    HW112065   5.218   0.125   1.437
 3722SOL    HW212066   5.171   0.038   1.307
 3723SOL     OW12067   4.590   5.297   6.904
 3723SOL    HW112068   4.530   5.266   6.977
 3723SOL    HW212069   4.632   5.384   6.929
 3724SOL     OW12070   1.905   4.950   5.348
 3724SOL    HW112071   1.867   4.871   5.299
 3724SOL    HW212072   1.832   4.995   5.400
 3725SOL     OW12073   0.461   6.262   6.968
 3725SOL    HW112074   0.378   6.294   6.922
 3725SOL    HW212075   0.455   6.164   6.983
 3726SOL     OW12076   5.492   3.466   5.664
 3726SOL    HW112077   5.578   3.515   5.677
 3726SOL    HW212078   5.442   3.507   5.587
 3727SOL     OW12079   6.645   3.005   4.549
 3727SOL    HW112080   6.734   3.050   4.559
 3727SOL    HW212081   6.572   3.070   4.570
 3728SOL     OW12082   2.417   4.107   6.934
 3728SOL    HW112083   2.458   4.018   6.911
 3728SOL    HW212084   2.377   4.147   6.852
 3729SOL     OW12085   0.830   0.594   4.019
 3729SOL    HW112086   0.842   0.549   3.931
 3729SOL    HW212087   0.752   0.657   4.015
 3730SOL     OW12088   4.045   6.325   5.454
 3730SOL    HW112089   4.001   6.297   5.539
 3730SOL    HW212090   4.077   6.419   5.462
 3731SOL     OW12091   0.762   1.693   0.250
 3731SOL    HW112092   0.735   1.600   0.274
 3731SOL    HW212093   0.763   1.750   0.332
 3732SOL     OW12094   1.847   1.535   0.802
 3732SOL    HW112095   1.771   1.578   0.850
 3732SOL    HW212096   1.933   1.577   0.831
 3733SOL     OW12097   2.197   2.719   3.684
 3733SOL    HW112098   2.139   2.645   3.650
 3733SOL    HW212099   2.255   2.753   3.610
 3734SOL     OW12100   3.763   0.781   1.868
 3734SOL    HW112101   3.822   0.702   1.850
 3734SOL    HW212102   3.693   0.788   1.797
 3735SOL     OW12103   3.885   0.520   2.555
 3735SOL    HW112104   3.903   0.426   2.526
 3735SOL    HW212105   3.787   0.538   2.551
 3736SOL     OW12106   6.731   1.172   1.299
 3736SOL    HW112107   6.676   1.194   1.219
 3736SOL    HW212108   6.804   1.109   1.274
 3737SOL     OW12109   6.065   2.335   3.912
 3737SOL    HW112110   5.993   2.271   3.938
 3737SOL    HW212111   6.154   2.300   3.943
 3738SOL     OW12112   6.409   5.847   1.078
 3738SOL    HW112113   6.349   5.901   1.019
 3738SOL    HW212114   6.486   5.904   1.108
 3739SOL     OW12115   2.984   4.645   1.626
 3739SOL    HW112116   2.967   4.595   1.542
 3739SOL    HW212117   2.952   4.591   1.704
 3740SOL     OW12118   6.111   5.955   0.373
 3740SOL    HW112119   6.149   5.949   0.466
 3740SOL    HW212120   6.064   5.869   0.352
 3741SOL     OW12121   4.333   3.253   6.654
 3741SOL    HW112122   4.397   3.262   6.578
 3741SOL    HW212123   4.263   3.186   6.631
 3742SOL     OW12124   4.508   6.977   0.514
 3742SOL    HW112125   4.436   6.953   0.579
 3742SOL    HW212126   4.575   6.902   0.509
 3743SOL     OW12127   4.699   4.656   1.416
 3743SOL    HW112128   4.735   4.567   1.389
 3743SOL    HW212129   4.647   4.646   1.501
 3744SOL     OW12130   0.553   6.410   2.672
 3744SOL    HW112131   0.628   6.447   2.618
 3744SOL    HW212132   0.521   6.479   2.737
 3745SOL     OW12133   4.822   4.043   2.252
 3745SOL    HW112134   4.803   4.025   2.156
 3745SOL    HW212135   4.897   4.109   2.260
 3746SOL     OW12136   6.643   0.516   3.170
 3746SOL    HW112137   6.659   0.614   3.155
 3746SOL    HW212138   6.640   0.469   3.082
 3747SOL     OW12139   5.131   6.312   5.256
 3747SOL    HW112140   5.162   6.231   5.306
 3747SOL    HW212141   5.189   6.390   5.278
 3748SOL     OW12142   5.375   0.603   2.283
 3748SOL    HW112143   5.441   0.603   2.358
 3748SOL    HW212144   5.406   0.541   2.211
 3749SOL     OW12145   1.505   5.034   3.228
 3749SOL    HW112146   1.482   5.082   3.313
 3749SOL    HW212147   1.603   5.045   3.209
 3750SOL     OW12148   5.723   3.920   0.856
 3750SOL    HW112149   5.791   3.988   0.885
 3750SOL    HW212150   5.741   3.893   0.762
 3751SOL     OW12151   0.271   2.492   0.851
 3751SOL    HW112152   0.330   2.569   0.829
 3751SOL    HW212153   0.249   2.442   0.767
 3752SOL     OW12154   0.530   6.772   0.341
 3752SOL    HW112155   0.508   6.819   0.255
 3752SOL    HW212156   0.450   6.720   0.372
 3753SOL     OW12157   0.582   0.034   4.794
 3753SOL    HW112158   0.504   0.053   4.734
 3753SOL    HW212159   0.612   0.119   4.837
 3754SOL     OW12160   5.265   6.501   1.365
 3754SOL    HW112161   5.267   6.527   1.269
 3754SOL    HW212162   5.223   6.575   1.418
 3755SOL     OW12163   5.458   5.547   4.432
 3755SOL    HW112164   5.501   5.564   4.521
 3755SOL    HW212165   5.368   5.507   4.445
 3756SOL     OW12166   1.496   0.611   6.043
 3756SOL    HW112167   1.445   0.554   6.107
 3756SOL    HW212168   1.574   0.560   6.008
 3757SOL     OW12169   3.699   5.714   6.762
 3757SOL    HW112170   3.781   5.658   6.746
 3757SOL    HW212171   3.708   5.762   6.849
 3758SOL     OW12172   1.591   1.498   4.799
 3758SOL    HW112173   1.572   1.557   4.720
 3758SOL    HW212174   1.688   1.471   4.797
 3759SOL     OW12175   4.092   5.211   5.482
 3759SOL    HW112176   4.183   5.241   5.512
 3759SOL    HW212177   4.097   5.117   5.447
 3760SOL     OW12178   1.142   3.983   4.359
 3760SOL    HW112179   1.118   3.910   4.424
 3760SOL    HW212180   1.217   3.952   4.301
 3761SOL     OW12181   1.035   6.891   5.113
 3761SOL    HW112182   0.951   6.838   5.107
 3761SOL    HW212183   1.085   6.885   5.027
 3762SOL     OW12184   0.864   5.083   7.012
 3762SOL    HW112185   0.888   5.035   0.069
 3762SOL    HW212186   0.853   5.181   0.005
 3763SOL     OW12187   6.955   4.676   0.071
 3763SOL    HW112188   6.985   4.728   7.018
 3763SOL    HW212189   0.008   4.641   0.121
 3764SOL     OW12190   2.324   0.694   4.563
 3764SOL    HW112191   2.244   0.713   4.506
 3764SOL    HW212192   2.316   0.745   4.649
 3765SOL     OW12193   5.359   1.378   2.052
 3765SOL    HW112194   5.344   1.306   1.984
 3765SOL    HW212195   5.324   1.347   2.140
 3766SOL     OW12196   0.611   0.669   4.674
 3766SOL    HW112197   0.554   0.629   4.746
 3766SOL    HW212198   0.701   0.625   4.675
 3767SOL     OW12199   2.549   5.200   0.559
 3767SOL    HW112200   2.591   5.145   0.486
 3767SOL    HW212201   2.491   5.270   0.518
 3768SOL     OW12202   3.035   6.084   6.131
 3768SOL    HW112203   2.993   6.061   6.043
 3768SOL    HW212204   3.080   6.173   6.125
 3769SOL     OW12205   5.913   5.782   5.362
 3769SOL    HW112206   6.006   5.777   5.399
 3769SOL    HW212207   5.914   5.835   5.277
 3770SOL     OW12208   1.842   0.630   6.580
 3770SOL    HW112209   1.808   0.541   6.549
 3770SOL    HW212210   1.802   0.652   6.670
 3771SOL     OW12211   5.352   2.077   0.439
 3771SOL    HW112212   5.356   2.121   0.529
 3771SOL    HW212213   5.439   2.031   0.420
 3772SOL     OW12214   6.439   1.779   1.112
 3772SOL    HW112215   6.503   1.774   1.035
 3772SOL    HW212216   6.474   1.724   1.188
 3773SOL     OW12217   5.537   2.657   6.152
 3773SOL    HW112218   5.456   2.606   6.122
 3773SOL    HW212219   5.525   2.754   6.132
 3774SOL     OW12220   1.028   6.939   6.835
 3774SOL    HW112221   1.010   6.840   6.840
 3774SOL    HW212222   1.113   6.955   6.784
 3775SOL     OW12223   5.203   4.039   2.098
 3775SOL    HW112224   5.283   4.092   2.126
 3775SOL    HW212225   5.218   3.942   2.121
 3776SOL     OW12226   3.093   1.547   1.106
 3776SOL    HW112227   3.146   1.540   1.021
 3776SOL    HW212228   3.156   1.555   1.184
 3777SOL     OW12229   2.794   4.830   4.327
 3777SOL    HW112230   2.710   4.800   4.282
 3777SOL    HW212231   2.774   4.853   4.422
 3778SOL     OW12232   2.452   5.880   3.061
 3778SOL    HW112233   2.460   5.792   3.015
 3778SOL    HW212234   2.364   5.887   3.107
 3779SOL     OW12235   2.267   4.777   0.339
 3779SOL    HW112236   2.244   4.756   0.434
 3779SOL    HW212237   2.322   4.860   0.335
 3780SOL     OW12238   4.016   4.871   5.216
 3780SOL    HW112239   3.921   4.841   5.210
 3780SOL    HW212240   4.055   4.842   5.304
 3781SOL     OW12241   1.764   6.571   4.277
 3781SOL    HW112242   1.718   6.501   4.332
 3781SOL    HW212243   1.862   6.571   4.299
 3782SOL     OW12244   2.856   2.157   4.452
 3782SOL    HW112245   2.950   2.175   4.422
 3782SOL    HW212246   2.856   2.133   4.549
 3783SOL     OW12247   6.069   6.351   4.963
 3783SOL    HW112248   6.112   6.427   4.914
 3783SOL    HW212249   6.100   6.350   5.058
 3784SOL     OW12250   4.529   1.936   2.941
 3784SOL    HW112251   4.524   1.965   3.037
 3784SOL    HW212252   4.570   1.845   2.937
 3785SOL     OW12253   2.344   1.180   6.787
 3785SOL    HW112254   2.376   1.165   6.880
 3785SOL    HW212255   2.249   1.148   6.778
 3786SOL     OW12256   3.149   6.362   3.305
 3786SOL    HW112257   3.101   6.347   3.219
 3786SOL    HW212258   3.226   6.298   3.312
 3787SOL     OW12259   6.033   6.294   3.751
 3787SOL    HW112260   6.119   6.319   3.794
 3787SOL    HW212261   5.965   6.365   3.768
 3788SOL     OW12262   0.369   2.949   3.422
 3788SOL    HW112263   0.293   2.887   3.402
 3788SOL    HW212264   0.367   3.027   3.359
 3789SOL     OW12265   1.356   3.560   3.934
 3789SOL    HW112266   1.409   3.625   3.879
 3789SOL    HW212267   1.414   3.482   3.958
 3790SOL     OW12268   1.563   3.632   4.890
 3790SOL    HW112269   1.659   3.615   4.869
 3790SOL    HW212270   1.533   3.570   4.963
 3791SOL     OW12271   6.399   0.112   1.108
 3791SOL    HW112272   6.312   0.122   1.157
 3791SOL    HW212273   6.433   0.019   1.119
 3792SOL     OW12274   6.813   0.797   4.453
 3792SOL    HW112275   6.763   0.726   4.503
 3792SOL    HW212276   6.816   0.880   4.509
 3793SOL     OW12277   2.967   0.437   3.008
 3793SOL    HW112278   3.029   0.515   3.009
 3793SOL    HW212279   2.941   0.416   2.914
 3794SOL     OW12280   3.565   4.734   1.577
 3794SOL    HW112281   3.504   4.678   1.521
 3794SOL    HW212282   3.583   4.688   1.664
 3795SOL     OW12283   3.986   6.462   0.351
 3795SOL    HW112284   4.054   6.391   0.362
 3795SOL    HW212285   4.026   6.551   0.375
 3796SOL     OW12286   2.316   2.347   1.576
 3796SOL    HW112287   2.261   2.290   1.515
 3796SOL    HW212288   2.260   2.422   1.612
 3797SOL     OW12289   6.797   4.967   2.565
 3797SOL    HW112290   6.784   4.871   2.540
 3797SOL    HW212291   6.894   4.991   2.558
 3798SOL     OW12292   3.132   5.561   3.180
 3798SOL    HW112293   3.204   5.492   3.178
 3798SOL    HW212294   3.054   5.530   3.126
 3799SOL     OW12295   0.629   2.262   4.777
 3799SOL    HW112296   0.623   2.182   4.836
 3799SOL    HW212297   0.704   2.251   4.712
 3800SOL     OW12298   5.395   2.253   4.688
 3800SOL    HW112299   5.394   2.200   4.773
 3800SOL    HW212300   5.309   2.302   4.678
 3801SOL     OW12301   0.015   6.518   4.893
 3801SOL    HW112302   7.002   6.607   4.919
 3801SOL    HW212303   0.060   6.478   4.972
 3802SOL     OW12304   0.759   1.545   4.908
 3802SOL    HW112305   0.672   1.581   4.874
 3802SOL    HW212306   0.831   1.613   4.896
 3803SOL     OW12307   3.777   1.681   1.645
 3803SOL    HW112308   3.841   1.612   1.611
 3803SOL    HW212309   3.700   1.688   1.582
 3804SOL     OW12310   5.206   2.410   4.125
 3804SOL    HW112311   5.146   2.378   4.198
 3804SOL    HW212312   5.151   2.449   4.051
 3805SOL     OW12313   2.714   3.689   1.680
 3805SOL    HW112314   2.777   3.720   1.751
 3805SOL    HW212315   2.754   3.707   1.590
 3806SOL     OW12316   2.304   2.999   7.021
 3806SOL    HW112317   2.350   2.947   6.950
 3806SOL    HW212318   2.233   2.943   0.037
 3807SOL     OW12319   2.460   1.552   4.413
 3807SOL    HW112320   2.550   1.517   4.386
 3807SOL    HW212321   2.466   1.594   4.503
 3808SOL     OW12322   3.143   1.159   1.403
 3808SOL    HW112323   3.234   1.182   1.370
 3808SOL    HW212324   3.077   1.225   1.366
 3809SOL     OW12325   6.385   2.053   0.272
 3809SOL    HW112326   6.390   2.138   0.221
 3809SOL    HW212327   6.327   2.066   0.353
 3810SOL     OW12328   4.132   2.858   5.358
 3810SOL    HW112329   4.058   2.887   5.419
 3810SOL    HW212330   4.101   2.781   5.303
 3811SOL     OW12331   1.318   4.555   4.560
 3811SOL    HW112332   1.274   4.577   4.646
 3811SOL    HW212333   1.326   4.456   4.551
 3812SOL     OW12334   5.546   1.180   5.562
 3812SOL    HW112335   5.574   1.090   5.594
 3812SOL    HW212336   5.477   1.217   5.625
 3813SOL     OW12337   4.714   4.513   0.808
 3813SOL    HW112338   4.797   4.563   0.788
 3813SOL    HW212339   4.737   4.426   0.853
 3814SOL     OW12340   0.082   6.210   1.276
 3814SOL    HW112341   0.051   6.115   1.284
 3814SOL    HW212342   0.082   6.253   1.366
 3815SOL     OW12343   4.630   2.340   0.348
 3815SOL    HW112344   4.645   2.319   0.445
 3815SOL    HW212345   4.607   2.436   0.337
 3816SOL     OW12346   6.869   6.155   0.988
 3816SOL    HW112347   6.776   6.133   0.957
 3816SOL    HW212348   6.904   6.081   1.046
 3817SOL     OW12349   4.815   3.017   4.058
 3817SOL    HW112350   4.737   2.959   4.077
 3817SOL    HW212351   4.897   2.961   4.048
 3818SOL     OW12352   5.029   6.706   1.155
 3818SOL    HW112353   5.090   6.710   1.233
 3818SOL    HW212354   4.960   6.636   1.170
 3819SOL     OW12355   5.434   4.672   0.600
 3819SOL    HW112356   5.493   4.689   0.521
 3819SOL    HW212357   5.485   4.619   0.668
 3820SOL     OW12358   6.848   6.961   4.041
 3820SOL    HW112359   6.846   6.957   3.941
 3820SOL    HW212360   6.922   6.903   4.075
 3821SOL     OW12361   1.762   3.243   2.033
 3821SOL    HW112362   1.731   3.203   1.947
 3821SOL    HW212363   1.862   3.237   2.038
 3822SOL     OW12364   1.184   5.694   2.439
 3822SOL    HW112365   1.216   5.679   2.346
 3822SOL    HW212366   1.104   5.754   2.437
 3823SOL     OW12367   3.990   2.237   5.582
 3823SOL    HW112368   4.012   2.204   5.490
 3823SOL    HW212369   3.936   2.321   5.575
 3824SOL     OW12370   5.909   1.515   5.672
 3824SOL    HW112371   6.002   1.477   5.677
 3824SOL    HW212372   5.854   1.458   5.611
 3825SOL     OW12373   0.560   0.499   0.543
 3825SOL    HW112374   0.498   0.469   0.470
 3825SOL    HW212375   0.649   0.455   0.531
 3826SOL     OW12376   0.114   3.673   6.502
 3826SOL    HW112377   0.145   3.602   6.439
 3826SOL    HW212378   0.190   3.703   6.560
 3827SOL     OW12379   3.804   3.829   0.496
 3827SOL    HW112380   3.757   3.913   0.467
 3827SOL    HW212381   3.739   3.766   0.537
 3828SOL     OW12382   4.436   2.211   1.515
 3828SOL    HW112383   4.403   2.244   1.603
 3828SOL    HW212384   4.359   2.179   1.460
 3829SOL     OW12385   2.364   4.626   3.862
 3829SOL    HW112386   2.293   4.669   3.806
 3829SOL    HW212387   2.446   4.613   3.807
 3830SOL     OW12388   0.795   0.467   5.016
 3830SOL    HW112389   0.865   0.529   4.980
 3830SOL    HW212390   0.779   0.487   5.112
 3831SOL     OW12391   4.389   1.888   2.536
 3831SOL    HW112392   4.369   1.799   2.496
 3831SOL    HW212393   4.379   1.959   2.467
 3832SOL     OW12394   6.112   0.471   2.180
 3832SOL    HW112395   6.156   0.434   2.262
 3832SOL    HW212396   6.168   0.545   2.143
 3833SOL     OW12397   0.809   5.961   6.647
 3833SOL    HW112398   0.825   5.967   6.549
 3833SOL    HW212399   0.826   5.867   6.678
 3834SOL     OW12400   3.358   2.708   0.340
 3834SOL    HW112401   3.369   2.643   0.265
 3834SOL    HW212402   3.286   2.774   0.317
 3835SOL     OW12403   3.164   5.290   5.346
 3835SOL    HW112404   3.134   5.293   5.250
 3835SOL    HW212405   3.097   5.240   5.400
 3836SOL     OW12406   2.147   3.185   5.035
 3836SOL    HW112407   2.235   3.138   5.029
 3836SOL    HW212408   2.079   3.123   5.075
 3837SOL     OW12409   4.620   3.247   6.914
 3837SOL    HW112410   4.642   3.150   6.922
 3837SOL    HW212411   4.608   3.270   6.817
 3838SOL     OW12412   5.856   3.655   4.353
 3838SOL    HW112413   5.835   3.661   4.451
 3838SOL    HW212414   5.810   3.729   4.304
 3839SOL     OW12415   4.644   6.960   4.489
 3839SOL    HW112416   4.673   6.874   4.531
 3839SOL    HW212417   4.549   6.952   4.459
 3840SOL     OW12418   1.157   1.286   5.370
 3840SOL    HW112419   1.158   1.187   5.361
 3840SOL    HW212420   1.231   1.315   5.430
 3841SOL     OW12421   0.540   3.643   4.684
 3841SOL    HW112422   0.563   3.734   4.718
 3841SOL    HW212423   0.507   3.587   4.759
 3842SOL     OW12424   1.054   5.060   0.406
 3842SOL    HW112425   1.066   5.091   0.500
 3842SOL    HW212426   1.138   5.076   0.354
 3843SOL     OW12427   6.859   2.947   1.295
 3843SOL    HW112428   6.782   2.884   1.285
 3843SOL    HW212429   6.852   3.018   1.224
 3844SOL     OW12430   0.300   4.899   5.442
 3844SOL    HW112431   0.277   4.841   5.364
 3844SOL    HW212432   0.385   4.866   5.484
 3845SOL     OW12433   3.417   2.998   2.709
 3845SOL    HW112434   3.321   3.024   2.724
 3845SOL    HW212435   3.423   2.938   2.629
 3846SOL     OW12436   0.445   4.640   4.154
 3846SOL    HW112437   0.368   4.593   4.110
 3846SOL    HW212438   0.528   4.627   4.100
 3847SOL     OW12439   6.254   1.175   6.099
 3847SOL    HW112440   6.178   1.209   6.042
 3847SOL    HW212441   6.321   1.248   6.110
 3848SOL     OW12442   2.227   5.465   3.071
 3848SOL    HW112443   2.203   5.455   2.975
 3848SOL    HW212444   2.150   5.507   3.120
 3849SOL     OW12445   0.342   1.208   5.566
 3849SOL    HW112446   0.411   1.256   5.510
 3849SOL    HW212447   0.279   1.159   5.506
 3850SOL     OW12448   2.516   3.489   1.634
 3850SOL    HW112449   2.581   3.551   1.679
 3850SOL    HW212450   2.446   3.462   1.700
 3851SOL     OW12451   2.000   4.184   2.651
 3851SOL    HW112452   1.997   4.227   2.742
 3851SOL    HW212453   1.907   4.168   2.619
 3852SOL     OW12454   4.360   6.508   4.696
 3852SOL    HW112455   4.416   6.426   4.704
 3852SOL    HW212456   4.380   6.553   4.609
 3853SOL     OW12457   1.314   3.412   2.447
 3853SOL    HW112458   1.290   3.440   2.540
 3853SOL    HW212459   1.410   3.383   2.445
 3854SOL     OW12460   0.873   3.515   3.271
 3854SOL    HW112461   0.898   3.525   3.368
 3854SOL    HW212462   0.896   3.599   3.222
 3855SOL     OW12463   5.631   5.327   6.802
 3855SOL    HW112464   5.638   5.395   6.874
 3855SOL    HW212465   5.561   5.355   6.736
 3856SOL     OW12466   0.030   0.219   5.538
 3856SOL    HW112467   0.009   0.203   5.635
 3856SOL    HW212468   0.098   0.292   5.530
 3857SOL     OW12469   1.750   0.165   5.258
 3857SOL    HW112470   1.833   0.142   5.206
 3857SOL    HW212471   1.736   0.097   5.330
 3858SOL     OW12472   1.116   6.092   5.802
 3858SOL    HW112473   1.125   6.133   5.711
 3858SOL    HW212474   1.044   6.023   5.800
 3859SOL     OW12475   6.862   1.992   3.383
 3859SOL    HW112476   6.858   2.080   3.431
 3859SOL    HW212477   6.870   1.918   3.449
 3860SOL     OW12478   2.293   6.235   4.323
 3860SOL    HW112479   2.373   6.202   4.373
 3860SOL    HW212480   2.213   6.233   4.383
 3861SOL     OW12481   5.753   4.397   1.082
 3861SOL    HW112482   5.687   4.365   1.014
 3861SOL    HW212483   5.843   4.405   1.039
 3862SOL     OW12484   6.466   6.876   6.039
 3862SOL    HW112485   6.549   6.820   6.044
 3862SOL    HW212486   6.452   6.923   6.126
 3863SOL     OW12487   3.699   3.399   0.152
 3863SOL    HW112488   3.788   3.396   0.108
 3863SOL    HW212489   3.709   3.438   0.244
 3864SOL     OW12490   4.338   2.035   6.224
 3864SOL    HW112491   4.330   2.126   6.183
 3864SOL    HW212492   4.263   1.977   6.191
 3865SOL     OW12493   3.565   0.318   1.929
 3865SOL    HW112494   3.596   0.389   1.867
 3865SOL    HW212495   3.558   0.231   1.880
 3866SOL     OW12496   4.145   0.478   0.732
 3866SOL    HW112497   4.217   0.529   0.685
 3866SOL    HW212498   4.182   0.390   0.763
 3867SOL     OW12499   2.120   4.002   3.158
 3867SOL    HW112500   2.156   4.051   3.079
 3867SOL    HW212501   2.148   4.048   3.242
 3868SOL     OW12502   2.061   5.505   1.640
 3868SOL    HW112503   2.081   5.419   1.686
 3868SOL    HW212504   2.040   5.488   1.544
 3869SOL     OW12505   0.240   2.662   3.781
 3869SOL    HW112506   0.166   2.616   3.731
 3869SOL    HW212507   0.246   2.757   3.751
 3870SOL     OW12508   2.945   4.887   6.533
 3870SOL    HW112509   2.851   4.877   6.566
 3870SOL    HW212510   2.949   4.961   6.467
 3871SOL     OW12511   3.158   0.568   2.665
 3871SOL    HW112512   3.167   0.478   2.706
 3871SOL    HW212513   3.082   0.568   2.601
 3872SOL     OW12514   3.945   3.567   1.331
 3872SOL    HW112515   3.906   3.552   1.422
 3872SOL    HW212516   3.993   3.655   1.330
 3873SOL     OW12517   5.355   5.081   1.145
 3873SOL    HW112518   5.350   5.059   1.243
 3873SOL    HW212519   5.449   5.068   1.114
 3874SOL     OW12520   4.331   6.846   0.048
 3874SOL    HW112521   4.277   6.767   0.019
 3874SOL    HW212522   4.359   6.833   0.143
 3875SOL     OW12523   1.463   4.163   2.578
 3875SOL    HW112524   1.377   4.200   2.614
 3875SOL    HW212525   1.469   4.181   2.480
 3876SOL     OW12526   5.052   5.639   6.040
 3876SOL    HW112527   5.076   5.654   6.135
 3876SOL    HW212528   4.981   5.704   6.012
 3877SOL     OW12529   6.266   1.228   1.063
 3877SOL    HW112530   6.242   1.265   1.153
 3877SOL    HW212531   6.186   1.231   1.004
 3878SOL     OW12532   3.608   6.691   5.805
 3878SOL    HW112533   3.583   6.634   5.884
 3878SOL    HW212534   3.604   6.787   5.831
 3879SOL     OW12535   4.815   5.786   0.523
 3879SOL    HW112536   4.891   5.734   0.563
 3879SOL    HW212537   4.730   5.759   0.568
 3880SOL     OW12538   6.048   4.162   2.366
 3880SOL    HW112539   6.061   4.069   2.400
 3880SOL    HW212540   6.057   4.226   2.443
 3881SOL     OW12541   1.948   5.465   0.525
 3881SOL    HW112542   1.854   5.432   0.515
 3881SOL    HW212543   1.966   5.485   0.621
 3882SOL     OW12544   6.342   1.234   6.444
 3882SOL    HW112545   6.258   1.272   6.406
 3882SOL    HW212546   6.322   1.187   6.530
 3883SOL     OW12547   4.656   1.119   3.699
 3883SOL    HW112548   4.641   1.026   3.664
 3883SOL    HW212549   4.583   1.179   3.666
 3884SOL     OW12550   1.177   6.564   4.983
 3884SOL    HW112551   1.134   6.477   5.008
 3884SOL    HW212552   1.276   6.551   4.977
 3885SOL     OW12553   6.768   1.090   4.239
 3885SOL    HW112554   6.757   0.995   4.210
 3885SOL    HW212555   6.835   1.135   4.181
 3886SOL     OW12556   6.869   0.551   5.217
 3886SOL    HW112557   6.898   0.623   5.154
 3886SOL    HW212558   6.776   0.523   5.193
 3887SOL     OW12559   4.134   1.346   5.931
 3887SOL    HW112560   4.094   1.286   5.862
 3887SOL    HW212561   4.088   1.435   5.929
 3888SOL     OW12562   6.849   1.292   0.367
 3888SOL    HW112563   6.901   1.312   0.284
 3888SOL    HW212564   6.901   1.230   0.425
 3889SOL     OW12565   0.407   5.775   6.490
 3889SOL    HW112566   0.393   5.744   6.584
 3889SOL    HW212567   0.492   5.828   6.484
 3890SOL     OW12568   5.424   5.779   3.301
 3890SOL    HW112569   5.432   5.841   3.223
 3890SOL    HW212570   5.450   5.826   3.385
 3891SOL     OW12571   5.114   5.629   4.754
 3891SOL    HW112572   5.109   5.680   4.840
 3891SOL    HW212573   5.022   5.613   4.720
 3892SOL     OW12574   6.576   6.576   2.784
 3892SOL    HW112575   6.559   6.497   2.726
 3892SOL    HW212576   6.496   6.594   2.841
 3893SOL     OW12577   3.474   5.739   3.866
 3893SOL    HW112578   3.425   5.763   3.950
 3893SOL    HW212579   3.458   5.809   3.797
 3894SOL     OW12580   4.075   2.818   0.479
 3894SOL    HW112581   3.999   2.755   0.492
 3894SOL    HW212582   4.161   2.771   0.499
 3895SOL     OW12583   1.670   1.382   5.448
 3895SOL    HW112584   1.638   1.405   5.356
 3895SOL    HW212585   1.722   1.459   5.485
 3896SOL     OW12586   7.020   2.063   5.926
 3896SOL    HW112587   0.018   2.159   5.910
 3896SOL    HW212588   6.942   2.058   5.988
 3897SOL     OW12589   2.550   6.535   1.948
 3897SOL    HW112590   2.514   6.621   1.911
 3897SOL    HW212591   2.528   6.460   1.885
 3898SOL     OW12592   4.052   3.423   4.234
 3898SOL    HW112593   4.017   3.498   4.290
 3898SOL    HW212594   3.993   3.343   4.245
 3899SOL     OW12595   4.640   1.319   5.433
 3899SOL    HW112596   4.553   1.368   5.431
 3899SOL    HW212597   4.638   1.243   5.369
 3900SOL     OW12598   6.489   2.410   3.375
 3900SOL    HW112599   6.450   2.354   3.302
 3900SOL    HW212600   6.427   2.486   3.395
 3901SOL     OW12601   1.193   6.818   4.866
 3901SOL    HW112602   1.182   6.734   4.920
 3901SOL    HW212603   1.200   6.794   4.769
 3902SOL     OW12604   5.534   4.801   1.583
 3902SOL    HW112605   5.538   4.702   1.596
 3902SOL    HW212606   5.521   4.845   1.672
 3903SOL     OW12607   3.939   2.565   0.430
 3903SOL    HW112608   3.969   2.596   0.339
 3903SOL    HW212609   3.900   2.473   0.424
 3904SOL     OW12610   1.042   0.008   0.240
 3904SOL    HW112611   1.073   6.971   0.310
 3904SOL    HW212612   0.983   6.987   0.175
 3905SOL     OW12613   6.783   6.723   5.846
 3905SOL    HW112614   6.771   6.778   5.929
 3905SOL    HW212615   6.701   6.731   5.789
 3906SOL     OW12616   1.969   4.886   4.406
 3906SOL    HW112617   1.981   4.799   4.359
 3906SOL    HW212618   1.889   4.881   4.467
 3907SOL     OW12619   7.005   1.430   4.284
 3907SOL    HW112620   7.018   1.379   4.370
 3907SOL    HW212621   6.977   1.367   4.212
 3908SOL     OW12622   1.463   0.610   5.209
 3908SOL    HW112623   1.555   0.571   5.211
 3908SOL    HW212624   1.453   0.676   5.284
 3909SOL     OW12625   5.159   2.781   5.697
 3909SOL    HW112626   5.085   2.718   5.721
 3909SOL    HW212627   5.181   2.838   5.777
 3910SOL     OW12628   3.128   2.779   0.990
 3910SOL    HW112629   3.070   2.769   0.910
 3910SOL    HW212630   3.131   2.692   1.041
 3911SOL     OW12631   5.748   0.943   1.886
 3911SOL    HW112632   5.771   1.036   1.858
 3911SOL    HW212633   5.748   0.883   1.807
 3912SOL     OW12634   4.001   2.375   0.176
 3912SOL    HW112635   4.062   2.450   0.202
 3912SOL    HW212636   3.911   2.412   0.151
 3913SOL     OW12637   4.460   6.013   0.570
 3913SOL    HW112638   4.537   6.068   0.537
 3913SOL    HW212639   4.388   6.073   0.605
 3914SOL     OW12640   6.086   0.829   0.867
 3914SOL    HW112641   6.095   0.921   0.829
 3914SOL    HW212642   6.162   0.773   0.836
 3915SOL     OW12643   4.903   5.347   0.496
 3915SOL    HW112644   4.878   5.254   0.523
 3915SOL    HW212645   4.948   5.394   0.572
 3916SOL     OW12646   2.068   0.699   2.559
 3916SOL    HW112647   2.050   0.767   2.488
 3916SOL    HW212648   2.132   0.737   2.626
 3917SOL     OW12649   2.904   4.861   0.464
 3917SOL    HW112650   2.891   4.837   0.560
 3917SOL    HW212651   2.935   4.781   0.414
 3918SOL     OW12652   5.659   0.218   0.905
 3918SOL    HW112653   5.748   0.234   0.949
 3918SOL    HW212654   5.593   0.286   0.939
 3919SOL     OW12655   4.106   0.512   1.094
 3919SOL    HW112656   4.095   0.607   1.123
 3919SOL    HW212657   4.199   0.498   1.059
 3920SOL     OW12658   3.215   0.964   6.143
 3920SOL    HW112659   3.181   0.897   6.210
 3920SOL    HW212660   3.151   0.968   6.066
 3921SOL     OW12661   1.054   2.767   6.405
 3921SOL    HW112662   1.110   2.725   6.476
 3921SOL    HW212663   1.028   2.860   6.433
 3922SOL     OW12664   4.467   5.089   1.845
 3922SOL    HW112665   4.433   4.995   1.853
 3922SOL    HW212666   4.438   5.127   1.757
 3923SOL     OW12667   5.090   0.857   1.334
 3923SOL    HW112668   5.084   0.794   1.411
 3923SOL    HW212669   5.090   0.951   1.368
 3924SOL     OW12670   6.853   4.720   4.510
 3924SOL    HW112671   6.776   4.754   4.564
 3924SOL    HW212672   6.828   4.633   4.468
 3925SOL     OW12673   4.948   3.621   0.349
 3925SOL    HW112674   4.863   3.572   0.335
 3925SOL    HW212675   5.016   3.590   0.283
 3926SOL     OW12676   0.459   0.617   5.641
 3926SOL    HW112677   0.553   0.638   5.668
 3926SOL    HW212678   0.404   0.699   5.645
 3927SOL     OW12679   6.750   2.658   4.837
 3927SOL    HW112680   6.651   2.648   4.850
 3927SOL    HW212681   6.776   2.612   4.752
 3928SOL     OW12682   2.081   6.350   3.144
 3928SOL    HW112683   2.152   6.416   3.121
 3928SOL    HW212684   2.054   6.300   3.061
 3929SOL     OW12685   0.197   1.975   5.235
 3929SOL    HW112686   0.194   2.014   5.327
 3929SOL    HW212687   0.118   2.006   5.183
 3930SOL     OW12688   1.200   3.703   4.140
 3930SOL    HW112689   1.133   3.630   4.148
 3930SOL    HW212690   1.231   3.711   4.045
 3931SOL     OW12691   1.499   2.558   1.522
 3931SOL    HW112692   1.409   2.513   1.527
 3931SOL    HW212693   1.568   2.490   1.497
 3932SOL     OW12694   1.692   5.768   4.119
 3932SOL    HW112695   1.728   5.676   4.104
 3932SOL    HW212696   1.761   5.835   4.091
 3933SOL     OW12697   1.923   5.054   7.025
 3933SOL    HW112698   1.877   4.985   6.970
 3933SOL    HW212699   1.911   5.033   0.096
 3934SOL     OW12700   0.907   1.099   2.295
 3934SOL    HW112701   0.964   1.157   2.236
 3934SOL    HW212702   0.950   1.092   2.386
 3935SOL     OW12703   6.257   3.138   6.757
 3935SOL    HW112704   6.258   3.238   6.761
 3935SOL    HW212705   6.342   3.105   6.716
 3936SOL     OW12706   0.142   5.172   5.154
 3936SOL    HW112707   0.169   5.126   5.069
 3936SOL    HW212708   0.223   5.190   5.209
 3937SOL     OW12709   6.821   6.475   2.521
 3937SOL    HW112710   6.817   6.414   2.600
 3937SOL    HW212711   6.730   6.509   2.500
 3938SOL     OW12712   6.518   4.046   2.956
 3938SOL    HW112713   6.615   4.070   2.952
 3938SOL    HW212714   6.475   4.065   2.868
 3939SOL     OW12715   0.724   0.933   2.628
 3939SOL    HW112716   0.673   0.901   2.708
 3939SOL    HW212717   0.660   0.960   2.556
 3940SOL     OW12718   3.284   4.616   1.524
 3940SOL    HW112719   3.198   4.579   1.489
 3940SOL    HW212720   3.275   4.633   1.622
 3941SOL     OW12721   5.689   6.375   4.196
 3941SOL    HW112722   5.643   6.357   4.109
 3941SOL    HW212723   5.739   6.462   4.189
 3942SOL     OW12724   0.883   6.211   6.749
 3942SOL    HW112725   0.967   6.253   6.713
 3942SOL    HW212726   0.864   6.127   6.697
 3943SOL     OW12727   0.988   3.389   1.202
 3943SOL    HW112728   0.915   3.323   1.224
 3943SOL    HW212729   0.953   3.482   1.214
 3944SOL     OW12730   6.522   2.162   6.543
 3944SOL    HW112731   6.434   2.209   6.545
 3944SOL    HW212732   6.595   2.229   6.530
 3945SOL     OW12733   0.505   0.843   2.859
 3945SOL    HW112734   0.567   0.881   2.928
 3945SOL    HW212735   0.491   0.746   2.876
 3946SOL     OW12736   0.920   3.096   0.583
 3946SOL    HW112737   0.951   3.058   0.670
 3946SOL    HW212738   0.964   3.047   0.508
 3947SOL     OW12739   6.210   5.480   0.737
 3947SOL    HW112740   6.124   5.514   0.700
 3947SOL    HW212741   6.194   5.396   0.788
 3948SOL     OW12742   2.031   2.609   5.762
 3948SOL    HW112743   2.116   2.658   5.743
 3948SOL    HW212744   1.985   2.588   5.675
 3949SOL     OW12745   6.293   6.598   2.468
 3949SOL    HW112746   6.385   6.574   2.498
 3949SOL    HW212747   6.241   6.514   2.451
 3950SOL     OW12748   3.315   4.049   1.362
 3950SOL    HW112749   3.272   4.080   1.447
 3950SOL    HW212750   3.245   4.013   1.300
 3951SOL     OW12751   0.199   1.381   5.112
 3951SOL    HW112752   0.179   1.459   5.053
 3951SOL    HW212753   0.170   1.402   5.206
 3952SOL     OW12754   6.708   3.434   5.753
 3952SOL    HW112755   6.622   3.390   5.727
 3952SOL    HW212756   6.695   3.484   5.839
 3953SOL     OW12757   3.560   4.339   6.210
 3953SOL    HW112758   3.506   4.255   6.218
 3953SOL    HW212759   3.657   4.316   6.212
 3954SOL     OW12760   1.041   3.881   5.384
 3954SOL    HW112761   1.004   3.822   5.455
 3954SOL    HW212762   1.007   3.974   5.397
 3955SOL     OW12763   5.276   5.244   6.940
 3955SOL    HW112764   5.183   5.209   6.930
 3955SOL    HW212765   5.341   5.181   6.898
 3956SOL     OW12766   0.233   2.912   6.063
 3956SOL    HW112767   0.159   2.968   6.101
 3956SOL    HW212768   0.264   2.847   6.132
 3957SOL     OW12769   1.940   6.979   4.072
 3957SOL    HW112770   2.037   6.955   4.082
 3957SOL    HW212771   1.885   6.922   4.133
 3958SOL     OW12772   5.898   6.327   5.335
 3958SOL    HW112773   5.879   6.349   5.430
 3958SOL    HW212774   5.826   6.267   5.300
 3959SOL     OW12775   3.052   5.064   6.846
 3959SOL    HW112776   3.116   5.137   6.822
 3959SOL    HW212777   2.962   5.104   6.867
 3960SOL     OW12778   4.072   2.973   0.214
 3960SOL    HW112779   4.115   3.057   0.247
 3960SOL    HW212780   4.060   2.909   0.290
 3961SOL     OW12781   4.603   0.713   1.559
 3961SOL    HW112782   4.655   0.629   1.541
 3961SOL    HW212783   4.509   0.702   1.527
 3962SOL     OW12784   0.897   0.305   6.671
 3962SOL    HW112785   0.830   0.284   6.600
 3962SOL    HW212786   0.892   0.235   6.742
 3963SOL     OW12787   4.659   5.728   4.365
 3963SOL    HW112788   4.666   5.630   4.388
 3963SOL    HW212789   4.568   5.761   4.390
 3964SOL     OW12790   4.827   5.799   5.662
 3964SOL    HW112791   4.823   5.871   5.593
 3964SOL    HW212792   4.789   5.714   5.624
 3965SOL     OW12793   3.311   4.037   0.411
 3965SOL    HW112794   3.335   4.133   0.423
 3965SOL    HW212795   3.253   4.007   0.487
 3966SOL     OW12796   6.190   4.454   5.066
 3966SOL    HW112797   6.216   4.527   5.129
 3966SOL    HW212798   6.173   4.370   5.118
 3967SOL     OW12799   0.674   6.334   6.066
 3967SOL    HW112800   0.762   6.329   6.019
 3967SOL    HW212801   0.608   6.274   6.020
 3968SOL     OW12802   5.166   1.115   2.542
 3968SOL    HW112803   5.131   1.121   2.636
 3968SOL    HW212804   5.215   1.029   2.530
 3969SOL     OW12805   0.409   5.024   2.921
 3969SOL    HW112806   0.313   5.005   2.899
 3969SOL    HW212807   0.426   5.002   3.017
 3970SOL     OW12808   4.897   4.637   3.063
 3970SOL    HW112809   4.846   4.670   3.143
 3970SOL    HW212810   4.833   4.592   3.000
 3971SOL     OW12811   1.825   6.292   3.258
 3971SOL    HW112812   1.917   6.308   3.222
 3971SOL    HW212813   1.790   6.375   3.300
 3972SOL     OW12814   0.676   6.915   0.518
 3972SOL    HW112815   0.625   6.873   0.443
 3972SOL    HW212816   0.613   6.961   0.580
 3973SOL     OW12817   3.063   3.874   4.659
 3973SOL    HW112818   3.125   3.949   4.635
 3973SOL    HW212819   3.091   3.834   4.746
 3974SOL     OW12820   6.495   1.038   6.624
 3974SOL    HW112821   6.509   1.069   6.530
 3974SOL    HW212822   6.398   1.046   6.648
 3975SOL     OW12823   6.685   1.268   6.093
 3975SOL    HW112824   6.622   1.283   6.168
 3975SOL    HW212825   6.659   1.183   6.045
 3976SOL     OW12826   1.341   3.625   0.626
 3976SOL    HW112827   1.313   3.620   0.722
 3976SOL    HW212828   1.393   3.543   0.602
 3977SOL     OW12829   3.040   6.376   6.341
 3977SOL    HW112830   3.069   6.289   6.381
 3977SOL    HW212831   2.983   6.426   6.406
 3978SOL     OW12832   6.298   2.418   5.771
 3978SOL    HW112833   6.297   2.467   5.859
 3978SOL    HW212834   6.216   2.362   5.763
 3979SOL     OW12835   1.024   6.468   2.009
 3979SOL    HW112836   1.058   6.396   1.948
 3979SOL    HW212837   1.004   6.550   1.957
 3980SOL     OW12838   4.798   3.117   4.531
 3980SOL    HW112839   4.716   3.141   4.582
 3980SOL    HW212840   4.850   3.049   4.582
 3981SOL     OW12841   6.596   1.897   0.696
 3981SOL    HW112842   6.584   1.987   0.736
 3981SOL    HW212843   6.572   1.899   0.599
 3982SOL     OW12844   2.476   2.067   3.892
 3982SOL    HW112845   2.497   2.035   3.985
 3982SOL    HW212846   2.554   2.050   3.833
 3983SOL     OW12847   2.797   6.432   4.136
 3983SOL    HW112848   2.750   6.414   4.049
 3983SOL    HW212849   2.735   6.411   4.212
 3984SOL     OW12850   1.966   6.239   1.828
 3984SOL    HW112851   1.958   6.330   1.788
 3984SOL    HW212852   1.963   6.171   1.755
 3985SOL     OW12853   2.525   3.168   0.903
 3985SOL    HW112854   2.449   3.108   0.876
 3985SOL    HW212855   2.503   3.212   0.990
 3986SOL     OW12856   0.360   1.730   2.093
 3986SOL    HW112857   0.369   1.786   2.175
 3986SOL    HW212858   0.263   1.710   2.077
 3987SOL     OW12859   2.315   4.720   6.489
 3987SOL    HW112860   2.282   4.761   6.574
 3987SOL    HW212861   2.239   4.671   6.445
 3988SOL     OW12862   4.109   2.761   0.903
 3988SOL    HW112863   4.042   2.717   0.842
 3988SOL    HW212864   4.138   2.847   0.863
 3989SOL     OW12865   6.188   6.688   0.054
 3989SOL    HW112866   6.242   6.765   0.020
 3989SOL    HW212867   6.232   6.602   0.027
 3990SOL     OW12868   0.800   3.300   3.899
 3990SOL    HW112869   0.808   3.298   3.799
 3990SOL    HW212870   0.838   3.386   3.933
 3991SOL     OW12871   0.402   2.268   3.984
 3991SOL    HW112872   0.322   2.322   4.012
 3991SOL    HW212873   0.371   2.180   3.948
 3992SOL     OW12874   4.268   3.545   6.293
 3992SOL    HW112875   4.196   3.493   6.339
 3992SOL    HW212876   4.310   3.489   6.222
 3993SOL     OW12877   2.912   2.048   2.766
 3993SOL    HW112878   2.881   2.098   2.684
 3993SOL    HW212879   3.003   2.010   2.749
 3994SOL     OW12880   2.580   2.479   3.735
 3994SOL    HW112881   2.558   2.574   3.758
 3994SOL    HW212882   2.611   2.431   3.817
 3995SOL     OW12883   2.251   4.158   3.360
 3995SOL    HW112884   2.257   4.166   3.460
 3995SOL    HW212885   2.327   4.207   3.318
 3996SOL     OW12886   0.965   1.018   3.541
 3996SOL    HW112887   0.935   0.941   3.598
 3996SOL    HW212888   0.899   1.093   3.548
 3997SOL     OW12889   5.366   3.807   3.065
 3997SOL    HW112890   5.448   3.755   3.041
 3997SOL    HW212891   5.337   3.862   2.987
 3998SOL     OW12892   6.763   2.149   3.071
 3998SOL    HW112893   6.715   2.090   3.137
 3998SOL    HW212894   6.697   2.187   3.006
 3999SOL     OW12895   5.945   3.661   2.405
 3999SOL    HW112896   5.878   3.655   2.331
 3999SOL    HW212897   6.034   3.628   2.373
 4000SOL     OW12898   2.734   5.540   2.753
 4000SOL    HW112899   2.815   5.536   2.696
 4000SOL    HW212900   2.697   5.633   2.751
 4001SOL     OW12901   2.595   3.729   5.581
 4001SOL    HW112902   2.536   3.778   5.516
 4001SOL    HW212903   2.679   3.782   5.595
 4002SOL     OW12904   3.480   3.095   4.879
 4002SOL    HW112905   3.474   3.106   4.780
 4002SOL    HW212906   3.567   3.133   4.911
 4003SOL     OW12907   2.890   1.306   5.938
 4003SOL    HW112908   2.902   1.405   5.949
 4003SOL    HW212909   2.835   1.272   6.014
 4004SOL     OW12910   6.932   3.779   3.009
 4004SOL    HW112911   6.857   3.724   2.974
 4004SOL    HW212912   6.913   3.805   3.104
 4005SOL     OW12913   4.844   3.421   1.341
 4005SOL    HW112914   4.756   3.450   1.378
 4005SOL    HW212915   4.847   3.439   1.243
 4006SOL     OW12916   4.932   5.426   2.360
 4006SOL    HW112917   4.863   5.392   2.424
 4006SOL    HW212918   5.002   5.477   2.410
 4007SOL     OW12919   1.181   1.930   3.208
 4007SOL    HW112920   1.162   1.858   3.141
 4007SOL    HW212921   1.255   1.988   3.173
 4008SOL     OW12922   2.853   6.968   0.414
 4008SOL    HW112923   2.760   6.937   0.434
 4008SOL    HW212924   2.856   0.041   0.418
 4009SOL     OW12925   4.954   1.630   1.245
 4009SOL    HW112926   5.001   1.687   1.313
 4009SOL    HW212927   5.022   1.578   1.192
 4010SOL     OW12928   3.861   4.258   1.717
 4010SOL    HW112929   3.886   4.350   1.745
 4010SOL    HW212930   3.803   4.217   1.787
 4011SOL     OW12931   6.978   6.010   0.706
 4011SOL    HW112932   6.907   6.027   0.638
 4011SOL    HW212933   6.937   6.010   0.797
 4012SOL     OW12934   4.495   6.910   1.818
 4012SOL    HW112935   4.458   6.821   1.843
 4012SOL    HW212936   4.594   6.910   1.833
 4013SOL     OW12937   1.955   0.377   0.792
 4013SOL    HW112938   1.945   0.291   0.842
 4013SOL    HW212939   1.873   0.394   0.737
 4014SOL     OW12940   3.245   6.263   3.786
 4014SOL    HW112941   3.169   6.291   3.728
 4014SOL    HW212942   3.210   6.215   3.866
 4015SOL     OW12943   4.482   4.932   5.926
 4015SOL    HW112944   4.479   4.856   5.991
 4015SOL    HW212945   4.571   4.978   5.931
 4016SOL     OW12946   3.582   4.891   0.031
 4016SOL    HW112947   3.565   4.865   0.126
 4016SOL    HW212948   3.634   4.976   0.028
 4017SOL     OW12949   0.849   4.857   5.680
 4017SOL    HW112950   0.806   4.821   5.598
 4017SOL    HW212951   0.885   4.948   5.662
 4018SOL     OW12952   3.713   6.067   2.098
 4018SOL    HW112953   3.648   6.135   2.064
 4018SOL    HW212954   3.743   6.008   2.023
 4019SOL     OW12955   5.285   3.340   2.344
 4019SOL    HW112956   5.291   3.392   2.430
 4019SOL    HW212957   5.225   3.261   2.357
 4020SOL     OW12958   0.053   3.922   4.370
 4020SOL    HW112959   0.133   3.917   4.310
 4020SOL    HW212960   0.012   3.831   4.378
 4021SOL     OW12961   3.368   3.631   5.602
 4021SOL    HW112962   3.353   3.532   5.599
 4021SOL    HW212963   3.464   3.649   5.625
 4022SOL     OW12964   3.946   6.603   0.656
 4022SOL    HW112965   3.885   6.667   0.704
 4022SOL    HW212966   3.991   6.651   0.581
 4023SOL     OW12967   0.074   1.444   5.553
 4023SOL    HW112968   0.111   1.490   5.634
 4023SOL    HW212969   0.149   1.412   5.496
 4024SOL     OW12970   1.638   4.964   3.962
 4024SOL    HW112971   1.623   4.905   3.883
 4024SOL    HW212972   1.596   4.923   4.043
 4025SOL     OW12973   0.901   5.565   4.488
 4025SOL    HW112974   0.880   5.468   4.503
 4025SOL    HW212975   0.918   5.580   4.390
 4026SOL     OW12976   6.180   6.241   4.561
 4026SOL    HW112977   6.279   6.247   4.548
 4026SOL    HW212978   6.158   6.156   4.609
 4027SOL     OW12979   2.419   2.289   6.995
 4027SOL    HW112980   2.385   2.343   6.917
 4027SOL    HW212981   2.515   2.313   7.012
 4028SOL     OW12982   4.472   1.344   3.537
 4028SOL    HW112983   4.504   1.364   3.629
 4028SOL    HW212984   4.426   1.424   3.499
 4029SOL     OW12985   3.112   4.090   6.088
 4029SOL    HW112986   3.091   4.096   5.990
 4029SOL    HW212987   3.064   4.013   6.128
 4030SOL     OW12988   6.972   1.069   2.137
 4030SOL    HW112989   0.035   1.084   2.180
 4030SOL    HW212990   6.901   1.105   2.197
 4031SOL     OW12991   5.177   0.327   3.102
 4031SOL    HW112992   5.266   0.366   3.125
 4031SOL    HW212993   5.104   0.386   3.137
 4032SOL     OW12994   6.591   6.867   2.412
 4032SOL    HW112995   6.606   6.772   2.382
 4032SOL    HW212996   6.518   6.908   2.358
 4033SOL     OW12997   2.653   1.876   2.783
 4033SOL    HW112998   2.699   1.962   2.757
 4033SOL    HW212999   2.590   1.894   2.858
 4034SOL     OW13000   6.114   2.076   5.224
 4034SOL    HW113001   6.023   2.074   5.266
 4034SOL    HW213002   6.133   2.167   5.189
 4035SOL     OW13003   6.656   1.430   1.405
 4035SOL    HW113004   6.638   1.337   1.375
 4035SOL    HW213005   6.725   1.429   1.477
 4036SOL     OW13006   4.165   4.689   2.398
 4036SOL    HW113007   4.179   4.609   2.340
 4036SOL    HW213008   4.219   4.680   2.481
 4037SOL     OW13009   2.495   1.654   5.875
 4037SOL    HW113010   2.454   1.730   5.924
 4037SOL    HW213011   2.474   1.568   5.923
 4038SOL     OW13012   4.677   2.967   6.974
 4038SOL    HW113013   4.738   2.903   6.928
 4038SOL    HW213014   4.666   2.940   0.043
 4039SOL     OW13015   4.802   5.973   1.617
 4039SOL    HW113016   4.823   6.000   1.710
 4039SOL    HW213017   4.733   6.034   1.579
 4040SOL     OW13018   2.663   6.326   4.742
 4040SOL    HW113019   2.649   6.227   4.744
 4040SOL    HW213020   2.576   6.371   4.724
 4041SOL     OW13021   2.147   6.351   1.264
 4041SOL    HW113022   2.162   6.298   1.181
 4041SOL    HW213023   2.235   6.386   1.297
 4042SOL     OW13024   6.195   6.628   3.344
 4042SOL    HW113025   6.253   6.689   3.398
 4042SOL    HW213026   6.104   6.667   3.336
 4043SOL     OW13027   6.679   1.926   6.565
 4043SOL    HW113028   6.625   2.010   6.558
 4043SOL    HW213029   6.763   1.946   6.615
 4044SOL     OW13030   5.433   5.110   2.561
 4044SOL    HW113031   5.522   5.064   2.567
 4044SOL    HW213032   5.404   5.137   2.653
 4045SOL     OW13033   4.277   6.846   5.891
 4045SOL    HW113034   4.233   6.875   5.807
 4045SOL    HW213035   4.376   6.858   5.883
 4046SOL     OW13036   1.108   1.831   2.844
 4046SOL    HW113037   1.068   1.923   2.847
 4046SOL    HW213038   1.094   1.785   2.931
 4047SOL     OW13039   1.882   2.434   6.672
 4047SOL    HW113040   1.948   2.358   6.672
 4047SOL    HW213041   1.890   2.485   6.758
 4048SOL     OW13042   5.655   1.385   1.910
 4048SOL    HW113043   5.572   1.379   1.966
 4048SOL    HW213044   5.689   1.479   1.911
 4049SOL     OW13045   4.868   6.283   6.405
 4049SOL    HW113046   4.807   6.322   6.336
 4049SOL    HW213047   4.860   6.335   6.490
 4050SOL     OW13048   1.110   6.361   2.253
 4050SOL    HW113049   1.014   6.345   2.276
 4050SOL    HW213050   1.116   6.406   2.164
 4051SOL     OW13051   4.679   1.280   6.696
 4051SOL    HW113052   4.601   1.247   6.643
 4051SOL    HW213053   4.727   1.203   6.737
 4052SOL     OW13054   5.880   2.327   3.365
 4052SOL    HW113055   5.884   2.263   3.442
 4052SOL    HW213056   5.959   2.387   3.367
 4053SOL     OW13057   2.075   6.247   4.491
 4053SOL    HW113058   2.068   6.185   4.569
 4053SOL    HW213059   1.996   6.308   4.490
 4054SOL     OW13060   5.468   4.350   0.990
 4054SOL    HW113061   5.454   4.322   0.895
 4054SOL    HW213062   5.438   4.277   1.051
 4055SOL     OW13063   1.525   3.824   0.944
 4055SOL    HW113064   1.621   3.823   0.915
 4055SOL    HW213065   1.474   3.890   0.888
 4056SOL     OW13066   5.366   3.854   1.232
 4056SOL    HW113067   5.363   3.953   1.245
 4056SOL    HW213068   5.458   3.826   1.207
 4057SOL     OW13069   6.971   2.889   0.143
 4057SOL    HW113070   6.987   2.839   0.228
 4057SOL    HW213071   6.994   2.829   0.065
 4058SOL     OW13072   2.729   6.576   4.846
 4058SOL    HW113073   2.723   6.488   4.800
 4058SOL    HW213074   2.809   6.578   4.906
 4059SOL     OW13075   0.139   2.430   3.353
 4059SOL    HW113076   0.071   2.493   3.315
 4059SOL    HW213077   0.162   2.360   3.286
 4060SOL     OW13078   5.341   5.128   5.507
 4060SOL    HW113079   5.368   5.036   5.533
 4060SOL    HW213080   5.417   5.191   5.522
 4061SOL     OW13081   2.635   4.614   2.201
 4061SOL    HW113082   2.570   4.539   2.214
 4061SOL    HW213083   2.693   4.594   2.121
 4062SOL     OW13084   2.471   0.705   2.087
 4062SOL    HW113085   2.541   0.725   2.019
 4062SOL    HW213086   2.484   0.764   2.167
 4063SOL     OW13087   6.202   7.023   0.697
 4063SOL    HW113088   6.252   0.076   0.663
 4063SOL    HW213089   6.255   6.940   0.679
 4064SOL     OW13090   2.661   1.965   4.376
 4064SOL    HW113091   2.685   1.889   4.437
 4064SOL    HW213092   2.712   2.046   4.403
 4065SOL     OW13093   0.882   0.003   1.736
 4065SOL    HW113094   0.840   0.025   1.824
 4065SOL    HW213095   0.847   6.943   1.703
 4066SOL     OW13096   6.717   4.407   2.546
 4066SOL    HW113097   6.768   4.479   2.592
 4066SOL    HW213098   6.775   4.363   2.477
 4067SOL     OW13099   5.597   3.850   3.546
 4067SOL    HW113100   5.527   3.919   3.527
 4067SOL    HW213101   5.603   3.786   3.469
 4068SOL     OW13102   2.480   2.268   4.562
 4068SOL    HW113103   2.479   2.195   4.630
 4068SOL    HW213104   2.389   2.307   4.552
 4069SOL     OW13105   3.969   5.086   6.751
 4069SOL    HW113106   3.932   4.993   6.748
 4069SOL    HW213107   3.901   5.147   6.791
 4070SOL     OW13108   0.324   2.787   2.723
 4070SOL    HW113109   0.324   2.707   2.783
 4070SOL    HW213110   0.320   2.757   2.627
 4071SOL     OW13111   1.427   1.709   4.902
 4071SOL    HW113112   1.484   1.630   4.882
 4071SOL    HW213113   1.448   1.783   4.838
 4072SOL     OW13114   1.096   5.964   4.887
 4072SOL    HW113115   1.124   6.060   4.892
 4072SOL    HW213116   1.091   5.936   4.791
 4073SOL     OW13117   3.154   5.746   6.070
 4073SOL    HW113118   3.227   5.803   6.033
 4073SOL    HW213119   3.066   5.788   6.052
 4074SOL     OW13120   0.380   4.574   1.289
 4074SOL    HW113121   0.369   4.509   1.214
 4074SOL    HW213122   0.476   4.602   1.295
 4075SOL     OW13123   4.897   2.010   1.471
 4075SOL    HW113124   4.812   2.007   1.419
 4075SOL    HW213125   4.881   2.055   1.559
 4076SOL     OW13126   2.421   3.391   6.435
 4076SOL    HW113127   2.447   3.296   6.453
 4076SOL    HW213128   2.341   3.393   6.376
 4077SOL     OW13129   4.039   1.972   0.951
 4077SOL    HW113130   4.051   1.986   0.852
 4077SOL    HW213131   4.056   1.875   0.973
 4078SOL     OW13132   2.322   4.991   2.266
 4078SOL    HW113133   2.257   5.063   2.243
 4078SOL    HW213134   2.344   4.939   2.183
 4079SOL     OW13135   1.829   1.464   2.867
 4079SOL    HW113136   1.747   1.436   2.817
 4079SOL    HW213137   1.813   1.551   2.913
 4080SOL     OW13138   4.619   2.787   5.859
 4080SOL    HW113139   4.650   2.848   5.932
 4080SOL    HW213140   4.674   2.803   5.777
 4081SOL     OW13141   1.597   2.852   3.555
 4081SOL    HW113142   1.571   2.948   3.539
 4081SOL    HW213143   1.638   2.844   3.646
 4082SOL     OW13144   0.874   4.102   0.565
 4082SOL    HW113145   0.838   4.097   0.472
 4082SOL    HW213146   0.875   4.010   0.605
 4083SOL     OW13147   6.325   3.266   2.879
 4083SOL    HW113148   6.419   3.233   2.869
 4083SOL    HW213149   6.263   3.204   2.832
 4084SOL     OW13150   5.478   1.919   3.847
 4084SOL    HW113151   5.564   1.881   3.814
 4084SOL    HW213152   5.430   1.965   3.771
 4085SOL     OW13153   3.792   5.376   0.626
 4085SOL    HW113154   3.733   5.424   0.691
 4085SOL    HW213155   3.779   5.278   0.635
 4086SOL     OW13156   2.101   5.784   1.792
 4086SOL    HW113157   2.065   5.701   1.748
 4086SOL    HW213158   2.029   5.852   1.802
 4087SOL     OW13159   3.058   2.230   3.478
 4087SOL    HW113160   3.140   2.199   3.524
 4087SOL    HW213161   3.061   2.203   3.382
 4088SOL     OW13162   0.396   2.113   0.567
 4088SOL    HW113163   0.412   2.016   0.588
 4088SOL    HW213164   0.465   2.169   0.613
 4089SOL     OW13165   6.324   6.316   3.783
 4089SOL    HW113166   6.332   6.403   3.735
 4089SOL    HW213167   6.331   6.332   3.882
 4090SOL     OW13168   1.855   4.408   5.756
 4090SOL    HW113169   1.786   4.398   5.828
 4090SOL    HW213170   1.872   4.320   5.714
 4091SOL     OW13171   6.476   6.182   0.239
 4091SOL    HW113172   6.534   6.145   0.166
 4091SOL    HW213173   6.384   6.198   0.204
 4092SOL     OW13174   6.713   3.601   5.203
 4092SOL    HW113175   6.642   3.563   5.144
 4092SOL    HW213176   6.745   3.688   5.165
 4093SOL     OW13177   4.099   6.941   3.330
 4093SOL    HW113178   4.122   6.889   3.412
 4093SOL    HW213179   4.133   0.008   3.339
 4094SOL     OW13180   2.301   5.651   4.646
 4094SOL    HW113181   2.277   5.581   4.579
 4094SOL    HW213182   2.286   5.742   4.607
 4095SOL     OW13183   0.517   3.718   6.523
 4095SOL    HW113184   0.553   3.626   6.507
 4095SOL    HW213185   0.573   3.785   6.475
 4096SOL     OW13186   4.646   5.413   0.745
 4096SOL    HW113187   4.634   5.322   0.785
 4096SOL    HW213188   4.743   5.427   0.724
 4097SOL     OW13189   3.908   3.792   6.360
 4097SOL    HW113190   3.969   3.797   6.281
 4097SOL    HW213191   3.830   3.852   6.346
 4098SOL     OW13192   0.374   3.075   1.797
 4098SOL    HW113193   0.440   3.107   1.865
 4098SOL    HW213194   0.382   3.131   1.714
 4099SOL     OW13195   3.305   4.695   0.985
 4099SOL    HW113196   3.314   4.600   1.015
 4099SOL    HW213197   3.261   4.749   1.057
 4100SOL     OW13198   6.462   5.963   4.995
 4100SOL    HW113199   6.546   6.008   5.026
 4100SOL    HW213200   6.486   5.888   4.932
 4101SOL     OW13201   5.763   0.994   0.658
 4101SOL    HW113202   5.702   0.961   0.730
 4101SOL    HW213203   5.854   1.008   0.695
 4102SOL     OW13204   6.556   0.912   1.279
 4102SOL    HW113205   6.631   0.974   1.254
 4102SOL    HW213206   6.582   0.859   1.360
 4103SOL     OW13207   0.586   0.507   1.058
 4103SOL    HW113208   0.586   0.435   1.127
 4103SOL    HW213209   0.547   0.471   0.973
 4104SOL     OW13210   0.726   4.705   1.909
 4104SOL    HW113211   0.635   4.672   1.885
 4104SOL    HW213212   0.794   4.663   1.849
 4105SOL     OW13213   3.863   5.577   1.120
 4105SOL    HW113214   3.862   5.527   1.033
 4105SOL    HW213215   3.891   5.515   1.194
 4106SOL     OW13216   0.639   2.024   4.946
 4106SOL    HW113217   0.601   1.945   4.995
 4106SOL    HW213218   0.617   2.108   4.996
 4107SOL     OW13219   1.940   6.168   1.323
 4107SOL    HW113220   1.873   6.165   1.249
 4107SOL    HW213221   2.012   6.233   1.301
 4108SOL     OW13222   0.019   4.477   6.317
 4108SOL    HW113223   6.999   4.396   6.281
 4108SOL    HW213224   6.992   4.515   6.393
 4109SOL     OW13225   4.578   6.230   4.922
 4109SOL    HW113226   4.479   6.221   4.913
 4109SOL    HW213227   4.620   6.139   4.925
 4110SOL     OW13228   4.727   3.060   6.424
 4110SOL    HW113229   4.772   2.987   6.371
 4110SOL    HW213230   4.739   3.042   6.521
 4111SOL     OW13231   4.053   3.140   6.592
 4111SOL    HW113232   4.048   3.209   6.665
 4111SOL    HW213233   3.963   3.129   6.550
 4112SOL     OW13234   5.023   0.628   5.237
 4112SOL    HW113235   4.992   0.721   5.216
 4112SOL    HW213236   5.115   0.631   5.274
 4113SOL     OW13237   4.555   6.502   4.287
 4113SOL    HW113238   4.541   6.404   4.296
 4113SOL    HW213239   4.643   6.526   4.328
 4114SOL     OW13240   3.841   2.107   4.150
 4114SOL    HW113241   3.924   2.157   4.175
 4114SOL    HW213242   3.862   2.010   4.142
 4115SOL     OW13243   4.098   5.970   2.163
 4115SOL    HW113244   4.014   6.023   2.174
 4115SOL    HW213245   4.089   5.908   2.085
 4116SOL     OW13246   3.864   1.988   1.643
 4116SOL    HW113247   3.801   1.918   1.678
 4116SOL    HW213248   3.858   2.070   1.700
 4117SOL     OW13249   0.796   5.386   1.921
 4117SOL    HW113250   0.833   5.298   1.893
 4117SOL    HW213251   0.739   5.374   2.003
 4118SOL     OW13252   2.528   6.543   0.723
 4118SOL    HW113253   2.546   6.558   0.821
 4118SOL    HW213254   2.493   6.450   0.710
 4119SOL     OW13255   4.013   2.182   3.531
 4119SOL    HW113256   4.113   2.173   3.525
 4119SOL    HW213257   3.988   2.211   3.623
 4120SOL     OW13258   4.271   0.755   0.956
 4120SOL    HW113259   4.297   0.658   0.960
 4120SOL    HW213260   4.191   0.765   0.897
 4121SOL     OW13261   5.819   1.501   5.364
 4121SOL    HW113262   5.845   1.580   5.419
 4121SOL    HW213263   5.901   1.454   5.333
 4122SOL     OW13264   0.643   6.328   5.704
 4122SOL    HW113265   0.712   6.256   5.704
 4122SOL    HW213266   0.596   6.330   5.616
 4123SOL     OW13267   4.432   4.853   5.431
 4123SOL    HW113268   4.491   4.812   5.501
 4123SOL    HW213269   4.483   4.922   5.380
 4124SOL     OW13270   6.055   5.280   6.072
 4124SOL    HW113271   6.109   5.340   6.012
 4124SOL    HW213272   5.960   5.311   6.073
 4125SOL     OW13273   4.503   1.451   2.008
 4125SOL    HW113274   4.408   1.466   1.981
 4125SOL    HW213275   4.522   1.502   2.092
 4126SOL     OW13276   1.196   3.921   3.690
 4126SOL    HW113277   1.152   3.971   3.616
 4126SOL    HW213278   1.283   3.966   3.713
 4127SOL     OW13279   4.538   4.564   4.757
 4127SOL    HW113280   4.636   4.550   4.771
 4127SOL    HW213281   4.495   4.593   4.843
 4128SOL     OW13282   1.302   3.449   1.854
 4128SOL    HW113283   1.324   3.419   1.947
 4128SOL    HW213284   1.351   3.392   1.788
 4129SOL     OW13285   4.785   1.491   6.803
 4129SOL    HW113286   4.840   1.459   6.880
 4129SOL    HW213287   4.727   1.418   6.770
 4130SOL     OW13288   7.022   3.219   5.821
 4130SOL    HW113289   0.025   3.124   5.834
 4130SOL    HW213290   0.070   3.272   5.781
 4131SOL     OW13291   1.451   5.736   4.009
 4131SOL    HW113292   1.545   5.738   4.044
 4131SOL    HW213293   1.416   5.643   4.013
 4132SOL     OW13294   4.750   4.574   3.817
 4132SOL    HW113295   4.802   4.585   3.732
 4132SOL    HW213296   4.789   4.634   3.887
 4133SOL     OW13297   3.031   6.721   1.714
 4133SOL    HW113298   2.947   6.762   1.752
 4133SOL    HW213299   3.080   6.791   1.661
 4134SOL     OW13300   1.759   2.902   0.645
 4134SOL    HW113301   1.718   2.940   0.728
 4134SOL    HW213302   1.815   2.823   0.669
 4135SOL     OW13303   2.204   0.822   2.222
 4135SOL    HW113304   2.287   0.821   2.278
 4135SOL    HW213305   2.220   0.874   2.138
 4136SOL     OW13306   1.447   1.991   2.523
 4136SOL    HW113307   1.510   1.982   2.447
 4136SOL    HW213308   1.456   2.083   2.563
 4137SOL     OW13309   1.773   4.110   0.940
 4137SOL    HW113310   1.851   4.171   0.924
 4137SOL    HW213311   1.746   4.068   0.853
 4138SOL     OW13312   3.843   5.268   3.210
 4138SOL    HW113313   3.835   5.168   3.219
 4138SOL    HW213314   3.892   5.305   3.289
 4139SOL     OW13315   2.268   2.200   5.439
 4139SOL    HW113316   2.267   2.122   5.378
 4139SOL    HW213317   2.307   2.173   5.527
 4140SOL     OW13318   3.026   0.931   5.688
 4140SOL    HW113319   3.056   0.840   5.716
 4140SOL    HW213320   3.057   0.950   5.595
 4141SOL     OW13321   5.140   6.510   1.749
 4141SOL    HW113322   5.210   6.513   1.677
 4141SOL    HW213323   5.124   6.603   1.783
 4142SOL     OW13324   6.500   5.459   0.985
 4142SOL    HW113325   6.414   5.450   1.034
 4142SOL    HW213326   6.512   5.380   0.924
 4143SOL     OW13327   0.221   2.954   0.062
 4143SOL    HW113328   0.145   2.975   0.124
 4143SOL    HW213329   0.268   3.039   0.038
 4144SOL     OW13330   5.384   3.245   6.952
 4144SOL    HW113331   5.360   3.305   6.875
 4144SOL    HW213332   5.414   3.157   6.916
 4145SOL     OW13333   0.314   5.877   1.264
 4145SOL    HW113334   0.357   5.807   1.320
 4145SOL    HW213335   0.385   5.928   1.214
 4146SOL     OW13336   6.832   0.895   6.005
 4146SOL    HW113337   6.903   0.940   5.951
 4146SOL    HW213338   6.860   0.800   6.024
 4147SOL     OW13339   4.087   1.944   5.509
 4147SOL    HW113340   4.146   2.025   5.504
 4147SOL    HW213341   4.042   1.940   5.599
 4148SOL     OW13342   0.675   0.191   4.108
 4148SOL    HW113343   0.668   0.129   4.029
 4148SOL    HW213344   0.728   0.271   4.083
 4149SOL     OW13345   0.785   2.824   0.499
 4149SOL    HW113346   0.882   2.817   0.521
 4149SOL    HW213347   0.741   2.736   0.511
 4150SOL     OW13348   6.992   1.073   5.843
 4150SOL    HW113349   6.986   1.126   5.759
 4150SOL    HW213350   0.008   1.129   5.915
 4151SOL     OW13351   5.029   6.650   6.088
 4151SOL    HW113352   5.053   6.562   6.047
 4151SOL    HW213353   5.000   6.636   6.183
 4152SOL     OW13354   2.727   5.800   1.082
 4152SOL    HW113355   2.812   5.807   1.030
 4152SOL    HW213356   2.677   5.887   1.076
 4153SOL     OW13357   4.734   5.001   6.551
 4153SOL    HW113358   4.675   4.964   6.479
 4153SOL    HW213359   4.692   5.083   6.590
 4154SOL     OW13360   0.485   4.280   4.972
 4154SOL    HW113361   0.463   4.365   5.020
 4154SOL    HW213362   0.457   4.288   4.876
 4155SOL     OW13363   6.030   2.754   3.392
 4155SOL    HW113364   5.947   2.766   3.446
 4155SOL    HW213365   6.071   2.665   3.414
 4156SOL     OW13366   5.463   6.721   5.063
 4156SOL    HW113367   5.489   6.812   5.097
 4156SOL    HW213368   5.364   6.716   5.055
 4157SOL     OW13369   4.106   6.548   3.460
 4157SOL    HW113370   4.137   6.476   3.523
 4157SOL    HW213371   4.083   6.630   3.512
 4158SOL     OW13372   1.735   5.274   4.101
 4158SOL    HW113373   1.789   5.221   4.035
 4158SOL    HW213374   1.736   5.370   4.075
 4159SOL     OW13375   1.751   2.872   3.800
 4159SOL    HW113376   1.691   2.819   3.860
 4159SOL    HW213377   1.801   2.940   3.854
 4160SOL     OW13378   6.862   0.956   1.171
 4160SOL    HW113379   6.863   0.856   1.169
 4160SOL    HW213380   6.946   0.991   1.129
 4161SOL     OW13381   1.875   6.415   6.457
 4161SOL    HW113382   1.887   6.322   6.491
 4161SOL    HW213383   1.884   6.481   6.532
 4162SOL     OW13384   6.084   6.932   5.278
 4162SOL    HW113385   6.085   6.855   5.213
 4162SOL    HW213386   6.156   6.918   5.346
 4163SOL     OW13387   6.077   0.368   3.166
 4163SOL    HW113388   6.124   0.282   3.184
 4163SOL    HW213389   6.133   0.425   3.105
 4164SOL     OW13390   1.174   6.783   6.464
 4164SOL    HW113391   1.236   6.758   6.538
 4164SOL    HW213392   1.182   6.717   6.389
 4165SOL     OW13393   4.585   0.348   0.326
 4165SOL    HW113394   4.551   0.370   0.417
 4165SOL    HW213395   4.556   0.256   0.301
 4166SOL     OW13396   5.714   3.339   1.204
 4166SOL    HW113397   5.725   3.265   1.137
 4166SOL    HW213398   5.647   3.311   1.273
 4167SOL     OW13399   2.349   3.900   0.343
 4167SOL    HW113400   2.311   3.812   0.318
 4167SOL    HW213401   2.407   3.889   0.425
 4168SOL     OW13402   0.778   5.326   1.131
 4168SOL    HW113403   0.690   5.361   1.099
 4168SOL    HW213404   0.851   5.360   1.072
 4169SOL     OW13405   5.905   3.609   4.043
 4169SOL    HW113406   5.805   3.618   4.042
 4169SOL    HW213407   5.944   3.673   3.977
 4170SOL     OW13408   3.243   3.219   5.004
 4170SOL    HW113409   3.326   3.190   4.955
 4170SOL    HW213410   3.169   3.235   4.938
 4171SOL     OW13411   5.673   4.331   1.335
 4171SOL    HW113412   5.585   4.375   1.353
 4171SOL    HW213413   5.692   4.335   1.237
 4172SOL     OW13414   0.409   2.439   6.331
 4172SOL    HW113415   0.504   2.463   6.311
 4172SOL    HW213416   0.405   2.344   6.363
 4173SOL     OW13417   6.147   3.249   4.864
 4173SOL    HW113418   6.089   3.258   4.783
 4173SOL    HW213419   6.104   3.297   4.941
 4174SOL     OW13420   5.904   0.713   3.782
 4174SOL    HW113421   6.000   0.719   3.756
 4174SOL    HW213422   5.882   0.784   3.849
 4175SOL     OW13423   2.882   6.061   3.972
 4175SOL    HW113424   2.783   6.060   3.957
 4175SOL    HW213425   2.916   5.967   3.974
 4176SOL     OW13426   2.661   6.647   2.213
 4176SOL    HW113427   2.756   6.633   2.239
 4176SOL    HW213428   2.654   6.648   2.113
 4177SOL     OW13429   0.615   4.848   5.234
 4177SOL    HW113430   0.574   4.919   5.290
 4177SOL    HW213431   0.644   4.772   5.292
 4178SOL     OW13432   4.217   0.911   4.326
 4178SOL    HW113433   4.225   0.918   4.227
 4178SOL    HW213434   4.299   0.867   4.363
 4179SOL     OW13435   5.285   3.315   3.991
 4179SOL    HW113436   5.305   3.321   4.089
 4179SOL    HW213437   5.371   3.312   3.939
 4180SOL     OW13438   5.504   3.516   2.147
 4180SOL    HW113439   5.545   3.425   2.158
 4180SOL    HW213440   5.415   3.507   2.102
 4181SOL     OW13441   2.275   2.435   6.112
 4181SOL    HW113442   2.278   2.433   6.211
 4181SOL    HW213443   2.353   2.384   6.075
 4182SOL     OW13444   0.220   6.558   2.576
 4182SOL    HW113445   0.276   6.501   2.516
 4182SOL    HW213446   0.155   6.501   2.626
 4183SOL     OW13447   3.608   1.078   1.497
 4183SOL    HW113448   3.525   1.023   1.493
 4183SOL    HW213449   3.666   1.056   1.418
 4184SOL     OW13450   4.335   4.828   1.040
 4184SOL    HW113451   4.247   4.841   0.994
 4184SOL    HW213452   4.320   4.815   1.138
 4185SOL     OW13453   0.439   5.432   3.047
 4185SOL    HW113454   0.417   5.488   3.127
 4185SOL    HW213455   0.488   5.488   2.980
 4186SOL     OW13456   1.436   4.908   0.507
 4186SOL    HW113457   1.348   4.880   0.546
 4186SOL    HW213458   1.502   4.833   0.514
 4187SOL     OW13459   3.789   3.084   5.515
 4187SOL    HW113460   3.728   3.109   5.590
 4187SOL    HW213461   3.782   2.985   5.498
 4188SOL     OW13462   4.850   6.666   4.279
 4188SOL    HW113463   4.940   6.637   4.313
 4188SOL    HW213464   4.849   6.661   4.179
 4189SOL     OW13465   3.329   1.492   4.766
 4189SOL    HW113466   3.400   1.435   4.808
 4189SOL    HW213467   3.372   1.569   4.720
 4190SOL     OW13468   2.161   0.030   6.545
 4190SOL    HW113469   2.173   0.129   6.536
 4190SOL    HW213470   2.104   7.024   6.470
 4191SOL     OW13471   5.683   3.824   3.059
 4191SOL    HW113472   5.713   3.786   3.147
 4191SOL    HW213473   5.638   3.912   3.073
 4192SOL     OW13474   0.146   1.682   3.510
 4192SOL    HW113475   0.199   1.765   3.493
 4192SOL    HW213476   0.122   1.639   3.423
 4193SOL     OW13477   1.900   6.476   1.681
 4193SOL    HW113478   1.942   6.487   1.591
 4193SOL    HW213479   1.827   6.543   1.693
 4194SOL     OW13480   6.681   2.006   5.308
 4194SOL    HW113481   6.747   2.059   5.362
 4194SOL    HW213482   6.611   2.067   5.273
 4195SOL     OW13483   3.355   0.395   1.519
 4195SOL    HW113484   3.448   0.358   1.509
 4195SOL    HW213485   3.341   0.424   1.614
 4196SOL     OW13486   6.336   1.823   4.261
 4196SOL    HW113487   6.355   1.732   4.225
 4196SOL    HW213488   6.250   1.821   4.312
 4197SOL     OW13489   4.494   4.883   4.201
 4197SOL    HW113490   4.516   4.872   4.104
 4197SOL    HW213491   4.551   4.956   4.239
 4198SOL     OW13492   6.077   3.776   6.711
 4198SOL    HW113493   6.028   3.737   6.633
 4198SOL    HW213494   6.014   3.787   6.788
 4199SOL     OW13495   1.868   3.366   6.272
 4199SOL    HW113496   1.913   3.305   6.336
 4199SOL    HW213497   1.930   3.387   6.196
 4200SOL     OW13498   2.838   6.400   5.503
 4200SOL    HW113499   2.873   6.329   5.441
 4200SOL    HW213500   2.871   6.382   5.596
 4201SOL     OW13501   5.566   6.393   3.930
 4201SOL    HW113502   5.619   6.429   3.854
 4201SOL    HW213503   5.497   6.329   3.896
 4202SOL     OW13504   4.247   4.527   5.961
 4202SOL    HW113505   4.264   4.475   5.877
 4202SOL    HW213506   4.209   4.466   6.030
 4203SOL     OW13507   3.669   5.951   2.744
 4203SOL    HW113508   3.682   6.043   2.706
 4203SOL    HW213509   3.572   5.937   2.765
 4204SOL     OW13510   3.303   2.780   1.991
 4204SOL    HW113511   3.243   2.829   2.054
 4204SOL    HW213512   3.398   2.786   2.024
 4205SOL     OW13513   3.664   5.205   4.194
 4205SOL    HW113514   3.671   5.182   4.097
 4205SOL    HW213515   3.651   5.121   4.247
 4206SOL     OW13516   4.946   1.030   5.811
 4206SOL    HW113517   4.861   1.082   5.819
 4206SOL    HW213518   5.010   1.078   5.752
 4207SOL     OW13519   2.068   1.723   1.511
 4207SOL    HW113520   2.163   1.740   1.487
 4207SOL    HW213521   2.063   1.691   1.606
 4208SOL     OW13522   1.319   2.450   0.647
 4208SOL    HW113523   1.415   2.424   0.646
 4208SOL    HW213524   1.303   2.519   0.717
 4209SOL     OW13525   1.111   1.339   4.805
 4209SOL    HW113526   1.205   1.360   4.780
 4209SOL    HW213527   1.110   1.291   4.893
 4210SOL     OW13528   3.316   3.131   2.058
 4210SOL    HW113529   3.344   3.084   1.974
 4210SOL    HW213530   3.322   3.230   2.044
 4211SOL     OW13531   5.151   5.987   5.964
 4211SOL    HW113532   5.216   6.031   5.903
 4211SOL    HW213533   5.088   5.931   5.910
 4212SOL     OW13534   6.429   2.521   2.112
 4212SOL    HW113535   6.399   2.590   2.047
 4212SOL    HW213536   6.360   2.511   2.184
 4213SOL     OW13537   2.491   0.904   2.264
 4213SOL    HW113538   2.512   0.941   2.354
 4213SOL    HW213539   2.478   0.980   2.199
 4214SOL     OW13540   0.441   4.194   5.806
 4214SOL    HW113541   0.521   4.249   5.826
 4214SOL    HW213542   0.439   4.114   5.865
 4215SOL     OW13543   6.886   5.658   5.016
 4215SOL    HW113544   6.817   5.665   5.088
 4215SOL    HW213545   6.961   5.600   5.047
 4216SOL     OW13546   1.362   2.212   3.392
 4216SOL    HW113547   1.265   2.233   3.385
 4216SOL    HW213548   1.384   2.185   3.485
 4217SOL     OW13549   6.729   0.545   2.884
 4217SOL    HW113550   6.787   0.619   2.916
 4217SOL    HW213551   6.721   0.549   2.784
 4218SOL     OW13552   5.406   0.360   1.971
 4218SOL    HW113553   5.403   0.454   1.937
 4218SOL    HW213554   5.501   0.327   1.969
 4219SOL     OW13555   2.938   4.887   5.139
 4219SOL    HW113556   2.918   4.795   5.105
 4219SOL    HW213557   2.950   4.884   5.238
 4220SOL     OW13558   6.205   3.514   2.901
 4220SOL    HW113559   6.265   3.578   2.948
 4220SOL    HW213560   6.249   3.425   2.895
 4221SOL     OW13561   6.829   5.758   6.160
 4221SOL    HW113562   6.863   5.843   6.199
 4221SOL    HW213563   6.733   5.745   6.186
 4222SOL     OW13564   6.084   1.818   2.115
 4222SOL    HW113565   6.045   1.752   2.179
 4222SOL    HW213566   6.036   1.905   2.123
 4223SOL     OW13567   3.890   3.277   3.677
 4223SOL    HW113568   3.943   3.287   3.761
 4223SOL    HW213569   3.898   3.183   3.644
 4224SOL     OW13570   5.040   3.419   4.209
 4224SOL    HW113571   5.003   3.329   4.232
 4224SOL    HW213572   5.139   3.416   4.210
 4225SOL     OW13573   5.438   0.990   5.358
 4225SOL    HW113574   5.491   1.067   5.393
 4225SOL    HW213575   5.392   0.944   5.434
 4226SOL     OW13576   2.131   0.549   3.356
 4226SOL    HW113577   2.064   0.616   3.388
 4226SOL    HW213578   2.125   0.466   3.412
 4227SOL     OW13579   3.366   4.034   6.554
 4227SOL    HW113580   3.340   3.940   6.532
 4227SOL    HW213581   3.441   4.033   6.620
 4228SOL     OW13582   5.657   5.630   4.237
 4228SOL    HW113583   5.606   5.593   4.315
 4228SOL    HW213584   5.751   5.648   4.264
 4229SOL     OW13585   3.892   4.727   6.067
 4229SOL    HW113586   3.952   4.807   6.064
 4229SOL    HW213587   3.868   4.708   6.162
 4230SOL     OW13588   2.368   0.347   4.929
 4230SOL    HW113589   2.300   0.356   4.856
 4230SOL    HW213590   2.408   0.255   4.926
 4231SOL     OW13591   5.530   6.366   4.890
 4231SOL    HW113592   5.512   6.363   4.792
 4231SOL    HW213593   5.620   6.327   4.909
 4232SOL     OW13594   0.811   4.955   1.693
 4232SOL    HW113595   0.814   4.858   1.670
 4232SOL    HW213596   0.719   4.979   1.724
 4233SOL     OW13597   6.700   0.441   0.552
 4233SOL    HW113598   6.712   0.513   0.619
 4233SOL    HW213599   6.605   0.439   0.522
 4234SOL     OW13600   2.152   5.669   5.313
 4234SOL    HW113601   2.113   5.620   5.390
 4234SOL    HW213602   2.134   5.767   5.323
 4235SOL     OW13603   5.584   4.387   5.198
 4235SOL    HW113604   5.564   4.299   5.240
 4235SOL    HW213605   5.573   4.380   5.099
 4236SOL     OW13606   6.871   3.068   3.673
 4236SOL    HW113607   6.887   3.157   3.630
 4236SOL    HW213608   6.797   3.077   3.740
 4237SOL     OW13609   6.452   4.526   4.295
 4237SOL    HW113610   6.526   4.586   4.266
 4237SOL    HW213611   6.484   4.466   4.369
 4238SOL     OW13612   4.308   4.631   4.008
 4238SOL    HW113613   4.371   4.611   4.083
 4238SOL    HW213614   4.327   4.570   3.931
 4239SOL     OW13615   5.243   0.213   4.308
 4239SOL    HW113616   5.239   0.233   4.406
 4239SOL    HW213617   5.329   0.167   4.287
 4240SOL     OW13618   2.816   6.068   6.287
 4240SOL    HW113619   2.884   6.053   6.215
 4240SOL    HW213620   2.820   6.163   6.317
 4241SOL     OW13621   6.073   0.516   0.798
 4241SOL    HW113622   6.003   0.580   0.765
 4241SOL    HW213623   6.125   0.481   0.720
 4242SOL     OW13624   2.448   6.818   3.199
 4242SOL    HW113625   2.349   6.822   3.185
 4242SOL    HW213626   2.472   6.866   3.284
 4243SOL     OW13627   0.418   3.450   2.522
 4243SOL    HW113628   0.505   3.424   2.564
 4243SOL    HW213629   0.355   3.483   2.592
 4244SOL     OW13630   4.744   6.000   1.145
 4244SOL    HW113631   4.791   5.958   1.223
 4244SOL    HW213632   4.739   5.933   1.070
 4245SOL     OW13633   0.053   2.683   0.332
 4245SOL    HW113634   6.994   2.654   0.376
 4245SOL    HW213635   0.107   2.603   0.308
 4246SOL     OW13636   5.094   3.132   2.881
 4246SOL    HW113637   5.122   3.191   2.805
 4246SOL    HW213638   4.994   3.138   2.892
 4247SOL     OW13639   2.407   5.588   4.274
 4247SOL    HW113640   2.492   5.577   4.326
 4247SOL    HW213641   2.421   5.560   4.179
 4248SOL     OW13642   1.781   0.470   3.330
 4248SOL    HW113643   1.686   0.495   3.351
 4248SOL    HW213644   1.782   0.388   3.273
 4249SOL     OW13645   0.191   2.040   3.500
 4249SOL    HW113646   0.266   2.011   3.560
 4249SOL    HW213647   0.164   2.133   3.523
 4250SOL     OW13648   0.247   5.886   4.354
 4250SOL    HW113649   0.320   5.946   4.387
 4250SOL    HW213650   0.285   5.818   4.291
 4251SOL     OW13651   6.129   2.636   6.610
 4251SOL    HW113652   6.126   2.596   6.518
 4251SOL    HW213653   6.065   2.713   6.616
 4252SOL     OW13654   6.225   5.591   6.301
 4252SOL    HW113655   6.127   5.583   6.284
 4252SOL    HW213656   6.274   5.523   6.246
 4253SOL     OW13657   3.794   6.386   2.899
 4253SOL    HW113658   3.842   6.372   2.812
 4253SOL    HW213659   3.762   6.297   2.933
 4254SOL     OW13660   1.975   4.459   1.419
 4254SOL    HW113661   1.966   4.420   1.511
 4254SOL    HW213662   2.023   4.394   1.360
 4255SOL     OW13663   0.300   3.958   3.773
 4255SOL    HW113664   0.342   3.872   3.744
 4255SOL    HW213665   0.240   3.992   3.700
 4256SOL     OW13666   0.932   5.609   1.524
 4256SOL    HW113667   0.891   5.535   1.471
 4256SOL    HW213668   0.906   5.599   1.620
 4257SOL     OW13669   6.655   1.550   4.772
 4257SOL    HW113670   6.711   1.632   4.761
 4257SOL    HW213671   6.629   1.516   4.682
 4258SOL     OW13672   3.472   5.659   1.157
 4258SOL    HW113673   3.469   5.703   1.067
 4258SOL    HW213674   3.494   5.562   1.146
 4259SOL     OW13675   1.780   6.539   1.335
 4259SOL    HW113676   1.754   6.593   1.254
 4259SOL    HW213677   1.710   6.470   1.353
 4260SOL     OW13678   5.050   0.032   4.148
 4260SOL    HW113679   4.983   0.087   4.098
 4260SOL    HW213680   5.128   0.090   4.173
 4261SOL     OW13681   2.414   0.116   4.085
 4261SOL    HW113682   2.353   0.133   4.163
 4261SOL    HW213683   2.433   0.203   4.038
 4262SOL     OW13684   1.637   5.037   5.892
 4262SOL    HW113685   1.579   5.033   5.973
 4262SOL    HW213686   1.729   5.006   5.915
 4263SOL     OW13687   2.791   1.896   3.495
 4263SOL    HW113688   2.762   1.800   3.502
 4263SOL    HW213689   2.886   1.899   3.463
 4264SOL     OW13690   5.775   1.442   4.350
 4264SOL    HW113691   5.799   1.537   4.371
 4264SOL    HW213692   5.848   1.401   4.295
 4265SOL     OW13693   3.384   0.040   0.534
 4265SOL    HW113694   3.376   6.989   0.473
 4265SOL    HW213695   3.374   0.125   0.482
 4266SOL     OW13696   1.753   0.293   0.107
 4266SOL    HW113697   1.776   0.272   0.012
 4266SOL    HW213698   1.658   0.266   0.125
 4267SOL     OW13699   2.214   4.036   3.903
 4267SOL    HW113700   2.238   4.049   3.999
 4267SOL    HW213701   2.167   3.948   3.892
 4268SOL     OW13702   1.575   5.065   6.825
 4268SOL    HW113703   1.559   5.149   6.773
 4268SOL    HW213704   1.491   5.038   6.872
 4269SOL     OW13705   3.611   1.790   3.903
 4269SOL    HW113706   3.553   1.848   3.847
 4269SOL    HW213707   3.686   1.753   3.847
 4270SOL     OW13708   3.810   3.319   1.627
 4270SOL    HW113709   3.791   3.301   1.724
 4270SOL    HW213710   3.865   3.244   1.590
 4271SOL     OW13711   5.995   1.073   0.784
 4271SOL    HW113712   6.001   1.139   0.859
 4271SOL    HW213713   6.021   1.117   0.698
 4272SOL     OW13714   6.764   3.100   5.897
 4272SOL    HW113715   6.835   3.170   5.902
 4272SOL    HW213716   6.680   3.135   5.938
 4273SOL     OW13717   4.997   6.504   5.049
 4273SOL    HW113718   4.904   6.539   5.051
 4273SOL    HW213719   5.006   6.428   5.113
 4274SOL     OW13720   0.912   6.608   2.323
 4274SOL    HW113721   0.827   6.555   2.323
 4274SOL    HW213722   0.969   6.580   2.400
 4275SOL     OW13723   0.138   2.282   4.358
 4275SOL    HW113724   0.181   2.310   4.272
 4275SOL    HW213725   0.192   2.209   4.400
 4276SOL     OW13726   3.112   4.905   3.676
 4276SOL    HW113727   3.033   4.864   3.722
 4276SOL    HW213728   3.108   4.884   3.578
 4277SOL     OW13729   6.890   4.835   3.843
 4277SOL    HW113730   6.919   4.914   3.897
 4277SOL    HW213731   6.792   4.818   3.858
 4278SOL     OW13732   6.755   6.692   3.661
 4278SOL    HW113733   6.828   6.659   3.601
 4278SOL    HW213734   6.682   6.732   3.605
 4279SOL     OW13735   1.482   1.138   2.622
 4279SOL    HW113736   1.518   1.066   2.564
 4279SOL    HW213737   1.553   1.207   2.638
 4280SOL     OW13738   6.289   6.772   6.352
 4280SOL    HW113739   6.212   6.757   6.413
 4280SOL    HW213740   6.309   6.687   6.302
 4281SOL     OW13741   4.719   5.472   3.917
 4281SOL    HW113742   4.691   5.379   3.938
 4281SOL    HW213743   4.745   5.519   4.002
 4282SOL     OW13744   3.518   4.097   0.634
 4282SOL    HW113745   3.450   4.026   0.653
 4282SOL    HW213746   3.490   4.183   0.676
 4283SOL     OW13747   4.678   0.640   3.023
 4283SOL    HW113748   4.701   0.604   3.113
 4283SOL    HW213749   4.637   0.731   3.032
 4284SOL     OW13750   4.331   5.415   0.243
 4284SOL    HW113751   4.299   5.451   0.330
 4284SOL    HW213752   4.413   5.464   0.214
 4285SOL     OW13753   3.547   0.756   6.247
 4285SOL    HW113754   3.492   0.737   6.328
 4285SOL    HW213755   3.498   0.821   6.189
 4286SOL     OW13756   0.174   0.728   6.985
 4286SOL    HW113757   0.079   0.742   6.958
 4286SOL    HW213758   0.201   0.796   0.026
 4287SOL     OW13759   4.396   0.835   0.062
 4287SOL    HW113760   4.314   0.884   0.093
 4287SOL    HW213761   4.370   0.764   7.024
 4288SOL     OW13762   6.199   5.615   2.145
 4288SOL    HW113763   6.196   5.523   2.107
 4288SOL    HW213764   6.264   5.670   2.093
 4289SOL     OW13765   0.389   2.224   5.264
 4289SOL    HW113766   0.372   2.209   5.362
 4289SOL    HW213767   0.344   2.153   5.211
 4290SOL     OW13768   0.000   6.596   3.219
 4290SOL    HW113769   0.009   6.646   3.133
 4290SOL    HW213770   0.002   6.498   3.200
 4291SOL     OW13771   4.805   3.371   5.968
 4291SOL    HW113772   4.801   3.294   5.905
 4291SOL    HW213773   4.883   3.360   6.029
 4292SOL     OW13774   5.226   2.556   0.370
 4292SOL    HW113775   5.222   2.457   0.358
 4292SOL    HW213776   5.319   2.583   0.394
 4293SOL     OW13777   4.578   3.673   6.641
 4293SOL    HW113778   4.639   3.656   6.718
 4293SOL    HW213779   4.531   3.760   6.654
 4294SOL     OW13780   2.479   1.831   6.126
 4294SOL    HW113781   2.576   1.806   6.133
 4294SOL    HW213782   2.470   1.930   6.136
 4295SOL     OW13783   4.185   6.381   2.850
 4295SOL    HW113784   4.226   6.425   2.770
 4295SOL    HW213785   4.090   6.357   2.830
 4296SOL     OW13786   3.354   6.767   0.828
 4296SOL    HW113787   3.325   6.737   0.918
 4296SOL    HW213788   3.345   6.867   0.822
 4297SOL     OW13789   6.893   5.450   1.286
 4297SOL    HW113790   6.945   5.488   1.209
 4297SOL    HW213791   6.874   5.353   1.268
 4298SOL     OW13792   4.002   6.200   1.275
 4298SOL    HW113793   3.946   6.118   1.263
 4298SOL    HW213794   3.998   6.256   1.193
 4299SOL     OW13795   0.598   2.960   0.037
 4299SOL    HW113796   0.570   2.880   7.012
 4299SOL    HW213797   0.608   2.936   0.134
 4300SOL     OW13798   3.418   0.498   0.766
 4300SOL    HW113799   3.465   0.530   0.848
 4300SOL    HW213800   3.341   0.439   0.792
 4301SOL     OW13801   2.846   6.717   1.338
 4301SOL    HW113802   2.792   6.719   1.422
 4301SOL    HW213803   2.858   6.810   1.304
 4302SOL     OW13804   0.012   0.256   6.998
 4302SOL    HW113805   6.982   0.227   0.048
 4302SOL    HW213806   6.997   0.335   6.953
 4303SOL     OW13807   0.003   4.809   3.618
 4303SOL    HW113808   6.970   4.810   3.698
 4303SOL    HW213809   6.976   4.789   3.536
 4304SOL     OW13810   3.464   4.139   2.062
 4304SOL    HW113811   3.450   4.157   2.160
 4304SOL    HW213812   3.530   4.065   2.051
 4305SOL     OW13813   0.414   7.025   5.497
 4305SOL    HW113814   0.317   0.011   5.478
 4305SOL    HW213815   0.426   6.973   5.581
 4306SOL     OW13816   4.902   3.865   4.892
 4306SOL    HW113817   4.927   3.834   4.800
 4306SOL    HW213818   4.832   3.805   4.930
 4307SOL     OW13819   5.780   2.554   5.709
 4307SOL    HW113820   5.788   2.559   5.610
 4307SOL    HW213821   5.839   2.481   5.744
 4308SOL     OW13822   5.523   5.183   1.684
 4308SOL    HW113823   5.445   5.231   1.644
 4308SOL    HW213824   5.538   5.216   1.777
 4309SOL     OW13825   0.690   3.472   6.447
 4309SOL    HW113826   0.685   3.500   6.351
 4309SOL    HW213827   0.786   3.466   6.475
 4310SOL     OW13828   1.607   2.343   2.636
 4310SOL    HW113829   1.542   2.372   2.706
 4310SOL    HW213830   1.694   2.391   2.649
 4311SOL     OW13831   1.144   6.085   2.526
 4311SOL    HW113832   1.125   6.059   2.621
 4311SOL    HW213833   1.091   6.167   2.503
 4312SOL     OW13834   0.913   5.108   2.565
 4312SOL    HW113835   0.821   5.070   2.555
 4312SOL    HW213836   0.972   5.041   2.610
 4313SOL     OW13837   4.302   1.659   0.616
 4313SOL    HW113838   4.371   1.670   0.687
 4313SOL    HW213839   4.326   1.714   0.536
 4314SOL     OW13840   6.573   2.368   5.893
 4314SOL    HW113841   6.475   2.348   5.902
 4314SOL    HW213842   6.591   2.458   5.931
 4315SOL     OW13843   1.918   1.995   3.343
 4315SOL    HW113844   1.889   2.074   3.290
 4315SOL    HW213845   1.848   1.971   3.410
 4316SOL     OW13846   4.681   0.432   2.865
 4316SOL    HW113847   4.745   0.418   2.790
 4316SOL    HW213848   4.693   0.524   2.903
 4317SOL     OW13849   4.401   0.770   5.412
 4317SOL    HW113850   4.412   0.721   5.499
 4317SOL    HW213851   4.331   0.842   5.423
 4318SOL     OW13852   0.719   0.931   4.283
 4318SOL    HW113853   0.796   0.992   4.266
 4318SOL    HW213854   0.668   0.962   4.363
 4319SOL     OW13855   1.518   2.052   1.360
 4319SOL    HW113856   1.515   2.142   1.403
 4319SOL    HW213857   1.610   2.036   1.324
 4320SOL     OW13858   3.928   6.088   0.572
 4320SOL    HW113859   3.913   6.081   0.474
 4320SOL    HW213860   3.916   6.183   0.602
 4321SOL     OW13861   6.747   5.644   3.333
 4321SOL    HW113862   6.648   5.652   3.341
 4321SOL    HW213863   6.770   5.588   3.254
 4322SOL     OW13864   0.715   3.092   5.359
 4322SOL    HW113865   0.696   3.103   5.261
 4322SOL    HW213866   0.683   3.002   5.389
 4323SOL     OW13867   4.204   5.178   6.921
 4323SOL    HW113868   4.156   5.244   6.864
 4323SOL    HW213869   4.282   5.223   6.966
 4324SOL     OW13870   6.881   3.360   5.536
 4324SOL    HW113871   6.971   3.387   5.570
 4324SOL    HW213872   6.813   3.371   5.609
 4325SOL     OW13873   2.651   1.431   2.584
 4325SOL    HW113874   2.628   1.470   2.673
 4325SOL    HW213875   2.572   1.439   2.523
 4326SOL     OW13876   5.330   3.034   2.637
 4326SOL    HW113877   5.283   3.121   2.627
 4326SOL    HW213878   5.425   3.044   2.607
 4327SOL     OW13879   3.697   5.636   3.358
 4327SOL    HW113880   3.796   5.626   3.348
 4327SOL    HW213881   3.658   5.552   3.394
 4328SOL     OW13882   6.266   4.758   4.713
 4328SOL    HW113883   6.317   4.800   4.638
 4328SOL    HW213884   6.316   4.678   4.746
 4329SOL     OW13885   5.698   3.100   5.222
 4329SOL    HW113886   5.718   3.159   5.301
 4329SOL    HW213887   5.643   3.022   5.253
 4330SOL     OW13888   2.774   6.566   5.185
 4330SOL    HW113889   2.790   6.467   5.179
 4330SOL    HW213890   2.835   6.606   5.254
 4331SOL     OW13891   0.046   0.525   1.615
 4331SOL    HW113892   0.011   0.454   1.676
 4331SOL    HW213893   0.006   0.514   1.524
 4332SOL     OW13894   5.569   3.652   2.876
 4332SOL    HW113895   5.585   3.556   2.898
 4332SOL    HW213896   5.626   3.709   2.936
 4333SOL     OW13897   4.930   2.469   4.996
 4333SOL    HW113898   4.833   2.464   4.974
 4333SOL    HW213899   4.963   2.378   5.021
 4334SOL     OW13900   0.896   2.880   2.937
 4334SOL    HW113901   0.958   2.886   3.015
 4334SOL    HW213902   0.931   2.936   2.862
 4335SOL     OW13903   3.105   3.287   0.765
 4335SOL    HW113904   3.188   3.331   0.731
 4335SOL    HW213905   3.120   3.189   0.774
 4336SOL     OW13906   2.159   5.010   5.421
 4336SOL    HW113907   2.088   4.961   5.370
 4336SOL    HW213908   2.229   4.945   5.451
 4337SOL     OW13909   1.091   6.006   2.792
 4337SOL    HW113910   1.151   5.973   2.865
 4337SOL    HW213911   0.996   5.985   2.816
 4338SOL     OW13912   6.082   7.026   6.115
 4338SOL    HW113913   5.990   6.991   6.129
 4338SOL    HW213914   6.143   6.952   6.086
 4339SOL     OW13915   4.111   2.261   6.985
 4339SOL    HW113916   4.076   2.301   0.043
 4339SOL    HW213917   4.207   2.236   6.996
 4340SOL     OW13918   6.039   3.477   0.841
 4340SOL    HW113919   6.059   3.567   0.880
 4340SOL    HW213920   6.059   3.477   0.743
 4341SOL     OW13921   0.979   5.871   2.365
 4341SOL    HW113922   1.054   5.892   2.302
 4341SOL    HW213923   0.963   5.950   2.425
 4342SOL     OW13924   4.936   3.399   3.173
 4342SOL    HW113925   4.930   3.486   3.222
 4342SOL    HW213926   4.909   3.413   3.078
 4343SOL     OW13927   3.464   0.007   6.454
 4343SOL    HW113928   3.522   0.089   6.453
 4343SOL    HW213929   3.411   0.005   6.539
 4344SOL     OW13930   0.723   2.870   3.419
 4344SOL    HW113931   0.703   2.938   3.489
 4344SOL    HW213932   0.638   2.837   3.379
 4345SOL     OW13933   2.958   3.460   2.625
 4345SOL    HW113934   2.987   3.555   2.624
 4345SOL    HW213935   3.039   3.401   2.633
 4346SOL     OW13936   2.382   2.647   2.944
 4346SOL    HW113937   2.321   2.723   2.920
 4346SOL    HW213938   2.377   2.631   3.042
 4347SOL     OW13939   6.260   5.739   1.336
 4347SOL    HW113940   6.316   5.787   1.268
 4347SOL    HW213941   6.246   5.798   1.415
 4348SOL     OW13942   6.794   5.853   4.159
 4348SOL    HW113943   6.753   5.899   4.237
 4348SOL    HW213944   6.732   5.857   4.081
 4349SOL     OW13945   0.174   4.078   3.456
 4349SOL    HW113946   0.105   4.141   3.491
 4349SOL    HW213947   0.164   4.070   3.356
 4350SOL     OW13948   5.800   1.692   4.458
 4350SOL    HW113949   5.747   1.732   4.384
 4350SOL    HW213950   5.839   1.766   4.514
 4351SOL     OW13951   1.804   5.825   1.631
 4351SOL    HW113952   1.728   5.812   1.568
 4351SOL    HW213953   1.770   5.828   1.725
 4352SOL     OW13954   5.660   3.722   1.053
 4352SOL    HW113955   5.682   3.783   0.977
 4352SOL    HW213956   5.723   3.645   1.053
 4353SOL     OW13957   3.258   3.410   6.655
 4353SOL    HW113958   3.188   3.397   6.725
 4353SOL    HW213959   3.340   3.358   6.679
 4354SOL     OW13960   0.895   0.956   5.314
 4354SOL    HW113961   0.849   1.026   5.369
 4354SOL    HW213962   0.875   0.865   5.351
 4355SOL     OW13963   1.340   6.581   3.729
 4355SOL    HW113964   1.290   6.496   3.710
 4355SOL    HW213965   1.382   6.614   3.644
 4356SOL     OW13966   4.660   3.228   5.668
 4356SOL    HW113967   4.576   3.234   5.722
 4356SOL    HW213968   4.640   3.184   5.581
 4357SOL     OW13969   0.244   1.364   2.040
 4357SOL    HW113970   0.321   1.363   2.103
 4357SOL    HW213971   0.275   1.393   1.949
 4358SOL     OW13972   0.217   1.144   0.319
 4358SOL    HW113973   0.299   1.175   0.271
 4358SOL    HW213974   0.159   1.223   0.341
 4359SOL     OW13975   2.024   0.625   6.193
 4359SOL    HW113976   1.940   0.672   6.170
 4359SOL    HW213977   2.052   0.648   6.287
 4360SOL     OW13978   0.962   2.903   3.770
 4360SOL    HW113979   0.910   2.885   3.853
 4360SOL    HW213980   0.934   2.838   3.699
 4361SOL     OW13981   1.973   2.716   1.106
 4361SOL    HW113982   2.000   2.811   1.121
 4361SOL    HW213983   1.909   2.688   1.177
 4362SOL     OW13984   0.694   6.336   4.182
 4362SOL    HW113985   0.639   6.306   4.104
 4362SOL    HW213986   0.737   6.258   4.226
 4363SOL     OW13987   4.458   0.400   3.011
 4363SOL    HW113988   4.551   0.400   2.973
 4363SOL    HW213989   4.399   0.343   2.954
 4364SOL     OW13990   3.015   3.752   2.615
 4364SOL    HW113991   3.109   3.778   2.637
 4364SOL    HW213992   2.993   3.784   2.523
 4365SOL     OW13993   2.874   1.960   1.775
 4365SOL    HW113994   2.829   1.994   1.692
 4365SOL    HW213995   2.900   1.864   1.761
 4366SOL     OW13996   6.109   6.069   5.410
 4366SOL    HW113997   6.083   6.113   5.324
 4366SOL    HW213998   6.167   5.990   5.391
 4367SOL     OW13999   3.318   4.968   2.692
 4367SOL    HW114000   3.311   4.970   2.593
 4367SOL    HW214001   3.412   4.946   2.719
 4368SOL     OW14002   4.045   5.930   2.528
 4368SOL    HW114003   4.117   5.867   2.500
 4368SOL    HW214004   4.028   5.919   2.626
 4369SOL     OW14005   5.056   5.380   3.183
 4369SOL    HW114006   5.051   5.476   3.154
 4369SOL    HW214007   4.964   5.346   3.201
 4370SOL     OW14008   4.004   3.985   1.462
 4370SOL    HW114009   4.028   3.975   1.559
 4370SOL    HW214010   4.002   4.083   1.438
 4371SOL     OW14011   2.807   0.940   2.231
 4371SOL    HW114012   2.883   0.916   2.292
 4371SOL    HW214013   2.725   0.954   2.285
 4372SOL     OW14014   1.509   3.170   4.601
 4372SOL    HW114015   1.521   3.267   4.578
 4372SOL    HW214016   1.468   3.162   4.692
 4373SOL     OW14017   4.932   0.823   6.199
 4373SOL    HW114018   4.870   0.777   6.263
 4373SOL    HW214019   4.933   0.774   6.112
 4374SOL     OW14020   2.520   2.152   1.224
 4374SOL    HW114021   2.605   2.105   1.247
 4374SOL    HW214022   2.522   2.245   1.261
 4375SOL     OW14023   3.721   0.159   3.498
 4375SOL    HW114024   3.717   0.186   3.401
 4375SOL    HW214025   3.676   0.229   3.553
 4376SOL     OW14026   6.413   6.659   1.668
 4376SOL    HW114027   6.502   6.646   1.623
 4376SOL    HW214028   6.420   6.735   1.733
 4377SOL     OW14029   6.534   5.939   0.383
 4377SOL    HW114030   6.498   6.016   0.332
 4377SOL    HW214031   6.624   5.913   0.347
 4378SOL     OW14032   1.694   4.902   2.158
 4378SOL    HW114033   1.619   4.954   2.199
 4378SOL    HW214034   1.766   4.965   2.129
 4379SOL     OW14035   2.054   0.379   1.721
 4379SOL    HW114036   2.047   0.460   1.779
 4379SOL    HW214037   2.064   0.297   1.779
 4380SOL     OW14038   2.062   5.897   5.070
 4380SOL    HW114039   1.998   5.910   5.145
 4380SOL    HW214040   2.036   5.816   5.017
 4381SOL     OW14041   3.321   5.751   4.718
 4381SOL    HW114042   3.233   5.795   4.735
 4381SOL    HW214043   3.385   5.774   4.792
 4382SOL     OW14044   4.782   4.238   4.645
 4382SOL    HW114045   4.794   4.337   4.649
 4382SOL    HW214046   4.755   4.204   4.735
 4383SOL     OW14047   1.224   1.689   5.531
 4383SOL    HW114048   1.319   1.658   5.539
 4383SOL    HW214049   1.211   1.771   5.585
 4384SOL     OW14050   4.504   0.310   1.406
 4384SOL    HW114051   4.436   0.285   1.474
 4384SOL    HW214052   4.507   0.409   1.396
 4385SOL     OW14053   6.944   1.640   4.146
 4385SOL    HW114054   6.910   1.602   4.060
 4385SOL    HW214055   6.977   1.566   4.204
 4386SOL     OW14056   0.801   4.328   6.585
 4386SOL    HW114057   0.896   4.326   6.552
 4386SOL    HW214058   0.800   4.360   6.680
 4387SOL     OW14059   6.714   2.193   1.563
 4387SOL    HW114060   6.802   2.236   1.544
 4387SOL    HW214061   6.728   2.109   1.615
 4388SOL     OW14062   3.760   0.850   6.727
 4388SOL    HW114063   3.792   0.834   6.821
 4388SOL    HW214064   3.721   0.942   6.721
 4389SOL     OW14065   5.672   1.927   1.646
 4389SOL    HW114066   5.682   1.961   1.740
 4389SOL    HW214067   5.647   2.003   1.586
 4390SOL     OW14068   3.915   2.215   1.774
 4390SOL    HW114069   3.968   2.191   1.855
 4390SOL    HW214070   3.828   2.256   1.801
 4391SOL     OW14071   1.199   6.042   6.626
 4391SOL    HW114072   1.168   5.948   6.608
 4391SOL    HW214073   1.132   6.107   6.589
 4392SOL     OW14074   5.315   3.284   4.787
 4392SOL    HW114075   5.375   3.296   4.707
 4392SOL    HW214076   5.221   3.273   4.757
 4393SOL     OW14077   4.855   6.815   3.396
 4393SOL    HW114078   4.765   6.777   3.375
 4393SOL    HW214079   4.889   6.776   3.481
 4394SOL     OW14080   5.509   6.175   2.428
 4394SOL    HW114081   5.486   6.080   2.445
 4394SOL    HW214082   5.448   6.234   2.481
 4395SOL     OW14083   4.429   2.009   0.592
 4395SOL    HW114084   4.420   1.932   0.655
 4395SOL    HW214085   4.518   2.005   0.546
 4396SOL     OW14086   2.340   1.972   4.361
 4396SOL    HW114087   2.439   1.984   4.366
 4396SOL    HW214088   2.298   2.054   4.322
 4397SOL     OW14089   0.492   1.155   4.166
 4397SOL    HW114090   0.533   1.128   4.254
 4397SOL    HW214091   0.392   1.157   4.175
 4398SOL     OW14092   1.549   4.078   4.288
 4398SOL    HW114093   1.507   4.037   4.207
 4398SOL    HW214094   1.609   4.153   4.260
 4399SOL     OW14095   2.798   0.578   0.815
 4399SOL    HW114096   2.720   0.584   0.753
 4399SOL    HW214097   2.781   0.506   0.883
 4400SOL     OW14098   2.146   6.718   4.856
 4400SOL    HW114099   2.164   6.802   4.907
 4400SOL    HW214100   2.111   6.740   4.765
 4401SOL     OW14101   6.467   5.872   5.392
 4401SOL    HW114102   6.544   5.928   5.424
 4401SOL    HW214103   6.478   5.779   5.427
 4402SOL     OW14104   1.399   6.017   2.936
 4402SOL    HW114105   1.348   5.967   3.006
 4402SOL    HW214106   1.489   5.976   2.924
 4403SOL     OW14107   6.734   7.018   3.504
 4403SOL    HW114108   6.646   7.016   3.552
 4403SOL    HW214109   6.718   7.023   3.405
 4404SOL     OW14110   1.022   3.506   4.221
 4404SOL    HW114111   0.943   3.484   4.163
 4404SOL    HW214112   1.020   3.447   4.302
 4405SOL     OW14113   3.378   4.728   5.939
 4405SOL    HW114114   3.471   4.729   5.976
 4405SOL    HW214115   3.376   4.671   5.857
 4406SOL     OW14116   4.986   4.451   1.218
 4406SOL    HW114117   4.986   4.391   1.138
 4406SOL    HW214118   5.013   4.543   1.190
 4407SOL     OW14119   0.269   5.559   0.571
 4407SOL    HW114120   0.226   5.647   0.593
 4407SOL    HW214121   0.201   5.486   0.580
 4408SOL     OW14122   4.732   0.311   1.027
 4408SOL    HW114123   4.780   0.388   0.985
 4408SOL    HW214124   4.673   0.268   0.959
 4409SOL     OW14125   3.837   1.050   1.894
 4409SOL    HW114126   3.811   0.953   1.897
 4409SOL    HW214127   3.887   1.073   1.977
 4410SOL     OW14128   1.826   4.458   6.968
 4410SOL    HW114129   1.811   4.361   6.947
 4410SOL    HW214130   1.915   4.486   6.933
 4411SOL     OW14131   3.603   3.087   3.043
 4411SOL    HW114132   3.637   3.051   2.956
 4411SOL    HW214133   3.613   3.187   3.044
 4412SOL     OW14134   4.379   1.875   5.300
 4412SOL    HW114135   4.291   1.834   5.276
 4412SOL    HW214136   4.434   1.809   5.351
 4413SOL     OW14137   4.902   5.850   4.918
 4413SOL    HW114138   4.952   5.901   4.848
 4413SOL    HW214139   4.809   5.885   4.925
 4414SOL     OW14140   4.891   4.753   2.207
 4414SOL    HW114141   4.808   4.740   2.153
 4414SOL    HW214142   4.923   4.664   2.239
 4415SOL     OW14143   5.245   3.348   6.318
 4415SOL    HW114144   5.287   3.305   6.398
 4415SOL    HW214145   5.169   3.406   6.346
 4416SOL     OW14146   2.822   1.799   4.030
 4416SOL    HW114147   2.887   1.850   4.086
 4416SOL    HW214148   2.730   1.838   4.040
 4417SOL     OW14149   0.103   4.647   2.722
 4417SOL    HW114150   0.005   4.639   2.741
 4417SOL    HW214151   0.122   4.616   2.629
 4418SOL     OW14152   4.021   6.519   3.840
 4418SOL    HW114153   3.996   6.576   3.762
 4418SOL    HW214154   4.094   6.563   3.892
 4419SOL     OW14155   5.869   5.471   0.303
 4419SOL    HW114156   5.865   5.555   0.250
 4419SOL    HW214157   5.776   5.435   0.315
 4420SOL     OW14158   4.379   0.912   0.696
 4420SOL    HW114159   4.328   0.854   0.759
 4420SOL    HW214160   4.449   0.963   0.747
 4421SOL     OW14161   1.767   1.684   2.989
 4421SOL    HW114162   1.824   1.751   3.038
 4421SOL    HW214163   1.719   1.627   3.056
 4422SOL     OW14164   2.519   3.328   5.828
 4422SOL    HW114165   2.532   3.254   5.893
 4422SOL    HW214166   2.460   3.298   5.753
 4423SOL     OW14167   0.570   2.850   5.402
 4423SOL    HW114168   0.488   2.863   5.346
 4423SOL    HW214169   0.626   2.778   5.362
 4424SOL     OW14170   4.916   0.079   3.412
 4424SOL    HW114171   4.838   0.135   3.384
 4424SOL    HW214172   4.906   7.013   3.375
 4425SOL     OW14173   3.972   5.759   6.387
 4425SOL    HW114174   3.900   5.797   6.444
 4425SOL    HW214175   3.996   5.823   6.315
 4426SOL     OW14176   6.752   1.153   5.415
 4426SOL    HW114177   6.707   1.086   5.473
 4426SOL    HW214178   6.791   1.107   5.335
 4427SOL     OW14179   0.115   0.574   2.719
 4427SOL    HW114180   0.022   0.539   2.706
 4427SOL    HW214181   0.112   0.664   2.760
 4428SOL     OW14182   2.871   4.832   3.844
 4428SOL    HW114183   2.891   4.851   3.941
 4428SOL    HW214184   2.809   4.754   3.838
 4429SOL     OW14185   3.239   0.254   4.065
 4429SOL    HW114186   3.212   0.158   4.067
 4429SOL    HW214187   3.157   0.311   4.062
 4430SOL     OW14188   4.538   2.613   3.670
 4430SOL    HW114189   4.460   2.674   3.687
 4430SOL    HW214190   4.509   2.518   3.678
 4431SOL     OW14191   3.003   1.208   2.736
 4431SOL    HW114192   2.950   1.284   2.773
 4431SOL    HW214193   3.056   1.238   2.657
 4432SOL     OW14194   3.397   2.928   3.888
 4432SOL    HW114195   3.360   2.909   3.797
 4432SOL    HW214196   3.337   2.991   3.937
 4433SOL     OW14197   6.711   6.957   4.278
 4433SOL    HW114198   6.759   6.937   4.193
 4433SOL    HW214199   6.629   7.010   4.259
 4434SOL     OW14200   4.866   1.426   4.152
 4434SOL    HW114201   4.884   1.334   4.117
 4434SOL    HW214202   4.801   1.472   4.091
 4435SOL     OW14203   4.022   3.670   0.631
 4435SOL    HW114204   3.964   3.733   0.579
 4435SOL    HW214205   3.992   3.669   0.727
 4436SOL     OW14206   3.290   2.223   6.893
 4436SOL    HW114207   3.348   2.145   6.870
 4436SOL    HW214208   3.320   2.263   6.980
 4437SOL     OW14209   4.638   0.993   4.171
 4437SOL    HW114210   4.708   1.025   4.107
 4437SOL    HW214211   4.627   1.059   4.245
 4438SOL     OW14212   4.498   1.619   6.870
 4438SOL    HW114213   4.596   1.597   6.869
 4438SOL    HW214214   4.487   1.718   6.866
 4439SOL     OW14215   0.787   5.380   1.425
 4439SOL    HW114216   0.795   5.349   1.330
 4439SOL    HW214217   0.690   5.384   1.450
 4440SOL     OW14218   1.795   5.666   6.513
 4440SOL    HW114219   1.889   5.678   6.481
 4440SOL    HW214220   1.778   5.568   6.529
 4441SOL     OW14221   6.311   1.612   1.682
 4441SOL    HW114222   6.352   1.698   1.651
 4441SOL    HW214223   6.334   1.598   1.778
 4442SOL     OW14224   2.888   6.376   3.690
 4442SOL    HW114225   2.841   6.438   3.627
 4442SOL    HW214226   2.921   6.296   3.640
 4443SOL     OW14227   1.146   2.295   6.517
 4443SOL    HW114228   1.101   2.332   6.435
 4443SOL    HW214229   1.098   2.326   6.598
 4444SOL     OW14230   4.000   6.258   6.509
 4444SOL    HW114231   3.994   6.251   6.409
 4444SOL    HW214232   3.939   6.330   6.541
 4445SOL     OW14233   1.450   0.849   6.198
 4445SOL    HW114234   1.359   0.817   6.174
 4445SOL    HW214235   1.518   0.803   6.141
 4446SOL     OW14236   6.117   0.962   1.136
 4446SOL    HW114237   6.093   0.909   1.054
 4446SOL    HW214238   6.164   1.045   1.109
 4447SOL     OW14239   5.384   3.251   5.496
 4447SOL    HW114240   5.381   3.327   5.561
 4447SOL    HW214241   5.438   3.278   5.416
 4448SOL     OW14242   2.836   3.916   0.474
 4448SOL    HW114243   2.790   3.975   0.408
 4448SOL    HW214244   2.910   3.866   0.429
 4449SOL     OW14245   3.619   0.438   6.118
 4449SOL    HW114246   3.630   0.506   6.191
 4449SOL    HW214247   3.706   0.393   6.101
 4450SOL     OW14248   3.776   3.044   3.381
 4450SOL    HW114249   3.712   2.967   3.373
 4450SOL    HW214250   3.852   3.031   3.317
 4451SOL     OW14251   5.552   3.997   2.523
 4451SOL    HW114252   5.593   3.945   2.448
 4451SOL    HW214253   5.565   3.947   2.609
 4452SOL     OW14254   6.132   6.579   4.813
 4452SOL    HW114255   6.192   6.658   4.797
 4452SOL    HW214256   6.082   6.557   4.730
 4453SOL     OW14257   6.044   3.087   0.280
 4453SOL    HW114258   6.079   2.993   0.280
 4453SOL    HW214259   6.121   3.151   0.278
 4454SOL     OW14260   5.126   1.988   0.832
 4454SOL    HW114261   5.109   2.078   0.793
 4454SOL    HW214262   5.077   1.979   0.919
 4455SOL     OW14263   2.885   6.254   0.781
 4455SOL    HW114264   2.939   6.253   0.697
 4455SOL    HW214265   2.799   6.204   0.765
 4456SOL     OW14266   2.449   5.010   2.702
 4456SOL    HW114267   2.439   4.911   2.709
 4456SOL    HW214268   2.506   5.032   2.623
 4457SOL     OW14269   4.244   2.580   0.130
 4457SOL    HW114270   4.292   2.509   0.182
 4457SOL    HW214271   4.305   2.657   0.114
 4458SOL     OW14272   1.831   3.614   6.391
 4458SOL    HW114273   1.819   3.540   6.324
 4458SOL    HW214274   1.885   3.688   6.350
 4459SOL     OW14275   5.375   0.276   4.003
 4459SOL    HW114276   5.394   0.218   4.082
 4459SOL    HW214277   5.363   0.219   3.922
 4460SOL     OW14278   2.476   2.932   6.544
 4460SOL    HW114279   2.489   2.949   6.447
 4460SOL    HW214280   2.392   2.878   6.557
 4461SOL     OW14281   1.149   0.216   2.737
 4461SOL    HW114282   1.064   0.254   2.773
 4461SOL    HW214283   1.214   0.202   2.812
 4462SOL     OW14284   6.610   4.128   1.178
 4462SOL    HW114285   6.710   4.125   1.182
 4462SOL    HW214286   6.575   4.035   1.167
 4463SOL     OW14287   2.162   2.610   6.894
 4463SOL    HW114288   2.212   2.605   6.980
 4463SOL    HW214289   2.064   2.615   6.912
 4464SOL     OW14290   6.052   5.209   0.501
 4464SOL    HW114291   6.102   5.222   0.587
 4464SOL    HW214292   6.075   5.283   0.438
 4465SOL     OW14293   1.961   5.905   2.954
 4465SOL    HW114294   1.944   5.878   3.049
 4465SOL    HW214295   2.028   5.844   2.913
 4466SOL     OW14296   1.199   0.755   2.766
 4466SOL    HW114297   1.238   0.663   2.758
 4466SOL    HW214298   1.107   0.756   2.726
 4467SOL     OW14299   0.551   6.690   3.706
 4467SOL    HW114300   0.624   6.721   3.646
 4467SOL    HW214301   0.504   6.769   3.746
 4468SOL     OW14302   0.850   1.924   0.462
 4468SOL    HW114303   0.822   1.939   0.557
 4468SOL    HW214304   0.785   1.968   0.401
 4469SOL     OW14305   2.990   6.602   1.123
 4469SOL    HW114306   2.928   6.626   1.197
 4469SOL    HW214307   3.010   6.684   1.069
 4470SOL     OW14308   5.834   3.255   1.860
 4470SOL    HW114309   5.927   3.235   1.892
 4470SOL    HW214310   5.837   3.332   1.797
 4471SOL     OW14311   0.358   2.734   0.176
 4471SOL    HW114312   0.298   2.794   0.124
 4471SOL    HW214313   0.437   2.785   0.209
 4472SOL     OW14314   1.530   4.276   2.862
 4472SOL    HW114315   1.471   4.355   2.845
 4472SOL    HW214316   1.519   4.209   2.788
 4473SOL     OW14317   0.579   0.851   4.924
 4473SOL    HW114318   0.509   0.886   4.861
 4473SOL    HW214319   0.554   0.759   4.953
 4474SOL     OW14320   3.336   0.404   2.334
 4474SOL    HW114321   3.238   0.398   2.316
 4474SOL    HW214322   3.356   0.490   2.381
 4475SOL     OW14323   2.063   3.930   1.258
 4475SOL    HW114324   2.116   3.923   1.174
 4475SOL    HW214325   2.000   4.007   1.252
 4476SOL     OW14326   5.580   6.543   3.406
 4476SOL    HW114327   5.661   6.486   3.390
 4476SOL    HW214328   5.568   6.606   3.329
 4477SOL     OW14329   1.602   0.372   6.232
 4477SOL    HW114330   1.544   0.306   6.186
 4477SOL    HW214331   1.654   0.424   6.164
 4478SOL     OW14332   2.198   6.429   2.706
 4478SOL    HW114333   2.228   6.406   2.798
 4478SOL    HW214334   2.225   6.523   2.685
 4479SOL     OW14335   1.228   0.797   6.401
 4479SOL    HW114336   1.316   0.841   6.383
 4479SOL    HW214337   1.214   0.791   6.500
 4480SOL     OW14338   2.102   3.443   4.574
 4480SOL    HW114339   2.147   3.375   4.632
 4480SOL    HW214340   2.027   3.400   4.524
 4481SOL     OW14341   2.024   6.581   4.367
 4481SOL    HW114342   1.999   6.499   4.420
 4481SOL    HW214343   2.064   6.649   4.429
 4482SOL     OW14344   0.451   3.478   3.633
 4482SOL    HW114345   0.476   3.419   3.710
 4482SOL    HW214346   0.511   3.557   3.631
 4483SOL     OW14347   6.295   2.724   1.167
 4483SOL    HW114348   6.361   2.676   1.110
 4483SOL    HW214349   6.218   2.754   1.111
 4484SOL     OW14350   3.705   1.566   5.499
 4484SOL    HW114351   3.678   1.513   5.420
 4484SOL    HW214352   3.688   1.663   5.481
 4485SOL     OW14353   5.350   2.282   6.242
 4485SOL    HW114354   5.349   2.189   6.278
 4485SOL    HW214355   5.348   2.279   6.142
 4486SOL     OW14356   6.287   3.706   4.419
 4486SOL    HW114357   6.367   3.751   4.380
 4486SOL    HW214358   6.233   3.664   4.346
 4487SOL     OW14359   2.480   3.831   6.871
 4487SOL    HW114360   2.496   3.812   6.774
 4487SOL    HW214361   2.447   3.748   6.916
 4488SOL     OW14362   5.283   2.476   6.479
 4488SOL    HW114363   5.320   2.417   6.406
 4488SOL    HW214364   5.344   2.472   6.558
 4489SOL     OW14365   5.293   6.241   4.160
 4489SOL    HW114366   5.365   6.186   4.118
 4489SOL    HW214367   5.212   6.185   4.175
 4490SOL     OW14368   5.433   2.096   2.043
 4490SOL    HW114369   5.514   2.142   2.007
 4490SOL    HW214370   5.355   2.157   2.038
 4491SOL     OW14371   0.956   2.836   3.247
 4491SOL    HW114372   0.868   2.860   3.286
 4491SOL    HW214373   1.029   2.869   3.306
 4492SOL     OW14374   5.480   2.961   0.534
 4492SOL    HW114375   5.398   2.909   0.561
 4492SOL    HW214376   5.501   3.029   0.604
 4493SOL     OW14377   3.995   4.883   4.650
 4493SOL    HW114378   4.005   4.895   4.749
 4493SOL    HW214379   4.043   4.957   4.602
 4494SOL     OW14380   6.783   2.322   6.161
 4494SOL    HW114381   6.844   2.330   6.239
 4494SOL    HW214382   6.809   2.389   6.091
 4495SOL     OW14383   5.178   7.009   3.501
 4495SOL    HW114384   5.090   0.017   3.468
 4495SOL    HW214385   5.220   6.953   3.430
 4496SOL     OW14386   5.289   5.334   0.679
 4496SOL    HW114387   5.205   5.310   0.728
 4496SOL    HW214388   5.303   5.271   0.602
 4497SOL     OW14389   4.939   6.391   6.957
 4497SOL    HW114390   4.948   6.310   7.015
 4497SOL    HW214391   4.991   6.376   6.872
 4498SOL     OW14392   0.329   3.143   6.445
 4498SOL    HW114393   0.326   3.181   6.352
 4498SOL    HW214394   0.396   3.194   6.499
 4499SOL     OW14395   6.631   3.120   4.178
 4499SOL    HW114396   6.631   3.025   4.210
 4499SOL    HW214397   6.717   3.139   4.133
 4500SOL     OW14398   2.999   3.654   3.786
 4500SOL    HW114399   2.993   3.743   3.741
 4500SOL    HW214400   3.019   3.583   3.718
 4501SOL     OW14401   0.483   3.968   5.383
 4501SOL    HW114402   0.562   4.026   5.405
 4501SOL    HW214403   0.404   4.027   5.363
 4502SOL     OW14404   2.078   2.935   6.311
 4502SOL    HW114405   2.062   2.924   6.410
 4502SOL    HW214406   2.012   2.879   6.261
 4503SOL     OW14407   2.042   0.591   3.051
 4503SOL    HW114408   2.034   0.540   3.136
 4503SOL    HW214409   1.951   0.608   3.013
 4504SOL     OW14410   6.424   2.197   5.298
 4504SOL    HW114411   6.410   2.153   5.209
 4504SOL    HW214412   6.444   2.294   5.284
 4505SOL     OW14413   0.338   6.052   4.660
 4505SOL    HW114414   0.385   6.028   4.575
 4505SOL    HW214415   0.390   6.121   4.709
 4506SOL     OW14416   4.729   2.324   4.398
 4506SOL    HW114417   4.774   2.239   4.424
 4506SOL    HW214418   4.649   2.303   4.341
 4507SOL     OW14419   4.920   4.336   1.754
 4507SOL    HW114420   4.828   4.296   1.760
 4507SOL    HW214421   4.912   4.434   1.734
 4508SOL     OW14422   1.103   4.399   6.863
 4508SOL    HW114423   1.193   4.409   6.904
 4508SOL    HW214424   1.065   4.310   6.886
 4509SOL     OW14425   4.497   1.847   4.121
 4509SOL    HW114426   4.436   1.922   4.092
 4509SOL    HW214427   4.564   1.829   4.050
 4510SOL     OW14428   5.528   7.017   4.810
 4510SOL    HW114429   5.602   6.984   4.870
 4510SOL    HW214430   5.501   6.944   4.747
 4511SOL     OW14431   0.016   3.353   6.244
 4511SOL    HW114432   0.105   3.392   6.218
 4511SOL    HW214433   6.969   3.410   6.208
 4512SOL     OW14434   2.287   0.189   5.767
 4512SOL    HW114435   2.265   0.222   5.676
 4512SOL    HW214436   2.361   0.122   5.762
 4513SOL     OW14437   4.783   6.878   1.144
 4513SOL    HW114438   4.838   6.879   1.228
 4513SOL    HW214439   4.708   6.812   1.155
 4514SOL     OW14440   4.119   0.916   4.683
 4514SOL    HW114441   4.132   1.001   4.631
 4514SOL    HW214442   4.062   0.935   4.764
 4515SOL     OW14443   6.442   3.921   6.570
 4515SOL    HW114444   6.486   3.979   6.638
 4515SOL    HW214445   6.391   3.979   6.506
 4516SOL     OW14446   0.850   1.778   6.380
 4516SOL    HW114447   0.885   1.727   6.458
 4516SOL    HW214448   0.784   1.721   6.330
 4517SOL     OW14449   2.529   7.023   6.027
 4517SOL    HW114450   2.581   0.014   6.110
 4517SOL    HW214451   2.441   6.982   6.051
 4518SOL     OW14452   0.092   2.302   3.878
 4518SOL    HW114453   0.030   2.324   3.954
 4518SOL    HW214454   0.044   2.244   3.812
 4519SOL     OW14455   6.798   1.483   2.266
 4519SOL    HW114456   6.802   1.570   2.317
 4519SOL    HW214457   6.891   1.448   2.254
 4520SOL     OW14458   5.696   5.439   2.847
 4520SOL    HW114459   5.692   5.502   2.924
 4520SOL    HW214460   5.688   5.345   2.880
 4521SOL     OW14461   4.551   1.657   6.012
 4521SOL    HW114462   4.574   1.715   5.934
 4521SOL    HW214463   4.553   1.711   6.096
 4522SOL     OW14464   5.110   0.029   3.758
 4522SOL    HW114465   5.024   0.077   3.770
 4522SOL    HW214466   5.117   7.022   3.664
 4523SOL     OW14467   1.197   3.842   0.070
 4523SOL    HW114468   1.176   3.846   0.168
 4523SOL    HW214469   1.186   3.749   0.037
 4524SOL     OW14470   5.037   2.082   5.719
 4524SOL    HW114471   5.100   2.014   5.681
 4524SOL    HW214472   5.006   2.052   5.809
 4525SOL     OW14473   6.847   2.205   3.528
 4525SOL    HW114474   6.936   2.247   3.547
 4525SOL    HW214475   6.779   2.240   3.593
 4526SOL     OW14476   5.210   0.301   1.226
 4526SOL    HW114477   5.263   0.276   1.307
 4526SOL    HW214478   5.253   0.379   1.181
 4527SOL     OW14479   4.217   1.222   3.835
 4527SOL    HW114480   4.245   1.300   3.779
 4527SOL    HW214481   4.295   1.193   3.891
 4528SOL     OW14482   5.034   6.451   0.366
 4528SOL    HW114483   4.948   6.486   0.329
 4528SOL    HW214484   5.073   6.519   0.429
 4529SOL     OW14485   2.436   1.377   3.458
 4529SOL    HW114486   2.417   1.287   3.420
 4529SOL    HW214487   2.419   1.376   3.557
 4530SOL     OW14488   0.366   3.758   5.502
 4530SOL    HW114489   0.384   3.832   5.438
 4530SOL    HW214490   0.297   3.788   5.569
 4531SOL     OW14491   0.541   3.709   3.306
 4531SOL    HW114492   0.627   3.740   3.347
 4531SOL    HW214493   0.551   3.614   3.275
 4532SOL     OW14494   0.367   1.101   2.441
 4532SOL    HW114495   0.369   1.194   2.402
 4532SOL    HW214496   0.457   1.059   2.428
 4533SOL     OW14497   1.538   0.237   3.769
 4533SOL    HW114498   1.499   0.151   3.801
 4533SOL    HW214499   1.593   0.219   3.687
 4534SOL     OW14500   6.320   3.437   4.548
 4534SOL    HW114501   6.286   3.378   4.475
 4534SOL    HW214502   6.324   3.531   4.516
 4535SOL     OW14503   4.657   2.011   2.576
 4535SOL    HW114504   4.640   2.086   2.511
 4535SOL    HW214505   4.581   1.946   2.571
 4536SOL     OW14506   4.929   1.669   4.806
 4536SOL    HW114507   5.025   1.697   4.798
 4536SOL    HW214508   4.881   1.731   4.868
 4537SOL     OW14509   3.762   3.273   6.326
 4537SOL    HW114510   3.736   3.370   6.326
 4537SOL    HW214511   3.687   3.219   6.287
 4538SOL     OW14512   3.371   2.088   4.324
 4538SOL    HW114513   3.341   2.014   4.265
 4538SOL    HW214514   3.466   2.111   4.303
 4539SOL     OW14515   2.648   2.024   4.119
 4539SOL    HW114516   2.716   2.084   4.077
 4539SOL    HW214517   2.668   2.015   4.217
 4540SOL     OW14518   3.948   3.782   3.802
 4540SOL    HW114519   3.993   3.749   3.719
 4540SOL    HW214520   3.973   3.723   3.879
 4541SOL     OW14521   5.658   0.940   0.405
 4541SOL    HW114522   5.699   0.972   0.490
 4541SOL    HW214523   5.564   0.909   0.422
 4542SOL     OW14524   6.089   6.232   1.804
 4542SOL    HW114525   6.007   6.222   1.748
 4542SOL    HW214526   6.086   6.167   1.880
 4543SOL     OW14527   4.303   1.485   6.731
 4543SOL    HW114528   4.379   1.528   6.781
 4543SOL    HW214529   4.331   1.468   6.637
 4544SOL     OW14530   2.409   6.079   6.152
 4544SOL    HW114531   2.509   6.082   6.155
 4544SOL    HW214532   2.372   6.161   6.194
 4545SOL     OW14533   5.328   2.196   5.247
 4545SOL    HW114534   5.412   2.197   5.301
 4545SOL    HW214535   5.252   2.227   5.303
 4546SOL     OW14536   1.074   0.048   5.949
 4546SOL    HW114537   0.993   0.042   6.008
 4546SOL    HW214538   1.046   0.047   5.853
 4547SOL     OW14539   6.217   2.904   1.804
 4547SOL    HW114540   6.305   2.948   1.789
 4547SOL    HW214541   6.230   2.821   1.859
 4548SOL     OW14542   1.322   4.337   4.087
 4548SOL    HW114543   1.233   4.336   4.041
 4548SOL    HW214544   1.318   4.401   4.164
 4549SOL     OW14545   6.285   4.363   2.667
 4549SOL    HW114546   6.297   4.297   2.593
 4549SOL    HW214547   6.363   4.426   2.668
 4550SOL     OW14548   0.616   5.855   3.759
 4550SOL    HW114549   0.516   5.844   3.757
 4550SOL    HW214550   0.643   5.896   3.846
 4551SOL     OW14551   0.358   1.769   5.606
 4551SOL    HW114552   0.263   1.751   5.631
 4551SOL    HW214553   0.402   1.824   5.678
 4552SOL     OW14554   6.828   2.982   6.261
 4552SOL    HW114555   6.736   2.950   6.237
 4552SOL    HW214556   6.825   3.025   6.351
 4553SOL     OW14557   3.686   4.301   0.013
 4553SOL    HW114558   3.594   4.307   0.052
 4553SOL    HW214559   3.752   4.338   0.078
 4554SOL     OW14560   3.902   0.850   2.281
 4554SOL    HW114561   3.981   0.837   2.221
 4554SOL    HW214562   3.930   0.905   2.360
 4555SOL     OW14563   4.210   1.107   6.601
 4555SOL    HW114564   4.170   1.143   6.516
 4555SOL    HW214565   4.180   1.162   6.678
 4556SOL     OW14566   4.469   1.854   3.804
 4556SOL    HW114567   4.483   1.907   3.720
 4556SOL    HW214568   4.557   1.834   3.846
 4557SOL     OW14569   5.389   0.187   4.960
 4557SOL    HW114570   5.447   0.127   4.905
 4557SOL    HW214571   5.293   0.170   4.938
 4558SOL     OW14572   6.708   4.105   6.067
 4558SOL    HW114573   6.729   4.138   5.975
 4558SOL    HW214574   6.623   4.146   6.099
 4559SOL     OW14575   1.671   6.817   2.107
 4559SOL    HW114576   1.768   6.819   2.084
 4559SOL    HW214577   1.626   6.898   2.069
 4560SOL     OW14578   5.150   4.569   3.112
 4560SOL    HW114579   5.201   4.631   3.053
 4560SOL    HW214580   5.052   4.579   3.095
 4561SOL     OW14581   2.802   0.472   1.092
 4561SOL    HW114582   2.762   0.561   1.072
 4561SOL    HW214583   2.879   0.483   1.155
 4562SOL     OW14584   3.034   5.736   5.338
 4562SOL    HW114585   2.985   5.670   5.395
 4562SOL    HW214586   3.097   5.789   5.395
 4563SOL     OW14587   6.225   3.905   0.068
 4563SOL    HW114588   6.148   3.864   0.020
 4563SOL    HW214589   6.284   3.953   0.003
 4564SOL     OW14590   1.401   5.528   1.195
 4564SOL    HW114591   1.459   5.522   1.113
 4564SOL    HW214592   1.459   5.527   1.277
 4565SOL     OW14593   0.619   1.178   5.312
 4565SOL    HW114594   0.584   1.271   5.326
 4565SOL    HW214595   0.639   1.164   5.215
 4566SOL     OW14596   6.978   0.443   0.713
 4566SOL    HW114597   7.000   0.382   0.636
 4566SOL    HW214598   0.036   0.485   0.746
 4567SOL     OW14599   0.596   0.994   0.798
 4567SOL    HW114600   0.577   1.084   0.838
 4567SOL    HW214601   0.564   0.992   0.704
 4568SOL     OW14602   1.769   3.978   5.442
 4568SOL    HW114603   1.828   3.955   5.364
 4568SOL    HW214604   1.675   3.990   5.410
 4569SOL     OW14605   2.099   2.212   3.602
 4569SOL    HW114606   2.132   2.129   3.647
 4569SOL    HW214607   2.000   2.206   3.590
 4570SOL     OW14608   0.081   5.939   3.588
 4570SOL    HW114609   0.045   5.960   3.679
 4570SOL    HW214610   0.010   5.893   3.534
 4571SOL     OW14611   3.534   3.876   5.351
 4571SOL    HW114612   3.621   3.844   5.313
 4571SOL    HW214613   3.461   3.814   5.322
 4572SOL     OW14614   0.516   6.924   0.873
 4572SOL    HW114615   0.495   6.960   0.964
 4572SOL    HW214616   0.442   6.864   0.842
 4573SOL     OW14617   6.055   5.889   0.705
 4573SOL    HW114618   6.152   5.911   0.710
 4573SOL    HW214619   6.030   5.829   0.781
 4574SOL     OW14620   6.877   4.372   0.669
 4574SOL    HW114621   6.905   4.459   0.630
 4574SOL    HW214622   6.789   4.382   0.716
 4575SOL     OW14623   0.017   2.089   0.614
 4575SOL    HW114624   0.063   2.047   0.535
 4575SOL    HW214625   0.045   2.042   0.697
 4576SOL     OW14626   2.598   5.275   6.060
 4576SOL    HW114627   2.558   5.209   5.996
 4576SOL    HW214628   2.581   5.245   6.154
 4577SOL     OW14629   0.207   3.416   3.107
 4577SOL    HW114630   0.262   3.341   3.143
 4577SOL    HW214631   0.268   3.487   3.071
 4578SOL     OW14632   0.620   4.196   3.375
 4578SOL    HW114633   0.536   4.228   3.417
 4578SOL    HW214634   0.602   4.171   3.279
 4579SOL     OW14635   4.631   1.678   2.976
 4579SOL    HW114636   4.671   1.625   3.051
 4579SOL    HW214637   4.642   1.629   2.890
 4580SOL     OW14638   5.836   4.967   0.531
 4580SOL    HW114639   5.921   5.020   0.523
 4580SOL    HW214640   5.808   4.936   0.441
 4581SOL     OW14641   2.997   5.125   2.466
 4581SOL    HW114642   2.988   5.128   2.366
 4581SOL    HW214643   3.033   5.036   2.494
 4582SOL     OW14644   6.245   6.579   4.209
 4582SOL    HW114645   6.173   6.623   4.262
 4582SOL    HW214646   6.329   6.575   4.264
 4583SOL     OW14647   3.049   1.710   5.153
 4583SOL    HW114648   3.067   1.708   5.055
 4583SOL    HW214649   3.123   1.759   5.199
 4584SOL     OW14650   0.418   5.663   6.011
 4584SOL    HW114651   0.454   5.587   6.065
 4584SOL    HW214652   0.318   5.667   6.022
 4585SOL     OW14653   2.785   6.464   2.893
 4585SOL    HW114654   2.734   6.505   2.969
 4585SOL    HW214655   2.729   6.467   2.810
 4586SOL     OW14656   3.607   4.492   1.361
 4586SOL    HW114657   3.667   4.492   1.281
 4586SOL    HW214658   3.526   4.547   1.342
 4587SOL     OW14659   4.205   3.781   1.740
 4587SOL    HW114660   4.177   3.700   1.793
 4587SOL    HW214661   4.225   3.754   1.646
 4588SOL     OW14662   3.885   3.464   4.831
 4588SOL    HW114663   3.897   3.412   4.915
 4588SOL    HW214664   3.829   3.412   4.766
 4589SOL     OW14665   5.931   1.812   2.763
 4589SOL    HW114666   5.968   1.741   2.822
 4589SOL    HW214667   5.831   1.804   2.758
 4590SOL     OW14668   4.390   5.930   1.573
 4590SOL    HW114669   4.396   5.916   1.672
 4590SOL    HW214670   4.313   5.990   1.553
 4591SOL     OW14671   6.964   6.138   5.307
 4591SOL    HW114672   6.961   6.044   5.341
 4591SOL    HW214673   0.033   6.164   5.289
 4592SOL     OW14674   3.972   3.141   1.538
 4592SOL    HW114675   3.969   3.157   1.440
 4592SOL    HW214676   3.976   3.043   1.556
 4593SOL     OW14677   4.493   5.536   3.399
 4593SOL    HW114678   4.550   5.470   3.448
 4593SOL    HW214679   4.533   5.627   3.406
 4594SOL     OW14680   4.083   1.884   1.526
 4594SOL    HW114681   4.051   1.792   1.504
 4594SOL    HW214682   4.005   1.941   1.552
 4595SOL     OW14683   3.710   2.909   5.854
 4595SOL    HW114684   3.644   2.841   5.823
 4595SOL    HW214685   3.664   2.997   5.869
 4596SOL     OW14686   5.915   6.648   1.510
 4596SOL    HW114687   5.981   6.661   1.584
 4596SOL    HW214688   5.927   6.557   1.471
 4597SOL     OW14689   4.993   4.942   6.560
 4597SOL    HW114690   4.996   4.842   6.553
 4597SOL    HW214691   4.898   4.973   6.551
 4598SOL     OW14692   0.806   4.994   6.413
 4598SOL    HW114693   0.785   4.978   6.317
 4598SOL    HW214694   0.758   4.926   6.469
 4599SOL     OW14695   1.371   3.678   1.414
 4599SOL    HW114696   1.423   3.762   1.431
 4599SOL    HW214697   1.324   3.651   1.498
 4600SOL     OW14698   2.860   5.198   6.070
 4600SOL    HW114699   2.778   5.234   6.025
 4600SOL    HW214700   2.876   5.104   6.038
 4601SOL     OW14701   1.928   1.306   5.252
 4601SOL    HW114702   1.894   1.227   5.303
 4601SOL    HW214703   1.922   1.388   5.309
 4602SOL     OW14704   1.244   6.392   1.099
 4602SOL    HW114705   1.175   6.460   1.124
 4602SOL    HW214706   1.316   6.436   1.046
 4603SOL     OW14707   3.706   6.513   1.012
 4603SOL    HW114708   3.646   6.593   1.023
 4603SOL    HW214709   3.754   6.519   0.925
 4604SOL     OW14710   4.131   1.031   1.299
 4604SOL    HW114711   4.195   1.105   1.279
 4604SOL    HW214712   4.151   0.992   1.389
 4605SOL     OW14713   4.893   0.746   4.201
 4605SOL    HW114714   4.920   0.831   4.245
 4605SOL    HW214715   4.866   0.765   4.106
 4606SOL     OW14716   0.167   6.440   2.223
 4606SOL    HW114717   0.180   6.353   2.271
 4606SOL    HW214718   0.071   6.466   2.229
 4607SOL     OW14719   2.532   2.048   0.635
 4607SOL    HW114720   2.489   2.082   0.551
 4607SOL    HW214721   2.610   1.990   0.612
 4608SOL     OW14722   1.219   5.198   4.768
 4608SOL    HW114723   1.210   5.206   4.867
 4608SOL    HW214724   1.209   5.102   4.741
 4609SOL     OW14725   4.495   5.184   6.138
 4609SOL    HW114726   4.460   5.206   6.047
 4609SOL    HW214727   4.428   5.213   6.207
 4610SOL     OW14728   6.839   2.603   0.464
 4610SOL    HW114729   6.842   2.602   0.564
 4610SOL    HW214730   6.804   2.691   0.433
 4611SOL     OW14731   6.457   4.198   6.156
 4611SOL    HW114732   6.413   4.281   6.121
 4611SOL    HW214733   6.410   4.168   6.239
 4612SOL     OW14734   1.561   6.595   0.020
 4612SOL    HW114735   1.654   6.574   0.048
 4612SOL    HW214736   1.503   6.606   0.101
 4613SOL     OW14737   2.413   6.247   2.828
 4613SOL    HW114738   2.493   6.200   2.864
 4613SOL    HW214739   2.341   6.180   2.810
 4614SOL     OW14740   1.590   5.017   6.217
 4614SOL    HW114741   1.499   4.992   6.248
 4614SOL    HW214742   1.645   5.047   6.295
 4615SOL     OW14743   1.985   1.421   6.682
 4615SOL    HW114744   1.982   1.412   6.782
 4615SOL    HW214745   2.061   1.481   6.657
 4616SOL     OW14746   0.063   0.424   6.230
 4616SOL    HW114747   7.004   0.387   6.195
 4616SOL    HW214748   0.131   0.427   6.157
 4617SOL     OW14749   1.331   2.236   2.587
 4617SOL    HW114750   1.368   2.325   2.563
 4617SOL    HW214751   1.240   2.247   2.627
 4618SOL     OW14752   1.733   2.704   5.028
 4618SOL    HW114753   1.715   2.609   5.001
 4618SOL    HW214754   1.832   2.717   5.036
 4619SOL     OW14755   5.009   6.500   3.555
 4619SOL    HW114756   4.972   6.481   3.464
 4619SOL    HW214757   4.971   6.586   3.589
 4620SOL     OW14758   3.272   3.949   6.941
 4620SOL    HW114759   3.327   3.900   7.008
 4620SOL    HW214760   3.256   3.890   6.861
 4621SOL     OW14761   5.810   2.143   4.181
 4621SOL    HW114762   5.714   2.141   4.209
 4621SOL    HW214763   5.845   2.050   4.173
 4622SOL     OW14764   0.789   3.207   1.265
 4622SOL    HW114765   0.801   3.166   1.355
 4622SOL    HW214766   0.699   3.182   1.228
 4623SOL     OW14767   0.006   5.274   0.584
 4623SOL    HW114768   0.043   5.199   0.529
 4623SOL    HW214769   0.071   5.297   0.657
 4624SOL     OW14770   4.584   6.977   3.326
 4624SOL    HW114771   4.592   6.912   3.250
 4624SOL    HW214772   4.633   0.035   3.302
 4625SOL     OW14773   1.389   4.630   0.212
 4625SOL    HW114774   1.467   4.566   0.214
 4625SOL    HW214775   1.304   4.578   0.203
 4626SOL     OW14776   5.982   4.687   1.270
 4626SOL    HW114777   6.053   4.618   1.282
 4626SOL    HW214778   5.897   4.656   1.311
 4627SOL     OW14779   3.400   5.595   5.302
 4627SOL    HW114780   3.335   5.620   5.373
 4627SOL    HW214781   3.491   5.630   5.326
 4628SOL     OW14782   6.345   4.147   3.132
 4628SOL    HW114783   6.337   4.242   3.102
 4628SOL    HW214784   6.424   4.104   3.089
 4629SOL     OW14785   2.070   4.749   6.288
 4629SOL    HW114786   2.016   4.833   6.277
 4629SOL    HW214787   2.095   4.714   6.198
 4630SOL     OW14788   3.380   5.703   3.434
 4630SOL    HW114789   3.467   5.654   3.435
 4630SOL    HW214790   3.362   5.737   3.341
 4631SOL     OW14791   2.605   0.181   3.322
 4631SOL    HW114792   2.681   0.225   3.273
 4631SOL    HW214793   2.632   0.164   3.417
 4632SOL     OW14794   4.182   5.080   3.051
 4632SOL    HW114795   4.156   5.067   3.146
 4632SOL    HW214796   4.142   5.164   3.016
 4633SOL     OW14797   6.562   2.024   4.189
 4633SOL    HW114798   6.582   2.047   4.094
 4633SOL    HW214799   6.498   1.947   4.192
 4634SOL     OW14800   2.604   4.419   6.479
 4634SOL    HW114801   2.592   4.350   6.550
 4634SOL    HW214802   2.702   4.431   6.461
 4635SOL     OW14803   6.178   3.523   2.358
 4635SOL    HW114804   6.203   3.528   2.455
 4635SOL    HW214805   6.261   3.533   2.303
 4636SOL     OW14806   2.592   4.433   6.857
 4636SOL    HW114807   2.681   4.471   6.882
 4636SOL    HW214808   2.545   4.497   6.795
 4637SOL     OW14809   1.477   0.703   6.934
 4637SOL    HW114810   1.559   0.695   6.878
 4637SOL    HW214811   1.402   0.653   6.890
 4638SOL     OW14812   3.869   2.660   6.238
 4638SOL    HW114813   3.953   2.664   6.184
 4638SOL    HW214814   3.891   2.636   6.333
 4639SOL     OW14815   1.642   4.724   5.426
 4639SOL    HW114816   1.625   4.760   5.334
 4639SOL    HW214817   1.592   4.778   5.493
 4640SOL     OW14818   4.732   5.402   3.463
 4640SOL    HW114819   4.802   5.437   3.525
 4640SOL    HW214820   4.767   5.405   3.369
 4641SOL     OW14821   2.936   5.378   3.942
 4641SOL    HW114822   2.927   5.288   3.984
 4641SOL    HW214823   2.877   5.383   3.861
 4642SOL     OW14824   6.748   6.287   5.359
 4642SOL    HW114825   6.836   6.252   5.328
 4642SOL    HW214826   6.759   6.328   5.450
 4643SOL     OW14827   4.836   2.512   0.897
 4643SOL    HW114828   4.847   2.600   0.943
 4643SOL    HW214829   4.781   2.524   0.814
 4644SOL     OW14830   1.551   5.078   5.224
 4644SOL    HW114831   1.486   5.033   5.285
 4644SOL    HW214832   1.543   5.040   5.132
 4645SOL     OW14833   1.830   0.058   4.696
 4645SOL    HW114834   1.799   6.989   4.698
 4645SOL    HW214835   1.799   0.102   4.612
 4646SOL     OW14836   2.492   6.600   2.419
 4646SOL    HW114837   2.496   6.509   2.458
 4646SOL    HW214838   2.545   6.603   2.335
 4647SOL     OW14839   0.447   6.449   3.230
 4647SOL    HW114840   0.372   6.487   3.285
 4647SOL    HW214841   0.529   6.441   3.286
 4648SOL     OW14842   3.790   0.299   1.081
 4648SOL    HW114843   3.856   0.278   1.154
 4648SOL    HW214844   3.719   0.360   1.118
 4649SOL     OW14845   5.155   0.196   5.408
 4649SOL    HW114846   5.213   0.225   5.485
 4649SOL    HW214847   5.187   0.108   5.374
 4650SOL     OW14848   3.588   6.196   2.935
 4650SOL    HW114849   3.514   6.157   2.880
 4650SOL    HW214850   3.549   6.251   3.008
 4651SOL     OW14851   0.119   2.048   1.607
 4651SOL    HW114852   0.048   1.978   1.596
 4651SOL    HW214853   0.098   2.105   1.687
 4652SOL     OW14854   0.737   0.451   3.452
 4652SOL    HW114855   0.737   0.358   3.489
 4652SOL    HW214856   0.645   0.490   3.459
 4653SOL     OW14857   6.758   5.306   6.944
 4653SOL    HW114858   6.834   5.302   7.009
 4653SOL    HW214859   6.738   5.402   6.922
 4654SOL     OW14860   0.744   0.061   0.167
 4654SOL    HW114861   0.790   0.146   0.141
 4654SOL    HW214862   0.800   7.009   0.142
 4655SOL     OW14863   0.235   4.628   2.200
 4655SOL    HW114864   0.173   4.662   2.129
 4655SOL    HW214865   0.236   4.528   2.197
 4656SOL     OW14866   0.981   0.070   3.067
 4656SOL    HW114867   0.961   0.166   3.044
 4656SOL    HW214868   0.904   0.031   3.117
 4657SOL     OW14869   5.364   0.054   1.854
 4657SOL    HW114870   5.339   0.151   1.856
 4657SOL    HW214871   5.327   0.008   1.934
 4658SOL     OW14872   3.616   0.570   2.625
 4658SOL    HW114873   3.600   0.478   2.660
 4658SOL    HW214874   3.560   0.586   2.544
 4659SOL     OW14875   2.218   3.708   5.313
 4659SOL    HW114876   2.170   3.626   5.343
 4659SOL    HW214877   2.152   3.776   5.281
 4660SOL     OW14878   1.275   2.690   4.815
 4660SOL    HW114879   1.323   2.747   4.882
 4660SOL    HW214880   1.340   2.626   4.773
 4661SOL     OW14881   3.836   4.051   4.922
 4661SOL    HW114882   3.875   3.994   4.849
 4661SOL    HW214883   3.762   4.001   4.966
 4662SOL     OW14884   4.902   0.387   5.278
 4662SOL    HW114885   4.964   0.465   5.282
 4662SOL    HW214886   4.915   0.330   5.359
 4663SOL     OW14887   6.847   1.091   2.803
 4663SOL    HW114888   6.879   1.158   2.736
 4663SOL    HW214889   6.748   1.084   2.799
 4664SOL     OW14890   2.354   2.385   6.728
 4664SOL    HW114891   2.412   2.364   6.650
 4664SOL    HW214892   2.258   2.369   6.703
 4665SOL     OW14893   4.671   0.004   6.715
 4665SOL    HW114894   4.683   6.948   6.771
 4665SOL    HW214895   4.606   0.065   6.759
 4666SOL     OW14896   2.352   1.223   0.059
 4666SOL    HW114897   2.254   1.234   0.076
 4666SOL    HW214898   2.404   1.281   0.122
 4667SOL     OW14899   6.827   4.868   6.852
 4667SOL    HW114900   6.809   4.882   6.755
 4667SOL    HW214901   6.742   4.877   6.904
 4668SOL     OW14902   0.182   1.812   3.998
 4668SOL    HW114903   0.101   1.870   3.987
 4668SOL    HW214904   0.180   1.768   4.088
 4669SOL     OW14905   3.571   6.631   0.739
 4669SOL    HW114906   3.562   6.535   0.766
 4669SOL    HW214907   3.492   6.683   0.773
 4670SOL     OW14908   3.261   1.324   5.036
 4670SOL    HW114909   3.213   1.273   4.965
 4670SOL    HW214910   3.357   1.333   5.013
 4671SOL     OW14911   6.041   3.140   1.647
 4671SOL    HW114912   6.022   3.069   1.715
 4671SOL    HW214913   6.101   3.209   1.687
 4672SOL     OW14914   2.937   4.955   5.933
 4672SOL    HW114915   2.890   4.942   5.846
 4672SOL    HW214916   2.909   4.885   5.998
 4673SOL     OW14917   3.533   0.105   1.315
 4673SOL    HW114918   3.523   0.117   1.216
 4673SOL    HW214919   3.538   0.195   1.359
 4674SOL     OW14920   5.357   6.137   6.755
 4674SOL    HW114921   5.333   6.234   6.753
 4674SOL    HW214922   5.346   6.099   6.663
 4675SOL     OW14923   0.386   3.726   0.708
 4675SOL    HW114924   0.475   3.769   0.722
 4675SOL    HW214925   0.397   3.627   0.698
 4676SOL     OW14926   1.104   5.549   3.996
 4676SOL    HW114927   1.025   5.548   4.056
 4676SOL    HW214928   1.099   5.628   3.934
 4677SOL     OW14929   1.771   1.969   0.917
 4677SOL    HW114930   1.685   2.018   0.934
 4677SOL    HW214931   1.789   1.967   0.819
 4678SOL     OW14932   2.738   4.675   3.120
 4678SOL    HW114933   2.647   4.715   3.117
 4678SOL    HW214934   2.742   4.594   3.061
 4679SOL     OW14935   4.359   6.994   2.255
 4679SOL    HW114936   4.437   6.935   2.233
 4679SOL    HW214937   4.372   0.057   2.212
 4680SOL     OW14938   4.109   1.677   0.982
 4680SOL    HW114939   4.069   1.587   0.964
 4680SOL    HW214940   4.197   1.666   1.029
 4681SOL     OW14941   4.629   4.993   6.847
 4681SOL    HW114942   4.658   4.957   6.758
 4681SOL    HW214943   4.637   5.092   6.847
 4682SOL     OW14944   5.698   3.534   5.950
 4682SOL    HW114945   5.653   3.458   5.998
 4682SOL    HW214946   5.795   3.535   5.974
 4683SOL     OW14947   6.023   5.561   2.933
 4683SOL    HW114948   6.000   5.511   3.016
 4683SOL    HW214949   5.976   5.519   2.855
 4684SOL     OW14950   4.482   6.184   6.027
 4684SOL    HW114951   4.463   6.256   6.094
 4684SOL    HW214952   4.482   6.222   5.935
 4685SOL     OW14953   1.679   4.308   6.243
 4685SOL    HW114954   1.705   4.234   6.305
 4685SOL    HW214955   1.580   4.315   6.238
 4686SOL     OW14956   3.925   5.443   0.376
 4686SOL    HW114957   3.870   5.420   0.456
 4686SOL    HW214958   3.972   5.361   0.343
 4687SOL     OW14959   4.470   2.174   4.352
 4687SOL    HW114960   4.503   2.102   4.414
 4687SOL    HW214961   4.432   2.249   4.406
 4688SOL     OW14962   5.792   2.474   5.422
 4688SOL    HW114963   5.804   2.426   5.335
 4688SOL    HW214964   5.709   2.530   5.418
 4689SOL     OW14965   5.652   0.654   1.192
 4689SOL    HW114966   5.704   0.709   1.257
 4689SOL    HW214967   5.702   0.571   1.170
 4690SOL     OW14968   1.885   1.283   0.654
 4690SOL    HW114969   1.817   1.228   0.703
 4690SOL    HW214970   1.886   1.376   0.690
 4691SOL     OW14971   4.385   3.682   0.332
 4691SOL    HW114972   4.346   3.620   0.400
 4691SOL    HW214973   4.468   3.723   0.368
 4692SOL     OW14974   5.991   5.168   3.260
 4692SOL    HW114975   6.005   5.123   3.172
 4692SOL    HW214976   6.062   5.140   3.324
 4693SOL     OW14977   1.313   0.920   4.044
 4693SOL    HW114978   1.374   0.957   3.974
 4693SOL    HW214979   1.230   0.886   4.000
 4694SOL     OW14980   1.957   2.431   0.434
 4694SOL    HW114981   1.923   2.342   0.402
 4694SOL    HW214982   2.044   2.452   0.390
 4695SOL     OW14983   1.753   5.972   0.951
 4695SOL    HW114984   1.845   5.931   0.947
 4695SOL    HW214985   1.756   6.055   1.008
 4696SOL     OW14986   0.371   5.718   6.754
 4696SOL    HW114987   0.312   5.661   6.811
 4696SOL    HW214988   0.351   5.815   6.772
 4697SOL     OW14989   1.035   3.562   1.935
 4697SOL    HW114990   1.046   3.512   2.021
 4697SOL    HW214991   1.112   3.540   1.874
 4698SOL     OW14992   3.842   6.941   3.197
 4698SOL    HW114993   3.773   6.913   3.264
 4698SOL    HW214994   3.930   6.953   3.243
 4699SOL     OW14995   0.460   6.625   2.846
 4699SOL    HW114996   0.475   6.686   2.768
 4699SOL    HW214997   0.381   6.657   2.898
 4700SOL     OW14998   6.558   1.871   2.478
 4700SOL    HW114999   6.493   1.805   2.439
 4700SOL    HW215000   6.645   1.826   2.496
 4701SOL     OW15001   3.147   2.011   1.378
 4701SOL    HW115002   3.102   2.050   1.459
 4701SOL    HW215003   3.114   2.056   1.296
 4702SOL     OW15004   4.556   5.134   0.434
 4702SOL    HW115005   4.457   5.143   0.436
 4702SOL    HW215006   4.597   5.222   0.408
 4703SOL     OW15007   1.064   5.589   2.685
 4703SOL    HW115008   1.105   5.643   2.611
 4703SOL    HW215009   1.087   5.492   2.672
 4704SOL     OW15010   0.510   5.916   5.943
 4704SOL    HW115011   0.461   5.830   5.948
 4704SOL    HW215012   0.608   5.900   5.956
 4705SOL     OW15013   3.227   2.504   0.693
 4705SOL    HW115014   3.303   2.452   0.655
 4705SOL    HW215015   3.219   2.593   0.647
 4706SOL     OW15016   1.281   0.323   0.563
 4706SOL    HW115017   1.209   0.274   0.611
 4706SOL    HW215018   1.287   0.417   0.598
 4707SOL     OW15019   1.166   5.980   1.898
 4707SOL    HW115020   1.190   5.960   1.803
 4707SOL    HW215021   1.235   6.041   1.937
 4708SOL     OW15022   0.632   2.325   5.971
 4708SOL    HW115023   0.601   2.278   6.054
 4708SOL    HW215024   0.708   2.274   5.930
 4709SOL     OW15025   4.576   5.032   4.409
 4709SOL    HW115026   4.607   4.957   4.467
 4709SOL    HW215027   4.478   5.046   4.422
 4710SOL     OW15028   5.886   6.884   5.683
 4710SOL    HW115029   5.985   6.883   5.697
 4710SOL    HW215030   5.841   6.833   5.757
 4711SOL     OW15031   6.840   2.285   2.593
 4711SOL    HW115032   6.773   2.211   2.580
 4711SOL    HW215033   6.806   2.350   2.660
 4712SOL     OW15034   4.255   4.569   6.380
 4712SOL    HW115035   4.250   4.663   6.347
 4712SOL    HW215036   4.206   4.562   6.467
 4713SOL     OW15037   4.910   5.597   0.998
 4713SOL    HW115038   4.870   5.684   1.025
 4713SOL    HW215039   4.894   5.529   1.070
 4714SOL     OW15040   0.139   1.538   6.607
 4714SOL    HW115041   0.175   1.554   6.699
 4714SOL    HW215042   0.040   1.527   6.611
 4715SOL     OW15043   5.862   2.330   1.189
 4715SOL    HW115044   5.903   2.245   1.222
 4715SOL    HW215045   5.933   2.389   1.150
 4716SOL     OW15046   4.716   5.947   6.112
 4716SOL    HW115047   4.782   6.019   6.091
 4716SOL    HW215048   4.624   5.981   6.097
 4717SOL     OW15049   2.227   5.262   5.382
 4717SOL    HW115050   2.195   5.167   5.392
 4717SOL    HW215051   2.324   5.262   5.358
 4718SOL     OW15052   4.874   2.754   1.025
 4718SOL    HW115053   4.957   2.790   1.067
 4718SOL    HW215054   4.807   2.731   1.096
 4719SOL     OW15055   5.052   4.071   2.811
 4719SOL    HW115056   5.144   4.034   2.802
 4719SOL    HW215057   5.058   4.170   2.826
 4720SOL     OW15058   2.062   4.318   6.117
 4720SOL    HW115059   1.986   4.382   6.126
 4720SOL    HW215060   2.041   4.251   6.046
 4721SOL     OW15061   5.642   2.491   1.697
 4721SOL    HW115062   5.673   2.571   1.748
 4721SOL    HW215063   5.553   2.511   1.656
 4722SOL     OW15064   0.670   5.924   0.332
 4722SOL    HW115065   0.708   5.848   0.280
 4722SOL    HW215066   0.714   6.009   0.304
 4723SOL     OW15067   3.643   4.182   5.401
 4723SOL    HW115068   3.549   4.152   5.388
 4723SOL    HW215069   3.647   4.248   5.476
 4724SOL     OW15070   0.394   6.986   4.175
 4724SOL    HW115071   0.404   0.017   4.093
 4724SOL    HW215072   0.297   6.984   4.202
 4725SOL     OW15073   5.801   4.923   0.257
 4725SOL    HW115074   5.870   4.863   0.216
 4725SOL    HW215075   5.738   4.953   0.186
 4726SOL     OW15076   0.958   3.414   5.758
 4726SOL    HW115077   0.930   3.361   5.678
 4726SOL    HW215078   1.058   3.414   5.765
 4727SOL     OW15079   0.171   5.807   0.638
 4727SOL    HW115080   0.214   5.854   0.560
 4727SOL    HW215081   0.081   5.848   0.655
 4728SOL     OW15082   6.467   1.615   2.914
 4728SOL    HW115083   6.399   1.631   2.842
 4728SOL    HW215084   6.483   1.700   2.964
 4729SOL     OW15085   5.184   0.325   0.565
 4729SOL    HW115086   5.153   0.231   0.550
 4729SOL    HW215087   5.217   0.363   0.479
 4730SOL     OW15088   4.011   5.925   5.441
 4730SOL    HW115089   4.093   5.918   5.385
 4730SOL    HW215090   3.931   5.896   5.388
 4731SOL     OW15091   3.101   0.882   0.676
 4731SOL    HW115092   3.086   0.790   0.712
 4731SOL    HW215093   3.122   0.877   0.579
 4732SOL     OW15094   0.463   3.701   5.212
 4732SOL    HW115095   0.425   3.741   5.128
 4732SOL    HW215096   0.469   3.771   5.283
 4733SOL     OW15097   1.757   4.162   2.546
 4733SOL    HW115098   1.660   4.162   2.570
 4733SOL    HW215099   1.766   4.148   2.447
 4734SOL     OW15100   5.327   3.122   0.178
 4734SOL    HW115101   5.369   3.134   0.088
 4734SOL    HW215102   5.266   3.198   0.197
 4735SOL     OW15103   6.693   5.236   4.019
 4735SOL    HW115104   6.774   5.240   4.077
 4735SOL    HW215105   6.611   5.248   4.074
 4736SOL     OW15106   5.540   2.134   4.218
 4736SOL    HW115107   5.490   2.064   4.168
 4736SOL    HW215108   5.531   2.117   4.317
 4737SOL     OW15109   2.587   4.407   0.859
 4737SOL    HW115110   2.627   4.390   0.949
 4737SOL    HW215111   2.617   4.336   0.795
 4738SOL     OW15112   3.459   6.618   3.843
 4738SOL    HW115113   3.453   6.592   3.939
 4738SOL    HW215114   3.368   6.618   3.802
 4739SOL     OW15115   5.389   1.930   4.102
 4739SOL    HW115116   5.298   1.972   4.104
 4739SOL    HW215117   5.426   1.934   4.010
 4740SOL     OW15118   0.528   0.434   0.804
 4740SOL    HW115119   0.527   0.334   0.798
 4740SOL    HW215120   0.548   0.473   0.714
 4741SOL     OW15121   4.990   4.308   0.989
 4741SOL    HW115122   4.924   4.233   0.993
 4741SOL    HW215123   5.031   4.311   0.898
 4742SOL     OW15124   3.156   5.410   1.361
 4742SOL    HW115125   3.112   5.427   1.450
 4742SOL    HW215126   3.248   5.374   1.376
 4743SOL     OW15127   1.629   1.829   5.892
 4743SOL    HW115128   1.653   1.837   5.989
 4743SOL    HW215129   1.712   1.816   5.837
 4744SOL     OW15130   2.375   3.275   5.609
 4744SOL    HW115131   2.429   3.273   5.525
 4744SOL    HW215132   2.315   3.355   5.608
 4745SOL     OW15133   2.668   4.936   5.242
 4745SOL    HW115134   2.763   4.924   5.272
 4745SOL    HW215135   2.645   4.864   5.176
 4746SOL     OW15136   6.173   6.337   1.284
 4746SOL    HW115137   6.237   6.407   1.314
 4746SOL    HW215138   6.159   6.344   1.185
 4747SOL     OW15139   1.420   3.368   5.984
 4747SOL    HW115140   1.350   3.376   6.055
 4747SOL    HW215141   1.502   3.326   6.023
 4748SOL     OW15142   1.524   6.616   1.183
 4748SOL    HW115143   1.547   6.527   1.223
 4748SOL    HW215144   1.506   6.604   1.085
 4749SOL     OW15145   3.134   6.412   6.024
 4749SOL    HW115146   3.078   6.486   5.987
 4749SOL    HW215147   3.122   6.407   6.123
 4750SOL     OW15148   0.362   2.000   3.903
 4750SOL    HW115149   0.455   2.013   3.937
 4750SOL    HW215150   0.324   1.916   3.942
 4751SOL     OW15151   1.971   3.403   0.214
 4751SOL    HW115152   2.033   3.389   0.137
 4751SOL    HW215153   1.969   3.500   0.239
 4752SOL     OW15154   3.103   6.819   0.545
 4752SOL    HW115155   3.067   6.876   0.471
 4752SOL    HW215156   3.030   6.763   0.582
 4753SOL     OW15157   5.475   0.099   4.215
 4753SOL    HW115158   5.559   0.151   4.223
 4753SOL    HW215159   5.492   0.003   4.236
 4754SOL     OW15160   5.822   0.320   5.305
 4754SOL    HW115161   5.874   0.404   5.292
 4754SOL    HW215162   5.883   0.241   5.303
 4755SOL     OW15163   2.419   0.676   6.957
 4755SOL    HW115164   2.394   0.770   6.935
 4755SOL    HW215165   2.443   0.669   0.028
 4756SOL     OW15166   5.766   1.761   1.466
 4756SOL    HW115167   5.751   1.827   1.392
 4756SOL    HW215168   5.733   1.799   1.552
 4757SOL     OW15169   1.817   1.872   2.242
 4757SOL    HW115170   1.776   1.927   2.169
 4757SOL    HW215171   1.865   1.932   2.305
 4758SOL     OW15172   3.789   5.762   5.080
 4758SOL    HW115173   3.867   5.701   5.071
 4758SOL    HW215174   3.705   5.711   5.063
 4759SOL     OW15175   5.532   5.425   4.933
 4759SOL    HW115176   5.553   5.505   4.989
 4759SOL    HW215177   5.598   5.352   4.951
 4760SOL     OW15178   3.388   2.232   1.192
 4760SOL    HW115179   3.298   2.189   1.188
 4760SOL    HW215180   3.394   2.304   1.123
 4761SOL     OW15181   6.756   1.035   0.058
 4761SOL    HW115182   6.823   1.097   0.017
 4761SOL    HW215183   6.710   0.983   7.012
 4762SOL     OW15184   2.806   5.229   3.048
 4762SOL    HW115185   2.813   5.326   3.069
 4762SOL    HW215186   2.827   5.215   2.951
 4763SOL     OW15187   6.023   6.293   3.283
 4763SOL    HW115188   6.049   6.355   3.208
 4763SOL    HW215189   6.057   6.201   3.263
 4764SOL     OW15190   5.207   3.969   5.291
 4764SOL    HW115191   5.146   4.010   5.223
 4764SOL    HW215192   5.210   3.870   5.278
 4765SOL     OW15193   5.070   6.576   4.416
 4765SOL    HW115194   5.062   6.477   4.414
 4765SOL    HW215195   5.145   6.605   4.357
 4766SOL     OW15196   4.404   0.557   3.620
 4766SOL    HW115197   4.429   0.518   3.531
 4766SOL    HW215198   4.349   0.491   3.670
 4767SOL     OW15199   4.499   5.853   6.795
 4767SOL    HW115200   4.412   5.805   6.803
 4767SOL    HW215201   4.573   5.787   6.787
 4768SOL     OW15202   5.234   1.943   5.176
 4768SOL    HW115203   5.246   2.035   5.213
 4768SOL    HW215204   5.323   1.895   5.176
 4769SOL     OW15205   4.119   5.246   1.434
 4769SOL    HW115206   4.086   5.195   1.513
 4769SOL    HW215207   4.114   5.189   1.352
 4770SOL     OW15208   2.161   0.112   3.719
 4770SOL    HW115209   2.143   0.173   3.642
 4770SOL    HW215210   2.084   0.116   3.783
 4771SOL     OW15211   3.689   5.216   6.232
 4771SOL    HW115212   3.649   5.283   6.294
 4771SOL    HW215213   3.616   5.169   6.182
 4772SOL     OW15214   2.106   5.683   2.308
 4772SOL    HW115215   2.172   5.670   2.382
 4772SOL    HW215216   2.077   5.779   2.307
 4773SOL     OW15217   6.752   5.290   4.735
 4773SOL    HW115218   6.803   5.226   4.792
 4773SOL    HW215219   6.671   5.244   4.698
 4774SOL     OW15220   1.052   2.319   2.623
 4774SOL    HW115221   1.044   2.415   2.597
 4774SOL    HW215222   0.984   2.298   2.693
 4775SOL     OW15223   5.592   0.392   2.951
 4775SOL    HW115224   5.578   0.293   2.947
 4775SOL    HW215225   5.679   0.412   2.997
 4776SOL     OW15226   2.247   6.692   3.984
 4776SOL    HW115227   2.162   6.641   3.986
 4776SOL    HW215228   2.286   6.689   3.892
 4777SOL     OW15229   2.779   4.778   1.270
 4777SOL    HW115230   2.716   4.762   1.194
 4777SOL    HW215231   2.839   4.699   1.281
 4778SOL     OW15232   5.349   2.722   1.987
 4778SOL    HW115233   5.333   2.685   2.079
 4778SOL    HW215234   5.268   2.772   1.956
 4779SOL     OW15235   6.436   0.015   2.280
 4779SOL    HW115236   6.507   0.065   2.231
 4779SOL    HW215237   6.347   0.056   2.260
 4780SOL     OW15238   0.535   7.003   6.797
 4780SOL    HW115239   0.621   0.025   6.787
 4780SOL    HW215240   0.544   6.911   6.760
 4781SOL     OW15241   2.951   6.109   1.058
 4781SOL    HW115242   2.958   6.051   0.977
 4781SOL    HW215243   2.944   6.050   1.139
 4782SOL     OW15244   4.715   6.994   0.282
 4782SOL    HW115245   4.629   0.019   0.275
 4782SOL    HW215246   4.760   7.018   0.368
 4783SOL     OW15247   4.791   4.241   0.303
 4783SOL    HW115248   4.873   4.226   0.360
 4783SOL    HW215249   4.797   4.185   0.221
 4784SOL     OW15250   6.094   4.261   0.003
 4784SOL    HW115251   6.160   4.326   6.994
 4784SOL    HW215252   6.124   4.228   0.093
 4785SOL     OW15253   6.936   5.757   1.641
 4785SOL    HW115254   6.919   5.834   1.579
 4785SOL    HW215255   6.893   5.675   1.605
 4786SOL     OW15256   2.150   2.341   2.071
 4786SOL    HW115257   2.248   2.324   2.071
 4786SOL    HW215258   2.127   2.402   1.996
 4787SOL     OW15259   3.619   2.134   3.509
 4787SOL    HW115260   3.597   2.220   3.554
 4787SOL    HW215261   3.569   2.128   3.422
 4788SOL     OW15262   1.511   5.660   6.162
 4788SOL    HW115263   1.585   5.597   6.138
 4788SOL    HW215264   1.428   5.608   6.181
 4789SOL     OW15265   5.313   0.911   0.433
 4789SOL    HW115266   5.305   1.010   0.420
 4789SOL    HW215267   5.343   0.892   0.526
 4790SOL     OW15268   6.327   3.155   6.453
 4790SOL    HW115269   6.329   3.065   6.496
 4790SOL    HW215270   6.420   3.186   6.436
 4791SOL     OW15271   5.752   2.167   2.301
 4791SOL    HW115272   5.752   2.256   2.347
 4791SOL    HW215273   5.808   2.172   2.218
 4792SOL     OW15274   1.547   3.225   2.500
 4792SOL    HW115275   1.555   3.216   2.400
 4792SOL    HW215276   1.520   3.137   2.539
 4793SOL     OW15277   0.910   2.887   5.661
 4793SOL    HW115278   0.841   2.867   5.731
 4793SOL    HW215279   0.930   2.804   5.610
 4794SOL     OW15280   3.878   0.878   3.528
 4794SOL    HW115281   3.875   0.816   3.606
 4794SOL    HW215282   3.841   0.832   3.447
 4795SOL     OW15283   6.545   2.313   3.622
 4795SOL    HW115284   6.557   2.355   3.532
 4795SOL    HW215285   6.448   2.312   3.645
 4796SOL     OW15286   4.643   2.013   6.637
 4796SOL    HW115287   4.690   2.089   6.593
 4796SOL    HW215288   4.681   2.000   6.729
 4797SOL     OW15289   1.647   5.908   5.005
 4797SOL    HW115290   1.655   6.006   5.024
 4797SOL    HW215291   1.605   5.862   5.083
 4798SOL     OW15292   0.108   3.466   5.610
 4798SOL    HW115293   0.190   3.428   5.566
 4798SOL    HW215294   0.130   3.555   5.650
 4799SOL     OW15295   4.763   2.213   6.394
 4799SOL    HW115296   4.857   2.245   6.385
 4799SOL    HW215297   4.727   2.190   6.304
 4800SOL     OW15298   3.315   3.461   5.886
 4800SOL    HW115299   3.233   3.487   5.937
 4800SOL    HW215300   3.289   3.402   5.809
 4801SOL     OW15301   2.377   2.337   0.232
 4801SOL    HW115302   2.361   2.305   0.139
 4801SOL    HW215303   2.474   2.326   0.254
 4802SOL     OW15304   1.239   6.655   2.578
 4802SOL    HW115305   1.267   6.560   2.569
 4802SOL    HW215306   1.155   6.660   2.632
 4803SOL     OW15307   1.297   6.696   0.478
 4803SOL    HW115308   1.231   6.624   0.456
 4803SOL    HW215309   1.248   6.774   0.518
 4804SOL     OW15310   4.531   4.881   6.384
 4804SOL    HW115311   4.433   4.897   6.394
 4804SOL    HW215312   4.570   4.950   6.323
 4805SOL     OW15313   7.026   6.692   1.761
 4805SOL    HW115314   0.075   6.680   1.697
 4805SOL    HW215315   0.036   6.714   1.851
 4806SOL     OW15316   0.114   3.803   3.463
 4806SOL    HW115317   0.189   3.745   3.430
 4806SOL    HW215318   0.145   3.898   3.469
 4807SOL     OW15319   1.226   5.188   0.638
 4807SOL    HW115320   1.311   5.149   0.673
 4807SOL    HW215321   1.150   5.163   0.698
 4808SOL     OW15322   6.237   4.009   6.781
 4808SOL    HW115323   6.177   3.931   6.763
 4808SOL    HW215324   6.332   3.978   6.776
 4809SOL     OW15325   3.576   3.684   6.758
 4809SOL    HW115326   3.669   3.649   6.748
 4809SOL    HW215327   3.544   3.669   6.851
 4810SOL     OW15328   1.313   4.364   2.391
 4810SOL    HW115329   1.370   4.381   2.311
 4810SOL    HW215330   1.292   4.266   2.396
 4811SOL     OW15331   2.304   4.666   2.322
 4811SOL    HW115332   2.224   4.720   2.294
 4811SOL    HW215333   2.337   4.613   2.244
 4812SOL     OW15334   0.001   5.288   5.664
 4812SOL    HW115335   6.935   5.268   5.632
 4812SOL    HW215336   0.063   5.217   5.630
 4813SOL     OW15337   5.220   1.485   1.696
 4813SOL    HW115338   5.226   1.408   1.759
 4813SOL    HW215339   5.252   1.457   1.606
 4814SOL     OW15340   6.119   4.222   0.269
 4814SOL    HW115341   6.027   4.185   0.282
 4814SOL    HW215342   6.132   4.300   0.330
 4815SOL     OW15343   5.329   4.705   2.192
 4815SOL    HW115344   5.277   4.718   2.277
 4815SOL    HW215345   5.283   4.638   2.135
 4816SOL     OW15346   6.178   5.068   2.661
 4816SOL    HW115347   6.257   5.011   2.637
 4816SOL    HW215348   6.170   5.143   2.595
 4817SOL     OW15349   0.670   2.569   6.333
 4817SOL    HW115350   0.639   2.629   6.406
 4817SOL    HW215351   0.711   2.487   6.372
 4818SOL     OW15352   0.677   0.319   4.468
 4818SOL    HW115353   0.661   0.227   4.430
 4818SOL    HW215354   0.757   0.359   4.424
 4819SOL     OW15355   1.785   3.190   0.987
 4819SOL    HW115356   1.737   3.115   0.942
 4819SOL    HW215357   1.717   3.251   1.028
 4820SOL     OW15358   6.949   2.983   1.534
 4820SOL    HW115359   6.895   2.980   1.450
 4820SOL    HW215360   6.992   3.072   1.542
 4821SOL     OW15361   0.505   6.023   2.997
 4821SOL    HW115362   0.470   6.093   3.060
 4821SOL    HW215363   0.590   5.985   3.033
 4822SOL     OW15364   1.350   3.358   4.288
 4822SOL    HW115365   1.263   3.405   4.270
 4822SOL    HW215366   1.421   3.396   4.228
 4823SOL     OW15367   1.771   2.126   3.062
 4823SOL    HW115368   1.685   2.105   3.107
 4823SOL    HW215369   1.762   2.114   2.963
 4824SOL     OW15370   5.417   1.948   5.555
 4824SOL    HW115371   5.345   1.897   5.603
 4824SOL    HW215372   5.495   1.887   5.539
 4825SOL     OW15373   1.254   1.997   4.287
 4825SOL    HW115374   1.155   2.005   4.273
 4825SOL    HW215375   1.276   2.019   4.382
 4826SOL     OW15376   5.460   0.838   0.656
 4826SOL    HW115377   5.471   0.742   0.683
 4826SOL    HW215378   5.500   0.897   0.726
 4827SOL     OW15379   5.814   2.357   0.444
 4827SOL    HW115380   5.854   2.349   0.535
 4827SOL    HW215381   5.869   2.418   0.388
 4828SOL     OW15382   4.813   0.508   1.315
 4828SOL    HW115383   4.867   0.425   1.328
 4828SOL    HW215384   4.764   0.502   1.228
 4829SOL     OW15385   4.406   7.023   6.503
 4829SOL    HW115386   4.333   0.002   6.434
 4829SOL    HW215387   4.444   0.087   6.518
 4830SOL     OW15388   3.758   5.838   4.417
 4830SOL    HW115389   3.814   5.856   4.498
 4830SOL    HW215390   3.817   5.814   4.340
 4831SOL     OW15391   2.559   5.397   5.099
 4831SOL    HW115392   2.641   5.451   5.084
 4831SOL    HW215393   2.478   5.452   5.081
 4832SOL     OW15394   2.998   3.224   4.374
 4832SOL    HW115395   2.993   3.318   4.340
 4832SOL    HW215396   2.906   3.192   4.397
 4833SOL     OW15397   5.558   2.110   2.922
 4833SOL    HW115398   5.526   2.115   2.828
 4833SOL    HW215399   5.520   2.186   2.974
 4834SOL     OW15400   2.286   6.000   2.274
 4834SOL    HW115401   2.353   5.986   2.202
 4834SOL    HW215402   2.284   6.096   2.301
 4835SOL     OW15403   6.017   2.858   5.995
 4835SOL    HW115404   6.044   2.823   5.906
 4835SOL    HW215405   6.070   2.812   6.067
 4836SOL     OW15406   5.354   1.357   5.233
 4836SOL    HW115407   5.391   1.303   5.157
 4836SOL    HW215408   5.429   1.380   5.296
 4837SOL     OW15409   6.729   3.611   2.949
 4837SOL    HW115410   6.690   3.617   2.857
 4837SOL    HW215411   6.677   3.543   3.002
 4838SOL     OW15412   2.299   5.295   6.732
 4838SOL    HW115413   2.252   5.358   6.795
 4838SOL    HW215414   2.240   5.277   6.653
 4839SOL     OW15415   1.512   3.495   0.123
 4839SOL    HW115416   1.535   3.527   0.031
 4839SOL    HW215417   1.585   3.436   0.157
 4840SOL     OW15418   5.729   3.992   5.454
 4840SOL    HW115419   5.744   4.074   5.510
 4840SOL    HW215420   5.817   3.953   5.428
 4841SOL     OW15421   3.386   5.611   2.933
 4841SOL    HW115422   3.399   5.675   2.857
 4841SOL    HW215423   3.424   5.650   3.017
 4842SOL     OW15424   2.880   5.517   3.060
 4842SOL    HW115425   2.792   5.559   3.084
 4842SOL    HW215426   2.912   5.557   2.974
 4843SOL     OW15427   6.372   2.283   1.966
 4843SOL    HW115428   6.411   2.262   1.876
 4843SOL    HW215429   6.408   2.369   2.000
 4844SOL     OW15430   0.728   4.064   5.405
 4844SOL    HW115431   0.765   4.041   5.494
 4844SOL    HW215432   0.794   4.121   5.355
 4845SOL     OW15433   4.509   4.995   5.226
 4845SOL    HW115434   4.587   4.965   5.171
 4845SOL    HW215435   4.424   4.962   5.185
 4846SOL     OW15436   0.215   1.872   3.295
 4846SOL    HW115437   0.128   1.865   3.245
 4846SOL    HW215438   0.208   1.944   3.364
 4847SOL     OW15439   2.816   1.051   5.382
 4847SOL    HW115440   2.910   1.028   5.358
 4847SOL    HW215441   2.757   0.971   5.368
 4848SOL     OW15442   2.682   1.216   4.280
 4848SOL    HW115443   2.721   1.124   4.277
 4848SOL    HW215444   2.677   1.253   4.187
 4849SOL     OW15445   1.926   0.029   0.368
 4849SOL    HW115446   1.827   0.016   0.370
 4849SOL    HW215447   1.966   7.016   0.451
 4850SOL     OW15448   4.241   0.605   1.713
 4850SOL    HW115449   4.298   0.523   1.712
 4850SOL    HW215450   4.252   0.652   1.801
 4851SOL     OW15451   4.210   5.749   6.522
 4851SOL    HW115452   4.202   5.681   6.595
 4851SOL    HW215453   4.123   5.797   6.512
 4852SOL     OW15454   3.121   5.918   4.728
 4852SOL    HW115455   3.140   5.950   4.635
 4852SOL    HW215456   3.152   5.986   4.794
 4853SOL     OW15457   3.764   1.291   3.191
 4853SOL    HW115458   3.689   1.259   3.132
 4853SOL    HW215459   3.742   1.269   3.286
 4854SOL     OW15460   5.175   6.767   1.854
 4854SOL    HW115461   5.181   6.846   1.793
 4854SOL    HW215462   5.152   6.799   1.946
 4855SOL     OW15463   6.572   3.600   4.936
 4855SOL    HW115464   6.635   3.596   4.859
 4855SOL    HW215465   6.482   3.566   4.907
 4856SOL     OW15466   0.467   2.840   2.430
 4856SOL    HW115467   0.533   2.799   2.367
 4856SOL    HW215468   0.402   2.770   2.460
 4857SOL     OW15469   3.508   1.847   3.628
 4857SOL    HW115470   3.469   1.929   3.585
 4857SOL    HW215471   3.534   1.781   3.558
 4858SOL     OW15472   1.264   0.115   4.580
 4858SOL    HW115473   1.297   0.188   4.520
 4858SOL    HW215474   1.165   0.122   4.591
 4859SOL     OW15475   1.592   4.720   1.300
 4859SOL    HW115476   1.526   4.771   1.355
 4859SOL    HW215477   1.642   4.783   1.241
 4860SOL     OW15478   4.300   4.648   0.279
 4860SOL    HW115479   4.250   4.561   0.273
 4860SOL    HW215480   4.398   4.632   0.267
 4861SOL     OW15481   6.142   5.278   6.458
 4861SOL    HW115482   6.105   5.365   6.487
 4861SOL    HW215483   6.227   5.259   6.508
 4862SOL     OW15484   3.056   5.068   4.806
 4862SOL    HW115485   3.038   5.148   4.748
 4862SOL    HW215486   2.982   5.058   4.872
 4863SOL     OW15487   4.876   3.265   2.687
 4863SOL    HW115488   4.839   3.207   2.759
 4863SOL    HW215489   4.854   3.225   2.598
 4864SOL     OW15490   3.119   1.637   1.993
 4864SOL    HW115491   3.129   1.616   2.090
 4864SOL    HW215492   3.208   1.656   1.952
 4865SOL     OW15493   2.788   4.830   5.728
 4865SOL    HW115494   2.728   4.858   5.652
 4865SOL    HW215495   2.768   4.735   5.751
 4866SOL     OW15496   5.754   4.585   1.393
 4866SOL    HW115497   5.728   4.594   1.489
 4866SOL    HW215498   5.723   4.496   1.358
 4867SOL     OW15499   4.732   5.678   3.706
 4867SOL    HW115500   4.808   5.642   3.652
 4867SOL    HW215501   4.722   5.623   3.790
 4868SOL     OW15502   0.943   5.886   1.392
 4868SOL    HW115503   0.947   5.787   1.406
 4868SOL    HW215504   0.847   5.916   1.396
 4869SOL     OW15505   6.645   2.042   0.937
 4869SOL    HW115506   6.681   2.119   0.990
 4869SOL    HW215507   6.547   2.036   0.951
 4870SOL     OW15508   4.240   5.626   1.682
 4870SOL    HW115509   4.291   5.675   1.611
 4870SOL    HW215510   4.147   5.663   1.687
 4871SOL     OW15511   1.594   1.189   3.111
 4871SOL    HW115512   1.545   1.274   3.092
 4871SOL    HW215513   1.628   1.150   3.026
 4872SOL     OW15514   1.130   0.197   3.251
 4872SOL    HW115515   1.122   0.155   3.341
 4872SOL    HW215516   1.105   0.131   3.180
 4873SOL     OW15517   0.182   5.279   4.580
 4873SOL    HW115518   0.153   5.366   4.620
 4873SOL    HW215519   0.114   5.247   4.515
 4874SOL     OW15520   5.672   3.604   2.333
 4874SOL    HW115521   5.691   3.537   2.405
 4874SOL    HW215522   5.605   3.566   2.269
 4875SOL     OW15523   5.443   2.364   1.082
 4875SOL    HW115524   5.523   2.348   1.026
 4875SOL    HW215525   5.376   2.291   1.067
 4876SOL     OW15526   5.730   0.438   5.748
 4876SOL    HW115527   5.679   0.426   5.663
 4876SOL    HW215528   5.820   0.395   5.740
 4877SOL     OW15529   6.883   1.412   1.223
 4877SOL    HW115530   6.816   1.392   1.295
 4877SOL    HW215531   6.916   1.505   1.233
 4878SOL     OW15532   0.488   1.491   2.124
 4878SOL    HW115533   0.435   1.575   2.111
 4878SOL    HW215534   0.586   1.512   2.119
 4879SOL     OW15535   4.503   4.731   2.892
 4879SOL    HW115536   4.520   4.780   2.806
 4879SOL    HW215537   4.572   4.659   2.903
 4880SOL     OW15538   5.130   2.253   0.102
 4880SOL    HW115539   5.219   2.257   0.147
 4880SOL    HW215540   5.058   2.272   0.168
 4881SOL     OW15541   2.849   6.451   6.516
 4881SOL    HW115542   2.765   6.396   6.518
 4881SOL    HW215543   2.887   6.457   6.608
 4882SOL     OW15544   6.258   1.665   5.692
 4882SOL    HW115545   6.347   1.641   5.652
 4882SOL    HW215546   6.222   1.746   5.646
 4883SOL     OW15547   5.303   4.866   2.490
 4883SOL    HW115548   5.347   4.955   2.498
 4883SOL    HW215549   5.218   4.875   2.438
 4884SOL     OW15550   4.507   7.000   1.558
 4884SOL    HW115551   4.599   0.011   1.560
 4884SOL    HW215552   4.485   6.961   1.648
 4885SOL     OW15553   2.064   6.449   2.261
 4885SOL    HW115554   1.965   6.443   2.277
 4885SOL    HW215555   2.093   6.544   2.269
 4886SOL     OW15556   0.235   6.682   6.675
 4886SOL    HW115557   0.232   6.686   6.775
 4886SOL    HW215558   0.225   6.774   6.637
 4887SOL     OW15559   6.965   2.227   3.220
 4887SOL    HW115560   6.898   2.216   3.148
 4887SOL    HW215561   6.942   2.167   3.297
 4888SOL     OW15562   1.687   6.913   3.694
 4888SOL    HW115563   1.753   6.986   3.676
 4888SOL    HW215564   1.711   6.867   3.780
 4889SOL     OW15565   0.386   1.918   0.247
 4889SOL    HW115566   0.389   1.850   0.321
 4889SOL    HW215567   0.291   1.934   0.221
 4890SOL     OW15568   0.483   1.540   4.223
 4890SOL    HW115569   0.533   1.552   4.308
 4890SOL    HW215570   0.512   1.455   4.178
 4891SOL     OW15571   0.895   5.347   7.026
 4891SOL    HW115572   0.974   5.378   6.974
 4891SOL    HW215573   0.921   5.331   0.095
 4892SOL     OW15574   1.295   5.642   2.810
 4892SOL    HW115575   1.314   5.734   2.777
 4892SOL    HW215576   1.200   5.618   2.792
 4893SOL     OW15577   6.740   4.496   6.830
 4893SOL    HW115578   6.729   4.499   6.930
 4893SOL    HW215579   6.715   4.584   6.791
 4894SOL     OW15580   2.302   0.116   2.621
 4894SOL    HW115581   2.338   0.161   2.702
 4894SOL    HW215582   2.216   0.159   2.594
 4895SOL     OW15583   0.598   3.841   0.957
 4895SOL    HW115584   0.648   3.907   0.901
 4895SOL    HW215585   0.657   3.762   0.977
 4896SOL     OW15586   3.388   5.428   3.268
 4896SOL    HW115587   3.440   5.424   3.182
 4896SOL    HW215588   3.442   5.387   3.341
 4897SOL     OW15589   3.769   5.017   6.543
 4897SOL    HW115590   3.836   5.090   6.556
 4897SOL    HW215591   3.781   4.976   6.453
 4898SOL     OW15592   5.423   2.235   5.593
 4898SOL    HW115593   5.359   2.288   5.648
 4898SOL    HW215594   5.410   2.137   5.610
 4899SOL     OW15595   6.387   4.880   2.608
 4899SOL    HW115596   6.354   4.827   2.686
 4899SOL    HW215597   6.480   4.911   2.625
 4900SOL     OW15598   0.132   6.521   5.913
 4900SOL    HW115599   0.203   6.479   5.968
 4900SOL    HW215600   0.087   6.451   5.857
 4901SOL     OW15601   2.112   7.015   4.348
 4901SOL    HW115602   2.047   7.023   4.272
 4901SOL    HW215603   2.183   0.059   4.340
 4902SOL     OW15604   0.960   3.461   2.656
 4902SOL    HW115605   1.023   3.403   2.603
 4902SOL    HW215606   1.000   3.479   2.746
 4903SOL     OW15607   4.143   6.369   6.793
 4903SOL    HW115608   4.165   6.277   6.761
 4903SOL    HW215609   4.146   6.371   6.893
 4904SOL     OW15610   2.218   5.492   4.453
 4904SOL    HW115611   2.152   5.542   4.398
 4904SOL    HW215612   2.308   5.495   4.410
 4905SOL     OW15613   4.637   2.059   2.296
 4905SOL    HW115614   4.693   2.125   2.347
 4905SOL    HW215615   4.661   1.966   2.324
 4906SOL     OW15616   4.486   0.105   0.279
 4906SOL    HW115617   4.394   0.141   0.263
 4906SOL    HW215618   4.485   0.044   0.358
 4907SOL     OW15619   3.987   6.158   3.074
 4907SOL    HW115620   3.966   6.254   3.096
 4907SOL    HW215621   3.910   6.100   3.100
 4908SOL     OW15622   4.038   5.894   0.053
 4908SOL    HW115623   4.103   5.834   0.099
 4908SOL    HW215624   3.956   5.841   0.028
 4909SOL     OW15625   6.055   0.839   6.125
 4909SOL    HW115626   6.086   0.894   6.047
 4909SOL    HW215627   5.982   0.778   6.095
 4910SOL     OW15628   5.343   0.310   5.575
 4910SOL    HW115629   5.429   0.337   5.533
 4910SOL    HW215630   5.361   0.270   5.665
 4911SOL     OW15631   6.725   1.979   5.922
 4911SOL    HW115632   6.736   2.057   5.860
 4911SOL    HW215633   6.682   1.903   5.873
 4912SOL     OW15634   5.040   1.136   1.744
 4912SOL    HW115635   4.949   1.171   1.768
 4912SOL    HW215636   5.030   1.047   1.700
 4913SOL     OW15637   3.114   4.006   3.858
 4913SOL    HW115638   3.173   4.072   3.811
 4913SOL    HW215639   3.092   3.931   3.795
 4914SOL     OW15640   3.058   1.199   4.552
 4914SOL    HW115641   3.056   1.250   4.639
 4914SOL    HW215642   3.052   1.263   4.476
 4915SOL     OW15643   4.400   6.901   3.966
 4915SOL    HW115644   4.397   6.813   4.014
 4915SOL    HW215645   4.438   6.971   4.026
 4916SOL     OW15646   2.389   2.033   3.170
 4916SOL    HW115647   2.436   2.083   3.097
 4916SOL    HW215648   2.310   2.086   3.202
 4917SOL     OW15649   1.294   4.118   0.474
 4917SOL    HW115650   1.259   4.039   0.524
 4917SOL    HW215651   1.353   4.087   0.399
 4918SOL     OW15652   2.632   0.382   2.748
 4918SOL    HW115653   2.715   0.331   2.725
 4918SOL    HW215654   2.578   0.330   2.813
 4919SOL     OW15655   1.729   2.070   2.797
 4919SOL    HW115656   1.753   1.975   2.776
 4919SOL    HW215657   1.787   2.132   2.744
 4920SOL     OW15658   4.270   0.317   7.001
 4920SOL    HW115659   4.237   0.353   6.914
 4920SOL    HW215660   4.317   0.390   0.025
 4921SOL     OW15661   2.289   3.793   1.838
 4921SOL    HW115662   2.282   3.700   1.802
 4921SOL    HW215663   2.243   3.856   1.775
 4922SOL     OW15664   1.223   3.375   5.222
 4922SOL    HW115665   1.206   3.286   5.265
 4922SOL    HW215666   1.204   3.369   5.124
 4923SOL     OW15667   5.085   0.336   1.810
 4923SOL    HW115668   5.166   0.394   1.808
 4923SOL    HW215669   5.025   0.364   1.884
 4924SOL     OW15670   2.131   3.231   4.758
 4924SOL    HW115671   2.157   3.217   4.854
 4924SOL    HW215672   2.132   3.143   4.711
 4925SOL     OW15673   5.852   6.108   1.263
 4925SOL    HW115674   5.785   6.182   1.259
 4925SOL    HW215675   5.835   6.044   1.188
 4926SOL     OW15676   5.251   2.928   1.754
 4926SOL    HW115677   5.271   3.013   1.803
 4926SOL    HW215678   5.152   2.910   1.758
 4927SOL     OW15679   3.942   3.041   3.152
 4927SOL    HW115680   3.921   3.044   3.054
 4927SOL    HW215681   4.015   2.975   3.169
 4928SOL     OW15682   0.279   6.919   6.515
 4928SOL    HW115683   0.341   6.920   6.437
 4928SOL    HW215684   0.239   7.010   6.527
 4929SOL     OW15685   1.535   4.516   5.167
 4929SOL    HW115686   1.545   4.456   5.245
 4929SOL    HW215687   1.468   4.478   5.103
 4930SOL     OW15688   0.762   1.405   0.128
 4930SOL    HW115689   0.755   1.373   0.034
 4930SOL    HW215690   0.831   1.351   0.177
 4931SOL     OW15691   0.795   0.413   0.126
 4931SOL    HW115692   0.709   0.415   0.177
 4931SOL    HW215693   0.859   0.350   0.171
 4932SOL     OW15694   1.997   3.125   1.781
 4932SOL    HW115695   2.021   3.167   1.869
 4932SOL    HW215696   2.068   3.148   1.714
 4933SOL     OW15697   2.443   0.861   4.380
 4933SOL    HW115698   2.397   0.799   4.444
 4933SOL    HW215699   2.375   0.901   4.318
 4934SOL     OW15700   0.870   5.234   4.467
 4934SOL    HW115701   0.966   5.246   4.491
 4934SOL    HW215702   0.850   5.137   4.458
 4935SOL     OW15703   1.175   0.807   6.670
 4935SOL    HW115704   1.188   0.731   6.733
 4935SOL    HW215705   1.086   0.850   6.688
 4936SOL     OW15706   2.453   5.920   1.345
 4936SOL    HW115707   2.400   5.952   1.423
 4936SOL    HW215708   2.396   5.863   1.286
 4937SOL     OW15709   1.049   3.733   6.051
 4937SOL    HW115710   1.148   3.739   6.041
 4937SOL    HW215711   1.017   3.645   6.017
 4938SOL     OW15712   3.247   4.854   2.180
 4938SOL    HW115713   3.160   4.827   2.141
 4938SOL    HW215714   3.232   4.904   2.265
 4939SOL     OW15715   1.171   2.524   1.886
 4939SOL    HW115716   1.267   2.502   1.869
 4939SOL    HW215717   1.135   2.576   1.808
 4940SOL     OW15718   0.096   1.578   4.969
 4940SOL    HW115719   0.125   1.641   5.040
 4940SOL    HW215720   0.076   1.628   4.885
 4941SOL     OW15721   3.853   2.565   5.384
 4941SOL    HW115722   3.796   2.486   5.363
 4941SOL    HW215723   3.938   2.560   5.331
 4942SOL     OW15724   5.679   3.027   3.585
 4942SOL    HW115725   5.637   3.086   3.516
 4942SOL    HW215726   5.730   3.083   3.650
 4943SOL     OW15727   5.962   4.022   6.387
 4943SOL    HW115728   5.961   4.103   6.445
 4943SOL    HW215729   5.921   3.945   6.437
 4944SOL     OW15730   2.147   4.428   0.440
 4944SOL    HW115731   2.131   4.414   0.342
 4944SOL    HW215732   2.244   4.416   0.461
 4945SOL     OW15733   1.596   1.076   5.030
 4945SOL    HW115734   1.663   1.150   5.027
 4945SOL    HW215735   1.541   1.078   4.946
 4946SOL     OW15736   0.917   4.645   6.776
 4946SOL    HW115737   0.891   4.557   6.816
 4946SOL    HW215738   0.878   4.719   6.830
 4947SOL     OW15739   2.856   0.824   1.984
 4947SOL    HW115740   2.826   0.860   2.073
 4947SOL    HW215741   2.782   0.769   1.945
 4948SOL     OW15742   1.803   2.580   2.659
 4948SOL    HW115743   1.804   2.611   2.754
 4948SOL    HW215744   1.724   2.619   2.612
 4949SOL     OW15745   6.452   3.867   5.817
 4949SOL    HW115746   6.411   3.809   5.747
 4949SOL    HW215747   6.380   3.920   5.862
 4950SOL     OW15748   2.109   3.848   5.097
 4950SOL    HW115749   2.057   3.858   5.012
 4950SOL    HW215750   2.205   3.874   5.080
 4951SOL     OW15751   6.152   6.445   3.984
 4951SOL    HW115752   6.199   6.487   4.061
 4951SOL    HW215753   6.056   6.473   3.984
 4952SOL     OW15754   6.905   0.438   6.835
 4952SOL    HW115755   6.807   0.445   6.818
 4952SOL    HW215756   6.948   0.528   6.825
 4953SOL     OW15757   2.140   1.858   4.101
 4953SOL    HW115758   2.233   1.826   4.118
 4953SOL    HW215759   2.139   1.919   4.022
 4954SOL     OW15760   2.188   3.960   6.068
 4954SOL    HW115761   2.130   3.986   6.145
 4954SOL    HW215762   2.134   3.953   5.985
 4955SOL     OW15763   3.393   5.221   0.087
 4955SOL    HW115764   3.433   5.285   0.022
 4955SOL    HW215765   3.394   5.128   0.049
 4956SOL     OW15766   3.185   0.691   5.733
 4956SOL    HW115767   3.282   0.716   5.737
 4956SOL    HW215768   3.163   0.629   5.808
 4957SOL     OW15769   5.863   3.580   0.263
 4957SOL    HW115770   5.796   3.522   0.310
 4957SOL    HW215771   5.943   3.525   0.238
 4958SOL     OW15772   2.094   6.101   5.824
 4958SOL    HW115773   2.150   6.038   5.877
 4958SOL    HW215774   2.077   6.184   5.877
 4959SOL     OW15775   6.841   1.681   1.130
 4959SOL    HW115776   6.751   1.692   1.088
 4959SOL    HW215777   6.908   1.657   1.060
 4960SOL     OW15778   4.059   4.847   3.695
 4960SOL    HW115779   3.969   4.891   3.692
 4960SOL    HW215780   4.072   4.792   3.613
 4961SOL     OW15781   3.197   0.743   6.399
 4961SOL    HW115782   3.148   0.662   6.368
 4961SOL    HW215783   3.139   0.795   6.462
 4962SOL     OW15784   5.454   2.664   0.697
 4962SOL    HW115785   5.436   2.587   0.758
 4962SOL    HW215786   5.551   2.689   0.702
 4963SOL     OW15787   1.898   5.811   1.230
 4963SOL    HW115788   1.973   5.854   1.281
 4963SOL    HW215789   1.920   5.811   1.132
 4964SOL     OW15790   1.876   6.609   5.042
 4964SOL    HW115791   1.949   6.588   5.108
 4964SOL    HW215792   1.890   6.700   5.004
 4965SOL     OW15793   0.807   6.820   2.988
 4965SOL    HW115794   0.893   6.771   3.005
 4965SOL    HW215795   0.800   6.897   3.052
 4966SOL     OW15796   1.871   6.397   4.523
 4966SOL    HW115797   1.783   6.367   4.486
 4966SOL    HW215798   1.855   6.454   4.604
 4967SOL     OW15799   3.290   5.466   6.227
 4967SOL    HW115800   3.355   5.441   6.155
 4967SOL    HW215801   3.217   5.399   6.232
 4968SOL     OW15802   0.365   1.161   3.909
 4968SOL    HW115803   0.404   1.153   4.001
 4968SOL    HW215804   0.385   1.078   3.857
 4969SOL     OW15805   0.360   6.390   2.430
 4969SOL    HW115806   0.419   6.381   2.510
 4969SOL    HW215807   0.414   6.381   2.346
 4970SOL     OW15808   2.480   0.798   1.462
 4970SOL    HW115809   2.474   0.708   1.418
 4970SOL    HW215810   2.442   0.867   1.400
 4971SOL     OW15811   5.922   6.090   2.908
 4971SOL    HW115812   5.847   6.104   2.844
 4971SOL    HW215813   5.996   6.040   2.863
 4972SOL     OW15814   1.072   4.194   0.265
 4972SOL    HW115815   1.119   4.160   0.347
 4972SOL    HW215816   0.977   4.165   0.267
 4973SOL     OW15817   0.548   0.183   1.543
 4973SOL    HW115818   0.550   0.083   1.547
 4973SOL    HW215819   0.465   0.213   1.498
 4974SOL     OW15820   5.230   4.812   0.715
 4974SOL    HW115821   5.186   4.779   0.798
 4974SOL    HW215822   5.294   4.743   0.681
 4975SOL     OW15823   5.418   4.188   0.774
 4975SOL    HW115824   5.415   4.130   0.855
 4975SOL    HW215825   5.340   4.167   0.715
 4976SOL     OW15826   1.429   0.317   4.840
 4976SOL    HW115827   1.408   0.232   4.793
 4976SOL    HW215828   1.357   0.384   4.822
 4977SOL     OW15829   3.466   3.825   0.041
 4977SOL    HW115830   3.479   3.728   0.021
 4977SOL    HW215831   3.554   3.871   0.048
 4978SOL     OW15832   4.988   4.594   5.093
 4978SOL    HW115833   5.064   4.652   5.064
 4978SOL    HW215834   5.022   4.503   5.116
 4979SOL     OW15835   0.314   6.526   0.135
 4979SOL    HW115836   0.272   6.602   0.086
 4979SOL    HW215837   0.331   6.451   0.071
 4980SOL     OW15838   5.685   4.819   2.384
 4980SOL    HW115839   5.769   4.802   2.333
 4980SOL    HW215840   5.658   4.735   2.433
 4981SOL     OW15841   3.465   6.138   1.792
 4981SOL    HW115842   3.524   6.067   1.754
 4981SOL    HW215843   3.515   6.224   1.798
 4982SOL     OW15844   3.864   1.809   6.553
 4982SOL    HW115845   3.928   1.732   6.554
 4982SOL    HW215846   3.912   1.893   6.579
 4983SOL     OW15847   5.783   4.733   4.031
 4983SOL    HW115848   5.820   4.643   4.057
 4983SOL    HW215849   5.830   4.765   3.948
 4984SOL     OW15850   4.678   4.536   2.931
 4984SOL    HW115851   4.723   4.457   2.889
 4984SOL    HW215852   4.660   4.517   3.028
 4985SOL     OW15853   5.146   6.282   2.485
 4985SOL    HW115854   5.066   6.227   2.511
 4985SOL    HW215855   5.193   6.238   2.408
 4986SOL     OW15856   6.581   4.992   0.770
 4986SOL    HW115857   6.611   4.918   0.711
 4986SOL    HW215858   6.558   4.957   0.861
 4987SOL     OW15859   1.385   6.155   2.665
 4987SOL    HW115860   1.347   6.130   2.754
 4987SOL    HW215861   1.318   6.135   2.594
 4988SOL     OW15862   6.328   1.278   3.458
 4988SOL    HW115863   6.281   1.208   3.512
 4988SOL    HW215864   6.293   1.368   3.481
 4989SOL     OW15865   4.876   0.422   1.613
 4989SOL    HW115866   4.887   0.370   1.528
 4989SOL    HW215867   4.947   0.395   1.678
 4990SOL     OW15868   3.605   1.673   6.660
 4990SOL    HW115869   3.586   1.627   6.573
 4990SOL    HW215870   3.697   1.712   6.657
 4991SOL     OW15871   6.902   5.604   4.155
 4991SOL    HW115872   6.879   5.700   4.142
 4991SOL    HW215873   6.818   5.552   4.171
 4992SOL     OW15874   5.823   1.408   3.078
 4992SOL    HW115875   5.776   1.479   3.027
 4992SOL    HW215876   5.853   1.336   3.015
 4993SOL     OW15877   4.037   6.650   4.966
 4993SOL    HW115878   4.027   6.580   4.895
 4993SOL    HW215879   3.985   6.623   5.047
 4994SOL     OW15880   2.503   5.717   5.019
 4994SOL    HW115881   2.429   5.675   5.072
 4994SOL    HW215882   2.486   5.814   5.008
 4995SOL     OW15883   0.914   1.093   5.066
 4995SOL    HW115884   0.917   1.047   5.155
 4995SOL    HW215885   0.822   1.129   5.050
 4996SOL     OW15886   6.682   1.521   3.753
 4996SOL    HW115887   6.669   1.477   3.664
 4996SOL    HW215888   6.658   1.617   3.746
 4997SOL     OW15889   3.720   2.629   1.161
 4997SOL    HW115890   3.658   2.651   1.236
 4997SOL    HW215891   3.737   2.711   1.107
 4998SOL     OW15892   1.786   3.657   4.030
 4998SOL    HW115893   1.786   3.558   4.035
 4998SOL    HW215894   1.711   3.694   4.085
 4999SOL     OW15895   0.095   3.322   4.569
 4999SOL    HW115896   0.120   3.253   4.637
 4999SOL    HW215897   0.134   3.410   4.595
 5000SOL     OW15898   3.085   6.637   3.367
 5000SOL    HW115899   3.066   6.542   3.343
 5000SOL    HW215900   3.070   6.695   3.288
 5001SOL     OW15901   0.778   5.559   2.515
 5001SOL    HW115902   0.856   5.587   2.570
 5001SOL    HW215903   0.693   5.575   2.566
 5002SOL     OW15904   0.388   5.428   2.005
 5002SOL    HW115905   0.337   5.494   1.950
 5002SOL    HW215906   0.442   5.477   2.074
 5003SOL     OW15907   4.314   6.566   2.683
 5003SOL    HW115908   4.229   6.619   2.681
 5003SOL    HW215909   4.360   6.573   2.594
 5004SOL     OW15910   2.224   4.735   5.505
 5004SOL    HW115911   2.285   4.712   5.429
 5004SOL    HW215912   2.131   4.707   5.483
 5005SOL     OW15913   2.835   3.340   6.585
 5005SOL    HW115914   2.849   3.327   6.487
 5005SOL    HW215915   2.850   3.436   6.608
 5006SOL     OW15916   6.082   1.109   2.369
 5006SOL    HW115917   6.059   1.133   2.275
 5006SOL    HW215918   6.082   1.191   2.426
 5007SOL     OW15919   6.996   0.588   1.374
 5007SOL    HW115920   6.915   0.612   1.320
 5007SOL    HW215921   0.035   0.663   1.370
 5008SOL     OW15922   6.070   5.541   1.259
 5008SOL    HW115923   6.152   5.588   1.292
 5008SOL    HW215924   6.000   5.542   1.330
 5009SOL     OW15925   0.589   2.337   0.294
 5009SOL    HW115926   0.599   2.435   0.306
 5009SOL    HW215927   0.670   2.300   0.248
 5010SOL     OW15928   4.309   2.559   0.855
 5010SOL    HW115929   4.241   2.633   0.853
 5010SOL    HW215930   4.300   2.508   0.941
 5011SOL     OW15931   2.281   4.117   1.366
 5011SOL    HW115932   2.354   4.148   1.428
 5011SOL    HW215933   2.269   4.019   1.376
 5012SOL     OW15934   6.423   2.507   5.309
 5012SOL    HW115935   6.358   2.519   5.234
 5012SOL    HW215936   6.390   2.554   5.391
 5013SOL     OW15937   5.333   0.815   6.489
 5013SOL    HW115938   5.405   0.778   6.547
 5013SOL    HW215939   5.317   0.911   6.513
 5014SOL     OW15940   6.489   4.315   6.876
 5014SOL    HW115941   6.402   4.346   6.914
 5014SOL    HW215942   6.521   4.382   6.809
 5015SOL     OW15943   4.758   0.940   4.755
 5015SOL    HW115944   4.699   1.008   4.799
 5015SOL    HW215945   4.810   0.891   4.824
 5016SOL     OW15946   0.894   2.925   4.720
 5016SOL    HW115947   0.942   2.861   4.661
 5016SOL    HW215948   0.795   2.919   4.702
 5017SOL     OW15949   1.740   2.011   1.226
 5017SOL    HW115950   1.815   2.075   1.243
 5017SOL    HW215951   1.757   1.962   1.141
 5018SOL     OW15952   1.260   5.112   2.783
 5018SOL    HW115953   1.213   5.026   2.763
 5018SOL    HW215954   1.333   5.127   2.717
 5019SOL     OW15955   2.508   6.255   5.864
 5019SOL    HW115956   2.460   6.169   5.846
 5019SOL    HW215957   2.538   6.295   5.777
 5020SOL     OW15958   6.675   6.961   5.650
 5020SOL    HW115959   6.691   6.891   5.580
 5020SOL    HW215960   6.696   0.024   5.612
 5021SOL     OW15961   1.303   1.181   0.989
 5021SOL    HW115962   1.265   1.089   0.996
 5021SOL    HW215963   1.374   1.192   1.059
 5022SOL     OW15964   1.026   2.320   1.997
 5022SOL    HW115965   1.095   2.251   2.018
 5022SOL    HW215966   1.072   2.403   1.965
 5023SOL     OW15967   0.104   4.284   1.608
 5023SOL    HW115968   0.102   4.379   1.577
 5023SOL    HW215969   0.134   4.226   1.532
 5024SOL     OW15970   5.602   5.116   1.001
 5024SOL    HW115971   5.688   5.159   1.029
 5024SOL    HW215972   5.564   5.165   0.923
 5025SOL     OW15973   4.032   2.192   3.854
 5025SOL    HW115974   3.950   2.146   3.885
 5025SOL    HW215975   4.110   2.162   3.910
 5026SOL     OW15976   0.013   5.408   5.152
 5026SOL    HW115977   0.031   5.437   5.245
 5026SOL    HW215978   0.041   5.313   5.140
 5027SOL     OW15979   6.217   0.134   2.117
 5027SOL    HW115980   6.234   0.191   2.036
 5027SOL    HW215981   6.120   0.111   2.121
 5028SOL     OW15982   6.592   1.984   3.252
 5028SOL    HW115983   6.681   1.955   3.288
 5028SOL    HW215984   6.523   1.977   3.324
 5029SOL     OW15985   6.286   2.525   2.341
 5029SOL    HW115986   6.317   2.613   2.376
 5029SOL    HW215987   6.256   2.467   2.417
 5030SOL     OW15988   6.890   6.077   6.651
 5030SOL    HW115989   6.937   5.998   6.690
 5030SOL    HW215990   6.928   6.161   6.690
 5031SOL     OW15991   6.490   1.609   5.579
 5031SOL    HW115992   6.539   1.591   5.665
 5031SOL    HW215993   6.527   1.550   5.507
 5032SOL     OW15994   3.095   1.547   5.959
 5032SOL    HW115995   3.142   1.469   6.000
 5032SOL    HW215996   3.001   1.550   5.991
 5033SOL     OW15997   1.823   0.354   6.885
 5033SOL    HW115998   1.856   0.332   6.793
 5033SOL    HW215999   1.894   0.406   6.933
 5034SOL     OW16000   6.041   0.093   3.458
 5034SOL    HW116001   6.041   0.026   3.533
 5034SOL    HW216002   6.069   0.048   3.374
 5035SOL     OW16003   0.254   4.124   5.327
 5035SOL    HW116004   0.170   4.116   5.380
 5035SOL    HW216005   0.259   4.215   5.285
 5036SOL     OW16006   0.077   4.885   6.775
 5036SOL    HW116007   0.078   4.929   6.685
 5036SOL    HW216008   7.009   4.876   6.805
 5037SOL     OW16009   4.993   4.873   1.654
 5037SOL    HW116010   5.046   4.914   1.728
 5037SOL    HW216011   5.055   4.843   1.582
 5038SOL     OW16012   3.873   3.028   4.688
 5038SOL    HW116013   3.941   2.964   4.725
 5038SOL    HW216014   3.786   2.980   4.675
 5039SOL     OW16015   2.114   3.304   5.289
 5039SOL    HW116016   2.129   3.221   5.343
 5039SOL    HW216017   2.109   3.281   5.192
 5040SOL     OW16018   0.772   6.595   5.388
 5040SOL    HW116019   0.817   6.553   5.310
 5040SOL    HW216020   0.675   6.571   5.388
 5041SOL     OW16021   1.362   1.717   1.831
 5041SOL    HW116022   1.397   1.623   1.824
 5041SOL    HW216023   1.323   1.744   1.742
 5042SOL     OW16024   6.740   3.324   0.179
 5042SOL    HW116025   6.663   3.284   0.130
 5042SOL    HW216026   6.824   3.311   0.127
 5043SOL     OW16027   4.569   0.639   6.930
 5043SOL    HW116028   4.562   0.713   6.863
 5043SOL    HW216029   4.657   0.646   6.977
 5044SOL     OW16030   0.797   5.960   1.049
 5044SOL    HW116031   0.747   5.969   0.964
 5044SOL    HW216032   0.882   5.909   1.033
 5045SOL     OW16033   6.341   5.971   6.046
 5045SOL    HW116034   6.272   5.936   6.109
 5045SOL    HW216035   6.322   5.937   5.954
 5046SOL     OW16036   3.543   3.758   3.325
 5046SOL    HW116037   3.504   3.736   3.236
 5046SOL    HW216038   3.569   3.854   3.326
 5047SOL     OW16039   1.799   4.241   2.882
 5047SOL    HW116040   1.700   4.237   2.865
 5047SOL    HW216041   1.821   4.326   2.930
 5048SOL     OW16042   1.488   1.043   3.872
 5048SOL    HW116043   1.542   1.126   3.854
 5048SOL    HW216044   1.463   1.000   3.786
 5049SOL     OW16045   4.675   1.514   0.183
 5049SOL    HW116046   4.644   1.595   0.234
 5049SOL    HW216047   4.654   1.432   0.235
 5050SOL     OW16048   1.486   0.933   0.062
 5050SOL    HW116049   1.457   1.014   0.011
 5050SOL    HW216050   1.475   0.852   0.004
 5051SOL     OW16051   4.787   4.369   1.429
 5051SOL    HW116052   4.817   4.404   1.518
 5051SOL    HW216053   4.866   4.363   1.367
 5052SOL     OW16054   3.068   1.600   5.643
 5052SOL    HW116055   2.989   1.555   5.600
 5052SOL    HW216056   3.085   1.559   5.733
 5053SOL     OW16057   1.093   4.834   3.527
 5053SOL    HW116058   1.165   4.856   3.462
 5053SOL    HW216059   1.081   4.911   3.590
 5054SOL     OW16060   2.661   5.112   4.576
 5054SOL    HW116061   2.735   5.149   4.520
 5054SOL    HW216062   2.632   5.180   4.643
 5055SOL     OW16063   0.696   2.547   5.724
 5055SOL    HW116064   0.619   2.611   5.714
 5055SOL    HW216065   0.664   2.461   5.762
 5056SOL     OW16066   5.387   4.120   6.154
 5056SOL    HW116067   5.295   4.151   6.132
 5056SOL    HW216068   5.426   4.178   6.226
 5057SOL     OW16069   6.943   6.740   3.454
 5057SOL    HW116070   6.925   6.690   3.369
 5057SOL    HW216071   6.920   6.836   3.442
 5058SOL     OW16072   3.644   3.688   5.596
 5058SOL    HW116073   3.696   3.678   5.681
 5058SOL    HW216074   3.600   3.778   5.594
 5059SOL     OW16075   6.969   0.937   3.573
 5059SOL    HW116076   0.018   0.982   3.622
 5059SOL    HW216077   6.955   0.983   3.485
 5060SOL     OW16078   0.399   2.770   6.228
 5060SOL    HW116079   0.463   2.842   6.255
 5060SOL    HW216080   0.449   2.687   6.204
 5061SOL     OW16081   5.077   2.568   0.793
 5061SOL    HW116082   5.052   2.626   0.715
 5061SOL    HW216083   4.995   2.531   0.835
 5062SOL     OW16084   5.947   0.033   2.641
 5062SOL    HW116085   6.026   0.094   2.647
 5062SOL    HW216086   5.958   6.998   2.563
 5063SOL     OW16087   0.487   6.914   2.349
 5063SOL    HW116088   0.574   6.942   2.390
 5063SOL    HW216089   0.412   6.955   2.401
 5064SOL     OW16090   5.014   3.634   0.980
 5064SOL    HW116091   5.012   3.614   0.882
 5064SOL    HW216092   5.081   3.706   0.998
 5065SOL     OW16093   2.865   0.526   5.716
 5065SOL    HW116094   2.830   0.466   5.644
 5065SOL    HW216095   2.959   0.500   5.738
 5066SOL     OW16096   4.968   4.517   2.350
 5066SOL    HW116097   5.022   4.484   2.273
 5066SOL    HW216098   5.022   4.512   2.433
 5067SOL     OW16099   5.029   1.294   1.083
 5067SOL    HW116100   5.046   1.301   1.181
 5067SOL    HW216101   4.931   1.297   1.066
 5068SOL     OW16102   2.960   4.532   0.966
 5068SOL    HW116103   2.992   4.625   0.989
 5068SOL    HW216104   2.883   4.538   0.903
 5069SOL     OW16105   1.431   4.063   3.731
 5069SOL    HW116106   1.431   4.162   3.744
 5069SOL    HW216107   1.504   4.038   3.666
 5070SOL     OW16108   5.138   3.412   3.785
 5070SOL    HW116109   5.189   3.390   3.868
 5070SOL    HW216110   5.043   3.431   3.808
 5071SOL     OW16111   5.016   2.198   4.724
 5071SOL    HW116112   5.079   2.162   4.792
 5071SOL    HW216113   4.928   2.151   4.733
 5072SOL     OW16114   0.877   6.524   0.703
 5072SOL    HW116115   0.794   6.579   0.711
 5072SOL    HW216116   0.957   6.581   0.722
 5073SOL     OW16117   6.685   6.739   3.131
 5073SOL    HW116118   6.642   6.650   3.112
 5073SOL    HW216119   6.679   6.797   3.050
 5074SOL     OW16120   3.661   3.134   6.781
 5074SOL    HW116121   3.744   3.079   6.773
 5074SOL    HW216122   3.582   3.074   6.791
 5075SOL     OW16123   0.547   2.200   6.222
 5075SOL    HW116124   0.546   2.222   6.320
 5075SOL    HW216125   0.552   2.101   6.211
 5076SOL     OW16126   3.325   0.822   0.860
 5076SOL    HW116127   3.367   0.912   0.849
 5076SOL    HW216128   3.227   0.828   0.840
 5077SOL     OW16129   0.056   2.683   4.454
 5077SOL    HW116130   7.018   2.680   4.378
 5077SOL    HW216131   0.023   2.748   4.523
 5078SOL     OW16132   0.936   2.031   3.802
 5078SOL    HW116133   0.987   2.117   3.810
 5078SOL    HW216134   0.983   1.970   3.739
 5079SOL     OW16135   2.543   4.639   6.322
 5079SOL    HW116136   2.588   4.562   6.367
 5079SOL    HW216137   2.463   4.666   6.376
 5080SOL     OW16138   5.841   6.363   5.617
 5080SOL    HW116139   5.825   6.366   5.716
 5080SOL    HW216140   5.758   6.391   5.569
 5081SOL     OW16141   4.105   3.445   3.392
 5081SOL    HW116142   4.061   3.517   3.446
 5081SOL    HW216143   4.151   3.381   3.454
 5082SOL     OW16144   5.956   5.193   5.671
 5082SOL    HW116145   5.879   5.130   5.663
 5082SOL    HW216146   6.038   5.142   5.699
 5083SOL     OW16147   1.758   6.391   2.941
 5083SOL    HW116148   1.707   6.394   2.855
 5083SOL    HW216149   1.828   6.320   2.936
 5084SOL     OW16150   1.135   4.920   4.669
 5084SOL    HW116151   1.119   4.902   4.572
 5084SOL    HW216152   1.165   4.836   4.714
 5085SOL     OW16153   5.613   2.474   6.560
 5085SOL    HW116154   5.563   2.464   6.646
 5085SOL    HW216155   5.683   2.403   6.553
 5086SOL     OW16156   6.636   5.449   3.861
 5086SOL    HW116157   6.706   5.468   3.792
 5086SOL    HW216158   6.661   5.367   3.913
 5087SOL     OW16159   6.318   5.863   3.489
 5087SOL    HW116160   6.381   5.922   3.438
 5087SOL    HW216161   6.315   5.894   3.584
 5088SOL     OW16162   5.624   1.624   4.701
 5088SOL    HW116163   5.594   1.719   4.688
 5088SOL    HW216164   5.704   1.607   4.644
 5089SOL     OW16165   5.929   3.548   2.929
 5089SOL    HW116166   5.885   3.546   2.839
 5089SOL    HW216167   6.025   3.524   2.920
 5090SOL     OW16168   1.804   3.897   2.100
 5090SOL    HW116169   1.832   3.978   2.047
 5090SOL    HW216170   1.829   3.814   2.050
 5091SOL     OW16171   1.242   6.113   3.245
 5091SOL    HW116172   1.268   6.030   3.196
 5091SOL    HW216173   1.302   6.126   3.324
 5092SOL     OW16174   3.177   2.519   1.118
 5092SOL    HW116175   3.250   2.478   1.064
 5092SOL    HW216176   3.194   2.501   1.215
 5093SOL     OW16177   2.284   1.488   1.606
 5093SOL    HW116178   2.265   1.585   1.590
 5093SOL    HW216179   2.382   1.475   1.621
 5094SOL     OW16180   0.930   6.771   4.619
 5094SOL    HW116181   0.897   6.798   4.528
 5094SOL    HW216182   0.881   6.823   4.689
 5095SOL     OW16183   0.869   1.427   4.215
 5095SOL    HW116184   0.791   1.401   4.159
 5095SOL    HW216185   0.838   1.448   4.308
 5096SOL     OW16186   4.462   4.059   0.630
 5096SOL    HW116187   4.406   3.986   0.590
 5096SOL    HW216188   4.552   4.059   0.586
 5097SOL     OW16189   2.180   0.315   6.536
 5097SOL    HW116190   2.174   0.406   6.575
 5097SOL    HW216191   2.157   0.318   6.438
 5098SOL     OW16192   0.712   0.277   1.732
 5098SOL    HW116193   0.729   0.205   1.799
 5098SOL    HW216194   0.656   0.241   1.658
 5099SOL     OW16195   0.970   0.619   6.315
 5099SOL    HW116196   1.040   0.637   6.246
 5099SOL    HW216197   0.886   0.589   6.270
 5100SOL     OW16198   4.456   6.520   5.831
 5100SOL    HW116199   4.502   6.545   5.917
 5100SOL    HW216200   4.497   6.572   5.756
 5101SOL     OW16201   4.955   6.627   0.065
 5101SOL    HW116202   4.943   6.546   0.007
 5101SOL    HW216203   4.886   6.626   0.137
 5102SOL     OW16204   6.083   0.446   5.562
 5102SOL    HW116205   6.040   0.486   5.481
 5102SOL    HW216206   6.141   0.515   5.606
 5103SOL     OW16207   0.258   1.125   4.298
 5103SOL    HW116208   0.210   1.074   4.370
 5103SOL    HW216209   0.246   1.223   4.313
 5104SOL     OW16210   1.865   6.566   2.036
 5104SOL    HW116211   1.931   6.491   2.025
 5104SOL    HW216212   1.913   6.647   2.069
 5105SOL     OW16213   3.968   3.551   0.354
 5105SOL    HW116214   3.883   3.600   0.376
 5105SOL    HW216215   4.042   3.616   0.343
 5106SOL     OW16216   3.581   0.296   2.206
 5106SOL    HW116217   3.566   0.310   2.108
 5106SOL    HW216218   3.504   0.333   2.257
 5107SOL     OW16219   3.496   1.150   0.489
 5107SOL    HW116220   3.485   1.132   0.587
 5107SOL    HW216221   3.432   1.093   0.437
 5108SOL     OW16222   3.060   3.122   3.421
 5108SOL    HW116223   3.051   3.133   3.520
 5108SOL    HW216224   3.018   3.200   3.375
 5109SOL     OW16225   0.831   1.488   1.195
 5109SOL    HW116226   0.857   1.472   1.099
 5109SOL    HW216227   0.913   1.508   1.248
 5110SOL     OW16228   0.800   0.031   6.738
 5110SOL    HW116229   0.876   6.992   6.736
 5110SOL    HW216230   0.785   0.068   6.647
 5111SOL     OW16231   0.389   1.565   5.955
 5111SOL    HW116232   0.471   1.522   5.994
 5111SOL    HW216233   0.379   1.536   5.860
 5112SOL     OW16234   0.460   0.025   3.403
 5112SOL    HW116235   0.422   7.000   3.327
 5112SOL    HW216236   0.560   0.021   3.399
 5113SOL     OW16237   1.440   6.876   1.143
 5113SOL    HW116238   1.462   6.940   1.216
 5113SOL    HW216239   1.469   6.784   1.170
 5114SOL     OW16240   3.578   3.293   0.422
 5114SOL    HW116241   3.523   3.346   0.487
 5114SOL    HW216242   3.524   3.217   0.386
 5115SOL     OW16243   1.895   4.466   5.255
 5115SOL    HW116244   1.843   4.452   5.171
 5115SOL    HW216245   1.992   4.473   5.233
 5116SOL     OW16246   5.482   6.275   6.043
 5116SOL    HW116247   5.550   6.341   6.012
 5116SOL    HW216248   5.524   6.209   6.105
 5117SOL     OW16249   2.106   4.511   3.959
 5117SOL    HW116250   2.201   4.537   3.976
 5117SOL    HW216251   2.062   4.582   3.904
 5118SOL     OW16252   4.980   6.150   0.364
 5118SOL    HW116253   4.984   6.237   0.413
 5118SOL    HW216254   4.931   6.082   0.420
 5119SOL     OW16255   5.064   0.654   1.517
 5119SOL    HW116256   4.997   0.584   1.542
 5119SOL    HW216257   5.156   0.618   1.529
 5120SOL     OW16258   5.859   1.590   3.665
 5120SOL    HW116259   5.947   1.570   3.623
 5120SOL    HW216260   5.796   1.515   3.648
 5121SOL     OW16261   1.579   2.731   6.790
 5121SOL    HW116262   1.550   2.635   6.797
 5121SOL    HW216263   1.566   2.775   6.879
 5122SOL     OW16264   3.053   0.941   4.254
 5122SOL    HW116265   3.115   0.966   4.180
 5122SOL    HW216266   3.097   0.876   4.315
 5123SOL     OW16267   5.526   3.474   4.510
 5123SOL    HW116268   5.611   3.473   4.457
 5123SOL    HW216269   5.483   3.384   4.504
 5124SOL     OW16270   2.680   4.933   6.570
 5124SOL    HW116271   2.596   4.905   6.525
 5124SOL    HW216272   2.677   5.030   6.590
 5125SOL     OW16273   6.801   3.367   4.379
 5125SOL    HW116274   6.797   3.291   4.443
 5125SOL    HW216275   6.735   3.352   4.305
 5126SOL     OW16276   6.298   4.979   5.225
 5126SOL    HW116277   6.259   5.035   5.297
 5126SOL    HW216278   6.234   4.906   5.201
 5127SOL     OW16279   5.884   3.861   0.259
 5127SOL    HW116280   5.947   3.908   0.321
 5127SOL    HW216281   5.889   3.763   0.275
 5128SOL     OW16282   0.931   0.261   0.285
 5128SOL    HW116283   1.014   0.313   0.309
 5128SOL    HW216284   0.955   0.165   0.273
 5129SOL     OW16285   4.755   1.301   2.608
 5129SOL    HW116286   4.661   1.268   2.597
 5129SOL    HW216287   4.812   1.227   2.644
 5130SOL     OW16288   1.343   5.845   4.623
 5130SOL    HW116289   1.253   5.883   4.601
 5130SOL    HW216290   1.332   5.758   4.672
 5131SOL     OW16291   3.064   4.822   3.410
 5131SOL    HW116292   3.127   4.871   3.350
 5131SOL    HW216293   3.085   4.724   3.409
 5132SOL     OW16294   3.904   1.145   6.090
 5132SOL    HW116295   3.909   1.061   6.036
 5132SOL    HW216296   3.838   1.208   6.047
 5133SOL     OW16297   3.018   5.506   6.132
 5133SOL    HW116298   3.012   5.443   6.055
 5133SOL    HW216299   3.080   5.582   6.109
 5134SOL     OW16300   6.400   0.336   2.382
 5134SOL    HW116301   6.454   0.339   2.466
 5134SOL    HW216302   6.460   0.342   2.303
 5135SOL     OW16303   6.355   3.714   2.986
 5135SOL    HW116304   6.424   3.722   3.058
 5135SOL    HW216305   6.395   3.740   2.898
 5136SOL     OW16306   6.507   1.846   5.781
 5136SOL    HW116307   6.544   1.880   5.695
 5136SOL    HW216308   6.407   1.848   5.778
 5137SOL     OW16309   5.103   2.873   5.384
 5137SOL    HW116310   5.003   2.865   5.383
 5137SOL    HW216311   5.142   2.807   5.319
 5138SOL     OW16312   3.351   3.883   3.657
 5138SOL    HW116313   3.333   3.969   3.704
 5138SOL    HW216314   3.414   3.828   3.712
 5139SOL     OW16315   1.091   0.194   5.031
 5139SOL    HW116316   1.147   0.273   5.057
 5139SOL    HW216317   1.032   0.168   5.108
 5140SOL     OW16318   3.970   1.431   6.143
 5140SOL    HW116319   3.880   1.391   6.128
 5140SOL    HW216320   4.040   1.371   6.105
 5141SOL     OW16321   6.263   2.484   0.891
 5141SOL    HW116322   6.349   2.535   0.897
 5141SOL    HW216323   6.203   2.529   0.824
 5142SOL     OW16324   5.936   6.985   4.492
 5142SOL    HW116325   5.903   6.972   4.586
 5142SOL    HW216326   6.024   6.938   4.481
 5143SOL     OW16327   1.438   4.287   4.988
 5143SOL    HW116328   1.499   4.317   4.914
 5143SOL    HW216329   1.349   4.264   4.950
 5144SOL     OW16330   1.970   3.880   6.742
 5144SOL    HW116331   1.879   3.915   6.719
 5144SOL    HW216332   2.039   3.933   6.693
 5145SOL     OW16333   3.494   6.012   6.534
 5145SOL    HW116334   3.438   5.939   6.496
 5145SOL    HW216335   3.467   6.028   6.629
 5146SOL     OW16336   3.864   4.035   5.385
 5146SOL    HW116337   3.915   4.042   5.299
 5146SOL    HW216338   3.788   4.100   5.384
 5147SOL     OW16339   5.704   4.447   3.515
 5147SOL    HW116340   5.760   4.516   3.561
 5147SOL    HW216341   5.621   4.491   3.478
 5148SOL     OW16342   0.275   0.234   2.260
 5148SOL    HW116343   0.292   0.165   2.330
 5148SOL    HW216344   0.282   0.325   2.301
 5149SOL     OW16345   5.524   4.937   4.462
 5149SOL    HW116346   5.544   4.876   4.538
 5149SOL    HW216347   5.425   4.937   4.445
 5150SOL     OW16348   1.429   4.360   3.730
 5150SOL    HW116349   1.465   4.447   3.696
 5150SOL    HW216350   1.333   4.351   3.705
 5151SOL     OW16351   5.684   4.263   1.698
 5151SOL    HW116352   5.663   4.186   1.637
 5151SOL    HW216353   5.758   4.237   1.760
 5152SOL     OW16354   1.219   5.811   6.893
 5152SOL    HW116355   1.207   5.906   6.924
 5152SOL    HW216356   1.179   5.801   6.803
 5153SOL     OW16357   1.510   1.647   0.686
 5153SOL    HW116358   1.509   1.547   0.692
 5153SOL    HW216359   1.568   1.674   0.609
 5154SOL     OW16360   1.370   2.921   6.697
 5154SOL    HW116361   1.435   2.858   6.740
 5154SOL    HW216362   1.293   2.936   6.758
 5155SOL     OW16363   2.759   1.900   0.623
 5155SOL    HW116364   2.766   1.815   0.675
 5155SOL    HW216365   2.843   1.954   0.635
 5156SOL     OW16366   5.448   5.031   4.797
 5156SOL    HW116367   5.439   4.932   4.801
 5156SOL    HW216368   5.373   5.069   4.743
 5157SOL     OW16369   3.014   1.475   2.208
 5157SOL    HW116370   2.915   1.466   2.217
 5157SOL    HW216371   3.054   1.491   2.298
 5158SOL     OW16372   3.142   2.145   1.085
 5158SOL    HW116373   3.064   2.208   1.093
 5158SOL    HW216374   3.120   2.074   1.018
 5159SOL     OW16375   6.123   4.014   6.167
 5159SOL    HW116376   6.052   4.032   6.235
 5159SOL    HW216377   6.123   3.917   6.143
 5160SOL     OW16378   6.490   6.424   3.396
 5160SOL    HW116379   6.428   6.415   3.473
 5160SOL    HW216380   6.441   6.402   3.311
 5161SOL     OW16381   1.213   3.494   0.045
 5161SOL    HW116382   1.310   3.477   0.028
 5161SOL    HW216383   1.193   3.481   0.142
 5162SOL     OW16384   0.715   5.275   2.188
 5162SOL    HW116385   0.784   5.325   2.239
 5162SOL    HW216386   0.625   5.295   2.226
 5163SOL     OW16387   3.349   6.432   1.165
 5163SOL    HW116388   3.408   6.417   1.086
 5163SOL    HW216389   3.269   6.373   1.158
 5164SOL     OW16390   2.625   3.115   0.263
 5164SOL    HW116391   2.665   3.043   0.205
 5164SOL    HW216392   2.696   3.154   0.321
 5165SOL     OW16393   0.723   4.081   6.608
 5165SOL    HW116394   0.745   4.179   6.600
 5165SOL    HW216395   0.677   4.050   6.525
 5166SOL     OW16396   1.693   5.543   2.189
 5166SOL    HW116397   1.620   5.571   2.127
 5166SOL    HW216398   1.742   5.624   2.221
 5167SOL     OW16399   6.137   4.260   5.258
 5167SOL    HW116400   6.055   4.212   5.225
 5167SOL    HW216401   6.164   4.223   5.347
 5168SOL     OW16402   4.395   2.111   2.380
 5168SOL    HW116403   4.323   2.141   2.317
 5168SOL    HW216404   4.479   2.093   2.328
 5169SOL     OW16405   4.709   1.748   3.917
 5169SOL    HW116406   4.764   1.820   3.959
 5169SOL    HW216407   4.767   1.669   3.899
 5170SOL     OW16408   1.323   3.753   5.984
 5170SOL    HW116409   1.291   3.779   5.893
 5170SOL    HW216410   1.408   3.701   5.975
 5171SOL     OW16411   1.386   4.995   5.419
 5171SOL    HW116412   1.428   5.033   5.502
 5171SOL    HW216413   1.335   4.913   5.442
 5172SOL     OW16414   1.335   5.070   3.804
 5172SOL    HW116415   1.394   5.109   3.733
 5172SOL    HW216416   1.355   5.114   3.892
 5173SOL     OW16417   4.379   3.924   6.013
 5173SOL    HW116418   4.332   3.898   6.098
 5173SOL    HW216419   4.478   3.920   6.027
 5174SOL     OW16420   1.701   6.792   3.934
 5174SOL    HW116421   1.718   6.831   4.025
 5174SOL    HW216422   1.648   6.708   3.943
 5175SOL     OW16423   2.853   4.394   6.306
 5175SOL    HW116424   2.938   4.343   6.297
 5175SOL    HW216425   2.855   4.473   6.244
 5176SOL     OW16426   5.461   5.577   6.184
 5176SOL    HW116427   5.535   5.638   6.156
 5176SOL    HW216428   5.390   5.577   6.113
 5177SOL     OW16429   5.430   6.740   1.228
 5177SOL    HW116430   5.435   6.838   1.209
 5177SOL    HW216431   5.375   6.696   1.157
 5178SOL     OW16432   0.225   4.639   1.764
 5178SOL    HW116433   0.278   4.723   1.779
 5178SOL    HW216434   0.269   4.564   1.813
 5179SOL     OW16435   4.969   4.178   3.316
 5179SOL    HW116436   4.967   4.262   3.370
 5179SOL    HW216437   4.901   4.184   3.243
 5180SOL     OW16438   3.091   6.883   1.096
 5180SOL    HW116439   3.028   6.929   1.033
 5180SOL    HW216440   3.130   6.951   1.159
 5181SOL     OW16441   0.215   0.297   0.169
 5181SOL    HW116442   0.269   0.376   0.138
 5181SOL    HW216443   0.172   0.254   0.090
 5182SOL     OW16444   4.378   4.591   2.033
 5182SOL    HW116445   4.405   4.495   2.037
 5182SOL    HW216446   4.308   4.604   1.962
 5183SOL     OW16447   4.063   1.733   2.806
 5183SOL    HW116448   4.036   1.821   2.766
 5183SOL    HW216449   4.002   1.712   2.882
 5184SOL     OW16450   2.117   2.467   2.982
 5184SOL    HW116451   2.112   2.375   2.944
 5184SOL    HW216452   2.144   2.531   2.911
 5185SOL     OW16453   4.749   0.198   3.024
 5185SOL    HW116454   4.846   0.174   3.023
 5185SOL    HW216455   4.731   0.266   2.953
 5186SOL     OW16456   5.692   2.830   5.824
 5186SOL    HW116457   5.674   2.822   5.922
 5186SOL    HW216458   5.718   2.741   5.787
 5187SOL     OW16459   2.346   5.391   4.848
 5187SOL    HW116460   2.284   5.375   4.771
 5187SOL    HW216461   2.298   5.370   4.933
 5188SOL     OW16462   6.932   6.117   1.733
 5188SOL    HW116463   6.860   6.187   1.724
 5188SOL    HW216464   6.931   6.058   1.652
 5189SOL     OW16465   5.919   6.040   0.125
 5189SOL    HW116466   5.836   5.992   0.154
 5189SOL    HW216467   5.970   6.071   0.205
 5190SOL     OW16468   1.668   2.956   2.291
 5190SOL    HW116469   1.587   3.005   2.259
 5190SOL    HW216470   1.730   3.020   2.336
 5191SOL     OW16471   3.038   6.056   2.722
 5191SOL    HW116472   2.969   6.122   2.750
 5191SOL    HW216473   3.109   6.102   2.668
 5192SOL     OW16474   2.163   6.011   1.327
 5192SOL    HW116475   2.217   6.064   1.394
 5192SOL    HW216476   2.081   6.063   1.303
 5193SOL     OW16477   5.156   0.253   6.835
 5193SOL    HW116478   5.096   0.173   6.831
 5193SOL    HW216479   5.242   0.232   6.789
 5194SOL     OW16480   2.636   1.780   6.714
 5194SOL    HW116481   2.736   1.781   6.721
 5194SOL    HW216482   2.605   1.689   6.686
 5195SOL     OW16483   0.899   0.450   3.797
 5195SOL    HW116484   0.944   0.490   3.717
 5195SOL    HW216485   0.896   0.351   3.788
 5196SOL     OW16486   4.426   6.611   2.429
 5196SOL    HW116487   4.345   6.556   2.405
 5196SOL    HW216488   4.490   6.611   2.352
 5197SOL     OW16489   1.420   3.418   6.329
 5197SOL    HW116490   1.387   3.508   6.359
 5197SOL    HW216491   1.479   3.379   6.399
 5198SOL     OW16492   4.425   5.492   3.149
 5198SOL    HW116493   4.464   5.505   3.241
 5198SOL    HW216494   4.433   5.578   3.098
 5199SOL     OW16495   0.534   5.425   0.984
 5199SOL    HW116496   0.491   5.350   0.935
 5199SOL    HW216497   0.549   5.501   0.921
 5200SOL     OW16498   0.157   3.639   5.107
 5200SOL    HW116499   0.238   3.694   5.086
 5200SOL    HW216500   0.182   3.567   5.172
 5201SOL     OW16501   0.356   6.507   3.650
 5201SOL    HW116502   0.413   6.439   3.605
 5201SOL    HW216503   0.413   6.580   3.688
 5202SOL     OW16504   6.576   2.633   5.974
 5202SOL    HW116505   6.673   2.616   5.991
 5202SOL    HW216506   6.546   2.714   6.024
 5203SOL     OW16507   1.618   2.427   6.997
 5203SOL    HW116508   1.551   2.412   0.043
 5203SOL    HW216509   1.577   2.406   6.909
 5204SOL     OW16510   4.108   5.178   0.532
 5204SOL    HW116511   4.110   5.220   0.441
 5204SOL    HW216512   4.171   5.225   0.593
 5205SOL     OW16513   1.756   6.905   1.063
 5205SOL    HW116514   1.790   6.835   1.000
 5205SOL    HW216515   1.660   6.922   1.044
 5206SOL     OW16516   0.538   4.312   6.236
 5206SOL    HW116517   0.452   4.294   6.189
 5206SOL    HW216518   0.613   4.315   6.170
 5207SOL     OW16519   1.030   5.126   4.107
 5207SOL    HW116520   1.068   5.177   4.029
 5207SOL    HW216521   1.103   5.080   4.156
 5208SOL     OW16522   3.856   1.175   0.640
 5208SOL    HW116523   3.928   1.106   0.628
 5208SOL    HW216524   3.819   1.199   0.551
 5209SOL     OW16525   5.919   5.629   4.349
 5209SOL    HW116526   5.908   5.681   4.434
 5209SOL    HW216527   5.925   5.531   4.370
 5210SOL     OW16528   5.764   3.470   5.679
 5210SOL    HW116529   5.807   3.381   5.675
 5210SOL    HW216530   5.749   3.497   5.774
 5211SOL     OW16531   3.546   2.973   4.104
 5211SOL    HW116532   3.576   3.062   4.070
 5211SOL    HW216533   3.489   2.928   4.036
 5212SOL     OW16534   6.689   2.214   1.153
 5212SOL    HW116535   6.742   2.284   1.200
 5212SOL    HW216536   6.672   2.138   1.215
 5213SOL     OW16537   5.170   1.855   0.160
 5213SOL    HW116538   5.089   1.912   0.148
 5213SOL    HW216539   5.148   1.760   0.137
 5214SOL     OW16540   5.110   1.260   6.820
 5214SOL    HW116541   5.208   1.275   6.835
 5214SOL    HW216542   5.073   1.204   6.894
 5215SOL     OW16543   5.311   5.559   3.175
 5215SOL    HW116544   5.297   5.606   3.088
 5215SOL    HW216545   5.310   5.626   3.249
 5216SOL     OW16546   4.847   6.257   1.167
 5216SOL    HW116547   4.796   6.176   1.138
 5216SOL    HW216548   4.872   6.311   1.086
 5217SOL     OW16549   3.243   5.055   4.298
 5217SOL    HW116550   3.174   5.003   4.349
 5217SOL    HW216551   3.315   5.085   4.360
 5218SOL     OW16552   1.691   0.194   3.538
 5218SOL    HW116553   1.654   0.171   3.448
 5218SOL    HW216554   1.789   0.172   3.540
 5219SOL     OW16555   3.709   0.334   6.746
 5219SOL    HW116556   3.747   0.420   6.779
 5219SOL    HW216557   3.784   0.271   6.724
 5220SOL     OW16558   1.520   5.489   2.709
 5220SOL    HW116559   1.520   5.561   2.639
 5220SOL    HW216560   1.433   5.490   2.758
 5221SOL     OW16561   5.678   2.350   4.653
 5221SOL    HW116562   5.678   2.415   4.577
 5221SOL    HW216563   5.587   2.308   4.661
 5222SOL     OW16564   2.918   0.037   4.520
 5222SOL    HW116565   2.967   7.012   4.590
 5222SOL    HW216566   2.963   0.024   4.431
 5223SOL     OW16567   4.460   0.813   1.271
 5223SOL    HW116568   4.465   0.796   1.173
 5223SOL    HW216569   4.552   0.809   1.310
 5224SOL     OW16570   0.531   1.742   3.399
 5224SOL    HW116571   0.504   1.783   3.312
 5224SOL    HW216572   0.489   1.793   3.474
 5225SOL     OW16573   6.677   0.794   3.196
 5225SOL    HW116574   6.578   0.802   3.212
 5225SOL    HW216575   6.725   0.866   3.246
 5226SOL     OW16576   0.480   6.236   5.472
 5226SOL    HW116577   0.450   6.206   5.382
 5226SOL    HW216578   0.408   6.292   5.515
 5227SOL     OW16579   1.298   4.736   4.136
 5227SOL    HW116580   1.330   4.673   4.207
 5227SOL    HW216581   1.367   4.807   4.121
 5228SOL     OW16582   6.488   2.804   0.383
 5228SOL    HW116583   6.585   2.825   0.395
 5228SOL    HW216584   6.474   2.706   0.395
 5229SOL     OW16585   1.380   4.423   6.784
 5229SOL    HW116586   1.341   4.502   6.736
 5229SOL    HW216587   1.453   4.455   6.845
 5230SOL     OW16588   0.331   0.118   0.606
 5230SOL    HW116589   0.404   0.156   0.662
 5230SOL    HW216590   0.359   0.119   0.510
 5231SOL     OW16591   3.223   3.254   4.690
 5231SOL    HW116592   3.321   3.263   4.675
 5231SOL    HW216593   3.179   3.342   4.676
 5232SOL     OW16594   3.227   2.053   6.437
 5232SOL    HW116595   3.133   2.086   6.447
 5232SOL    HW216596   3.290   2.130   6.437
 5233SOL     OW16597   6.968   0.174   1.180
 5233SOL    HW116598   7.008   0.212   1.263
 5233SOL    HW216599   6.888   0.229   1.154
 5234SOL     OW16600   2.986   0.149   6.733
 5234SOL    HW116601   2.917   0.203   6.684
 5234SOL    HW216602   3.032   0.088   6.669
 5235SOL     OW16603   1.810   2.997   1.324
 5235SOL    HW116604   1.719   3.038   1.325
 5235SOL    HW216605   1.802   2.898   1.315
 5236SOL     OW16606   5.652   2.786   1.733
 5236SOL    HW116607   5.715   2.855   1.699
 5236SOL    HW216608   5.575   2.777   1.669
 5237SOL     OW16609   2.528   1.837   5.544
 5237SOL    HW116610   2.430   1.832   5.525
 5237SOL    HW216611   2.564   1.925   5.513
 5238SOL     OW16612   2.133   5.074   0.406
 5238SOL    HW116613   2.128   5.005   0.477
 5238SOL    HW216614   2.122   5.165   0.447
 5239SOL     OW16615   3.669   3.747   3.611
 5239SOL    HW116616   3.759   3.704   3.603
 5239SOL    HW216617   3.615   3.725   3.530
 5240SOL     OW16618   2.961   2.223   5.842
 5240SOL    HW116619   3.034   2.234   5.910
 5240SOL    HW216620   3.001   2.207   5.752
 5241SOL     OW16621   1.449   6.112   6.567
 5241SOL    HW116622   1.367   6.057   6.583
 5241SOL    HW216623   1.429   6.208   6.589
 5242SOL     OW16624   6.403   6.985   5.115
 5242SOL    HW116625   6.502   6.972   5.124
 5242SOL    HW216626   6.360   6.897   5.092
 5243SOL     OW16627   1.715   6.208   1.512
 5243SOL    HW116628   1.804   6.206   1.467
 5243SOL    HW216629   1.727   6.206   1.611
 5244SOL     OW16630   4.271   3.800   5.777
 5244SOL    HW116631   4.215   3.879   5.753
 5244SOL    HW216632   4.313   3.815   5.867
 5245SOL     OW16633   4.440   4.179   6.379
 5245SOL    HW116634   4.435   4.187   6.279
 5245SOL    HW216635   4.356   4.139   6.414
 5246SOL     OW16636   5.947   4.365   2.600
 5246SOL    HW116637   6.013   4.434   2.633
 5246SOL    HW216638   5.887   4.407   2.532
 5247SOL     OW16639   1.699   6.121   0.595
 5247SOL    HW116640   1.792   6.152   0.613
 5247SOL    HW216641   1.696   6.021   0.597
 5248SOL     OW16642   5.841   0.691   6.119
 5248SOL    HW116643   5.741   0.698   6.114
 5248SOL    HW216644   5.868   0.594   6.116
 5249SOL     OW16645   0.589   5.891   5.180
 5249SOL    HW116646   0.647   5.828   5.127
 5249SOL    HW216647   0.495   5.859   5.177
 5250SOL     OW16648   6.829   1.660   5.952
 5250SOL    HW116649   6.894   1.585   5.963
 5250SOL    HW216650   6.861   1.722   5.880
 5251SOL     OW16651   0.334   2.659   1.290
 5251SOL    HW116652   0.289   2.570   1.289
 5251SOL    HW216653   0.377   2.674   1.380
 5252SOL     OW16654   2.119   5.650   0.839
 5252SOL    HW116655   2.063   5.568   0.845
 5252SOL    HW216656   2.117   5.685   0.745
 5253SOL     OW16657   5.288   3.708   5.220
 5253SOL    HW116658   5.374   3.755   5.200
 5253SOL    HW216659   5.273   3.635   5.153
 5254SOL     OW16660   5.525   1.812   3.442
 5254SOL    HW116661   5.436   1.807   3.396
 5254SOL    HW216662   5.537   1.731   3.499
 5255SOL     OW16663   4.255   0.228   4.663
 5255SOL    HW116664   4.222   0.237   4.757
 5255SOL    HW216665   4.270   0.131   4.643
 5256SOL     OW16666   5.046   1.296   3.315
 5256SOL    HW116667   4.983   1.241   3.260
 5256SOL    HW216668   5.116   1.336   3.255
 5257SOL     OW16669   4.388   0.217   2.129
 5257SOL    HW116670   4.458   0.286   2.145
 5257SOL    HW216671   4.352   0.228   2.036
 5258SOL     OW16672   5.092   4.176   1.617
 5258SOL    HW116673   5.032   4.238   1.668
 5258SOL    HW216674   5.078   4.188   1.519
 5259SOL     OW16675   4.470   6.369   1.208
 5259SOL    HW116676   4.477   6.455   1.158
 5259SOL    HW216677   4.375   6.355   1.238
 5260SOL     OW16678   5.363   2.980   1.065
 5260SOL    HW116679   5.324   2.933   1.144
 5260SOL    HW216680   5.320   3.070   1.055
 5261SOL     OW16681   1.081   2.917   5.876
 5261SOL    HW116682   1.037   3.002   5.847
 5261SOL    HW216683   1.103   2.861   5.797
 5262SOL     OW16684   2.699   0.039   2.870
 5262SOL    HW116685   2.653   0.046   2.959
 5262SOL    HW216686   2.794   0.014   2.884
 5263SOL     OW16687   0.839   0.204   6.229
 5263SOL    HW116688   0.840   0.132   6.159
 5263SOL    HW216689   0.932   0.220   6.262
 5264SOL     OW16690   6.093   0.890   1.616
 5264SOL    HW116691   6.065   0.914   1.523
 5264SOL    HW216692   6.191   0.872   1.617
 5265SOL     OW16693   4.953   4.296   2.504
 5265SOL    HW116694   4.931   4.373   2.445
 5265SOL    HW216695   4.869   4.243   2.522
 5266SOL     OW16696   2.418   6.609   1.599
 5266SOL    HW116697   2.428   6.686   1.536
 5266SOL    HW216698   2.328   6.614   1.644
 5267SOL     OW16699   4.618   4.411   5.869
 5267SOL    HW116700   4.544   4.464   5.829
 5267SOL    HW216701   4.583   4.354   5.943
 5268SOL     OW16702   7.022   5.485   5.462
 5268SOL    HW116703   7.006   5.405   5.521
 5268SOL    HW216704   0.068   5.541   5.502
 5269SOL     OW16705   2.282   5.784   3.910
 5269SOL    HW116706   2.266   5.821   3.819
 5269SOL    HW216707   2.265   5.856   3.978
 5270SOL     OW16708   4.309   1.929   1.661
 5270SOL    HW116709   4.218   1.927   1.619
 5270SOL    HW216710   4.304   1.978   1.748
 5271SOL     OW16711   4.691   5.330   4.325
 5271SOL    HW116712   4.662   5.387   4.248
 5271SOL    HW216713   4.682   5.234   4.300
 5272SOL     OW16714   1.088   5.695   3.760
 5272SOL    HW116715   1.156   5.627   3.733
 5272SOL    HW216716   1.028   5.715   3.682
 5273SOL     OW16717   1.095   3.007   3.471
 5273SOL    HW116718   1.097   3.100   3.435
 5273SOL    HW216719   1.139   3.004   3.561
 5274SOL     OW16720   6.097   4.728   2.931
 5274SOL    HW116721   6.194   4.725   2.907
 5274SOL    HW216722   6.042   4.732   2.848
 5275SOL     OW16723   2.967   1.366   6.249
 5275SOL    HW116724   2.962   1.463   6.272
 5275SOL    HW216725   3.044   1.351   6.187
 5276SOL     OW16726   0.172   6.181   0.770
 5276SOL    HW116727   0.100   6.115   0.751
 5276SOL    HW216728   0.141   6.273   0.746
 5277SOL     OW16729   1.796   2.653   2.918
 5277SOL    HW116730   1.787   2.744   2.958
 5277SOL    HW216731   1.818   2.587   2.989
 5278SOL     OW16732   5.287   6.799   5.357
 5278SOL    HW116733   5.375   6.845   5.359
 5278SOL    HW216734   5.218   6.861   5.318
 5279SOL     OW16735   1.722   6.333   6.973
 5279SOL    HW116736   1.776   6.417   6.972
 5279SOL    HW216737   1.660   6.333   6.894
 5280SOL     OW16738   3.645   5.645   5.410
 5280SOL    HW116739   3.712   5.610   5.476
 5280SOL    HW216740   3.683   5.725   5.364
 5281SOL     OW16741   1.783   1.710   3.860
 5281SOL    HW116742   1.730   1.627   3.845
 5281SOL    HW216743   1.841   1.728   3.780
 5282SOL     OW16744   1.744   0.353   2.052
 5282SOL    HW116745   1.660   0.407   2.059
 5282SOL    HW216746   1.759   0.328   1.956
 5283SOL     OW16747   1.587   0.557   3.114
 5283SOL    HW116748   1.644   0.564   3.032
 5283SOL    HW216749   1.587   0.463   3.146
 5284SOL     OW16750   4.646   2.707   3.403
 5284SOL    HW116751   4.640   2.685   3.501
 5284SOL    HW216752   4.691   2.795   3.391
 5285SOL     OW16753   0.738   3.371   4.280
 5285SOL    HW116754   0.657   3.414   4.239
 5285SOL    HW216755   0.716   3.342   4.373
 5286SOL     OW16756   6.824   3.120   1.079
 5286SOL    HW116757   6.728   3.095   1.087
 5286SOL    HW216758   6.832   3.202   1.022
 5287SOL     OW16759   3.078   5.682   1.373
 5287SOL    HW116760   2.985   5.678   1.408
 5287SOL    HW216761   3.092   5.607   1.308
 5288SOL     OW16762   3.545   0.346   2.766
 5288SOL    HW116763   3.524   0.251   2.744
 5288SOL    HW216764   3.561   0.354   2.865
 5289SOL     OW16765   2.167   5.508   5.905
 5289SOL    HW116766   2.085   5.455   5.928
 5289SOL    HW216767   2.211   5.469   5.825
 5290SOL     OW16768   1.717   3.439   5.510
 5290SOL    HW116769   1.678   3.500   5.440
 5290SOL    HW216770   1.812   3.418   5.487
 5291SOL     OW16771   3.308   4.534   6.170
 5291SOL    HW116772   3.378   4.463   6.173
 5291SOL    HW216773   3.301   4.570   6.077
 5292SOL     OW16774   6.112   4.552   5.775
 5292SOL    HW116775   6.116   4.452   5.781
 5292SOL    HW216776   6.193   4.585   5.726
 5293SOL     OW16777   2.503   6.755   4.889
 5293SOL    HW116778   2.436   6.745   4.816
 5293SOL    HW216779   2.571   6.681   4.882
 5294SOL     OW16780   4.815   2.021   5.557
 5294SOL    HW116781   4.813   1.921   5.550
 5294SOL    HW216782   4.893   2.049   5.612
 5295SOL     OW16783   3.871   1.311   2.928
 5295SOL    HW116784   3.811   1.318   3.007
 5295SOL    HW216785   3.962   1.280   2.957
 5296SOL     OW16786   3.216   4.422   6.979
 5296SOL    HW116787   3.184   4.327   6.986
 5296SOL    HW216788   3.240   4.442   6.884
 5297SOL     OW16789   1.423   3.795   0.422
 5297SOL    HW116790   1.470   3.875   0.457
 5297SOL    HW216791   1.404   3.732   0.498
 5298SOL     OW16792   1.408   6.039   0.237
 5298SOL    HW116793   1.486   6.080   0.189
 5298SOL    HW216794   1.330   6.034   0.175
 5299SOL     OW16795   2.586   2.604   0.524
 5299SOL    HW116796   2.582   2.688   0.579
 5299SOL    HW216797   2.560   2.526   0.581
 5300SOL     OW16798   0.438   5.789   0.970
 5300SOL    HW116799   0.491   5.805   1.053
 5300SOL    HW216800   0.401   5.875   0.936
 5301SOL     OW16801   4.251   1.702   6.117
 5301SOL    HW116802   4.177   1.770   6.115
 5301SOL    HW216803   4.288   1.692   6.025
 5302SOL     OW16804   6.116   5.744   3.341
 5302SOL    HW116805   6.149   5.792   3.423
 5302SOL    HW216806   6.070   5.659   3.368
 5303SOL     OW16807   0.407   5.294   4.722
 5303SOL    HW116808   0.326   5.266   4.671
 5303SOL    HW216809   0.467   5.215   4.736
 5304SOL     OW16810   5.799   0.388   0.653
 5304SOL    HW116811   5.844   0.323   0.715
 5304SOL    HW216812   5.864   0.458   0.626
 5305SOL     OW16813   0.844   4.915   3.431
 5305SOL    HW116814   0.939   4.885   3.444
 5305SOL    HW216815   0.805   4.869   3.351
 5306SOL     OW16816   1.133   4.454   5.114
 5306SOL    HW116817   1.099   4.444   5.021
 5306SOL    HW216818   1.101   4.541   5.152
 5307SOL     OW16819   3.959   1.426   0.185
 5307SOL    HW116820   4.025   1.485   0.138
 5307SOL    HW216821   3.875   1.420   0.131
 5308SOL     OW16822   1.270   4.525   2.601
 5308SOL    HW116823   1.361   4.561   2.618
 5308SOL    HW216824   1.263   4.495   2.506
 5309SOL     OW16825   3.944   4.756   1.853
 5309SOL    HW116826   3.900   4.786   1.769
 5309SOL    HW216827   3.914   4.813   1.929
 5310SOL     OW16828   6.152   3.342   1.858
 5310SOL    HW116829   6.209   3.307   1.933
 5310SOL    HW216830   6.109   3.428   1.887
 5311SOL     OW16831   6.451   0.240   0.149
 5311SOL    HW116832   6.415   0.237   0.056
 5311SOL    HW216833   6.384   0.201   0.212
 5312SOL     OW16834   1.226   5.544   1.589
 5312SOL    HW116835   1.208   5.447   1.575
 5312SOL    HW216836   1.146   5.597   1.560
 5313SOL     OW16837   1.155   2.929   6.156
 5313SOL    HW116838   1.107   2.873   6.223
 5313SOL    HW216839   1.105   2.928   6.069
 5314SOL     OW16840   4.083   6.713   0.407
 5314SOL    HW116841   4.153   6.740   0.342
 5314SOL    HW216842   3.995   6.751   0.380
 5315SOL     OW16843   4.911   3.688   1.929
 5315SOL    HW116844   4.863   3.687   1.841
 5315SOL    HW216845   4.983   3.757   1.928
 5316SOL     OW16846   1.041   3.438   4.976
 5316SOL    HW116847   1.019   3.513   5.039
 5316SOL    HW216848   0.959   3.383   4.961
 5317SOL     OW16849   5.688   1.644   5.095
 5317SOL    HW116850   5.727   1.623   5.184
 5317SOL    HW216851   5.753   1.618   5.023
 5318SOL     OW16852   0.799   2.563   0.542
 5318SOL    HW116853   0.848   2.476   0.533
 5318SOL    HW216854   0.714   2.559   0.490
 5319SOL     OW16855   4.406   6.111   0.236
 5319SOL    HW116856   4.449   6.041   0.293
 5319SOL    HW216857   4.433   6.099   0.141
 5320SOL     OW16858   4.459   4.643   0.621
 5320SOL    HW116859   4.479   4.694   0.705
 5320SOL    HW216860   4.413   4.703   0.556
 5321SOL     OW16861   2.155   5.098   4.483
 5321SOL    HW116862   2.235   5.098   4.423
 5321SOL    HW216863   2.086   5.035   4.447
 5322SOL     OW16864   5.635   5.835   6.740
 5322SOL    HW116865   5.541   5.838   6.774
 5322SOL    HW216866   5.635   5.840   6.640
 5323SOL     OW16867   4.172   1.303   6.411
 5323SOL    HW116868   4.171   1.247   6.328
 5323SOL    HW216869   4.209   1.393   6.390
 5324SOL     OW16870   3.210   2.231   0.643
 5324SOL    HW116871   3.296   2.195   0.679
 5324SOL    HW216872   3.203   2.328   0.667
 5325SOL     OW16873   4.664   0.354   4.420
 5325SOL    HW116874   4.723   0.284   4.459
 5325SOL    HW216875   4.677   0.440   4.471
 5326SOL     OW16876   6.490   5.177   2.939
 5326SOL    HW116877   6.514   5.164   2.843
 5326SOL    HW216878   6.489   5.275   2.960
 5327SOL     OW16879   5.546   2.615   5.386
 5327SOL    HW116880   5.485   2.622   5.466
 5327SOL    HW216881   5.571   2.707   5.355
 5328SOL     OW16882   3.703   3.161   5.002
 5328SOL    HW116883   3.665   3.224   5.070
 5328SOL    HW216884   3.787   3.200   4.963
 5329SOL     OW16885   6.992   4.211   6.278
 5329SOL    HW116886   0.013   4.190   6.192
 5329SOL    HW216887   6.932   4.135   6.302
 5330SOL     OW16888   4.057   3.877   6.593
 5330SOL    HW116889   3.988   3.844   6.528
 5330SOL    HW216890   4.013   3.935   6.662
 5331SOL     OW16891   5.364   1.307   6.920
 5331SOL    HW116892   5.403   1.372   6.855
 5331SOL    HW216893   5.438   1.257   6.965
 5332SOL     OW16894   0.578   2.723   1.140
 5332SOL    HW116895   0.481   2.717   1.163
 5332SOL    HW216896   0.626   2.644   1.178
 5333SOL     OW16897   0.575   0.364   3.155
 5333SOL    HW116898   0.564   0.452   3.108
 5333SOL    HW216899   0.672   0.343   3.163
 5334SOL     OW16900   2.976   6.808   3.903
 5334SOL    HW116901   2.890   6.815   3.853
 5334SOL    HW216902   2.957   6.782   3.998
 5335SOL     OW16903   6.716   6.213   1.420
 5335SOL    HW116904   6.656   6.133   1.422
 5335SOL    HW216905   6.717   6.253   1.329
 5336SOL     OW16906   1.731   3.172   3.309
 5336SOL    HW116907   1.694   3.151   3.400
 5336SOL    HW216908   1.826   3.202   3.318
 5337SOL     OW16909   5.174   4.071   0.976
 5337SOL    HW116910   5.084   4.114   0.977
 5337SOL    HW216911   5.230   4.110   1.049
 5338SOL     OW16912   6.067   1.691   0.119
 5338SOL    HW116913   5.989   1.749   0.094
 5338SOL    HW216914   6.152   1.743   0.107
 5339SOL     OW16915   6.600   2.137   3.930
 5339SOL    HW116916   6.602   2.234   3.951
 5339SOL    HW216917   6.677   2.114   3.870
 5340SOL     OW16918   4.807   4.070   0.912
 5340SOL    HW116919   4.833   3.985   0.866
 5340SOL    HW216920   4.712   4.065   0.940
 5341SOL     OW16921   3.355   2.745   6.227
 5341SOL    HW116922   3.288   2.751   6.301
 5341SOL    HW216923   3.381   2.837   6.198
 5342SOL     OW16924   3.175   6.673   4.139
 5342SOL    HW116925   3.205   6.666   4.234
 5342SOL    HW216926   3.092   6.728   4.134
 5343SOL     OW16927   3.683   4.025   4.315
 5343SOL    HW116928   3.600   4.077   4.337
 5343SOL    HW216929   3.730   3.999   4.399
 5344SOL     OW16930   2.241   3.000   2.603
 5344SOL    HW116931   2.195   2.957   2.681
 5344SOL    HW216932   2.215   3.096   2.597
 5345SOL     OW16933   3.888   6.291   1.499
 5345SOL    HW116934   3.921   6.222   1.434
 5345SOL    HW216935   3.906   6.382   1.461
 5346SOL     OW16936   3.205   6.137   4.289
 5346SOL    HW116937   3.213   6.235   4.304
 5346SOL    HW216938   3.165   6.119   4.200
 5347SOL     OW16939   0.722   2.554   2.071
 5347SOL    HW116940   0.789   2.504   2.126
 5347SOL    HW216941   0.768   2.596   1.993
 5348SOL     OW16942   0.024   2.467   0.966
 5348SOL    HW116943   0.109   2.467   0.913
 5348SOL    HW216944   0.038   2.516   1.052
 5349SOL     OW16945   1.622   2.635   0.482
 5349SOL    HW116946   1.562   2.711   0.507
 5349SOL    HW216947   1.716   2.669   0.471
 5350SOL     OW16948   2.061   0.205   5.427
 5350SOL    HW116949   2.036   0.169   5.337
 5350SOL    HW216950   2.159   0.221   5.430
 5351SOL     OW16951   6.015   5.957   1.947
 5351SOL    HW116952   5.923   5.994   1.935
 5351SOL    HW216953   6.053   5.991   2.033
 5352SOL     OW16954   2.268   5.206   3.283
 5352SOL    HW116955   2.198   5.233   3.217
 5352SOL    HW216956   2.341   5.274   3.285
 5353SOL     OW16957   3.996   5.329   3.439
 5353SOL    HW116958   4.095   5.343   3.446
 5353SOL    HW216959   3.955   5.336   3.531
 5354SOL     OW16960   2.922   5.255   1.775
 5354SOL    HW116961   2.982   5.261   1.855
 5354SOL    HW216962   2.846   5.192   1.794
 5355SOL     OW16963   5.652   3.166   3.338
 5355SOL    HW116964   5.564   3.146   3.296
 5355SOL    HW216965   5.719   3.098   3.308
 5356SOL     OW16966   5.392   4.273   1.725
 5356SOL    HW116967   5.487   4.297   1.745
 5356SOL    HW216968   5.369   4.186   1.768
 5357SOL     OW16969   4.610   6.329   0.270
 5357SOL    HW116970   4.654   6.312   0.182
 5357SOL    HW216971   4.534   6.265   0.283
 5358SOL     OW16972   4.349   1.443   0.111
 5358SOL    HW116973   4.446   1.454   0.134
 5358SOL    HW216974   4.309   1.533   0.092
 5359SOL     OW16975   1.440   1.846   6.471
 5359SOL    HW116976   1.450   1.774   6.540
 5359SOL    HW216977   1.379   1.917   6.506
 5360SOL     OW16978   4.573   6.590   5.325
 5360SOL    HW116979   4.598   6.510   5.269
 5360SOL    HW216980   4.517   6.652   5.271
 5361SOL     OW16981   2.366   0.828   5.283
 5361SOL    HW116982   2.296   0.812   5.352
 5361SOL    HW216983   2.341   0.905   5.225
 5362SOL     OW16984   5.752   5.088   3.331
 5362SOL    HW116985   5.693   5.169   3.325
 5362SOL    HW216986   5.846   5.115   3.311
 5363SOL     OW16987   0.132   0.136   6.588
 5363SOL    HW116988   0.186   0.144   6.672
 5363SOL    HW216989   0.139   0.221   6.535
 5364SOL     OW16990   6.299   6.346   1.663
 5364SOL    HW116991   6.285   6.445   1.665
 5364SOL    HW216992   6.214   6.302   1.636
 5365SOL     OW16993   3.526   3.551   7.002
 5365SOL    HW116994   3.578   3.508   0.050
 5365SOL    HW216995   3.469   3.483   6.957
 5366SOL     OW16996   5.300   5.919   1.784
 5366SOL    HW116997   5.386   5.887   1.744
 5366SOL    HW216998   5.224   5.885   1.729
 5367SOL     OW16999   0.655   6.306   0.595
 5367SOL    HW117000   0.598   6.238   0.642
 5367SOL    HW217001   0.751   6.277   0.599
 5368SOL     OW17002   5.400   0.522   3.111
 5368SOL    HW117003   5.450   0.456   3.056
 5368SOL    HW217004   5.388   0.486   3.203
 5369SOL     OW17005   2.658   7.008   2.088
 5369SOL    HW117006   2.646   6.994   2.186
 5369SOL    HW217007   2.672   0.079   2.070
 5370SOL     OW17008   4.388   2.832   1.553
 5370SOL    HW117009   4.350   2.817   1.462
 5370SOL    HW217010   4.410   2.743   1.595
 5371SOL     OW17011   1.232   3.815   4.750
 5371SOL    HW117012   1.316   3.866   4.769
 5371SOL    HW217013   1.253   3.734   4.695
 5372SOL     OW17014   2.748   5.790   3.423
 5372SOL    HW117015   2.673   5.853   3.405
 5372SOL    HW217016   2.792   5.815   3.510
 5373SOL     OW17017   3.853   6.213   4.133
 5373SOL    HW117018   3.794   6.132   4.136
 5373SOL    HW217019   3.833   6.271   4.212
 5374SOL     OW17020   1.118   3.830   6.720
 5374SOL    HW117021   1.072   3.821   6.631
 5374SOL    HW217022   1.068   3.778   6.789
 5375SOL     OW17023   1.960   5.150   4.765
 5375SOL    HW117024   2.026   5.217   4.731
 5375SOL    HW217025   1.991   5.058   4.742
 5376SOL     OW17026   1.509   3.314   1.027
 5376SOL    HW117027   1.491   3.350   1.118
 5376SOL    HW217028   1.422   3.296   0.981
 5377SOL     OW17029   0.404   6.971   1.920
 5377SOL    HW117030   0.414   0.018   1.853
 5377SOL    HW217031   0.484   6.968   1.979
 5378SOL     OW17032   6.981   0.424   2.051
 5378SOL    HW117033   6.993   0.342   2.107
 5378SOL    HW217034   0.029   0.488   2.071
 5379SOL     OW17035   1.947   5.385   4.968
 5379SOL    HW117036   1.920   5.454   4.900
 5379SOL    HW217037   1.897   5.300   4.952
 5380SOL     OW17038   2.042   2.135   3.057
 5380SOL    HW117039   2.081   2.076   2.987
 5380SOL    HW217040   1.943   2.119   3.063
 5381SOL     OW17041   6.565   3.866   1.215
 5381SOL    HW117042   6.661   3.840   1.214
 5381SOL    HW217043   6.538   3.891   1.308
 5382SOL     OW17044   3.206   0.277   1.939
 5382SOL    HW117045   3.278   0.208   1.942
 5382SOL    HW217046   3.127   0.246   1.991
 5383SOL     OW17047   2.261   2.726   5.615
 5383SOL    HW117048   2.325   2.798   5.641
 5383SOL    HW217049   2.252   2.722   5.516
 5384SOL     OW17050   5.813   6.929   4.915
 5384SOL    HW117051   5.870   6.933   4.832
 5384SOL    HW217052   5.786   6.834   4.931
 5385SOL     OW17053   3.013   3.328   3.947
 5385SOL    HW117054   3.027   3.230   3.962
 5385SOL    HW217055   3.100   3.376   3.957
 5386SOL     OW17056   4.847   0.060   4.359
 5386SOL    HW117057   4.927   0.014   4.321
 5386SOL    HW217058   4.781   7.018   4.389
 5387SOL     OW17059   2.676   6.427   3.876
 5387SOL    HW117060   2.726   6.373   3.809
 5387SOL    HW217061   2.581   6.396   3.880
 5388SOL     OW17062   6.829   0.143   4.415
 5388SOL    HW117063   6.786   0.093   4.340
 5388SOL    HW217064   6.897   0.084   4.459
 5389SOL     OW17065   4.619   1.208   1.898
 5389SOL    HW117066   4.653   1.205   1.804
 5389SOL    HW217067   4.597   1.302   1.923
 5390SOL     OW17068   4.766   4.133   3.139
 5390SOL    HW117069   4.807   4.045   3.115
 5390SOL    HW217070   4.765   4.193   3.059
 5391SOL     OW17071   1.913   2.207   1.311
 5391SOL    HW117072   1.992   2.199   1.373
 5391SOL    HW217073   1.928   2.283   1.248
 5392SOL     OW17074   5.537   3.346   1.644
 5392SOL    HW117075   5.627   3.384   1.667
 5392SOL    HW217076   5.465   3.405   1.682
 5393SOL     OW17077   5.466   6.937   6.713
 5393SOL    HW117078   5.425   6.924   6.803
 5393SOL    HW217079   5.409   6.894   6.643
 5394SOL     OW17080   6.615   4.964   6.509
 5394SOL    HW117081   6.630   5.063   6.513
 5394SOL    HW217082   6.521   4.945   6.483
 5395SOL     OW17083   4.317   0.742   1.947
 5395SOL    HW117084   4.382   0.814   1.925
 5395SOL    HW217085   4.358   0.680   2.015
 5396SOL     OW17086   4.868   4.901   2.645
 5396SOL    HW117087   4.815   4.954   2.710
 5396SOL    HW217088   4.807   4.845   2.589
 5397SOL     OW17089   6.758   2.541   1.746
 5397SOL    HW117090   6.719   2.493   1.825
 5397SOL    HW217091   6.792   2.474   1.680
 5398SOL     OW17092   3.216   2.010   2.996
 5398SOL    HW117093   3.208   2.030   2.898
 5398SOL    HW217094   3.313   2.001   3.020
 5399SOL     OW17095   2.343   5.463   0.707
 5399SOL    HW117096   2.369   5.422   0.795
 5399SOL    HW217097   2.332   5.561   0.718
 5400SOL     OW17098   2.666   4.238   0.683
 5400SOL    HW117099   2.627   4.282   0.601
 5400SOL    HW217100   2.677   4.140   0.666
 5401SOL     OW17101   5.802   3.477   1.691
 5401SOL    HW117102   5.882   3.531   1.665
 5401SOL    HW217103   5.760   3.517   1.773
 5402SOL     OW17104   2.226   4.866   1.738
 5402SOL    HW117105   2.294   4.834   1.803
 5402SOL    HW217106   2.207   4.793   1.672
 5403SOL     OW17107   6.035   2.363   6.048
 5403SOL    HW117108   6.086   2.278   6.033
 5403SOL    HW217109   5.948   2.342   6.092
 5404SOL     OW17110   0.941   0.727   2.611
 5404SOL    HW117111   0.907   0.762   2.524
 5404SOL    HW217112   0.873   0.747   2.683
 5405SOL     OW17113   6.230   6.015   0.134
 5405SOL    HW117114   6.162   5.963   0.083
 5405SOL    HW217115   6.230   5.985   0.230
 5406SOL     OW17116   2.860   0.466   6.849
 5406SOL    HW117117   2.904   0.555   6.857
 5406SOL    HW217118   2.791   0.457   6.921
 5407SOL     OW17119   4.303   3.075   1.283
 5407SOL    HW117120   4.400   3.087   1.262
 5407SOL    HW217121   4.288   2.984   1.319
 5408SOL     OW17122   3.244   1.230   6.429
 5408SOL    HW117123   3.170   1.173   6.465
 5408SOL    HW217124   3.206   1.308   6.380
 5409SOL     OW17125   5.973   1.166   3.973
 5409SOL    HW117126   5.978   1.252   4.024
 5409SOL    HW217127   5.969   1.185   3.875
 5410SOL     OW17128   2.046   3.135   1.376
 5410SOL    HW117129   2.066   3.225   1.337
 5410SOL    HW217130   1.948   3.128   1.393
 5411SOL     OW17131   6.654   5.100   5.868
 5411SOL    HW117132   6.641   5.003   5.886
 5411SOL    HW217133   6.750   5.124   5.884
 5412SOL     OW17134   4.272   0.655   6.936
 5412SOL    HW117135   4.279   0.570   6.882
 5412SOL    HW217136   4.206   0.716   6.892
 5413SOL     OW17137   1.952   0.877   1.256
 5413SOL    HW117138   2.032   0.868   1.316
 5413SOL    HW217139   1.870   0.850   1.306
 5414SOL     OW17140   5.927   2.991   4.817
 5414SOL    HW117141   5.828   2.984   4.830
 5414SOL    HW217142   5.973   2.982   4.906
 5415SOL     OW17143   1.476   6.060   1.774
 5415SOL    HW117144   1.397   6.075   1.714
 5415SOL    HW217145   1.538   6.138   1.766
 5416SOL     OW17146   4.478   4.446   6.459
 5416SOL    HW117147   4.474   4.346   6.452
 5416SOL    HW217148   4.386   4.483   6.445
 5417SOL     OW17149   4.135   6.589   5.483
 5417SOL    HW117150   4.186   6.621   5.403
 5417SOL    HW217151   4.197   6.580   5.561
 5418SOL     OW17152   4.111   6.636   4.224
 5418SOL    HW117153   4.021   6.628   4.268
 5418SOL    HW217154   4.144   6.545   4.199
 5419SOL     OW17155   3.163   4.947   0.187
 5419SOL    HW117156   3.175   4.943   0.088
 5419SOL    HW217157   3.070   4.920   0.211
 5420SOL     OW17158   1.442   2.155   1.756
 5420SOL    HW117159   1.416   2.231   1.816
 5420SOL    HW217160   1.434   2.069   1.806
 5421SOL     OW17161   2.091   3.548   2.491
 5421SOL    HW117162   2.119   3.638   2.456
 5421SOL    HW217163   2.124   3.538   2.585
 5422SOL     OW17164   0.529   5.820   0.046
 5422SOL    HW117165   0.622   5.799   0.075
 5422SOL    HW217166   0.472   5.739   0.056
 5423SOL     OW17167   5.440   2.720   6.733
 5423SOL    HW117168   5.406   2.627   6.731
 5423SOL    HW217169   5.519   2.726   6.794
 5424SOL     OW17170   4.894   3.170   4.269
 5424SOL    HW117171   4.847   3.155   4.356
 5424SOL    HW217172   4.841   3.128   4.195
 5425SOL     OW17173   4.491   1.423   4.027
 5425SOL    HW117174   4.477   1.408   4.125
 5425SOL    HW217175   4.418   1.481   3.991
 5426SOL     OW17176   6.326   5.169   3.892
 5426SOL    HW117177   6.394   5.117   3.840
 5426SOL    HW217178   6.327   5.139   3.987
 5427SOL     OW17179   4.965   4.852   0.546
 5427SOL    HW117180   5.060   4.838   0.573
 5427SOL    HW217181   4.941   4.948   0.559
 5428SOL     OW17182   7.003   0.322   1.805
 5428SOL    HW117183   0.068   0.281   1.807
 5428SOL    HW217184   6.978   0.353   1.897
 5429SOL     OW17185   1.115   1.821   5.976
 5429SOL    HW117186   1.085   1.858   6.064
 5429SOL    HW217187   1.155   1.730   5.991
 5430SOL     OW17188   0.977   3.481   5.397
 5430SOL    HW117189   0.936   3.400   5.439
 5430SOL    HW217190   1.010   3.458   5.305
 5431SOL     OW17191   3.750   5.795   0.033
 5431SOL    HW117192   3.700   5.880   0.054
 5431SOL    HW217193   3.700   5.717   0.070
 5432SOL     OW17194   4.624   6.628   6.456
 5432SOL    HW117195   4.596   6.703   6.396
 5432SOL    HW217196   4.648   6.549   6.400
 5433SOL     OW17197   0.395   1.625   3.889
 5433SOL    HW117198   0.340   1.708   3.880
 5433SOL    HW217199   0.381   1.585   3.980
 5434SOL     OW17200   3.878   0.771   4.666
 5434SOL    HW117201   3.972   0.804   4.655
 5434SOL    HW217202   3.821   0.845   4.703
 5435SOL     OW17203   5.302   1.228   1.854
 5435SOL    HW117204   5.209   1.202   1.827
 5435SOL    HW217205   5.368   1.182   1.795
 5436SOL     OW17206   5.011   3.685   4.254
 5436SOL    HW117207   5.014   3.592   4.219
 5436SOL    HW217208   5.045   3.686   4.349
 5437SOL     OW17209   2.860   5.111   6.351
 5437SOL    HW117210   2.843   5.173   6.274
 5437SOL    HW217211   2.841   5.159   6.437
 5438SOL     OW17212   5.540   4.237   2.941
 5438SOL    HW117213   5.544   4.175   3.019
 5438SOL    HW217214   5.633   4.250   2.905
 5439SOL     OW17215   1.208   2.763   1.193
 5439SOL    HW117216   1.207   2.665   1.174
 5439SOL    HW217217   1.284   2.784   1.254
 5440SOL     OW17218   0.780   0.422   2.012
 5440SOL    HW117219   0.709   0.440   1.944
 5440SOL    HW217220   0.738   0.383   2.094
 5441SOL     OW17221   4.982   2.463   3.187
 5441SOL    HW117222   4.972   2.364   3.182
 5441SOL    HW217223   4.921   2.506   3.120
 5442SOL     OW17224   3.478   6.427   3.430
 5442SOL    HW117225   3.554   6.479   3.470
 5442SOL    HW217226   3.396   6.440   3.486
 5443SOL     OW17227   2.978   0.727   3.586
 5443SOL    HW117228   2.926   0.801   3.629
 5443SOL    HW217229   2.985   0.743   3.488
 5444SOL     OW17230   1.675   0.574   4.070
 5444SOL    HW117231   1.750   0.600   4.130
 5444SOL    HW217232   1.678   0.476   4.052
 5445SOL     OW17233   5.436   4.180   4.422
 5445SOL    HW117234   5.372   4.128   4.478
 5445SOL    HW217235   5.506   4.119   4.384
 5446SOL     OW17236   6.670   4.933   4.862
 5446SOL    HW117237   6.597   4.995   4.834
 5446SOL    HW217238   6.704   4.960   4.952
 5447SOL     OW17239   2.428   1.456   6.804
 5447SOL    HW117240   2.402   1.360   6.794
 5447SOL    HW217241   2.424   1.482   6.901
 5448SOL     OW17242   5.310   2.995   4.554
 5448SOL    HW117243   5.249   3.066   4.519
 5448SOL    HW217244   5.297   2.911   4.501
 5449SOL     OW17245   1.477   2.428   6.735
 5449SOL    HW117246   1.477   2.501   6.667
 5449SOL    HW217247   1.554   2.367   6.719
 5450SOL     OW17248   1.743   0.732   2.126
 5450SOL    HW117249   1.820   0.796   2.123
 5450SOL    HW217250   1.698   0.730   2.037
 5451SOL     OW17251   1.408   5.928   3.807
 5451SOL    HW117252   1.488   5.986   3.819
 5451SOL    HW217253   1.390   5.877   3.892
 5452SOL     OW17254   2.013   4.256   6.720
 5452SOL    HW117255   2.062   4.170   6.704
 5452SOL    HW217256   2.076   4.325   6.754
 5453SOL     OW17257   5.291   4.354   1.982
 5453SOL    HW117258   5.333   4.340   1.892
 5453SOL    HW217259   5.341   4.301   2.051
 5454SOL     OW17260   0.401   3.727   5.951
 5454SOL    HW117261   0.312   3.681   5.945
 5454SOL    HW217262   0.386   3.825   5.970
 5455SOL     OW17263   6.370   3.141   0.967
 5455SOL    HW117264   6.282   3.184   0.948
 5455SOL    HW217265   6.442   3.191   0.920
 5456SOL     OW17266   2.882   0.469   6.514
 5456SOL    HW117267   2.808   0.403   6.500
 5456SOL    HW217268   2.844   0.553   6.552
 5457SOL     OW17269   6.374   2.513   6.979
 5457SOL    HW117270   6.457   2.546   6.934
 5457SOL    HW217271   6.329   2.446   6.920
 5458SOL     OW17272   0.723   4.063   0.813
 5458SOL    HW117273   0.766   4.094   0.729
 5458SOL    HW217274   0.782   4.083   0.891
 5459SOL     OW17275   1.756   4.168   7.002
 5459SOL    HW117276   1.719   4.076   6.995
 5459SOL    HW217277   1.699   4.224   0.036
 5460SOL     OW17278   3.749   0.806   3.230
 5460SOL    HW117279   3.809   0.865   3.177
 5460SOL    HW217280   3.662   0.853   3.247
 5461SOL     OW17281   5.943   0.267   5.717
 5461SOL    HW117282   5.985   0.337   5.659
 5461SOL    HW217283   5.976   0.177   5.690
 5462SOL     OW17284   0.246   6.980   0.030
 5462SOL    HW117285   0.182   0.011   0.082
 5462SOL    HW217286   0.339   6.993   0.065
 5463SOL     OW17287   0.180   1.992   0.859
 5463SOL    HW117288   0.271   2.005   0.898
 5463SOL    HW217289   0.114   2.049   0.907
 5464SOL     OW17290   1.205   1.207   4.228
 5464SOL    HW117291   1.276   1.138   4.236
 5464SOL    HW217292   1.193   1.232   4.132
 5465SOL     OW17293   3.509   6.740   3.573
 5465SOL    HW117294   3.517   6.806   3.648
 5465SOL    HW217295   3.441   6.670   3.596
 5466SOL     OW17296   5.302   2.948   5.048
 5466SOL    HW117297   5.249   2.979   4.970
 5466SOL    HW217298   5.310   3.021   5.115
 5467SOL     OW17299   5.148   2.896   3.244
 5467SOL    HW117300   5.190   2.899   3.154
 5467SOL    HW217301   5.201   2.835   3.303
 5468SOL     OW17302   5.898   2.567   4.452
 5468SOL    HW117303   5.813   2.610   4.481
 5468SOL    HW217304   5.888   2.532   4.359
 5469SOL     OW17305   3.912   6.236   6.252
 5469SOL    HW117306   3.911   6.330   6.217
 5469SOL    HW217307   3.818   6.204   6.265
 5470SOL     OW17308   3.236   6.279   2.969
 5470SOL    HW117309   3.140   6.292   2.994
 5470SOL    HW217310   3.294   6.298   3.048
 5471SOL     OW17311   4.876   0.078   2.450
 5471SOL    HW117312   4.930   0.031   2.520
 5471SOL    HW217313   4.910   0.171   2.439
 5472SOL     OW17314   4.667   3.932   6.053
 5472SOL    HW117315   4.694   3.839   6.029
 5472SOL    HW217316   4.649   3.937   6.151
 5473SOL     OW17317   0.194   2.763   2.150
 5473SOL    HW117318   0.242   2.767   2.063
 5473SOL    HW217319   0.098   2.785   2.136
 5474SOL     OW17320   1.319   4.813   4.438
 5474SOL    HW117321   1.344   4.723   4.474
 5474SOL    HW217322   1.372   4.883   4.487
 5475SOL     OW17323   2.281   3.035   1.561
 5475SOL    HW117324   2.250   3.128   1.581
 5475SOL    HW217325   2.327   2.997   1.642
 5476SOL     OW17326   1.695   4.442   5.485
 5476SOL    HW117327   1.659   4.535   5.471
 5476SOL    HW217328   1.754   4.418   5.409
 5477SOL     OW17329   2.528   4.785   3.419
 5477SOL    HW117330   2.624   4.813   3.413
 5477SOL    HW217331   2.471   4.854   3.375
 5478SOL     OW17332   3.735   5.262   4.938
 5478SOL    HW117333   3.652   5.305   4.973
 5478SOL    HW217334   3.726   5.163   4.945
 5479SOL     OW17335   4.719   1.601   6.581
 5479SOL    HW117336   4.673   1.517   6.549
 5479SOL    HW217337   4.747   1.589   6.676
 5480SOL     OW17338   6.455   4.557   3.092
 5480SOL    HW117339   6.420   4.638   3.139
 5480SOL    HW217340   6.387   4.484   3.097
 5481SOL     OW17341   4.203   1.520   4.268
 5481SOL    HW117342   4.286   1.491   4.221
 5481SOL    HW217343   4.227   1.568   4.353
 5482SOL     OW17344   3.593   4.384   1.660
 5482SOL    HW117345   3.611   4.464   1.717
 5482SOL    HW217346   3.587   4.411   1.564
 5483SOL     OW17347   0.604   1.874   5.833
 5483SOL    HW117348   0.696   1.835   5.827
 5483SOL    HW217349   0.605   1.966   5.795
 5484SOL     OW17350   3.774   1.338   4.352
 5484SOL    HW117351   3.853   1.315   4.296
 5484SOL    HW217352   3.771   1.437   4.365
 5485SOL     OW17353   4.697   0.428   5.552
 5485SOL    HW117354   4.691   0.492   5.475
 5485SOL    HW217355   4.761   0.354   5.529
 5486SOL     OW17356   2.292   5.978   5.172
 5486SOL    HW117357   2.382   5.961   5.132
 5486SOL    HW217358   2.220   5.949   5.109
 5487SOL     OW17359   4.173   2.888   6.597
 5487SOL    HW117360   4.259   2.876   6.549
 5487SOL    HW217361   4.142   2.983   6.588
 5488SOL     OW17362   6.049   6.923   1.076
 5488SOL    HW117363   6.121   6.950   1.140
 5488SOL    HW217364   5.999   6.844   1.114
 5489SOL     OW17365   0.385   3.843   1.560
 5489SOL    HW117366   0.447   3.919   1.545
 5489SOL    HW217367   0.368   3.796   1.473
 5490SOL     OW17368   2.916   0.569   2.493
 5490SOL    HW117369   2.931   0.474   2.465
 5490SOL    HW217370   2.827   0.577   2.537
 5491SOL     OW17371   0.901   2.850   0.003
 5491SOL    HW117372   0.895   2.750   7.023
 5491SOL    HW217373   0.809   2.889   7.022
 5492SOL     OW17374   0.823   3.581   6.731
 5492SOL    HW117375   0.888   3.602   6.658
 5492SOL    HW217376   0.862   3.512   6.791
 5493SOL     OW17377   3.672   3.199   4.069
 5493SOL    HW117378   3.747   3.135   4.051
 5493SOL    HW217379   3.705   3.293   4.057
 5494SOL     OW17380   7.008   3.780   5.399
 5494SOL    HW117381   7.014   3.681   5.389
 5494SOL    HW217382   6.918   3.804   5.436
 5495SOL     OW17383   5.996   0.932   1.363
 5495SOL    HW117384   6.051   0.944   1.280
 5495SOL    HW217385   5.933   1.010   1.372
 5496SOL     OW17386   4.096   0.766   3.347
 5496SOL    HW117387   4.106   0.741   3.444
 5496SOL    HW217388   4.149   0.848   3.328
 5497SOL     OW17389   0.936   1.464   5.292
 5497SOL    HW117390   0.987   1.545   5.262
 5497SOL    HW217391   0.998   1.403   5.342
 5498SOL     OW17392   0.383   5.239   2.210
 5498SOL    HW117393   0.351   5.298   2.137
 5498SOL    HW217394   0.364   5.143   2.188
 5499SOL     OW17395   0.824   0.688   4.285
 5499SOL    HW117396   0.808   0.787   4.286
 5499SOL    HW217397   0.795   0.650   4.197
 5500SOL     OW17398   0.661   0.908   6.711
 5500SOL    HW117399   0.736   0.893   6.647
 5500SOL    HW217400   0.594   0.970   6.670
 5501SOL     OW17401   3.660   2.207   0.670
 5501SOL    HW117402   3.687   2.173   0.580
 5501SOL    HW217403   3.628   2.131   0.727
 5502SOL     OW17404   5.335   3.572   6.195
 5502SOL    HW117405   5.298   3.520   6.273
 5502SOL    HW217406   5.391   3.647   6.230
 5503SOL     OW17407   6.958   4.536   0.416
 5503SOL    HW117408   0.002   4.511   0.350
 5503SOL    HW217409   6.869   4.506   0.382
 5504SOL     OW17410   4.642   1.089   5.215
 5504SOL    HW117411   4.612   1.003   5.174
 5504SOL    HW217412   4.695   1.141   5.149
 5505SOL     OW17413   2.037   4.634   3.123
 5505SOL    HW117414   2.097   4.563   3.085
 5505SOL    HW217415   2.091   4.695   3.182
 5506SOL     OW17416   0.324   3.218   0.580
 5506SOL    HW117417   0.231   3.208   0.546
 5506SOL    HW217418   0.324   3.206   0.680
 5507SOL     OW17419   3.441   0.659   5.083
 5507SOL    HW117420   3.382   0.739   5.094
 5507SOL    HW217421   3.471   0.654   4.987
 5508SOL     OW17422   1.086   1.288   0.474
 5508SOL    HW117423   1.171   1.259   0.518
 5508SOL    HW217424   1.023   1.211   0.466
 5509SOL     OW17425   0.910   5.857   0.545
 5509SOL    HW117426   0.925   5.861   0.446
 5509SOL    HW217427   0.820   5.818   0.563
 5510SOL     OW17428   4.376   5.563   6.805
 5510SOL    HW117429   4.475   5.570   6.821
 5510SOL    HW217430   4.360   5.517   6.718
 5511SOL     OW17431   1.773   1.292   5.022
 5511SOL    HW117432   1.804   1.328   4.934
 5511SOL    HW217433   1.843   1.310   5.092
 5512SOL     OW17434   3.973   1.402   1.023
 5512SOL    HW117435   3.950   1.368   1.114
 5512SOL    HW217436   4.031   1.335   0.976
 5513SOL     OW17437   3.600   5.341   5.922
 5513SOL    HW117438   3.585   5.435   5.891
 5513SOL    HW217439   3.537   5.280   5.874
 5514SOL     OW17440   3.425   0.605   4.668
 5514SOL    HW117441   3.468   0.549   4.598
 5514SOL    HW217442   3.487   0.616   4.745
 5515SOL     OW17443   1.349   5.618   1.816
 5515SOL    HW117444   1.376   5.703   1.771
 5515SOL    HW217445   1.266   5.582   1.772
 5516SOL     OW17446   2.163   2.578   4.778
 5516SOL    HW117447   2.087   2.633   4.742
 5516SOL    HW217448   2.135   2.534   4.863
 5517SOL     OW17449   2.029   3.521   1.819
 5517SOL    HW117450   1.992   3.612   1.836
 5517SOL    HW217451   2.102   3.502   1.885
 5518SOL     OW17452   6.220   5.094   5.950
 5518SOL    HW117453   6.188   5.022   5.888
 5518SOL    HW217454   6.142   5.136   5.996
 5519SOL     OW17455   6.025   3.297   3.091
 5519SOL    HW117456   6.042   3.228   3.021
 5519SOL    HW217457   5.951   3.357   3.062
 5520SOL     OW17458   5.303   6.935   2.085
 5520SOL    HW117459   5.390   6.913   2.128
 5520SOL    HW217460   5.229   6.931   2.153
 5521SOL     OW17461   5.888   6.272   1.589
 5521SOL    HW117462   5.893   6.176   1.563
 5521SOL    HW217463   5.893   6.329   1.507
 5522SOL     OW17464   6.281   5.365   1.123
 5522SOL    HW117465   6.246   5.292   1.064
 5522SOL    HW217466   6.204   5.421   1.155
 5523SOL     OW17467   4.204   1.108   2.006
 5523SOL    HW117468   4.189   1.171   1.930
 5523SOL    HW217469   4.243   1.159   2.084
 5524SOL     OW17470   3.332   0.036   4.833
 5524SOL    HW117471   3.391   0.088   4.772
 5524SOL    HW217472   3.247   0.087   4.848
 5525SOL     OW17473   1.344   2.334   0.121
 5525SOL    HW117474   1.264   2.394   0.127
 5525SOL    HW217475   1.346   2.273   0.200
 5526SOL     OW17476   5.247   5.000   3.099
 5526SOL    HW117477   5.260   5.099   3.105
 5526SOL    HW217478   5.172   4.980   3.036
 5527SOL     OW17479   4.911   3.646   3.318
 5527SOL    HW117480   4.881   3.647   3.413
 5527SOL    HW217481   4.978   3.718   3.302
 5528SOL     OW17482   2.111   0.693   0.970
 5528SOL    HW117483   2.080   0.681   1.064
 5528SOL    HW217484   2.181   0.624   0.949
 5529SOL     OW17485   3.268   6.950   4.372
 5529SOL    HW117486   3.345   6.958   4.308
 5529SOL    HW217487   3.208   0.003   4.362
 5530SOL     OW17488   6.067   1.848   1.506
 5530SOL    HW117489   6.145   1.884   1.557
 5530SOL    HW217490   5.994   1.823   1.570
 5531SOL     OW17491   3.917   3.567   1.634
 5531SOL    HW117492   3.866   3.482   1.628
 5531SOL    HW217493   4.001   3.552   1.686
 5532SOL     OW17494   1.279   3.260   0.841
 5532SOL    HW117495   1.262   3.165   0.866
 5532SOL    HW217496   1.203   3.317   0.874
 5533SOL     OW17497   5.102   1.164   3.697
 5533SOL    HW117498   5.145   1.173   3.787
 5533SOL    HW217499   5.013   1.211   3.699
 5534SOL     OW17500   0.976   1.289   6.698
 5534SOL    HW117501   0.983   1.222   6.772
 5534SOL    HW217502   0.972   1.241   6.610
 5535SOL     OW17503   0.911   1.132   3.048
 5535SOL    HW117504   0.898   1.175   2.959
 5535SOL    HW217505   1.008   1.121   3.066
 5536SOL     OW17506   4.497   0.520   4.274
 5536SOL    HW117507   4.411   0.502   4.321
 5536SOL    HW217508   4.567   0.456   4.306
 5537SOL     OW17509   3.399   0.999   2.607
 5537SOL    HW117510   3.362   1.021   2.697
 5537SOL    HW217511   3.377   1.072   2.543
 5538SOL     OW17512   3.901   6.252   5.018
 5538SOL    HW117513   3.876   6.157   4.997
 5538SOL    HW217514   3.844   6.314   4.965
 5539SOL     OW17515   1.507   3.923   1.460
 5539SOL    HW117516   1.451   3.999   1.427
 5539SOL    HW217517   1.574   3.957   1.526
 5540SOL     OW17518   4.907   4.641   4.031
 5540SOL    HW117519   4.888   4.646   4.129
 5540SOL    HW217520   4.973   4.712   4.006
 5541SOL     OW17521   5.221   0.533   6.642
 5541SOL    HW117522   5.311   0.508   6.677
 5541SOL    HW217523   5.215   0.511   6.545
 5542SOL     OW17524   4.190   3.146   6.056
 5542SOL    HW117525   4.192   3.243   6.032
 5542SOL    HW217526   4.096   3.115   6.067
 5543SOL     OW17527   5.453   3.711   6.410
 5543SOL    HW117528   5.416   3.728   6.501
 5543SOL    HW217529   5.500   3.793   6.377
 5544SOL     OW17530   5.279   6.897   6.523
 5544SOL    HW117531   5.338   6.894   6.443
 5544SOL    HW217532   5.221   6.979   6.519
 5545SOL     OW17533   4.015   1.514   2.644
 5545SOL    HW117534   4.064   1.588   2.690
 5545SOL    HW217535   3.921   1.510   2.677
 5546SOL     OW17536   1.160   5.463   5.358
 5546SOL    HW117537   1.072   5.428   5.392
 5546SOL    HW217538   1.219   5.387   5.333
 5547SOL     OW17539   2.584   6.294   5.070
 5547SOL    HW117540   2.679   6.315   5.044
 5547SOL    HW217541   2.522   6.339   5.006
 5548SOL     OW17542   6.424   3.633   5.637
 5548SOL    HW117543   6.445   3.671   5.547
 5548SOL    HW217544   6.438   3.534   5.635
 5549SOL     OW17545   3.728   4.730   0.231
 5549SOL    HW117546   3.633   4.700   0.238
 5549SOL    HW217547   3.772   4.687   0.152
 5550SOL     OW17548   2.795   5.562   2.012
 5550SOL    HW117549   2.747   5.601   2.090
 5550SOL    HW217550   2.892   5.549   2.035
 5551SOL     OW17551   1.661   0.399   2.787
 5551SOL    HW117552   1.675   0.367   2.693
 5551SOL    HW217553   1.721   0.477   2.804
 5552SOL     OW17554   0.074   1.867   0.424
 5552SOL    HW117555   0.090   1.915   0.338
 5552SOL    HW217556   0.012   1.790   0.409
 5553SOL     OW17557   4.102   6.744   6.678
 5553SOL    HW117558   4.183   6.692   6.648
 5553SOL    HW217559   4.089   6.823   6.619
 5554SOL     OW17560   2.949   2.486   5.719
 5554SOL    HW117561   2.865   2.536   5.699
 5554SOL    HW217562   2.929   2.412   5.783
 5555SOL     OW17563   0.611   5.834   3.472
 5555SOL    HW117564   0.523   5.830   3.425
 5555SOL    HW217565   0.597   5.846   3.570
 5556SOL     OW17566   0.639   2.543   4.863
 5556SOL    HW117567   0.617   2.447   4.846
 5556SOL    HW217568   0.732   2.563   4.832
 5557SOL     OW17569   2.643   5.735   4.068
 5557SOL    HW117570   2.735   5.698   4.060
 5557SOL    HW217571   2.576   5.667   4.038
 5558SOL     OW17572   4.998   3.031   5.113
 5558SOL    HW117573   4.916   3.069   5.155
 5558SOL    HW217574   5.049   2.978   5.182
 5559SOL     OW17575   2.320   6.974   1.035
 5559SOL    HW117576   2.392   6.987   1.103
 5559SOL    HW217577   2.333   0.013   0.960
 5560SOL     OW17578   6.674   0.207   3.004
 5560SOL    HW117579   6.678   0.108   2.989
 5560SOL    HW217580   6.739   0.252   2.944
 5561SOL     OW17581   1.493   3.087   4.141
 5561SOL    HW117582   1.416   3.070   4.203
 5561SOL    HW217583   1.496   3.014   4.072
 5562SOL     OW17584   1.875   2.766   6.201
 5562SOL    HW117585   1.787   2.813   6.201
 5562SOL    HW217586   1.893   2.726   6.111
 5563SOL     OW17587   4.421   6.038   2.122
 5563SOL    HW117588   4.461   5.968   2.062
 5563SOL    HW217589   4.493   6.081   2.176
 5564SOL     OW17590   5.363   3.811   1.721
 5564SOL    HW117591   5.268   3.842   1.721
 5564SOL    HW217592   5.394   3.797   1.627
 5565SOL     OW17593   4.177   2.512   5.566
 5565SOL    HW117594   4.082   2.512   5.597
 5565SOL    HW217595   4.221   2.597   5.593
 5566SOL     OW17596   1.537   5.560   0.977
 5566SOL    HW117597   1.542   5.512   0.889
 5566SOL    HW217598   1.526   5.658   0.960
 5567SOL     OW17599   1.887   5.378   1.323
 5567SOL    HW117600   1.880   5.466   1.369
 5567SOL    HW217601   1.805   5.323   1.343
 5568SOL     OW17602   4.589   1.927   0.879
 5568SOL    HW117603   4.516   1.983   0.919
 5568SOL    HW217604   4.646   1.983   0.820
 5569SOL     OW17605   4.017   1.545   1.496
 5569SOL    HW117606   4.080   1.474   1.527
 5569SOL    HW217607   4.058   1.596   1.420
 5570SOL     OW17608   5.950   4.850   5.185
 5570SOL    HW117609   5.973   4.893   5.097
 5570SOL    HW217610   5.878   4.782   5.171
 5571SOL     OW17611   0.479   5.636   0.755
 5571SOL    HW117612   0.404   5.628   0.689
 5571SOL    HW217613   0.444   5.674   0.841
 5572SOL     OW17614   4.017   2.272   6.509
 5572SOL    HW117615   3.932   2.260   6.458
 5572SOL    HW217616   4.003   2.336   6.584
 5573SOL     OW17617   1.170   3.830   0.326
 5573SOL    HW117618   1.109   3.754   0.349
 5573SOL    HW217619   1.264   3.808   0.355
 5574SOL     OW17620   0.379   0.044   4.638
 5574SOL    HW117621   0.294   7.023   4.613
 5574SOL    HW217622   0.369   0.141   4.619
 5575SOL     OW17623   1.548   0.966   0.916
 5575SOL    HW117624   1.555   0.956   1.016
 5575SOL    HW217625   1.542   0.875   0.875
 5576SOL     OW17626   5.870   5.219   1.006
 5576SOL    HW117627   5.898   5.123   1.010
 5576SOL    HW217628   5.866   5.248   0.911
 5577SOL     OW17629   2.004   3.266   5.649
 5577SOL    HW117630   2.031   3.358   5.620
 5577SOL    HW217631   1.955   3.220   5.575
 5578SOL     OW17632   3.665   2.300   6.820
 5578SOL    HW117633   3.603   2.281   6.896
 5578SOL    HW217634   3.723   2.377   6.843
 5579SOL     OW17635   5.128   3.618   6.643
 5579SOL    HW117636   5.221   3.653   6.630
 5579SOL    HW217637   5.097   3.574   6.558
 5580SOL     OW17638   4.963   1.821   0.633
 5580SOL    HW117639   5.010   1.855   0.552
 5580SOL    HW217640   5.012   1.849   0.715
 5581SOL     OW17641   2.083   0.677   6.468
 5581SOL    HW117642   2.161   0.644   6.522
 5581SOL    HW217643   1.998   0.651   6.514
 5582SOL     OW17644   3.342   3.685   4.057
 5582SOL    HW117645   3.254   3.733   4.052
 5582SOL    HW217646   3.370   3.678   4.153
 5583SOL     OW17647   3.315   6.789   2.311
 5583SOL    HW117648   3.305   6.730   2.231
 5583SOL    HW217649   3.384   6.860   2.292
 5584SOL     OW17650   5.891   4.253   3.445
 5584SOL    HW117651   5.808   4.309   3.441
 5584SOL    HW217652   5.902   4.217   3.537
 5585SOL     OW17653   6.242   0.397   3.685
 5585SOL    HW117654   6.296   0.356   3.612
 5585SOL    HW217655   6.271   0.491   3.700
 5586SOL     OW17656   2.082   1.853   6.343
 5586SOL    HW117657   2.121   1.802   6.266
 5586SOL    HW217658   2.156   1.893   6.397
 5587SOL     OW17659   3.785   0.606   3.403
 5587SOL    HW117660   3.879   0.569   3.404
 5587SOL    HW217661   3.772   0.663   3.322
 5588SOL     OW17662   2.286   7.007   5.257
 5588SOL    HW117663   2.335   0.062   5.288
 5588SOL    HW217664   2.349   6.946   5.210
 5589SOL     OW17665   4.856   2.868   6.153
 5589SOL    HW117666   4.915   2.942   6.120
 5589SOL    HW217667   4.760   2.892   6.134
 5590SOL     OW17668   6.564   6.124   4.772
 5590SOL    HW117669   6.515   6.038   4.760
 5590SOL    HW217670   6.658   6.106   4.800
 5591SOL     OW17671   6.115   0.851   0.239
 5591SOL    HW117672   6.039   0.813   0.187
 5591SOL    HW217673   6.185   0.884   0.176
 5592SOL     OW17674   1.208   4.243   2.692
 5592SOL    HW117675   1.212   4.324   2.633
 5592SOL    HW217676   1.167   4.167   2.642
 5593SOL     OW17677   0.720   2.861   5.838
 5593SOL    HW117678   0.664   2.783   5.866
 5593SOL    HW217679   0.707   2.936   5.903
 5594SOL     OW17680   2.172   0.246   0.021
 5594SOL    HW117681   2.255   0.283   0.063
 5594SOL    HW217682   2.197   0.187   6.971
 5595SOL     OW17683   6.353   1.099   5.766
 5595SOL    HW117684   6.449   1.078   5.783
 5595SOL    HW217685   6.338   1.197   5.776
 5596SOL     OW17686   5.217   0.641   2.601
 5596SOL    HW117687   5.127   0.684   2.598
 5596SOL    HW217688   5.238   0.613   2.694
 5597SOL     OW17689   5.976   1.364   6.684
 5597SOL    HW117690   6.057   1.383   6.740
 5597SOL    HW217691   6.004   1.316   6.600
 5598SOL     OW17692   5.317   1.598   3.881
 5598SOL    HW117693   5.262   1.526   3.922
 5598SOL    HW217694   5.395   1.618   3.941
 5599SOL     OW17695   5.280   3.699   1.440
 5599SOL    HW117696   5.303   3.741   1.352
 5599SOL    HW217697   5.185   3.668   1.439
 5600SOL     OW17698   1.732   0.666   2.863
 5600SOL    HW117699   1.731   0.753   2.912
 5600SOL    HW217700   1.734   0.683   2.764
 5601SOL     OW17701   5.168   2.871   5.935
 5601SOL    HW117702   5.265   2.894   5.925
 5601SOL    HW217703   5.114   2.954   5.949
 5602SOL     OW17704   0.852   2.156   3.230
 5602SOL    HW117705   0.880   2.175   3.324
 5602SOL    HW217706   0.913   2.203   3.166
 5603SOL     OW17707   4.572   2.528   5.128
 5603SOL    HW117708   4.572   2.620   5.090
 5603SOL    HW217709   4.522   2.528   5.215
 5604SOL     OW17710   0.945   0.122   4.282
 5604SOL    HW117711   0.947   0.141   4.381
 5604SOL    HW217712   0.964   0.207   4.232
 5605SOL     OW17713   1.752   6.838   4.216
 5605SOL    HW117714   1.711   6.908   4.275
 5605SOL    HW217715   1.740   6.748   4.259
 5606SOL     OW17716   4.688   1.472   0.880
 5606SOL    HW117717   4.724   1.384   0.909
 5606SOL    HW217718   4.738   1.545   0.928
 5607SOL     OW17719   6.213   2.407   2.582
 5607SOL    HW117720   6.144   2.446   2.643
 5607SOL    HW217721   6.214   2.307   2.592
 5608SOL     OW17722   5.637   0.963   3.824
 5608SOL    HW117723   5.627   0.888   3.759
 5608SOL    HW217724   5.689   0.932   3.903
 5609SOL     OW17725   5.713   6.703   0.913
 5609SOL    HW117726   5.723   6.800   0.936
 5609SOL    HW217727   5.791   6.673   0.858
 5610SOL     OW17728   5.486   4.289   0.178
 5610SOL    HW117729   5.505   4.330   0.267
 5610SOL    HW217730   5.485   4.189   0.187
 5611SOL     OW17731   0.512   4.962   1.442
 5611SOL    HW117732   0.423   4.939   1.402
 5611SOL    HW217733   0.505   4.963   1.541
 5612SOL     OW17734   3.007   1.374   0.746
 5612SOL    HW117735   3.086   1.314   0.759
 5612SOL    HW217736   2.924   1.319   0.749
 5613SOL     OW17737   6.853   5.572   4.763
 5613SOL    HW117738   6.808   5.490   4.727
 5613SOL    HW217739   6.843   5.575   4.862
 5614SOL     OW17740   5.887   1.881   4.612
 5614SOL    HW117741   5.829   1.960   4.629
 5614SOL    HW217742   5.919   1.843   4.699
 5615SOL     OW17743   6.852   2.381   2.344
 5615SOL    HW117744   6.761   2.368   2.306
 5615SOL    HW217745   6.852   2.353   2.440
 5616SOL     OW17746   1.737   3.221   3.765
 5616SOL    HW117747   1.746   3.156   3.840
 5616SOL    HW217748   1.827   3.239   3.725
 5617SOL     OW17749   1.980   5.299   5.812
 5617SOL    HW117750   1.977   5.297   5.712
 5617SOL    HW217751   2.045   5.230   5.844
 5618SOL     OW17752   6.880   5.280   4.241
 5618SOL    HW117753   6.915   5.235   4.323
 5618SOL    HW217754   6.821   5.357   4.268
 5619SOL     OW17755   3.666   3.366   4.384
 5619SOL    HW117756   3.671   3.465   4.393
 5619SOL    HW217757   3.584   3.341   4.333
 5620SOL     OW17758   4.237   4.377   5.561
 5620SOL    HW117759   4.281   4.291   5.536
 5620SOL    HW217760   4.138   4.369   5.550
 5621SOL     OW17761   1.463   2.789   4.983
 5621SOL    HW117762   1.471   2.888   4.997
 5621SOL    HW217763   1.548   2.745   5.011
 5622SOL     OW17764   4.567   5.389   5.163
 5622SOL    HW117765   4.635   5.462   5.156
 5622SOL    HW217766   4.600   5.319   5.226
 5623SOL     OW17767   4.419   5.944   4.184
 5623SOL    HW117768   4.337   5.963   4.237
 5623SOL    HW217769   4.461   5.860   4.216
 5624SOL     OW17770   0.101   5.592   4.315
 5624SOL    HW117771   0.019   5.600   4.259
 5624SOL    HW217772   0.082   5.625   4.408
 5625SOL     OW17773   1.426   5.580   4.725
 5625SOL    HW117774   1.497   5.586   4.655
 5625SOL    HW217775   1.447   5.505   4.788
 5626SOL     OW17776   2.222   3.942   4.171
 5626SOL    HW117777   2.183   3.872   4.111
 5626SOL    HW217778   2.185   3.932   4.263
 5627SOL     OW17779   1.472   5.794   0.583
 5627SOL    HW117780   1.424   5.854   0.646
 5627SOL    HW217781   1.566   5.826   0.570
 5628SOL     OW17782   2.919   2.980   0.554
 5628SOL    HW117783   2.859   3.004   0.629
 5628SOL    HW217784   2.872   2.916   0.492
 5629SOL     OW17785   4.867   3.830   1.178
 5629SOL    HW117786   4.897   3.792   1.090
 5629SOL    HW217787   4.831   3.923   1.163
 5630SOL     OW17788   1.379   4.288   6.290
 5630SOL    HW117789   1.384   4.257   6.195
 5630SOL    HW217790   1.327   4.222   6.344
 5631SOL     OW17791   4.139   0.873   2.107
 5631SOL    HW117792   4.176   0.809   2.040
 5631SOL    HW217793   4.126   0.962   2.063
 5632SOL     OW17794   6.073   0.636   5.887
 5632SOL    HW117795   6.075   0.575   5.966
 5632SOL    HW217796   6.166   0.654   5.856
 5633SOL     OW17797   0.476   4.586   5.592
 5633SOL    HW117798   0.406   4.613   5.658
 5633SOL    HW217799   0.464   4.489   5.570
 5634SOL     OW17800   2.889   5.977   5.930
 5634SOL    HW117801   2.927   5.932   5.849
 5634SOL    HW217802   2.834   5.911   5.982
 5635SOL     OW17803   2.770   0.025   6.560
 5635SOL    HW117804   2.683   7.012   6.529
 5635SOL    HW217805   2.844   6.987   6.541
 5636SOL     OW17806   6.327   0.917   5.563
 5636SOL    HW117807   6.334   0.963   5.652
 5636SOL    HW217808   6.276   0.974   5.499
 5637SOL     OW17809   5.239   6.152   4.798
 5637SOL    HW117810   5.260   6.125   4.892
 5637SOL    HW217811   5.175   6.229   4.799
 5638SOL     OW17812   5.337   5.916   1.093
 5638SOL    HW117813   5.285   5.834   1.070
 5638SOL    HW217814   5.339   5.927   1.192
 5639SOL     OW17815   1.523   0.007   1.352
 5639SOL    HW117816   1.601   7.012   1.410
 5639SOL    HW217817   1.541   0.090   1.299
 5640SOL     OW17818   2.384   6.221   3.122
 5640SOL    HW117819   2.457   6.168   3.079
 5640SOL    HW217820   2.365   6.303   3.068
 5641SOL     OW17821   1.481   5.280   4.783
 5641SOL    HW117822   1.387   5.248   4.770
 5641SOL    HW217823   1.513   5.254   4.874
 5642SOL     OW17824   0.641   4.589   6.102
 5642SOL    HW117825   0.669   4.660   6.037
 5642SOL    HW217826   0.683   4.502   6.075
 5643SOL     OW17827   4.053   2.145   4.748
 5643SOL    HW117828   4.085   2.154   4.842
 5643SOL    HW217829   4.098   2.214   4.691
 5644SOL     OW17830   5.220   1.442   4.731
 5644SOL    HW117831   5.209   1.541   4.732
 5644SOL    HW217832   5.314   1.418   4.754
 5645SOL     OW17833   5.048   5.229   2.185
 5645SOL    HW117834   5.135   5.228   2.235
 5645SOL    HW217835   4.988   5.298   2.226
 5646SOL     OW17836   0.312   5.811   3.732
 5646SOL    HW117837   0.248   5.862   3.675
 5646SOL    HW217838   0.261   5.762   3.802
 5647SOL     OW17839   6.467   5.960   6.908
 5647SOL    HW117840   6.543   5.896   6.908
 5647SOL    HW217841   6.490   6.038   6.967
 5648SOL     OW17842   1.979   1.810   3.142
 5648SOL    HW117843   2.028   1.731   3.179
 5648SOL    HW217844   1.987   1.887   3.206
 5649SOL     OW17845   1.991   0.591   4.913
 5649SOL    HW117846   1.914   0.620   4.857
 5649SOL    HW217847   2.058   0.544   4.855
 5650SOL     OW17848   6.886   4.859   0.909
 5650SOL    HW117849   6.884   4.949   0.866
 5650SOL    HW217850   6.943   4.862   0.991
 5651SOL     OW17851   0.395   1.872   1.568
 5651SOL    HW117852   0.442   1.901   1.652
 5651SOL    HW217853   0.297   1.863   1.587
 5652SOL     OW17854   5.490   5.823   1.614
 5652SOL    HW117855   5.479   5.919   1.588
 5652SOL    HW217856   5.429   5.766   1.560
 5653SOL     OW17857   6.828   5.864   5.875
 5653SOL    HW117858   6.759   5.936   5.875
 5653SOL    HW217859   6.842   5.832   5.969
 5654SOL     OW17860   0.199   0.407   5.999
 5654SOL    HW117861   0.285   0.405   5.948
 5654SOL    HW217862   0.135   0.469   5.954
 5655SOL     OW17863   1.502   3.349   4.041
 5655SOL    HW117864   1.450   3.268   4.068
 5655SOL    HW217865   1.600   3.330   4.051
 5656SOL     OW17866   3.148   4.213   0.736
 5656SOL    HW117867   3.138   4.203   0.835
 5656SOL    HW217868   3.233   4.261   0.716
 5657SOL     OW17869   5.176   6.776   1.365
 5657SOL    HW117870   5.143   6.870   1.367
 5657SOL    HW217871   5.271   6.774   1.334
 5658SOL     OW17872   3.155   6.625   5.562
 5658SOL    HW117873   3.246   6.639   5.601
 5658SOL    HW217874   3.163   6.589   5.469
 5659SOL     OW17875   3.047   3.143   3.050
 5659SOL    HW117876   3.134   3.163   3.095
 5659SOL    HW217877   2.977   3.207   3.082
 5660SOL     OW17878   5.653   0.157   0.636
 5660SOL    HW117879   5.722   0.219   0.599
 5660SOL    HW217880   5.650   0.165   0.735
 5661SOL     OW17881   6.844   6.478   5.128
 5661SOL    HW117882   6.824   6.427   5.044
 5661SOL    HW217883   6.813   6.426   5.207
 5662SOL     OW17884   2.657   4.592   3.879
 5662SOL    HW117885   2.634   4.596   3.782
 5662SOL    HW217886   2.612   4.513   3.921
 5663SOL     OW17887   0.912   3.895   0.198
 5663SOL    HW117888   0.889   3.827   0.129
 5663SOL    HW217889   1.008   3.883   0.226
 5664SOL     OW17890   0.274   4.791   3.189
 5664SOL    HW117891   0.243   4.791   3.094
 5664SOL    HW217892   0.354   4.849   3.198
 5665SOL     OW17893   1.498   2.556   6.500
 5665SOL    HW117894   1.587   2.529   6.464
 5665SOL    HW217895   1.458   2.626   6.440
 5666SOL     OW17896   4.500   5.629   0.968
 5666SOL    HW117897   4.535   5.545   0.927
 5666SOL    HW217898   4.543   5.642   1.058
 5667SOL     OW17899   0.495   4.964   3.203
 5667SOL    HW117900   0.588   4.927   3.202
 5667SOL    HW217901   0.498   5.063   3.214
 5668SOL     OW17902   4.485   1.439   6.450
 5668SOL    HW117903   4.402   1.481   6.413
 5668SOL    HW217904   4.475   1.339   6.448
 5669SOL     OW17905   0.097   5.053   5.559
 5669SOL    HW117906   0.151   4.982   5.516
 5669SOL    HW217907   0.081   5.029   5.655
 5670SOL     OW17908   0.222   3.234   3.482
 5670SOL    HW117909   0.220   3.219   3.581
 5670SOL    HW217910   0.313   3.261   3.453
 5671SOL     OW17911   2.259   6.290   6.237
 5671SOL    HW117912   2.220   6.257   6.322
 5671SOL    HW217913   2.188   6.333   6.182
 5672SOL     OW17914   4.993   3.650   5.846
 5672SOL    HW117915   4.979   3.737   5.799
 5672SOL    HW217916   4.911   3.627   5.899
 5673SOL     OW17917   0.253   0.030   2.429
 5673SOL    HW117918   0.224   0.037   2.524
 5673SOL    HW217919   0.189   6.997   2.379
 5674SOL     OW17920   0.155   3.930   1.700
 5674SOL    HW117921   0.220   3.875   1.648
 5674SOL    HW217922   0.073   3.875   1.719
 5675SOL     OW17923   4.373   2.653   5.382
 5675SOL    HW117924   4.454   2.670   5.439
 5675SOL    HW217925   4.312   2.732   5.387
 5676SOL     OW17926   1.818   0.693   0.915
 5676SOL    HW117927   1.800   0.645   0.829
 5676SOL    HW217928   1.916   0.692   0.934
 5677SOL     OW17929   6.948   2.004   2.964
 5677SOL    HW117930   6.886   2.055   3.022
 5677SOL    HW217931   6.897   1.934   2.913
 5678SOL     OW17932   3.516   6.486   2.776
 5678SOL    HW117933   3.541   6.392   2.795
 5678SOL    HW217934   3.433   6.510   2.826
 5679SOL     OW17935   1.366   0.003   4.840
 5679SOL    HW117936   1.308   6.953   4.868
 5679SOL    HW217937   1.340   0.034   4.749
 5680SOL     OW17938   1.790   5.448   6.891
 5680SOL    HW117939   1.785   5.359   6.937
 5680SOL    HW217940   1.703   5.496   6.901
 5681SOL     OW17941   0.636   2.973   6.351
 5681SOL    HW117942   0.684   2.979   6.263
 5681SOL    HW217943   0.619   3.064   6.387
 5682SOL     OW17944   1.442   2.922   5.440
 5682SOL    HW117945   1.413   2.929   5.535
 5682SOL    HW217946   1.506   2.846   5.430
 5683SOL     OW17947   3.730   2.414   6.135
 5683SOL    HW117948   3.739   2.513   6.143
 5683SOL    HW217949   3.777   2.383   6.052
 5684SOL     OW17950   3.896   3.206   4.264
 5684SOL    HW117951   3.895   3.124   4.320
 5684SOL    HW217952   3.802   3.238   4.248
 5685SOL     OW17953   0.451   4.764   1.938
 5685SOL    HW117954   0.491   4.779   2.028
 5685SOL    HW217955   0.393   4.682   1.940
 5686SOL     OW17956   3.395   0.298   0.408
 5686SOL    HW117957   3.394   0.318   0.310
 5686SOL    HW217958   3.445   0.369   0.456
 5687SOL     OW17959   6.297   4.216   4.702
 5687SOL    HW117960   6.348   4.172   4.628
 5687SOL    HW217961   6.360   4.268   4.759
 5688SOL     OW17962   6.215   1.759   0.922
 5688SOL    HW117963   6.270   1.802   0.994
 5688SOL    HW217964   6.242   1.664   0.912
 5689SOL     OW17965   4.437   1.555   0.868
 5689SOL    HW117966   4.523   1.506   0.876
 5689SOL    HW217967   4.405   1.581   0.959
 5690SOL     OW17968   3.402   6.057   0.595
 5690SOL    HW117969   3.415   6.086   0.689
 5690SOL    HW217970   3.476   6.092   0.538
 5691SOL     OW17971   2.541   6.365   2.183
 5691SOL    HW117972   2.564   6.283   2.130
 5691SOL    HW217973   2.541   6.445   2.123
 5692SOL     OW17974   6.474   1.971   6.326
 5692SOL    HW117975   6.477   2.018   6.415
 5692SOL    HW217976   6.538   2.016   6.263
 5693SOL     OW17977   4.930   2.699   2.364
 5693SOL    HW117978   4.988   2.689   2.445
 5693SOL    HW217979   4.932   2.793   2.333
 5694SOL     OW17980   0.885   1.294   3.494
 5694SOL    HW117981   0.854   1.381   3.532
 5694SOL    HW217982   0.964   1.310   3.435
 5695SOL     OW17983   1.155   2.255   2.936
 5695SOL    HW117984   1.203   2.304   3.008
 5695SOL    HW217985   1.194   2.280   2.847
 5696SOL     OW17986   3.260   1.123   4.823
 5696SOL    HW117987   3.206   1.199   4.788
 5696SOL    HW217988   3.332   1.099   4.758
 5697SOL     OW17989   6.847   2.402   1.291
 5697SOL    HW117990   6.915   2.328   1.297
 5697SOL    HW217991   6.892   2.486   1.263
 5698SOL     OW17992   0.367   2.013   2.168
 5698SOL    HW117993   0.374   2.044   2.263
 5698SOL    HW217994   0.284   2.050   2.128
 5699SOL     OW17995   5.933   1.937   3.835
 5699SOL    HW117996   5.850   1.912   3.785
 5699SOL    HW217997   6.013   1.895   3.792
 5700SOL     OW17998   0.356   6.511   4.612
 5700SOL    HW117999   0.423   6.461   4.668
 5700SOL    HW218000   0.300   6.446   4.562
 5701SOL     OW18001   0.421   5.632   3.227
 5701SOL    HW118002   0.495   5.682   3.181
 5701SOL    HW218003   0.364   5.697   3.278
 5702SOL     OW18004   2.084   7.018   6.301
 5702SOL    HW118005   2.021   6.966   6.244
 5702SOL    HW218006   2.091   0.085   6.267
 5703SOL     OW18007   4.931   5.270   6.989
 5703SOL    HW118008   4.926   5.236   0.056
 5703SOL    HW218009   4.974   5.200   6.931
 5704SOL     OW18010   4.453   5.741   3.039
 5704SOL    HW118011   4.520   5.802   3.083
 5704SOL    HW218012   4.365   5.787   3.035
 5705SOL     OW18013   6.372   1.054   0.811
 5705SOL    HW118014   6.299   1.056   0.879
 5705SOL    HW218015   6.451   1.106   0.843
 5706SOL     OW18016   1.635   1.360   0.038
 5706SOL    HW118017   1.675   1.442   0.081
 5706SOL    HW218018   1.686   1.337   6.982
 5707SOL     OW18019   1.093   0.242   6.288
 5707SOL    HW118020   1.080   0.292   6.374
 5707SOL    HW218021   1.158   0.168   6.303
 5708SOL     OW18022   5.211   0.261   2.147
 5708SOL    HW118023   5.272   0.273   2.069
 5708SOL    HW218024   5.265   0.235   2.227
 5709SOL     OW18025   0.413   6.175   3.188
 5709SOL    HW118026   0.408   6.118   3.271
 5709SOL    HW218027   0.437   6.269   3.214
 5710SOL     OW18028   2.569   3.585   5.814
 5710SOL    HW118029   2.568   3.485   5.812
 5710SOL    HW218030   2.576   3.620   5.720
 5711SOL     OW18031   4.704   0.648   3.663
 5711SOL    HW118032   4.646   0.576   3.700
 5711SOL    HW218033   4.779   0.607   3.611
 5712SOL     OW18034   0.836   6.846   5.507
 5712SOL    HW118035   0.935   6.836   5.497
 5712SOL    HW218036   0.790   6.776   5.453
 5713SOL     OW18037   0.842   2.321   1.373
 5713SOL    HW118038   0.873   2.259   1.301
 5713SOL    HW218039   0.882   2.294   1.460
 5714SOL     OW18040   1.349   6.743   6.654
 5714SOL    HW118041   1.320   6.828   6.697
 5714SOL    HW218042   1.427   6.705   6.704
 5715SOL     OW18043   1.184   6.048   3.697
 5715SOL    HW118044   1.160   6.008   3.608
 5715SOL    HW218045   1.257   5.995   3.739
 5716SOL     OW18046   0.938   4.165   5.262
 5716SOL    HW118047   0.945   4.095   5.191
 5716SOL    HW218048   1.019   4.223   5.260
 5717SOL     OW18049   1.769   4.943   0.670
 5717SOL    HW118050   1.818   4.857   0.679
 5717SOL    HW218051   1.760   4.986   0.760
 5718SOL     OW18052   1.533   4.634   6.889
 5718SOL    HW118053   1.631   4.638   6.911
 5718SOL    HW218054   1.494   4.726   6.895
 5719SOL     OW18055   3.048   1.057   5.918
 5719SOL    HW118056   3.025   1.154   5.927
 5719SOL    HW218057   3.047   1.031   5.821
 5720SOL     OW18058   0.432   5.207   5.020
 5720SOL    HW118059   0.444   5.281   4.953
 5720SOL    HW218060   0.370   5.138   4.983
 5721SOL     OW18061   0.894   3.292   0.105
 5721SOL    HW118062   0.923   3.350   0.029
 5721SOL    HW218063   0.796   3.273   0.097
 5722SOL     OW18064   5.240   0.940   4.884
 5722SOL    HW118065   5.302   0.970   4.812
 5722SOL    HW218066   5.264   0.847   4.913
 5723SOL     OW18067   4.502   4.837   0.806
 5723SOL    HW118068   4.447   4.908   0.763
 5723SOL    HW218069   4.465   4.816   0.897
 5724SOL     OW18070   3.929   2.526   5.653
 5724SOL    HW118071   3.844   2.506   5.702
 5724SOL    HW218072   3.907   2.555   5.560
 5725SOL     OW18073   4.935   5.657   3.499
 5725SOL    HW118074   5.027   5.625   3.518
 5725SOL    HW218075   4.931   5.692   3.406
 5726SOL     OW18076   6.642   3.566   4.080
 5726SOL    HW118077   6.603   3.501   4.146
 5726SOL    HW218078   6.733   3.595   4.112
 5727SOL     OW18079   5.613   3.429   3.156
 5727SOL    HW118080   5.594   3.358   3.224
 5727SOL    HW218081   5.588   3.395   3.066
 5728SOL     OW18082   5.499   1.458   6.704
 5728SOL    HW118083   5.497   1.388   6.633
 5728SOL    HW218084   5.452   1.540   6.670
 5729SOL     OW18085   0.655   1.755   0.795
 5729SOL    HW118086   0.632   1.793   0.884
 5729SOL    HW218087   0.610   1.666   0.783
 5730SOL     OW18088   3.832   5.548   5.603
 5730SOL    HW118089   3.828   5.553   5.703
 5730SOL    HW218090   3.796   5.460   5.572
 5731SOL     OW18091   1.175   6.308   4.088
 5731SOL    HW118092   1.202   6.213   4.108
 5731SOL    HW218093   1.095   6.307   4.028
 5732SOL     OW18094   5.962   4.836   4.242
 5732SOL    HW118095   5.881   4.818   4.187
 5732SOL    HW218096   6.001   4.924   4.218
 5733SOL     OW18097   3.664   1.040   6.401
 5733SOL    HW118098   3.678   0.952   6.357
 5733SOL    HW218099   3.739   1.102   6.379
 5734SOL     OW18100   1.053   0.399   5.400
 5734SOL    HW118101   1.044   0.372   5.496
 5734SOL    HW218102   0.982   0.352   5.346
 5735SOL     OW18103   3.695   1.195   2.138
 5735SOL    HW118104   3.785   1.153   2.146
 5735SOL    HW218105   3.631   1.130   2.096
 5736SOL     OW18106   5.407   4.637   6.437
 5736SOL    HW118107   5.388   4.734   6.422
 5736SOL    HW218108   5.372   4.584   6.360
 5737SOL     OW18109   5.216   6.272   1.039
 5737SOL    HW118110   5.252   6.203   0.976
 5737SOL    HW218111   5.225   6.240   1.133
 5738SOL     OW18112   3.523   1.408   6.484
 5738SOL    HW118113   3.461   1.470   6.532
 5738SOL    HW218114   3.608   1.456   6.461
 5739SOL     OW18115   1.683   6.577   5.524
 5739SOL    HW118116   1.637   6.553   5.610
 5739SOL    HW218117   1.667   6.673   5.503
 5740SOL     OW18118   4.905   3.832   0.820
 5740SOL    HW118119   4.855   3.751   0.789
 5740SOL    HW218120   4.998   3.829   0.784
 5741SOL     OW18121   0.302   3.641   3.804
 5741SOL    HW118122   0.216   3.678   3.768
 5741SOL    HW218123   0.317   3.550   3.766
 5742SOL     OW18124   3.862   7.006   3.637
 5742SOL    HW118125   3.818   0.022   3.558
 5742SOL    HW218126   3.942   0.035   3.664
 5743SOL     OW18127   3.617   4.719   6.045
 5743SOL    HW118128   3.717   4.715   6.050
 5743SOL    HW218129   3.582   4.771   6.123
 5744SOL     OW18130   6.348   0.861   3.148
 5744SOL    HW118131   6.367   0.956   3.173
 5744SOL    HW218132   6.299   0.816   3.223
 5745SOL     OW18133   2.528   1.728   3.748
 5745SOL    HW118134   2.500   1.661   3.817
 5745SOL    HW218135   2.449   1.753   3.692
 5746SOL     OW18136   4.092   0.208   3.640
 5746SOL    HW118137   4.180   0.164   3.622
 5746SOL    HW218138   4.080   0.218   3.739
 5747SOL     OW18139   0.783   6.347   2.097
 5747SOL    HW118140   0.811   6.255   2.126
 5747SOL    HW218141   0.864   6.400   2.072
 5748SOL     OW18142   0.933   6.909   0.671
 5748SOL    HW118143   0.922   6.846   0.748
 5748SOL    HW218144   0.842   6.937   0.639
 5749SOL     OW18145   2.107   6.758   5.178
 5749SOL    HW118146   2.058   6.793   5.099
 5749SOL    HW218147   2.197   6.802   5.184
 5750SOL     OW18148   6.262   4.749   5.598
 5750SOL    HW118149   6.185   4.744   5.535
 5750SOL    HW218150   6.318   4.667   5.588
 5751SOL     OW18151   1.271   3.544   4.555
 5751SOL    HW118152   1.345   3.519   4.616
 5751SOL    HW218153   1.231   3.461   4.515
 5752SOL     OW18154   5.859   0.098   1.326
 5752SOL    HW118155   5.873   0.011   1.373
 5752SOL    HW218156   5.915   0.100   1.243
 5753SOL     OW18157   3.297   3.696   4.838
 5753SOL    HW118158   3.200   3.672   4.841
 5753SOL    HW218159   3.338   3.658   4.755
 5754SOL     OW18160   1.117   6.069   2.199
 5754SOL    HW118161   1.188   6.055   2.130
 5754SOL    HW218162   1.127   6.159   2.240
 5755SOL     OW18163   1.651   2.258   6.008
 5755SOL    HW118164   1.658   2.315   6.090
 5755SOL    HW218165   1.733   2.201   6.001
 5756SOL     OW18166   0.022   0.577   3.048
 5756SOL    HW118167   6.986   0.653   3.030
 5756SOL    HW218168   0.001   0.537   3.137
 5757SOL     OW18169   0.633   5.540   3.866
 5757SOL    HW118170   0.567   5.552   3.791
 5757SOL    HW218171   0.628   5.620   3.927
 5758SOL     OW18172   2.399   0.327   3.660
 5758SOL    HW118173   2.488   0.319   3.616
 5758SOL    HW218174   2.330   0.350   3.592
 5759SOL     OW18175   4.730   0.126   1.530
 5759SOL    HW118176   4.720   0.159   1.624
 5759SOL    HW218177   4.685   0.189   1.467
 5760SOL     OW18178   6.568   2.885   2.048
 5760SOL    HW118179   6.615   2.817   1.993
 5760SOL    HW218180   6.552   2.848   2.140
 5761SOL     OW18181   5.414   5.850   5.046
 5761SOL    HW118182   5.417   5.833   5.144
 5761SOL    HW218183   5.329   5.813   5.008
 5762SOL     OW18184   4.565   4.325   0.394
 5762SOL    HW118185   4.658   4.294   0.377
 5762SOL    HW218186   4.500   4.261   0.353
 5763SOL     OW18187   5.550   6.187   0.541
 5763SOL    HW118188   5.506   6.267   0.582
 5763SOL    HW218189   5.545   6.193   0.442
 5764SOL     OW18190   4.340   5.491   3.715
 5764SOL    HW118191   4.404   5.562   3.744
 5764SOL    HW218192   4.246   5.520   3.736
 5765SOL     OW18193   6.659   3.707   0.528
 5765SOL    HW118194   6.696   3.660   0.447
 5765SOL    HW218195   6.732   3.721   0.595
 5766SOL     OW18196   2.178   2.235   4.776
 5766SOL    HW118197   2.126   2.271   4.698
 5766SOL    HW218198   2.173   2.300   4.852
 5767SOL     OW18199   2.661   0.061   6.836
 5767SOL    HW118200   2.582   0.010   6.868
 5767SOL    HW218201   2.677   0.040   6.739
 5768SOL     OW18202   0.100   6.677   3.629
 5768SOL    HW118203   0.024   6.695   3.566
 5768SOL    HW218204   0.080   6.594   3.682
 5769SOL     OW18205   3.050   5.664   5.085
 5769SOL    HW118206   3.050   5.698   5.179
 5769SOL    HW218207   2.997   5.579   5.080
 5770SOL     OW18208   0.238   6.332   6.853
 5770SOL    HW118209   0.231   6.347   6.754
 5770SOL    HW218210   0.149   6.350   6.896
 5771SOL     OW18211   1.970   0.302   4.313
 5771SOL    HW118212   2.040   0.361   4.353
 5771SOL    HW218213   1.901   0.280   4.382
 5772SOL     OW18214   4.630   1.285   1.380
 5772SOL    HW118215   4.570   1.226   1.327
 5772SOL    HW218216   4.576   1.344   1.440
 5773SOL     OW18217   4.127   0.612   2.547
 5773SOL    HW118218   4.181   0.528   2.554
 5773SOL    HW218219   4.030   0.588   2.534
 5774SOL     OW18220   1.818   0.647   4.721
 5774SOL    HW118221   1.855   0.719   4.663
 5774SOL    HW218222   1.731   0.614   4.681
 5775SOL     OW18223   1.016   6.657   3.085
 5775SOL    HW118224   0.968   6.637   3.170
 5775SOL    HW218225   1.104   6.701   3.105
 5776SOL     OW18226   1.273   0.357   3.576
 5776SOL    HW118227   1.302   0.403   3.492
 5776SOL    HW218228   1.346   0.361   3.644
 5777SOL     OW18229   0.996   0.157   3.790
 5777SOL    HW118230   1.042   0.153   3.701
 5777SOL    HW218231   1.058   0.198   3.857
 5778SOL     OW18232   1.771   0.971   6.943
 5778SOL    HW118233   1.771   1.010   6.851
 5778SOL    HW218234   1.692   0.910   6.953
 5779SOL     OW18235   4.503   2.566   0.320
 5779SOL    HW118236   4.436   2.600   0.386
 5779SOL    HW218237   4.476   2.595   0.228
 5780SOL     OW18238   5.025   6.285   4.489
 5780SOL    HW118239   5.043   6.294   4.587
 5780SOL    HW218240   5.109   6.259   4.441
 5781SOL     OW18241   6.417   5.039   4.132
 5781SOL    HW118242   6.496   5.027   4.193
 5781SOL    HW218243   6.347   4.971   4.154
 5782SOL     OW18244   1.478   1.869   0.424
 5782SOL    HW118245   1.441   1.822   0.344
 5782SOL    HW218246   1.413   1.864   0.499
 5783SOL     OW18247   0.986   0.531   2.306
 5783SOL    HW118248   1.083   0.553   2.293
 5783SOL    HW218249   0.930   0.607   2.275
 5784SOL     OW18250   0.514   6.533   5.390
 5784SOL    HW118251   0.490   6.508   5.297
 5784SOL    HW218252   0.431   6.554   5.442
 5785SOL     OW18253   1.659   1.755   0.050
 5785SOL    HW118254   1.580   1.778   0.108
 5785SOL    HW218255   1.655   1.810   6.993
 5786SOL     OW18256   6.624   4.425   0.751
 5786SOL    HW118257   6.566   4.424   0.669
 5786SOL    HW218258   6.582   4.368   0.822
 5787SOL     OW18259   2.111   2.676   5.322
 5787SOL    HW118260   2.166   2.734   5.263
 5787SOL    HW218261   2.126   2.580   5.298
 5788SOL     OW18262   3.137   1.313   2.501
 5788SOL    HW118263   3.156   1.409   2.483
 5788SOL    HW218264   3.206   1.256   2.456
 5789SOL     OW18265   3.519   4.727   6.508
 5789SOL    HW118266   3.426   4.692   6.497
 5789SOL    HW218267   3.542   4.731   6.605
 5790SOL     OW18268   1.927   4.108   4.190
 5790SOL    HW118269   2.020   4.141   4.204
 5790SOL    HW218270   1.925   4.045   4.112
 5791SOL     OW18271   4.035   0.514   1.966
 5791SOL    HW118272   4.099   0.591   1.964
 5791SOL    HW218273   3.970   0.527   2.041
 5792SOL     OW18274   6.809   2.720   2.876
 5792SOL    HW118275   6.815   2.786   2.801
 5792SOL    HW218276   6.901   2.701   2.911
 5793SOL     OW18277   5.626   0.534   4.021
 5793SOL    HW118278   5.594   0.615   4.071
 5793SOL    HW218279   5.550   0.471   4.008
 5794SOL     OW18280   3.805   2.279   1.027
 5794SOL    HW118281   3.805   2.179   1.024
 5794SOL    HW218282   3.881   2.311   1.084
 5795SOL     OW18283   6.403   5.928   6.464
 5795SOL    HW118284   6.469   5.923   6.540
 5795SOL    HW218285   6.329   5.990   6.489
 5796SOL     OW18286   3.825   0.781   6.986
 5796SOL    HW118287   3.898   0.731   6.938
 5796SOL    HW218288   3.857   0.873   7.007
 5797SOL     OW18289   4.417   1.674   5.554
 5797SOL    HW118290   4.394   1.737   5.629
 5797SOL    HW218291   4.335   1.622   5.529
 5798SOL     OW18292   0.840   4.740   4.937
 5798SOL    HW118293   0.880   4.679   4.869
 5798SOL    HW218294   0.756   4.780   4.900
 5799SOL     OW18295   5.448   1.301   3.594
 5799SOL    HW118296   5.361   1.341   3.565
 5799SOL    HW218297   5.431   1.236   3.669
 5800SOL     OW18298   5.840   5.976   1.016
 5800SOL    HW118299   5.926   6.027   1.020
 5800SOL    HW218300   5.795   5.992   0.929
 5801SOL     OW18301   1.415   2.308   4.222
 5801SOL    HW118302   1.331   2.254   4.219
 5801SOL    HW218303   1.483   2.259   4.277
 5802SOL     OW18304   0.962   4.489   0.929
 5802SOL    HW118305   1.024   4.483   0.850
 5802SOL    HW218306   0.880   4.435   0.911
 5803SOL     OW18307   1.137   4.499   1.931
 5803SOL    HW118308   1.131   4.520   1.834
 5803SOL    HW218309   1.233   4.490   1.957
 5804SOL     OW18310   0.197   5.180   3.897
 5804SOL    HW118311   0.234   5.145   3.810
 5804SOL    HW218312   0.272   5.198   3.960
 5805SOL     OW18313   2.532   3.250   6.144
 5805SOL    HW118314   2.612   3.258   6.084
 5805SOL    HW218315   2.473   3.329   6.132
 5806SOL     OW18316   0.057   5.993   5.847
 5806SOL    HW118317   6.992   5.957   5.865
 5806SOL    HW218318   0.084   6.053   5.923
 5807SOL     OW18319   0.791   3.688   1.712
 5807SOL    HW118320   0.786   3.655   1.806
 5807SOL    HW218321   0.863   3.639   1.663
 5808SOL     OW18322   6.002   4.502   4.075
 5808SOL    HW118323   5.957   4.413   4.068
 5808SOL    HW218324   6.052   4.507   4.162
 5809SOL     OW18325   6.995   2.030   4.819
 5809SOL    HW118326   6.956   1.967   4.885
 5809SOL    HW218327   6.937   2.034   4.737
 5810SOL     OW18328   3.798   1.511   4.025
 5810SOL    HW118329   3.827   1.590   3.970
 5810SOL    HW218330   3.846   1.430   3.993
 5811SOL     OW18331   3.050   0.316   6.014
 5811SOL    HW118332   2.956   0.349   6.022
 5811SOL    HW218333   3.071   0.299   5.918
 5812SOL     OW18334   6.007   1.370   4.175
 5812SOL    HW118335   6.020   1.432   4.098
 5812SOL    HW218336   6.088   1.372   4.234
 5813SOL     OW18337   1.589   1.569   0.942
 5813SOL    HW118338   1.551   1.631   0.873
 5813SOL    HW218339   1.525   1.562   1.019
 5814SOL     OW18340   6.189   4.937   1.505
 5814SOL    HW118341   6.259   5.008   1.517
 5814SOL    HW218342   6.099   4.975   1.523
 5815SOL     OW18343   4.484   2.362   3.860
 5815SOL    HW118344   4.402   2.376   3.805
 5815SOL    HW218345   4.465   2.299   3.934
 5816SOL     OW18346   4.762   6.015   0.097
 5816SOL    HW118347   4.697   6.042   0.025
 5816SOL    HW218348   4.836   6.082   0.101
 5817SOL     OW18349   5.460   3.695   5.908
 5817SOL    HW118350   5.384   3.641   5.945
 5817SOL    HW218351   5.546   3.647   5.924
 5818SOL     OW18352   6.590   5.825   4.785
 5818SOL    HW118353   6.680   5.785   4.766
 5818SOL    HW218354   6.542   5.843   4.699
 5819SOL     OW18355   4.193   6.741   6.312
 5819SOL    HW118356   4.098   6.748   6.280
 5819SOL    HW218357   4.194   6.698   6.402
 5820SOL     OW18358   4.297   6.034   3.940
 5820SOL    HW118359   4.291   5.953   3.882
 5820SOL    HW218360   4.330   6.008   4.031
 5821SOL     OW18361   0.004   6.940   2.334
 5821SOL    HW118362   6.952   6.954   2.273
 5821SOL    HW218363   7.012   6.862   2.394
 5822SOL     OW18364   0.524   2.336   2.376
 5822SOL    HW118365   0.443   2.279   2.389
 5822SOL    HW218366   0.607   2.280   2.384
 5823SOL     OW18367   0.678   1.347   5.942
 5823SOL    HW118368   0.730   1.282   5.998
 5823SOL    HW218369   0.699   1.331   5.845
 5824SOL     OW18370   6.932   5.132   2.289
 5824SOL    HW118371   6.973   5.108   2.376
 5824SOL    HW218372   6.876   5.215   2.300
 5825SOL     OW18373   2.408   2.444   5.454
 5825SOL    HW118374   2.354   2.516   5.411
 5825SOL    HW218375   2.359   2.357   5.447
 5826SOL     OW18376   6.774   5.294   5.129
 5826SOL    HW118377   6.770   5.195   5.123
 5826SOL    HW218378   6.867   5.326   5.110
 5827SOL     OW18379   2.162   4.911   4.690
 5827SOL    HW118380   2.227   4.943   4.759
 5827SOL    HW218381   2.160   4.976   4.614
 5828SOL     OW18382   6.779   2.744   1.542
 5828SOL    HW118383   6.853   2.811   1.544
 5828SOL    HW218384   6.779   2.693   1.628
 5829SOL     OW18385   2.431   1.776   3.112
 5829SOL    HW118386   2.405   1.727   3.029
 5829SOL    HW218387   2.392   1.868   3.110
 5830SOL     OW18388   4.618   0.247   5.315
 5830SOL    HW118389   4.568   0.220   5.232
 5830SOL    HW218390   4.674   0.328   5.295
 5831SOL     OW18391   0.143   0.654   4.197
 5831SOL    HW118392   0.119   0.567   4.154
 5831SOL    HW218393   0.091   0.664   4.282
 5832SOL     OW18394   3.914   4.388   5.964
 5832SOL    HW118395   3.960   4.476   5.978
 5832SOL    HW218396   3.820   4.404   5.934
 5833SOL     OW18397   3.972   3.313   5.023
 5833SOL    HW118398   4.040   3.381   5.050
 5833SOL    HW218399   3.964   3.244   5.095
 5834SOL     OW18400   6.469   3.069   0.425
 5834SOL    HW118401   6.466   2.977   0.386
 5834SOL    HW218402   6.409   3.073   0.505
 5835SOL     OW18403   4.946   3.617   3.587
 5835SOL    HW118404   5.045   3.625   3.600
 5835SOL    HW218405   4.899   3.683   3.645
 5836SOL     OW18406   2.744   6.642   2.534
 5836SOL    HW118407   2.645   6.647   2.519
 5836SOL    HW218408   2.781   6.562   2.488
 5837SOL     OW18409   4.292   5.125   5.817
 5837SOL    HW118410   4.356   5.056   5.852
 5837SOL    HW218411   4.340   5.186   5.754
 5838SOL     OW18412   2.822   1.583   5.926
 5838SOL    HW118413   2.780   1.591   5.835
 5838SOL    HW218414   2.803   1.666   5.979
 5839SOL     OW18415   0.421   1.861   2.740
 5839SOL    HW118416   0.418   1.764   2.717
 5839SOL    HW218417   0.411   1.916   2.657
 5840SOL     OW18418   1.210   5.350   6.460
 5840SOL    HW118419   1.174   5.272   6.511
 5840SOL    HW218420   1.246   5.319   6.372
 5841SOL     OW18421   5.145   1.543   2.735
 5841SOL    HW118422   5.218   1.599   2.694
 5841SOL    HW218423   5.088   1.506   2.662
 5842SOL     OW18424   5.051   3.046   1.160
 5842SOL    HW118425   5.047   3.064   1.259
 5842SOL    HW218426   5.096   2.959   1.144
 5843SOL     OW18427   2.162   3.810   2.428
 5843SOL    HW118428   2.093   3.847   2.365
 5843SOL    HW218429   2.243   3.868   2.425
 5844SOL     OW18430   0.951   7.008   5.709
 5844SOL    HW118431   0.865   6.981   5.667
 5844SOL    HW218432   1.027   6.969   5.657
 5845SOL     OW18433   0.896   0.280   2.863
 5845SOL    HW118434   0.816   0.221   2.848
 5845SOL    HW218435   0.898   0.352   2.794
 5846SOL     OW18436   6.660   2.904   3.524
 5846SOL    HW118437   6.735   2.963   3.554
 5846SOL    HW218438   6.644   2.919   3.426
 5847SOL     OW18439   1.685   2.209   1.646
 5847SOL    HW118440   1.602   2.162   1.676
 5847SOL    HW218441   1.765   2.152   1.667
 5848SOL     OW18442   2.574   5.102   3.131
 5848SOL    HW118443   2.496   5.128   3.074
 5848SOL    HW218444   2.657   5.143   3.094
 5849SOL     OW18445   0.259   6.721   6.950
 5849SOL    HW118446   0.173   6.676   6.971
 5849SOL    HW218447   0.250   6.819   6.966
 5850SOL     OW18448   0.446   3.785   2.588
 5850SOL    HW118449   0.436   3.689   2.562
 5850SOL    HW218450   0.385   3.841   2.531
 5851SOL     OW18451   5.230   3.365   3.022
 5851SOL    HW118452   5.202   3.270   3.011
 5851SOL    HW218453   5.156   3.426   2.991
 5852SOL     OW18454   5.187   6.476   2.886
 5852SOL    HW118455   5.089   6.498   2.887
 5852SOL    HW218456   5.200   6.381   2.913
 5853SOL     OW18457   3.295   5.396   4.260
 5853SOL    HW118458   3.312   5.339   4.340
 5853SOL    HW218459   3.326   5.348   4.178
 5854SOL     OW18460   5.547   4.693   5.445
 5854SOL    HW118461   5.632   4.671   5.493
 5854SOL    HW218462   5.487   4.612   5.443
 5855SOL     OW18463   0.249   0.463   5.312
 5855SOL    HW118464   0.250   0.432   5.407
 5855SOL    HW218465   0.300   0.549   5.306
 5856SOL     OW18466   1.886   5.959   4.077
 5856SOL    HW118467   1.886   5.934   3.980
 5856SOL    HW218468   1.976   5.941   4.116
 5857SOL     OW18469   6.054   2.819   5.717
 5857SOL    HW118470   6.017   2.728   5.700
 5857SOL    HW218471   6.140   2.830   5.668
 5858SOL     OW18472   2.599   2.390   1.983
 5858SOL    HW118473   2.579   2.446   1.902
 5858SOL    HW218474   2.698   2.381   1.993
 5859SOL     OW18475   5.375   6.486   1.624
 5859SOL    HW118476   5.452   6.546   1.649
 5859SOL    HW218477   5.391   6.448   1.533
 5860SOL     OW18478   1.641   3.449   1.916
 5860SOL    HW118479   1.584   3.392   1.858
 5860SOL    HW218480   1.698   3.391   1.974
 5861SOL     OW18481   4.740   1.857   4.915
 5861SOL    HW118482   4.704   1.891   5.002
 5861SOL    HW218483   4.677   1.788   4.878
 5862SOL     OW18484   4.766   5.067   3.194
 5862SOL    HW118485   4.698   5.128   3.236
 5862SOL    HW218486   4.854   5.080   3.238
 5863SOL     OW18487   2.986   0.941   4.578
 5863SOL    HW118488   3.011   1.037   4.570
 5863SOL    HW218489   3.014   0.892   4.495
 5864SOL     OW18490   4.120   3.491   1.777
 5864SOL    HW118491   4.194   3.436   1.738
 5864SOL    HW218492   4.088   3.447   1.861
 5865SOL     OW18493   6.023   0.176   5.316
 5865SOL    HW118494   6.107   0.227   5.336
 5865SOL    HW218495   6.043   0.079   5.311
 5866SOL     OW18496   4.581   5.589   0.223
 5866SOL    HW118497   4.553   5.685   0.231
 5866SOL    HW218498   4.616   5.573   0.131
 5867SOL     OW18499   0.047   3.933   0.858
 5867SOL    HW118500   0.051   3.921   0.957
 5867SOL    HW218501   0.072   4.027   0.835
 5868SOL     OW18502   0.206   0.870   5.466
 5868SOL    HW118503   0.121   0.821   5.447
 5868SOL    HW218504   0.204   0.959   5.420
 5869SOL     OW18505   3.125   5.817   3.085
 5869SOL    HW118506   3.137   5.730   3.132
 5869SOL    HW218507   3.068   5.877   3.142
 5870SOL     OW18508   5.233   6.100   4.423
 5870SOL    HW118509   5.266   6.064   4.509
 5870SOL    HW218510   5.287   6.062   4.348
 5871SOL     OW18511   3.653   2.909   7.023
 5871SOL    HW118512   3.695   2.848   0.063
 5871SOL    HW218513   3.706   2.907   6.938
 5872SOL     OW18514   4.011   5.659   0.200
 5872SOL    HW118515   3.965   5.600   0.266
 5872SOL    HW218516   4.099   5.689   0.238
 5873SOL     OW18517   2.262   2.640   0.948
 5873SOL    HW118518   2.186   2.704   0.935
 5873SOL    HW218519   2.313   2.665   1.030
 5874SOL     OW18520   3.204   3.298   1.023
 5874SOL    HW118521   3.141   3.302   0.945
 5874SOL    HW218522   3.179   3.220   1.081
 5875SOL     OW18523   3.567   0.899   1.147
 5875SOL    HW118524   3.538   0.995   1.139
 5875SOL    HW218525   3.658   0.889   1.107
 5876SOL     OW18526   2.407   3.211   0.125
 5876SOL    HW118527   2.372   3.144   0.060
 5876SOL    HW218528   2.477   3.169   0.182
 5877SOL     OW18529   0.437   6.538   0.944
 5877SOL    HW118530   0.450   6.543   0.845
 5877SOL    HW218531   0.345   6.504   0.964
 5878SOL     OW18532   5.281   5.266   3.094
 5878SOL    HW118533   5.369   5.293   3.132
 5878SOL    HW218534   5.208   5.314   3.142
 5879SOL     OW18535   2.792   3.940   6.437
 5879SOL    HW118536   2.762   4.024   6.392
 5879SOL    HW218537   2.811   3.870   6.368
 5880SOL     OW18538   4.775   4.231   6.793
 5880SOL    HW118539   4.738   4.271   6.709
 5880SOL    HW218540   4.861   4.277   6.816
 5881SOL     OW18541   1.218   0.067   2.077
 5881SOL    HW118542   1.262   0.118   2.151
 5881SOL    HW218543   1.257   7.001   2.073
 5882SOL     OW18544   1.394   6.507   6.002
 5882SOL    HW118545   1.371   6.424   6.053
 5882SOL    HW218546   1.493   6.510   5.985
 5883SOL     OW18547   0.648   1.311   0.827
 5883SOL    HW118548   0.680   1.314   0.732
 5883SOL    HW218549   0.604   1.398   0.850
 5884SOL     OW18550   5.758   1.097   4.717
 5884SOL    HW118551   5.725   1.036   4.788
 5884SOL    HW218552   5.692   1.171   4.703
 5885SOL     OW18553   1.132   6.107   1.382
 5885SOL    HW118554   1.086   6.020   1.397
 5885SOL    HW218555   1.076   6.165   1.323
 5886SOL     OW18556   0.780   3.315   3.600
 5886SOL    HW118557   0.770   3.287   3.504
 5886SOL    HW218558   0.826   3.404   3.603
 5887SOL     OW18559   2.778   2.086   2.001
 5887SOL    HW118560   2.803   2.044   1.913
 5887SOL    HW218561   2.837   2.165   2.017
 5888SOL     OW18562   2.415   6.821   1.400
 5888SOL    HW118563   2.347   6.892   1.383
 5888SOL    HW218564   2.448   6.786   1.312
 5889SOL     OW18565   6.595   1.316   0.505
 5889SOL    HW118566   6.578   1.220   0.481
 5889SOL    HW218567   6.692   1.336   0.495
 5890SOL     OW18568   1.509   6.658   2.766
 5890SOL    HW118569   1.435   6.663   2.699
 5890SOL    HW218570   1.532   6.562   2.784
 5891SOL     OW18571   2.033   4.130   0.140
 5891SOL    HW118572   2.092   4.052   0.119
 5891SOL    HW218573   1.941   4.112   0.107
 5892SOL     OW18574   0.335   5.137   1.798
 5892SOL    HW118575   0.369   5.209   1.858
 5892SOL    HW218576   0.243   5.111   1.826
 5893SOL     OW18577   2.146   4.760   2.090
 5893SOL    HW118578   2.073   4.758   2.022
 5893SOL    HW218579   2.233   4.733   2.047
 5894SOL     OW18580   0.625   5.366   5.493
 5894SOL    HW118581   0.624   5.456   5.450
 5894SOL    HW218582   0.536   5.349   5.535
 5895SOL     OW18583   6.159   4.023   3.575
 5895SOL    HW118584   6.164   4.093   3.504
 5895SOL    HW218585   6.083   4.043   3.636
 5896SOL     OW18586   5.344   1.257   1.282
 5896SOL    HW118587   5.256   1.305   1.283
 5896SOL    HW218588   5.329   1.159   1.296
 5897SOL     OW18589   3.615   1.168   1.778
 5897SOL    HW118590   3.696   1.123   1.815
 5897SOL    HW218591   3.641   1.224   1.700
 5898SOL     OW18592   2.665   1.646   5.674
 5898SOL    HW118593   2.603   1.658   5.751
 5898SOL    HW218594   2.665   1.729   5.618
 5899SOL     OW18595   0.037   5.624   6.268
 5899SOL    HW118596   0.057   5.706   6.216
 5899SOL    HW218597   6.964   5.612   6.274
 5900SOL     OW18598   6.947   5.300   3.019
 5900SOL    HW118599   6.951   5.200   3.022
 5900SOL    HW218600   7.002   5.337   3.094
 5901SOL     OW18601   2.590   0.960   0.261
 5901SOL    HW118602   2.505   0.906   0.255
 5901SOL    HW218603   2.592   1.027   0.187
 5902SOL     OW18604   5.937   3.142   5.108
 5902SOL    HW118605   5.855   3.097   5.145
 5902SOL    HW218606   6.013   3.077   5.107
 5903SOL     OW18607   4.891   2.847   6.864
 5903SOL    HW118608   4.914   2.777   6.796
 5903SOL    HW218609   4.975   2.883   6.905
 5904SOL     OW18610   1.366   4.233   1.108
 5904SOL    HW118611   1.286   4.293   1.115
 5904SOL    HW218612   1.346   4.158   1.045
 5905SOL     OW18613   5.870   1.042   3.713
 5905SOL    HW118614   5.772   1.024   3.728
 5905SOL    HW218615   5.923   0.968   3.753
 5906SOL     OW18616   4.798   1.748   5.623
 5906SOL    HW118617   4.735   1.700   5.561
 5906SOL    HW218618   4.883   1.696   5.631
 5907SOL     OW18619   1.184   0.403   0.304
 5907SOL    HW118620   1.226   0.341   0.371
 5907SOL    HW218621   1.230   0.492   0.308
 5908SOL     OW18622   5.554   4.019   6.907
 5908SOL    HW118623   5.547   3.995   7.004
 5908SOL    HW218624   5.644   3.991   6.873
 5909SOL     OW18625   0.354   5.290   6.341
 5909SOL    HW118626   0.300   5.347   6.404
 5909SOL    HW218627   0.308   5.203   6.326
 5910SOL     OW18628   0.948   4.915   0.187
 5910SOL    HW118629   0.990   4.830   0.156
 5910SOL    HW218630   1.009   4.960   0.252
 5911SOL     OW18631   0.487   5.305   5.826
 5911SOL    HW118632   0.561   5.257   5.873
 5911SOL    HW218633   0.418   5.333   5.893
 5912SOL     OW18634   5.912   3.307   6.547
 5912SOL    HW118635   5.833   3.279   6.493
 5912SOL    HW218636   5.980   3.233   6.548
 5913SOL     OW18637   2.103   2.933   5.855
 5913SOL    HW118638   2.025   2.916   5.794
 5913SOL    HW218639   2.093   2.879   5.938
 5914SOL     OW18640   2.855   5.291   6.585
 5914SOL    HW118641   2.780   5.354   6.563
 5914SOL    HW218642   2.862   5.281   6.684
 5915SOL     OW18643   6.025   3.537   1.985
 5915SOL    HW118644   6.090   3.595   2.035
 5915SOL    HW218645   5.936   3.583   1.981
 5916SOL     OW18646   4.486   0.594   5.632
 5916SOL    HW118647   4.547   0.515   5.632
 5916SOL    HW218648   4.531   0.671   5.676
 5917SOL     OW18649   3.959   3.698   3.527
 5917SOL    HW118650   3.915   3.617   3.487
 5917SOL    HW218651   3.990   3.758   3.453
 5918SOL     OW18652   2.182   3.998   4.757
 5918SOL    HW118653   2.087   3.975   4.778
 5918SOL    HW218654   2.235   4.003   4.842
 5919SOL     OW18655   3.352   2.437   6.700
 5919SOL    HW118656   3.337   2.363   6.765
 5919SOL    HW218657   3.296   2.422   6.619
 5920SOL     OW18658   3.697   6.562   7.016
 5920SOL    HW118659   3.686   6.569   6.917
 5920SOL    HW218660   3.658   6.475   0.022
 5921SOL     OW18661   3.593   5.227   5.604
 5921SOL    HW118662   3.689   5.235   5.632
 5921SOL    HW218663   3.587   5.227   5.505
 5922SOL     OW18664   6.080   5.319   3.914
 5922SOL    HW118665   6.110   5.390   3.850
 5922SOL    HW218666   6.112   5.230   3.884
 5923SOL     OW18667   6.339   1.235   2.845
 5923SOL    HW118668   6.264   1.176   2.815
 5923SOL    HW218669   6.315   1.275   2.934
 5924SOL     OW18670   6.087   2.881   5.032
 5924SOL    HW118671   6.123   2.816   4.965
 5924SOL    HW218672   6.007   2.841   5.078
 5925SOL     OW18673   4.423   6.337   3.010
 5925SOL    HW118674   4.489   6.412   3.018
 5925SOL    HW218675   4.355   6.360   2.939
 5926SOL     OW18676   3.575   5.123   2.236
 5926SOL    HW118677   3.550   5.027   2.222
 5926SOL    HW218678   3.494   5.180   2.222
 5927SOL     OW18679   2.108   4.124   2.278
 5927SOL    HW118680   2.150   4.099   2.191
 5927SOL    HW218681   2.168   4.187   2.327
 5928SOL     OW18682   3.309   0.076   2.136
 5928SOL    HW118683   3.382   0.039   2.192
 5928SOL    HW218684   3.299   0.021   2.053
 5929SOL     OW18685   0.665   6.557   5.848
 5929SOL    HW118686   0.645   6.548   5.946
 5929SOL    HW218687   0.649   6.470   5.802
 5930SOL     OW18688   6.366   1.595   3.854
 5930SOL    HW118689   6.401   1.523   3.913
 5930SOL    HW218690   6.442   1.651   3.821
 5931SOL     OW18691   5.894   5.073   2.744
 5931SOL    HW118692   5.854   4.989   2.782
 5931SOL    HW218693   5.991   5.057   2.724
 5932SOL     OW18694   2.652   6.072   0.797
 5932SOL    HW118695   2.636   6.056   0.894
 5932SOL    HW218696   2.644   5.985   0.747
 5933SOL     OW18697   6.846   4.591   2.708
 5933SOL    HW118698   6.856   4.650   2.628
 5933SOL    HW218699   6.802   4.642   2.782
 5934SOL     OW18700   3.297   4.165   3.735
 5934SOL    HW118701   3.330   4.213   3.654
 5934SOL    HW218702   3.369   4.161   3.804
 5935SOL     OW18703   3.921   3.636   4.437
 5935SOL    HW118704   3.822   3.641   4.445
 5935SOL    HW218705   3.960   3.591   4.517
 5936SOL     OW18706   4.753   3.512   6.266
 5936SOL    HW118707   4.667   3.532   6.314
 5936SOL    HW218708   4.811   3.593   6.267
 5937SOL     OW18709   0.487   4.338   1.685
 5937SOL    HW118710   0.430   4.337   1.602
 5937SOL    HW218711   0.431   4.314   1.764
 5938SOL     OW18712   1.381   5.171   4.053
 5938SOL    HW118713   1.480   5.173   4.066
 5938SOL    HW218714   1.337   5.141   4.138
 5939SOL     OW18715   3.180   0.395   3.230
 5939SOL    HW118716   3.206   0.465   3.296
 5939SOL    HW218717   3.089   0.415   3.194
 5940SOL     OW18718   4.212   6.474   2.349
 5940SOL    HW118719   4.214   6.385   2.303
 5940SOL    HW218720   4.144   6.533   2.305
 5941SOL     OW18721   6.381   4.171   2.126
 5941SOL    HW118722   6.316   4.111   2.080
 5941SOL    HW218723   6.448   4.117   2.176
 5942SOL     OW18724   4.870   2.592   0.278
 5942SOL    HW118725   4.855   2.681   0.321
 5942SOL    HW218726   4.842   2.597   0.182
 5943SOL     OW18727   3.464   5.430   6.904
 5943SOL    HW118728   3.378   5.445   6.855
 5943SOL    HW218729   3.541   5.451   6.844
 5944SOL     OW18730   5.354   1.716   1.809
 5944SOL    HW118731   5.332   1.627   1.770
 5944SOL    HW218732   5.427   1.705   1.877
 5945SOL     OW18733   0.299   5.203   5.378
 5945SOL    HW118734   0.293   5.268   5.453
 5945SOL    HW218735   0.267   5.113   5.409
 5946SOL     OW18736   3.269   3.278   5.664
 5946SOL    HW118737   3.200   3.287   5.593
 5946SOL    HW218738   3.304   3.185   5.666
 5947SOL     OW18739   3.784   3.300   1.898
 5947SOL    HW118740   3.749   3.390   1.871
 5947SOL    HW218741   3.873   3.309   1.941
 5948SOL     OW18742   4.258   5.390   3.429
 5948SOL    HW118743   4.324   5.438   3.372
 5948SOL    HW218744   4.282   5.403   3.525
 5949SOL     OW18745   3.904   4.169   0.977
 5949SOL    HW118746   3.822   4.225   0.964
 5949SOL    HW218747   3.986   4.225   0.962
 5950SOL     OW18748   5.358   2.956   5.545
 5950SOL    HW118749   5.349   3.050   5.510
 5950SOL    HW218750   5.267   2.915   5.552
 5951SOL     OW18751   0.893   6.049   5.267
 5951SOL    HW118752   0.898   6.102   5.183
 5951SOL    HW218753   0.847   5.961   5.249
 5952SOL     OW18754   6.164   6.162   4.016
 5952SOL    HW118755   6.150   6.261   4.006
 5952SOL    HW218756   6.128   6.116   3.934
 5953SOL     OW18757   6.810   2.909   5.665
 5953SOL    HW118758   6.787   2.961   5.748
 5953SOL    HW218759   6.832   2.973   5.591
 5954SOL     OW18760   6.714   4.780   5.456
 5954SOL    HW118761   6.686   4.858   5.512
 5954SOL    HW218762   6.794   4.736   5.498
 5955SOL     OW18763   5.768   6.239   2.387
 5955SOL    HW118764   5.671   6.215   2.388
 5955SOL    HW218765   5.822   6.158   2.367
 5956SOL     OW18766   3.303   1.981   0.732
 5956SOL    HW118767   3.325   1.890   0.696
 5956SOL    HW218768   3.277   1.973   0.829
 5957SOL     OW18769   4.835   0.429   5.802
 5957SOL    HW118770   4.794   0.460   5.716
 5957SOL    HW218771   4.764   0.396   5.864
 5958SOL     OW18772   5.795   6.979   2.868
 5958SOL    HW118773   5.841   6.980   2.779
 5958SOL    HW218774   5.825   0.031   2.922
 5959SOL     OW18775   3.465   1.546   5.670
 5959SOL    HW118776   3.550   1.550   5.723
 5959SOL    HW218777   3.470   1.611   5.594
 5960SOL     OW18778   3.425   6.785   4.781
 5960SOL    HW118779   3.339   6.739   4.764
 5960SOL    HW218780   3.407   6.880   4.809
 5961SOL     OW18781   4.445   1.127   4.000
 5961SOL    HW118782   4.449   1.222   4.033
 5961SOL    HW218783   4.516   1.073   4.045
 5962SOL     OW18784   5.023   5.924   2.074
 5962SOL    HW118785   5.050   5.835   2.036
 5962SOL    HW218786   4.952   5.910   2.143
 5963SOL     OW18787   3.459   2.840   4.929
 5963SOL    HW118788   3.476   2.939   4.930
 5963SOL    HW218789   3.396   2.818   4.855
 5964SOL     OW18790   0.344   4.990   5.825
 5964SOL    HW118791   0.261   5.047   5.825
 5964SOL    HW218792   0.378   4.981   5.732
 5965SOL     OW18793   1.819   2.101   5.729
 5965SOL    HW118794   1.775   2.187   5.703
 5965SOL    HW218795   1.834   2.099   5.828
 5966SOL     OW18796   3.031   5.420   5.870
 5966SOL    HW118797   3.090   5.495   5.841
 5966SOL    HW218798   3.071   5.333   5.841
 5967SOL     OW18799   4.252   6.044   1.917
 5967SOL    HW118800   4.171   5.989   1.935
 5967SOL    HW218801   4.305   6.054   2.001
 5968SOL     OW18802   5.777   1.552   3.302
 5968SOL    HW118803   5.848   1.529   3.369
 5968SOL    HW218804   5.759   1.473   3.244
 5969SOL     OW18805   6.756   1.739   5.119
 5969SOL    HW118806   6.755   1.651   5.166
 5969SOL    HW218807   6.765   1.813   5.186
 5970SOL     OW18808   0.368   4.798   2.352
 5970SOL    HW118809   0.314   4.717   2.326
 5970SOL    HW218810   0.465   4.776   2.347
 5971SOL     OW18811   2.309   0.708   3.104
 5971SOL    HW118812   2.371   0.706   3.026
 5971SOL    HW218813   2.218   0.678   3.075
 5972SOL     OW18814   4.239   6.350   0.409
 5972SOL    HW118815   4.304   6.306   0.348
 5972SOL    HW218816   4.278   6.436   0.443
 5973SOL     OW18817   1.621   5.148   2.817
 5973SOL    HW118818   1.656   5.061   2.851
 5973SOL    HW218819   1.608   5.211   2.893
 5974SOL     OW18820   5.474   4.304   6.335
 5974SOL    HW118821   5.448   4.341   6.424
 5974SOL    HW218822   5.541   4.365   6.292
 5975SOL     OW18823   3.464   2.509   1.032
 5975SOL    HW118824   3.542   2.511   1.095
 5975SOL    HW218825   3.471   2.585   0.968
 5976SOL     OW18826   2.896   3.575   5.333
 5976SOL    HW118827   2.841   3.494   5.349
 5976SOL    HW218828   2.837   3.656   5.329
 5977SOL     OW18829   1.808   4.695   1.494
 5977SOL    HW118830   1.871   4.622   1.468
 5977SOL    HW218831   1.730   4.694   1.431
 5978SOL     OW18832   5.399   4.977   3.462
 5978SOL    HW118833   5.412   5.075   3.478
 5978SOL    HW218834   5.460   4.925   3.522
 5979SOL     OW18835   6.643   0.840   2.784
 5979SOL    HW118836   6.717   0.830   2.850
 5979SOL    HW218837   6.555   0.829   2.830
 5980SOL     OW18838   3.662   3.537   6.414
 5980SOL    HW118839   3.563   3.529   6.426
 5980SOL    HW218840   3.689   3.633   6.420
 5981SOL     OW18841   6.403   1.672   2.376
 5981SOL    HW118842   6.351   1.608   2.433
 5981SOL    HW218843   6.408   1.638   2.283
 5982SOL     OW18844   6.234   2.152   6.839
 5982SOL    HW118845   6.138   2.122   6.839
 5982SOL    HW218846   6.237   2.252   6.830
 5983SOL     OW18847   2.678   1.501   4.267
 5983SOL    HW118848   2.731   1.422   4.236
 5983SOL    HW218849   2.716   1.585   4.229
 5984SOL     OW18850   6.909   0.140   4.975
 5984SOL    HW118851   6.970   0.061   4.977
 5984SOL    HW218852   6.840   0.127   4.903
 5985SOL     OW18853   5.456   3.200   4.436
 5985SOL    HW118854   5.552   3.175   4.423
 5985SOL    HW218855   5.408   3.125   4.482
 5986SOL     OW18856   2.967   3.484   4.317
 5986SOL    HW118857   2.915   3.482   4.232
 5986SOL    HW218858   2.943   3.566   4.369
 5987SOL     OW18859   4.528   1.705   4.799
 5987SOL    HW118860   4.438   1.745   4.819
 5987SOL    HW218861   4.517   1.633   4.730
 5988SOL     OW18862   4.519   5.910   4.700
 5988SOL    HW118863   4.430   5.913   4.745
 5988SOL    HW218864   4.573   5.835   4.736
 5989SOL     OW18865   2.981   5.773   6.669
 5989SOL    HW118866   2.935   5.854   6.705
 5989SOL    HW218867   2.943   5.750   6.580
 5990SOL     OW18868   4.190   4.105   0.749
 5990SOL    HW118869   4.281   4.081   0.717
 5990SOL    HW218870   4.128   4.113   0.671
 5991SOL     OW18871   4.290   4.820   5.134
 5991SOL    HW118872   4.302   4.812   5.035
 5991SOL    HW218873   4.193   4.825   5.155
 5992SOL     OW18874   3.661   0.920   3.985
 5992SOL    HW118875   3.666   0.821   3.994
 5992SOL    HW218876   3.745   0.954   3.941
 5993SOL     OW18877   3.848   6.753   5.633
 5993SOL    HW118878   3.859   6.761   5.534
 5993SOL    HW218879   3.756   6.722   5.654
 5994SOL     OW18880   6.120   2.065   2.514
 5994SOL    HW118881   6.117   2.137   2.445
 5994SOL    HW218882   6.034   2.063   2.565
 5995SOL     OW18883   6.366   4.692   2.050
 5995SOL    HW118884   6.312   4.723   1.972
 5995SOL    HW218885   6.338   4.600   2.076
 5996SOL     OW18886   0.887   5.252   0.257
 5996SOL    HW118887   0.834   5.169   0.246
 5996SOL    HW218888   0.830   5.323   0.299
 5997SOL     OW18889   0.966   6.502   2.564
 5997SOL    HW118890   1.059   6.468   2.578
 5997SOL    HW218891   0.908   6.473   2.641
 5998SOL     OW18892   5.639   3.240   2.127
 5998SOL    HW118893   5.596   3.168   2.072
 5998SOL    HW218894   5.735   3.247   2.103
 5999SOL     OW18895   1.005   2.174   2.385
 5999SOL    HW118896   1.029   2.077   2.381
 5999SOL    HW218897   1.027   2.210   2.476
 6000SOL     OW18898   4.039   5.863   1.618
 6000SOL    HW118899   4.095   5.917   1.554
 6000SOL    HW218900   4.037   5.909   1.707
 6001SOL     OW18901   0.690   4.065   6.042
 6001SOL    HW118902   0.703   4.164   6.035
 6001SOL    HW218903   0.744   4.029   6.118
 6002SOL     OW18904   0.467   6.560   1.365
 6002SOL    HW118905   0.512   6.623   1.302
 6002SOL    HW218906   0.368   6.565   1.353
 6003SOL     OW18907   6.264   2.352   4.505
 6003SOL    HW118908   6.328   2.295   4.452
 6003SOL    HW218909   6.316   2.422   4.554
 6004SOL     OW18910   0.395   4.354   2.996
 6004SOL    HW118911   0.409   4.276   3.057
 6004SOL    HW218912   0.462   4.425   3.016
 6005SOL     OW18913   4.027   5.149   4.521
 6005SOL    HW118914   4.051   5.244   4.539
 6005SOL    HW218915   4.027   5.132   4.423
 6006SOL     OW18916   4.164   6.618   6.950
 6006SOL    HW118917   4.096   6.581   7.013
 6006SOL    HW218918   4.142   6.588   6.857
 6007SOL     OW18919   4.872   3.195   3.844
 6007SOL    HW118920   4.822   3.139   3.910
 6007SOL    HW218921   4.888   3.286   3.883
 6008SOL     OW18922   2.376   5.467   6.360
 6008SOL    HW118923   2.394   5.546   6.420
 6008SOL    HW218924   2.327   5.498   6.279
 6009SOL     OW18925   3.108   1.352   4.785
 6009SOL    HW118926   3.029   1.379   4.839
 6009SOL    HW218927   3.165   1.433   4.767
 6010SOL     OW18928   1.907   4.100   1.953
 6010SOL    HW118929   1.924   4.085   1.856
 6010SOL    HW218930   1.973   4.166   1.988
 6011SOL     OW18931   4.889   2.565   2.137
 6011SOL    HW118932   4.856   2.471   2.128
 6011SOL    HW218933   4.901   2.587   2.234
 6012SOL     OW18934   6.649   1.601   0.677
 6012SOL    HW118935   6.634   1.699   0.686
 6012SOL    HW218936   6.567   1.558   0.638
 6013SOL     OW18937   5.115   1.818   3.088
 6013SOL    HW118938   5.193   1.841   3.029
 6013SOL    HW218939   5.103   1.719   3.090
 6014SOL     OW18940   4.664   1.736   1.049
 6014SOL    HW118941   4.628   1.794   0.975
 6014SOL    HW218942   4.763   1.733   1.042
 6015SOL     OW18943   5.704   2.174   5.676
 6015SOL    HW118944   5.679   2.240   5.747
 6015SOL    HW218945   5.623   2.155   5.619
 6016SOL     OW18946   0.406   1.426   0.118
 6016SOL    HW118947   0.422   1.524   0.109
 6016SOL    HW218948   0.340   1.396   0.049
 6017SOL     OW18949   6.420   5.158   2.434
 6017SOL    HW118950   6.330   5.199   2.446
 6017SOL    HW218951   6.431   5.130   2.339
 6018SOL     OW18952   3.453   2.571   0.089
 6018SOL    HW118953   3.520   2.579   0.015
 6018SOL    HW218954   3.407   2.483   0.083
 6019SOL     OW18955   5.019   1.680   3.990
 6019SOL    HW118956   4.983   1.773   3.991
 6019SOL    HW218957   5.058   1.659   4.080
 6020SOL     OW18958   1.381   6.063   2.338
 6020SOL    HW118959   1.445   5.988   2.360
 6020SOL    HW218960   1.296   6.050   2.389
 6021SOL     OW18961   3.830   6.786   2.514
 6021SOL    HW118962   3.745   6.735   2.529
 6021SOL    HW218963   3.809   6.874   2.470
 6022SOL     OW18964   4.416   0.753   4.467
 6022SOL    HW118965   4.475   0.697   4.410
 6022SOL    HW218966   4.370   0.696   4.534
 6023SOL     OW18967   6.374   1.550   3.235
 6023SOL    HW118968   6.292   1.606   3.250
 6023SOL    HW218969   6.391   1.541   3.137
 6024SOL     OW18970   0.770   4.391   2.809
 6024SOL    HW118971   0.708   4.315   2.791
 6024SOL    HW218972   0.855   4.357   2.848
 6025SOL     OW18973   3.937   0.258   2.507
 6025SOL    HW118974   3.951   0.236   2.604
 6025SOL    HW218975   4.019   0.234   2.455
 6026SOL     OW18976   0.229   4.417   4.457
 6026SOL    HW118977   0.314   4.427   4.406
 6026SOL    HW218978   0.225   4.325   4.497
 6027SOL     OW18979   2.255   3.999   5.592
 6027SOL    HW118980   2.187   4.072   5.594
 6027SOL    HW218981   2.247   3.948   5.506
 6028SOL     OW18982   0.897   3.749   6.980
 6028SOL    HW118983   0.895   3.658   6.937
 6028SOL    HW218984   0.869   3.818   6.914
 6029SOL     OW18985   2.216   6.597   6.500
 6029SOL    HW118986   2.194   6.535   6.576
 6029SOL    HW218987   2.287   6.556   6.443
 6030SOL     OW18988   2.225   0.403   2.919
 6030SOL    HW118989   2.149   0.358   2.872
 6030SOL    HW218990   2.283   0.449   2.852
 6031SOL     OW18991   4.039   5.329   4.180
 6031SOL    HW118992   4.036   5.235   4.213
 6031SOL    HW218993   3.973   5.341   4.105
 6032SOL     OW18994   1.876   3.407   2.844
 6032SOL    HW118995   1.832   3.488   2.884
 6032SOL    HW218996   1.827   3.379   2.762
 6033SOL     OW18997   2.496   2.474   2.753
 6033SOL    HW118998   2.471   2.512   2.842
 6033SOL    HW218999   2.414   2.436   2.709
 6034SOL     OW19000   1.803   5.846   4.796
 6034SOL    HW119001   1.879   5.911   4.793
 6034SOL    HW219002   1.746   5.865   4.877
 6035SOL     OW19003   6.233   1.842   3.763
 6035SOL    HW119004   6.313   1.901   3.770
 6035SOL    HW219005   6.259   1.747   3.781
 6036SOL     OW19006   0.577   6.811   4.425
 6036SOL    HW119007   0.591   6.910   4.427
 6036SOL    HW219008   0.666   6.765   4.429
 6037SOL     OW19009   4.726   5.386   6.124
 6037SOL    HW119010   4.753   5.472   6.166
 6037SOL    HW219011   4.649   5.347   6.174
 6038SOL     OW19012   0.884   3.245   6.288
 6038SOL    HW119013   0.806   3.306   6.279
 6038SOL    HW219014   0.923   3.225   6.198
 6039SOL     OW19015   3.424   2.865   3.559
 6039SOL    HW119016   3.452   2.840   3.466
 6039SOL    HW219017   3.491   2.828   3.624
 6040SOL     OW19018   0.464   2.211   6.478
 6040SOL    HW119019   0.528   2.233   6.552
 6040SOL    HW219020   0.381   2.171   6.517
 6041SOL     OW19021   2.127   1.567   6.150
 6041SOL    HW119022   2.216   1.575   6.195
 6041SOL    HW219023   2.070   1.502   6.200
 6042SOL     OW19024   5.610   5.319   1.918
 6042SOL    HW119025   5.550   5.286   1.990
 6042SOL    HW219026   5.703   5.328   1.953
 6043SOL     OW19027   1.162   5.289   5.059
 6043SOL    HW119028   1.082   5.230   5.056
 6043SOL    HW219029   1.135   5.383   5.034
 6044SOL     OW19030   1.173   2.234   1.315
 6044SOL    HW119031   1.095   2.201   1.262
 6044SOL    HW219032   1.187   2.175   1.394
 6045SOL     OW19033   6.021   5.747   0.933
 6045SOL    HW119034   5.976   5.796   1.008
 6045SOL    HW219035   6.024   5.649   0.954
 6046SOL     OW19036   2.227   2.302   0.555
 6046SOL    HW119037   2.275   2.215   0.549
 6046SOL    HW219038   2.235   2.349   0.467
 6047SOL     OW19039   6.477   1.648   3.469
 6047SOL    HW119040   6.450   1.611   3.380
 6047SOL    HW219041   6.448   1.743   3.477
 6048SOL     OW19042   4.850   6.451   3.328
 6048SOL    HW119043   4.830   6.509   3.250
 6048SOL    HW219044   4.767   6.401   3.354
 6049SOL     OW19045   5.236   3.892   6.362
 6049SOL    HW119046   5.334   3.884   6.345
 6049SOL    HW219047   5.187   3.889   6.274
 6050SOL     OW19048   3.948   3.675   5.700
 6050SOL    HW119049   3.936   3.742   5.773
 6050SOL    HW219050   4.013   3.710   5.632
 6051SOL     OW19051   2.882   2.114   3.904
 6051SOL    HW119052   2.873   2.185   3.834
 6051SOL    HW219053   2.829   2.034   3.877
 6052SOL     OW19054   6.593   6.587   0.012
 6052SOL    HW119055   6.589   6.662   0.078
 6052SOL    HW219056   6.501   6.553   7.022
 6053SOL     OW19057   3.995   0.538   6.591
 6053SOL    HW119058   3.947   0.467   6.540
 6053SOL    HW219059   3.966   0.536   6.687
 6054SOL     OW19060   2.227   4.192   0.623
 6054SOL    HW119061   2.199   4.167   0.530
 6054SOL    HW219062   2.211   4.115   0.684
 6055SOL     OW19063   6.105   1.026   6.314
 6055SOL    HW119064   6.136   1.097   6.252
 6055SOL    HW219065   6.093   0.941   6.264
 6056SOL     OW19066   5.368   2.589   4.860
 6056SOL    HW119067   5.405   2.670   4.816
 6056SOL    HW219068   5.408   2.579   4.951
 6057SOL     OW19069   5.103   2.444   4.397
 6057SOL    HW119070   5.075   2.532   4.360
 6057SOL    HW219071   5.157   2.458   4.480
 6058SOL     OW19072   5.204   2.415   2.568
 6058SOL    HW119073   5.267   2.401   2.644
 6058SOL    HW219074   5.235   2.363   2.489
 6059SOL     OW19075   4.528   5.156   5.663
 6059SOL    HW119076   4.601   5.091   5.643
 6059SOL    HW219077   4.567   5.238   5.704
 6060SOL     OW19078   3.491   3.930   5.693
 6060SOL    HW119079   3.451   3.953   5.605
 6060SOL    HW219080   3.422   3.943   5.765
 6061SOL     OW19081   3.523   2.689   0.576
 6061SOL    HW119082   3.442   2.711   0.521
 6061SOL    HW219083   3.603   2.736   0.538
 6062SOL     OW19084   2.486   1.019   4.595
 6062SOL    HW119085   2.556   0.972   4.650
 6062SOL    HW219086   2.482   0.975   4.505
 6063SOL     OW19087   4.020   1.585   6.543
 6063SOL    HW119088   4.101   1.565   6.489
 6063SOL    HW219089   4.042   1.578   6.641
 6064SOL     OW19090   2.628   5.786   2.758
 6064SOL    HW119091   2.654   5.859   2.695
 6064SOL    HW219092   2.688   5.788   2.838
 6065SOL     OW19093   5.572   6.924   1.687
 6065SOL    HW119094   5.478   6.937   1.720
 6065SOL    HW219095   5.580   6.835   1.644
 6066SOL     OW19096   4.048   1.787   0.590
 6066SOL    HW119097   4.144   1.791   0.617
 6066SOL    HW219098   4.007   1.703   0.626
 6067SOL     OW19099   5.652   1.957   6.616
 6067SOL    HW119100   5.667   1.929   6.711
 6067SOL    HW219101   5.651   1.876   6.558
 6068SOL     OW19102   6.240   3.077   4.548
 6068SOL    HW119103   6.266   2.989   4.587
 6068SOL    HW219104   6.199   3.134   4.619
 6069SOL     OW19105   0.673   3.801   5.529
 6069SOL    HW119106   0.653   3.807   5.626
 6069SOL    HW219107   0.601   3.847   5.477
 6070SOL     OW19108   2.996   1.893   5.690
 6070SOL    HW119109   2.962   1.901   5.596
 6070SOL    HW219110   3.054   1.812   5.698
 6071SOL     OW19111   4.648   5.925   4.976
 6071SOL    HW119112   4.583   5.849   4.980
 6071SOL    HW219113   4.649   5.973   5.063
 6072SOL     OW19114   1.018   0.897   2.047
 6072SOL    HW119115   1.040   0.854   1.959
 6072SOL    HW219116   1.028   0.996   2.039
 6073SOL     OW19117   6.764   3.573   0.299
 6073SOL    HW119118   6.760   3.478   0.267
 6073SOL    HW219119   6.847   3.586   0.353
 6074SOL     OW19120   1.244   6.762   4.605
 6074SOL    HW119121   1.293   6.796   4.524
 6074SOL    HW219122   1.146   6.777   4.593
 6075SOL     OW19123   6.966   2.369   6.386
 6075SOL    HW119124   0.030   2.411   6.386
 6075SOL    HW219125   6.975   2.270   6.389
 6076SOL     OW19126   2.403   6.780   5.161
 6076SOL    HW119127   2.409   6.697   5.216
 6076SOL    HW219128   2.411   6.757   5.064
 6077SOL     OW19129   4.838   5.553   2.131
 6077SOL    HW119130   4.918   5.600   2.095
 6077SOL    HW219131   4.865   5.498   2.211
 6078SOL     OW19132   3.921   4.805   2.335
 6078SOL    HW119133   3.881   4.792   2.426
 6078SOL    HW219134   4.010   4.760   2.331
 6079SOL     OW19135   3.019   3.452   6.817
 6079SOL    HW119136   2.972   3.364   6.829
 6079SOL    HW219137   2.959   3.526   6.846
 6080SOL     OW19138   0.745   1.294   2.103
 6080SOL    HW119139   0.667   1.308   2.043
 6080SOL    HW219140   0.717   1.306   2.198
 6081SOL     OW19141   6.437   3.977   4.534
 6081SOL    HW119142   6.439   3.908   4.461
 6081SOL    HW219143   6.410   3.933   4.620
 6082SOL     OW19144   3.763   1.264   3.685
 6082SOL    HW119145   3.737   1.226   3.596
 6082SOL    HW219146   3.817   1.347   3.671
 6083SOL     OW19147   1.064   5.928   6.218
 6083SOL    HW119148   1.045   6.026   6.210
 6083SOL    HW219149   1.148   5.906   6.168
 6084SOL     OW19150   7.010   5.454   3.947
 6084SOL    HW119151   0.021   5.374   3.993
 6084SOL    HW219152   6.972   5.517   4.015
 6085SOL     OW19153   6.865   4.181   0.143
 6085SOL    HW119154   6.956   4.193   0.102
 6085SOL    HW219155   6.857   4.239   0.224
 6086SOL     OW19156   3.360   1.599   5.309
 6086SOL    HW119157   3.445   1.547   5.312
 6086SOL    HW219158   3.283   1.536   5.310
 6087SOL     OW19159   5.541   6.777   0.467
 6087SOL    HW119160   5.527   6.704   0.534
 6087SOL    HW219161   5.636   6.807   0.470
 6088SOL     OW19162   0.124   6.346   4.483
 6088SOL    HW119163   0.164   6.397   4.407
 6088SOL    HW219164   0.080   6.410   4.546
 6089SOL     OW19165   0.124   3.948   1.398
 6089SOL    HW119166   0.184   3.957   1.477
 6089SOL    HW219167   0.029   3.953   1.428
 6090SOL     OW19168   1.364   6.439   6.373
 6090SOL    HW119169   1.285   6.499   6.361
 6090SOL    HW219170   1.446   6.495   6.385
 6091SOL     OW19171   1.023   1.360   2.318
 6091SOL    HW119172   1.038   1.439   2.378
 6091SOL    HW219173   1.023   1.392   2.223
 6092SOL     OW19174   2.593   0.490   3.353
 6092SOL    HW119175   2.668   0.488   3.287
 6092SOL    HW219176   2.508   0.464   3.308
 6093SOL     OW19177   1.506   2.689   2.838
 6093SOL    HW119178   1.592   2.685   2.889
 6093SOL    HW219179   1.445   2.755   2.881
 6094SOL     OW19180   2.643   1.062   0.968
 6094SOL    HW119181   2.601   0.986   0.918
 6094SOL    HW219182   2.725   1.092   0.920
 6095SOL     OW19183   4.765   2.636   0.024
 6095SOL    HW119184   4.839   2.697   7.021
 6095SOL    HW219185   4.678   2.686   0.021
 6096SOL     OW19186   6.019   0.737   4.410
 6096SOL    HW119187   5.934   0.762   4.457
 6096SOL    HW219188   6.042   0.642   4.431
 6097SOL     OW19189   1.740   0.129   2.380
 6097SOL    HW119190   1.654   0.107   2.335
 6097SOL    HW219191   1.815   0.121   2.315
 6098SOL     OW19192   1.416   2.270   5.811
 6098SOL    HW119193   1.379   2.242   5.900
 6098SOL    HW219194   1.514   2.251   5.809
 6099SOL     OW19195   5.587   5.959   5.932
 6099SOL    HW119196   5.495   5.991   5.909
 6099SOL    HW219197   5.654   6.028   5.906
 6100SOL     OW19198   5.792   2.926   6.158
 6100SOL    HW119199   5.817   2.945   6.253
 6100SOL    HW219200   5.870   2.886   6.109
 6101SOL     OW19201   6.411   2.115   5.813
 6101SOL    HW119202   6.409   2.135   5.715
 6101SOL    HW219203   6.483   2.048   5.832
 6102SOL     OW19204   3.997   0.751   4.254
 6102SOL    HW119205   3.977   0.794   4.166
 6102SOL    HW219206   4.060   0.809   4.305
 6103SOL     OW19207   6.894   1.027   3.886
 6103SOL    HW119208   6.865   0.935   3.912
 6103SOL    HW219209   6.971   1.021   3.822
 6104SOL     OW19210   6.400   1.684   6.362
 6104SOL    HW119211   6.424   1.780   6.352
 6104SOL    HW219212   6.300   1.674   6.369
 6105SOL     OW19213   3.059   6.574   5.809
 6105SOL    HW119214   3.069   6.602   5.713
 6105SOL    HW219215   3.148   6.580   5.854
 6106SOL     OW19216   1.895   4.886   5.935
 6106SOL    HW119217   1.884   4.822   5.859
 6106SOL    HW219218   1.978   4.941   5.919
 6107SOL     OW19219   2.892   5.506   4.369
 6107SOL    HW119220   2.980   5.554   4.369
 6107SOL    HW219221   2.828   5.554   4.429
 6108SOL     OW19222   0.868   1.896   3.413
 6108SOL    HW119223   0.838   1.834   3.340
 6108SOL    HW219224   0.938   1.958   3.377
 6109SOL     OW19225   5.110   2.965   7.003
 6109SOL    HW119226   5.185   2.990   0.038
 6109SOL    HW219227   5.027   3.014   0.003
 6110SOL     OW19228   3.161   3.058   7.002
 6110SOL    HW119229   3.110   3.081   6.919
 6110SOL    HW219230   3.247   3.015   6.978
 6111SOL     OW19231   1.764   5.054   2.434
 6111SOL    HW119232   1.860   5.054   2.462
 6111SOL    HW219233   1.749   5.128   2.368
 6112SOL     OW19234   2.707   1.619   3.531
 6112SOL    HW119235   2.678   1.617   3.627
 6112SOL    HW219236   2.627   1.607   3.472
 6113SOL     OW19237   0.179   0.815   6.441
 6113SOL    HW119238   0.167   0.717   6.454
 6113SOL    HW219239   0.275   0.835   6.422
 6114SOL     OW19240   4.973   4.721   1.152
 6114SOL    HW119241   4.878   4.724   1.122
 6114SOL    HW219242   4.999   4.811   1.189
 6115SOL     OW19243   5.301   5.854   2.717
 6115SOL    HW119244   5.207   5.834   2.744
 6115SOL    HW219245   5.340   5.924   2.777
 6116SOL     OW19246   2.523   1.225   1.458
 6116SOL    HW119247   2.517   1.308   1.403
 6116SOL    HW219248   2.541   1.249   1.553
 6117SOL     OW19249   0.121   0.143   5.302
 6117SOL    HW119250   0.149   0.232   5.265
 6117SOL    HW219251   0.082   0.156   5.394
 6118SOL     OW19252   0.343   2.193   1.530
 6118SOL    HW119253   0.363   2.234   1.619
 6118SOL    HW219254   0.262   2.135   1.537
 6119SOL     OW19255   0.011   4.315   3.904
 6119SOL    HW119256   0.076   4.275   3.840
 6119SOL    HW219257   0.019   4.415   3.902
 6120SOL     OW19258   3.157   6.882   3.653
 6120SOL    HW119259   3.116   6.847   3.737
 6120SOL    HW219260   3.144   6.981   3.648
 6121SOL     OW19261   6.782   2.552   4.575
 6121SOL    HW119262   6.751   2.642   4.543
 6121SOL    HW219263   6.869   2.529   4.531
 6122SOL     OW19264   3.332   6.267   2.235
 6122SOL    HW119265   3.258   6.303   2.177
 6122SOL    HW219266   3.323   6.303   2.327
 6123SOL     OW19267   6.658   0.563   1.306
 6123SOL    HW119268   6.650   0.477   1.357
 6123SOL    HW219269   6.576   0.577   1.251
 6124SOL     OW19270   3.175   0.006   5.554
 6124SOL    HW119271   3.183   6.962   5.625
 6124SOL    HW219272   3.100   7.009   5.492
 6125SOL     OW19273   2.550   5.583   1.152
 6125SOL    HW119274   2.478   5.606   1.218
 6125SOL    HW219275   2.608   5.663   1.138
 6126SOL     OW19276   5.610   5.919   3.816
 6126SOL    HW119277   5.590   5.861   3.894
 6126SOL    HW219278   5.588   6.014   3.837
 6127SOL     OW19279   2.226   6.932   1.657
 6127SOL    HW119280   2.193   6.854   1.603
 6127SOL    HW219281   2.293   6.900   1.724
 6128SOL     OW19282   6.670   2.968   0.131
 6128SOL    HW119283   6.604   3.039   0.106
 6128SOL    HW219284   6.762   3.005   0.125
 6129SOL     OW19285   6.240   4.229   3.401
 6129SOL    HW119286   6.242   4.327   3.380
 6129SOL    HW219287   6.302   4.180   3.340
 6130SOL     OW19288   6.421   2.562   4.604
 6130SOL    HW119289   6.425   2.572   4.704
 6130SOL    HW219290   6.497   2.612   4.563
 6131SOL     OW19291   6.918   1.618   5.436
 6131SOL    HW119292   6.861   1.554   5.385
 6131SOL    HW219293   7.002   1.573   5.466
 6132SOL     OW19294   3.837   0.724   1.437
 6132SOL    HW119295   3.933   0.748   1.454
 6132SOL    HW219296   3.829   0.625   1.427
 6133SOL     OW19297   0.660   2.387   2.598
 6133SOL    HW119298   0.592   2.393   2.526
 6133SOL    HW219299   0.741   2.439   2.572
 6134SOL     OW19300   4.329   3.530   6.707
 6134SOL    HW119301   4.417   3.573   6.729
 6134SOL    HW219302   4.345   3.445   6.657
 6135SOL     OW19303   5.951   6.943   2.327
 6135SOL    HW119304   5.954   0.003   2.277
 6135SOL    HW219305   6.025   6.884   2.295
 6136SOL     OW19306   0.782   1.695   2.723
 6136SOL    HW119307   0.787   1.783   2.771
 6136SOL    HW219308   0.777   1.621   2.791
 6137SOL     OW19309   3.969   0.488   5.838
 6137SOL    HW119310   4.017   0.560   5.788
 6137SOL    HW219311   3.977   0.505   5.936
 6138SOL     OW19312   3.581   6.677   2.582
 6138SOL    HW119313   3.585   6.609   2.655
 6138SOL    HW219314   3.546   6.635   2.499
 6139SOL     OW19315   2.257   2.931   4.301
 6139SOL    HW119316   2.292   2.951   4.210
 6139SOL    HW219317   2.261   2.833   4.318
 6140SOL     OW19318   0.789   6.337   1.318
 6140SOL    HW119319   0.833   6.273   1.255
 6140SOL    HW219320   0.690   6.318   1.322
 6141SOL     OW19321   5.833   5.929   5.109
 6141SOL    HW119322   5.878   6.011   5.073
 6141SOL    HW219323   5.829   5.860   5.037
 6142SOL     OW19324   0.075   5.119   0.377
 6142SOL    HW119325   0.100   5.044   0.316
 6142SOL    HW219326   0.118   5.204   0.345
 6143SOL     OW19327   5.946   4.914   6.772
 6143SOL    HW119328   5.978   4.841   6.713
 6143SOL    HW219329   6.023   4.974   6.795
 6144SOL     OW19330   6.822   4.690   2.470
 6144SOL    HW119331   6.900   4.746   2.441
 6144SOL    HW219332   6.755   4.685   2.397
 6145SOL     OW19333   4.865   6.144   3.727
 6145SOL    HW119334   4.899   6.188   3.810
 6145SOL    HW219335   4.768   6.166   3.715
 6146SOL     OW19336   4.188   0.734   3.594
 6146SOL    HW119337   4.190   0.825   3.635
 6146SOL    HW219338   4.275   0.688   3.611
 6147SOL     OW19339   1.780   4.383   3.280
 6147SOL    HW119340   1.873   4.397   3.314
 6147SOL    HW219341   1.721   4.457   3.314
 6148SOL     OW19342   6.909   0.362   4.742
 6148SOL    HW119343   6.890   0.336   4.837
 6148SOL    HW219344   6.833   0.335   4.684
 6149SOL     OW19345   3.551   4.938   3.380
 6149SOL    HW119346   3.605   4.938   3.296
 6149SOL    HW219347   3.591   5.003   3.445
 6150SOL     OW19348   4.398   5.114   6.610
 6150SOL    HW119349   4.304   5.147   6.609
 6150SOL    HW219350   4.448   5.153   6.533
 6151SOL     OW19351   6.762   4.272   4.547
 6151SOL    HW119352   6.684   4.231   4.499
 6151SOL    HW219353   6.845   4.259   4.494
 6152SOL     OW19354   5.034   4.530   5.408
 6152SOL    HW119355   5.047   4.460   5.338
 6152SOL    HW219356   5.081   4.614   5.380
 6153SOL     OW19357   4.702   3.894   1.723
 6153SOL    HW119358   4.720   3.797   1.704
 6153SOL    HW219359   4.613   3.919   1.685
 6154SOL     OW19360   4.922   1.441   2.066
 6154SOL    HW119361   4.905   1.348   2.097
 6154SOL    HW219362   4.901   1.448   1.968
 6155SOL     OW19363   1.494   2.674   3.850
 6155SOL    HW119364   1.488   2.602   3.781
 6155SOL    HW219365   1.550   2.642   3.927
 6156SOL     OW19366   4.641   5.082   2.369
 6156SOL    HW119367   4.640   4.986   2.399
 6156SOL    HW219368   4.555   5.125   2.393
 6157SOL     OW19369   1.166   1.731   4.067
 6157SOL    HW119370   1.245   1.764   4.014
 6157SOL    HW219371   1.100   1.806   4.078
 6158SOL     OW19372   4.836   0.695   6.771
 6158SOL    HW119373   4.918   0.743   6.738
 6158SOL    HW219374   4.842   0.686   6.871
 6159SOL     OW19375   4.548   1.710   0.343
 6159SOL    HW119376   4.450   1.715   0.326
 6159SOL    HW219377   4.565   1.656   0.425
 6160SOL     OW19378   5.833   5.861   0.533
 6160SOL    HW119379   5.921   5.880   0.578
 6160SOL    HW219380   5.776   5.805   0.593
 6161SOL     OW19381   5.770   2.074   6.105
 6161SOL    HW119382   5.784   2.172   6.098
 6161SOL    HW219383   5.845   2.033   6.156
 6162SOL     OW19384   1.054   5.483   4.909
 6162SOL    HW119385   0.996   5.401   4.912
 6162SOL    HW219386   1.060   5.516   4.815
 6163SOL     OW19387   5.371   5.512   1.184
 6163SOL    HW119388   5.313   5.574   1.131
 6163SOL    HW219389   5.456   5.559   1.209
 6164SOL     OW19390   1.731   3.128   1.790
 6164SOL    HW119391   1.829   3.117   1.778
 6164SOL    HW219392   1.683   3.049   1.751
 6165SOL     OW19393   3.615   6.228   7.001
 6165SOL    HW119394   3.703   6.242   6.957
 6165SOL    HW219395   3.594   6.130   7.006
 6166SOL     OW19396   3.682   1.044   5.210
 6166SOL    HW119397   3.747   1.109   5.171
 6166SOL    HW219398   3.651   1.077   5.299
 6167SOL     OW19399   0.337   4.969   2.153
 6167SOL    HW119400   0.342   4.905   2.230
 6167SOL    HW219401   0.269   4.936   2.088
 6168SOL     OW19402   0.163   3.832   0.547
 6168SOL    HW119403   0.087   3.824   0.612
 6168SOL    HW219404   0.244   3.790   0.585
 6169SOL     OW19405   0.932   3.331   2.094
 6169SOL    HW119406   0.846   3.333   2.144
 6169SOL    HW219407   0.931   3.256   2.028
 6170SOL     OW19408   0.307   2.968   5.307
 6170SOL    HW119409   0.353   2.953   5.220
 6170SOL    HW219410   0.346   3.048   5.353
 6171SOL     OW19411   0.447   1.852   0.654
 6171SOL    HW119412   0.365   1.798   0.676
 6171SOL    HW219413   0.520   1.829   0.719
 6172SOL     OW19414   0.865   2.558   2.563
 6172SOL    HW119415   0.841   2.614   2.642
 6172SOL    HW219416   0.907   2.616   2.493
 6173SOL     OW19417   6.846   5.533   2.735
 6173SOL    HW119418   6.903   5.609   2.766
 6173SOL    HW219419   6.849   5.460   2.803
 6174SOL     OW19420   4.456   4.808   3.354
 6174SOL    HW119421   4.503   4.809   3.266
 6174SOL    HW219422   4.405   4.893   3.366
 6175SOL     OW19423   3.509   0.831   4.537
 6175SOL    HW119424   3.544   0.784   4.456
 6175SOL    HW219425   3.466   0.764   4.598
 6176SOL     OW19426   4.568   3.375   5.353
 6176SOL    HW119427   4.613   3.436   5.288
 6176SOL    HW219428   4.606   3.283   5.345
 6177SOL     OW19429   4.992   2.009   1.825
 6177SOL    HW119430   5.063   1.965   1.879
 6177SOL    HW219431   4.983   2.105   1.854
 6178SOL     OW19432   4.834   4.032   1.928
 6178SOL    HW119433   4.782   3.984   1.857
 6178SOL    HW219434   4.921   4.063   1.890
 6179SOL     OW19435   6.789   4.604   1.563
 6179SOL    HW119436   6.846   4.670   1.514
 6179SOL    HW219437   6.832   4.582   1.651
 6180SOL     OW19438   3.346   4.568   0.513
 6180SOL    HW119439   3.414   4.639   0.492
 6180SOL    HW219440   3.291   4.550   0.431
 6181SOL     OW19441   4.932   6.100   6.093
 6181SOL    HW119442   4.986   6.172   6.135
 6181SOL    HW219443   4.992   6.040   6.040
 6182SOL     OW19444   4.462   2.366   6.956
 6182SOL    HW119445   4.472   2.465   6.946
 6182SOL    HW219446   4.434   2.326   6.868
 6183SOL     OW19447   1.672   2.312   1.395
 6183SOL    HW119448   1.761   2.285   1.357
 6183SOL    HW219449   1.668   2.285   1.491
 6184SOL     OW19450   2.804   0.389   6.042
 6184SOL    HW119451   2.746   0.373   5.962
 6184SOL    HW219452   2.775   0.474   6.087
 6185SOL     OW19453   2.663   4.337   5.717
 6185SOL    HW119454   2.733   4.276   5.753
 6185SOL    HW219455   2.572   4.300   5.736
 6186SOL     OW19456   0.094   1.642   2.109
 6186SOL    HW119457   0.035   1.603   2.038
 6186SOL    HW219458   0.121   1.570   2.173
 6187SOL     OW19459   4.630   2.759   4.956
 6187SOL    HW119460   4.578   2.728   4.876
 6187SOL    HW219461   4.728   2.750   4.937
 6188SOL     OW19462   1.506   1.636   5.610
 6188SOL    HW119463   1.514   1.614   5.513
 6188SOL    HW219464   1.556   1.720   5.629
 6189SOL     OW19465   4.125   5.435   2.658
 6189SOL    HW119466   4.101   5.446   2.562
 6189SOL    HW219467   4.130   5.525   2.702
 6190SOL     OW19468   6.421   3.360   5.685
 6190SOL    HW119469   6.441   3.269   5.648
 6190SOL    HW219470   6.349   3.353   5.754
 6191SOL     OW19471   2.264   3.019   5.628
 6191SOL    HW119472   2.303   3.111   5.630
 6191SOL    HW219473   2.215   3.002   5.714
 6192SOL     OW19474   2.147   2.163   5.965
 6192SOL    HW119475   2.144   2.259   5.939
 6192SOL    HW219476   2.129   2.106   5.885
 6193SOL     OW19477   5.023   5.640   0.627
 6193SOL    HW119478   5.108   5.663   0.673
 6193SOL    HW219479   4.979   5.563   0.674
 6194SOL     OW19480   6.703   0.829   6.569
 6194SOL    HW119481   6.637   0.896   6.603
 6194SOL    HW219482   6.714   0.840   6.470
 6195SOL     OW19483   5.732   6.653   4.934
 6195SOL    HW119484   5.634   6.670   4.949
 6195SOL    HW219485   5.768   6.597   5.008
 6196SOL     OW19486   5.381   4.395   3.209
 6196SOL    HW119487   5.361   4.297   3.207
 6196SOL    HW219488   5.296   4.446   3.193
 6197SOL     OW19489   2.356   5.121   2.949
 6197SOL    HW119490   2.398   5.066   2.877
 6197SOL    HW219491   2.326   5.209   2.910
 6198SOL     OW19492   5.991   6.200   6.924
 6198SOL    HW119493   5.982   6.295   6.953
 6198SOL    HW219494   5.968   6.139   7.000
 6199SOL     OW19495   0.551   0.804   0.547
 6199SOL    HW119496   0.549   0.903   0.537
 6199SOL    HW219497   0.588   0.763   0.464
 6200SOL     OW19498   1.035   1.105   2.566
 6200SOL    HW119499   0.954   1.065   2.609
 6200SOL    HW219500   1.080   1.166   2.631
 6201SOL     OW19501   0.784   4.517   4.359
 6201SOL    HW119502   0.778   4.615   4.338
 6201SOL    HW219503   0.865   4.478   4.316
 6202SOL     OW19504   6.193   1.777   3.241
 6202SOL    HW119505   6.110   1.818   3.279
 6202SOL    HW219506   6.202   1.802   3.145
 6203SOL     OW19507   5.937   5.620   2.002
 6203SOL    HW119508   5.947   5.676   1.919
 6203SOL    HW219509   6.017   5.633   2.061
 6204SOL     OW19510   1.380   6.063   4.836
 6204SOL    HW119511   1.377   5.992   4.766
 6204SOL    HW219512   1.464   6.055   4.888
 6205SOL     OW19513   4.618   4.887   2.011
 6205SOL    HW119514   4.548   4.872   1.941
 6205SOL    HW219515   4.587   4.852   2.099
 6206SOL     OW19516   4.678   2.040   3.520
 6206SOL    HW119517   4.675   2.131   3.562
 6206SOL    HW219518   4.720   1.976   3.583
 6207SOL     OW19519   1.746   6.188   4.057
 6207SOL    HW119520   1.665   6.182   4.115
 6207SOL    HW219521   1.804   6.108   4.071
 6208SOL     OW19522   3.377   2.365   5.852
 6208SOL    HW119523   3.408   2.455   5.883
 6208SOL    HW219524   3.314   2.376   5.776
 6209SOL     OW19525   3.296   4.408   1.146
 6209SOL    HW119526   3.265   4.395   1.240
 6209SOL    HW219527   3.246   4.345   1.086
 6210SOL     OW19528   5.169   3.662   2.908
 6210SOL    HW119529   5.216   3.693   2.991
 6210SOL    HW219530   5.236   3.635   2.840
 6211SOL     OW19531   4.401   5.626   5.852
 6211SOL    HW119532   4.422   5.635   5.754
 6211SOL    HW219533   4.302   5.632   5.865
 6212SOL     OW19534   2.315   4.643   4.385
 6212SOL    HW119535   2.286   4.622   4.292
 6212SOL    HW219536   2.411   4.619   4.397
 6213SOL     OW19537   5.121   6.698   0.415
 6213SOL    HW119538   5.208   6.748   0.414
 6213SOL    HW219539   5.056   6.744   0.355
 6214SOL     OW19540   5.291   5.565   5.957
 6214SOL    HW119541   5.207   5.601   5.997
 6214SOL    HW219542   5.309   5.613   5.871
 6215SOL     OW19543   5.202   3.031   6.635
 6215SOL    HW119544   5.131   2.962   6.645
 6215SOL    HW219545   5.276   2.994   6.579
 6216SOL     OW19546   6.266   2.852   3.253
 6216SOL    HW119547   6.203   2.826   3.326
 6216SOL    HW219548   6.321   2.773   3.226
 6217SOL     OW19549   0.384   4.486   1.954
 6217SOL    HW119550   0.433   4.466   2.039
 6217SOL    HW219551   0.345   4.402   1.917
 6218SOL     OW19552   4.773   6.577   0.290
 6218SOL    HW119553   4.728   6.666   0.299
 6218SOL    HW219554   4.706   6.508   0.266
 6219SOL     OW19555   1.755   0.843   5.104
 6219SOL    HW119556   1.696   0.920   5.078
 6219SOL    HW219557   1.736   0.765   5.045
 6220SOL     OW19558   3.376   0.932   0.364
 6220SOL    HW119559   3.406   0.868   0.294
 6220SOL    HW219560   3.362   0.883   0.450
 6221SOL     OW19561   6.344   6.214   6.555
 6221SOL    HW119562   6.402   6.247   6.480
 6221SOL    HW219563   6.403   6.183   6.630
 6222SOL     OW19564   5.694   1.219   2.341
 6222SOL    HW119565   5.668   1.295   2.282
 6222SOL    HW219566   5.675   1.133   2.293
 6223SOL     OW19567   0.772   5.333   3.927
 6223SOL    HW119568   0.726   5.420   3.909
 6223SOL    HW219569   0.782   5.320   4.026
 6224SOL     OW19570   4.494   0.816   6.379
 6224SOL    HW119571   4.437   0.736   6.399
 6224SOL    HW219572   4.443   0.880   6.322
 6225SOL     OW19573   3.880   1.255   6.385
 6225SOL    HW119574   3.880   1.293   6.477
 6225SOL    HW219575   3.974   1.249   6.351
 6226SOL     OW19576   1.347   1.708   3.849
 6226SOL    HW119577   1.439   1.729   3.883
 6226SOL    HW219578   1.336   1.609   3.843
 6227SOL     OW19579   3.100   4.619   5.376
 6227SOL    HW119580   3.041   4.582   5.305
 6227SOL    HW219581   3.157   4.692   5.338
 6228SOL     OW19582   1.181   2.723   3.821
 6228SOL    HW119583   1.273   2.755   3.799
 6228SOL    HW219584   1.115   2.795   3.802
 6229SOL     OW19585   6.964   3.086   4.844
 6229SOL    HW119586   7.016   3.011   4.884
 6229SOL    HW219587   6.970   3.166   4.903
 6230SOL     OW19588   0.719   1.291   3.137
 6230SOL    HW119589   0.735   1.386   3.110
 6230SOL    HW219590   0.802   1.237   3.120
 6231SOL     OW19591   5.792   4.646   0.386
 6231SOL    HW119592   5.705   4.695   0.391
 6231SOL    HW219593   5.829   4.654   0.294
 6232SOL     OW19594   6.343   0.756   0.814
 6232SOL    HW119595   6.335   0.745   0.715
 6232SOL    HW219596   6.398   0.838   0.834
 6233SOL     OW19597   0.207   3.440   2.123
 6233SOL    HW119598   0.299   3.438   2.084
 6233SOL    HW219599   0.197   3.522   2.179
 6234SOL     OW19600   0.263   0.442   4.755
 6234SOL    HW119601   0.288   0.538   4.748
 6234SOL    HW219602   0.277   0.397   4.667
 6235SOL     OW19603   6.798   0.647   2.101
 6235SOL    HW119604   6.851   0.562   2.096
 6235SOL    HW219605   6.839   0.716   2.041
 6236SOL     OW19606   0.598   3.900   0.601
 6236SOL    HW119607   0.596   3.999   0.615
 6236SOL    HW219608   0.531   3.875   0.531
 6237SOL     OW19609   3.627   6.720   0.476
 6237SOL    HW119610   3.547   6.759   0.431
 6237SOL    HW219611   3.603   6.692   0.569
 6238SOL     OW19612   3.256   6.565   3.572
 6238SOL    HW119613   3.189   6.578   3.645
 6238SOL    HW219614   3.212   6.581   3.484
 6239SOL     OW19615   3.606   6.849   1.909
 6239SOL    HW119616   3.616   6.948   1.896
 6239SOL    HW219617   3.697   6.806   1.909
 6240SOL     OW19618   2.869   3.821   5.046
 6240SOL    HW119619   2.818   3.787   5.125
 6240SOL    HW219620   2.811   3.882   4.992
 6241SOL     OW19621   3.841   0.029   4.020
 6241SOL    HW119622   3.783   7.008   3.953
 6241SOL    HW219623   3.887   6.988   4.077
 6242SOL     OW19624   2.524   2.116   2.916
 6242SOL    HW119625   2.454   2.122   2.844
 6242SOL    HW219626   2.609   2.157   2.883
 6243SOL     OW19627   6.604   0.710   5.757
 6243SOL    HW119628   6.629   0.677   5.848
 6243SOL    HW219629   6.567   0.802   5.764
 6244SOL     OW19630   4.733   4.119   2.505
 6244SOL    HW119631   4.783   4.037   2.535
 6244SOL    HW219632   4.718   4.115   2.407
 6245SOL     OW19633   0.909   4.867   2.015
 6245SOL    HW119634   0.909   4.930   2.093
 6245SOL    HW219635   0.815   4.838   1.995
 6246SOL     OW19636   1.589   6.885   4.666
 6246SOL    HW119637   1.571   6.797   4.621
 6246SOL    HW219638   1.514   6.906   4.729
 6247SOL     OW19639   0.510   5.121   3.538
 6247SOL    HW119640   0.581   5.075   3.590
 6247SOL    HW219641   0.511   5.088   3.443
 6248SOL     OW19642   3.969   3.271   6.843
 6248SOL    HW119643   3.942   3.203   6.911
 6248SOL    HW219644   3.898   3.341   6.836
 6249SOL     OW19645   0.042   2.587   1.500
 6249SOL    HW119646   0.016   2.635   1.417
 6249SOL    HW219647   7.007   2.509   1.515
 6250SOL     OW19648   0.256   6.828   0.784
 6250SOL    HW119649   0.252   6.926   0.765
 6250SOL    HW219650   0.174   6.783   0.750
 6251SOL     OW19651   3.214   6.611   4.679
 6251SOL    HW119652   3.140   6.658   4.632
 6251SOL    HW219653   3.180   6.525   4.718
 6252SOL     OW19654   2.677   4.889   6.871
 6252SOL    HW119655   2.673   4.984   6.902
 6252SOL    HW219656   2.702   4.886   6.774
 6253SOL     OW19657   2.649   4.828   4.591
 6253SOL    HW119658   2.624   4.925   4.592
 6253SOL    HW219659   2.719   4.810   4.660
 6254SOL     OW19660   0.682   5.977   0.797
 6254SOL    HW119661   0.688   5.891   0.746
 6254SOL    HW219662   0.607   6.033   0.761
 6255SOL     OW19663   1.954   2.436   0.867
 6255SOL    HW119664   1.862   2.419   0.902
 6255SOL    HW219665   1.976   2.533   0.876
 6256SOL     OW19666   4.737   5.987   2.663
 6256SOL    HW119667   4.737   5.930   2.746
 6256SOL    HW219668   4.667   5.953   2.600
 6257SOL     OW19669   4.294   3.593   0.570
 6257SOL    HW119670   4.195   3.607   0.572
 6257SOL    HW219671   4.319   3.521   0.635
 6258SOL     OW19672   3.851   6.888   6.014
 6258SOL    HW119673   3.779   6.937   5.964
 6258SOL    HW219674   3.911   6.842   5.949
 6259SOL     OW19675   1.225   0.908   5.753
 6259SOL    HW119676   1.318   0.870   5.753
 6259SOL    HW219677   1.205   0.948   5.842
 6260SOL     OW19678   1.571   0.537   0.375
 6260SOL    HW119679   1.595   0.514   0.281
 6260SOL    HW219680   1.472   0.550   0.382
 6261SOL     OW19681   5.341   0.298   1.458
 6261SOL    HW119682   5.427   0.277   1.504
 6261SOL    HW219683   5.322   0.396   1.466
 6262SOL     OW19684   6.658   6.265   2.704
 6262SOL    HW119685   6.738   6.298   2.753
 6262SOL    HW219686   6.687   6.223   2.617
 6263SOL     OW19687   7.012   6.540   4.632
 6263SOL    HW119688   6.918   6.568   4.612
 6263SOL    HW219689   7.017   6.506   4.726
 6264SOL     OW19690   0.880   6.771   1.234
 6264SOL    HW119691   0.848   6.700   1.171
 6264SOL    HW219692   0.895   6.731   1.324
 6265SOL     OW19693   3.760   3.065   0.816
 6265SOL    HW119694   3.835   3.104   0.870
 6265SOL    HW219695   3.790   3.051   0.722
 6266SOL     OW19696   3.495   6.382   3.135
 6266SOL    HW119697   3.510   6.473   3.097
 6266SOL    HW219698   3.477   6.389   3.233
 6267SOL     OW19699   1.517   6.306   5.193
 6267SOL    HW119700   1.573   6.388   5.181
 6267SOL    HW219701   1.434   6.329   5.245
 6268SOL     OW19702   3.859   0.163   2.062
 6268SOL    HW119703   3.845   0.260   2.082
 6268SOL    HW219704   3.840   0.109   2.144
 6269SOL     OW19705   5.613   5.907   1.311
 6269SOL    HW119706   5.678   5.943   1.244
 6269SOL    HW219707   5.561   5.982   1.351
 6270SOL     OW19708   0.888   6.433   0.153
 6270SOL    HW119709   0.874   6.374   0.074
 6270SOL    HW219710   0.819   6.413   0.223
 6271SOL     OW19711   5.655   2.741   6.502
 6271SOL    HW119712   5.626   2.653   6.538
 6271SOL    HW219713   5.613   2.757   6.413
 6272SOL     OW19714   6.670   0.408   6.323
 6272SOL    HW119715   6.739   0.446   6.385
 6272SOL    HW219716   6.654   0.312   6.346
 6273SOL     OW19717   0.176   6.170   2.738
 6273SOL    HW119718   0.170   6.170   2.837
 6273SOL    HW219719   0.268   6.143   2.709
 6274SOL     OW19720   3.054   6.508   5.062
 6274SOL    HW119721   3.001   6.431   5.099
 6274SOL    HW219722   3.079   6.488   4.967
 6275SOL     OW19723   2.329   5.721   0.417
 6275SOL    HW119724   2.410   5.671   0.446
 6275SOL    HW219725   2.355   5.796   0.357
 6276SOL     OW19726   3.561   5.748   3.110
 6276SOL    HW119727   3.612   5.749   3.024
 6276SOL    HW219728   3.618   5.708   3.182
 6277SOL     OW19729   4.811   1.823   1.729
 6277SOL    HW119730   4.873   1.901   1.740
 6277SOL    HW219731   4.862   1.745   1.694
 6278SOL     OW19732   3.408   6.871   5.890
 6278SOL    HW119733   3.318   6.876   5.932
 6278SOL    HW219734   3.413   6.791   5.830
 6279SOL     OW19735   3.125   5.522   1.048
 6279SOL    HW119736   3.104   5.463   1.126
 6279SOL    HW219737   3.153   5.465   0.971
 6280SOL     OW19738   6.285   1.870   0.084
 6280SOL    HW119739   6.332   1.936   0.144
 6280SOL    HW219740   6.290   1.902   7.016
 6281SOL     OW19741   5.923   4.339   4.375
 6281SOL    HW119742   5.909   4.255   4.322
 6281SOL    HW219743   6.017   4.341   4.409
 6282SOL     OW19744   6.760   3.846   5.512
 6282SOL    HW119745   6.752   3.802   5.602
 6282SOL    HW219746   6.676   3.828   5.459
 6283SOL     OW19747   0.883   5.575   5.244
 6283SOL    HW119748   0.937   5.638   5.300
 6283SOL    HW219749   0.873   5.612   5.152
 6284SOL     OW19750   1.192   4.682   6.837
 6284SOL    HW119751   1.111   4.624   6.848
 6284SOL    HW219752   1.173   4.756   6.773
 6285SOL     OW19753   1.934   3.609   3.502
 6285SOL    HW119754   1.872   3.639   3.574
 6285SOL    HW219755   2.000   3.681   3.482
 6286SOL     OW19756   0.219   3.576   4.643
 6286SOL    HW119757   0.294   3.511   4.654
 6286SOL    HW219758   0.250   3.668   4.667
 6287SOL     OW19759   4.165   4.576   5.380
 6287SOL    HW119760   4.200   4.532   5.297
 6287SOL    HW219761   4.172   4.512   5.457
 6288SOL     OW19762   4.119   3.653   6.993
 6288SOL    HW119763   4.135   3.685   0.059
 6288SOL    HW219764   4.165   3.565   6.980
 6289SOL     OW19765   2.626   4.232   6.664
 6289SOL    HW119766   2.717   4.192   6.662
 6289SOL    HW219767   2.617   4.290   6.745
 6290SOL     OW19768   5.984   5.477   6.563
 6290SOL    HW119769   6.006   5.569   6.533
 6290SOL    HW219770   5.934   5.429   6.491
 6291SOL     OW19771   3.336   2.920   3.032
 6291SOL    HW119772   3.395   3.000   3.028
 6291SOL    HW219773   3.270   2.930   3.107
 6292SOL     OW19774   1.768   2.230   4.752
 6292SOL    HW119775   1.844   2.175   4.785
 6292SOL    HW219776   1.713   2.177   4.689
 6293SOL     OW19777   4.609   1.560   0.555
 6293SOL    HW119778   4.704   1.532   0.539
 6293SOL    HW219779   4.575   1.514   0.638
 6294SOL     OW19780   3.552   1.036   3.740
 6294SOL    HW119781   3.571   0.952   3.791
 6294SOL    HW219782   3.528   1.109   3.803
 6295SOL     OW19783   5.198   5.146   4.668
 6295SOL    HW119784   5.105   5.151   4.631
 6295SOL    HW219785   5.225   5.235   4.705
 6296SOL     OW19786   0.473   3.479   5.814
 6296SOL    HW119787   0.503   3.509   5.723
 6296SOL    HW219788   0.455   3.559   5.871
 6297SOL     OW19789   6.013   0.359   4.759
 6297SOL    HW119790   5.946   0.402   4.698
 6297SOL    HW219791   5.985   0.264   4.776
 6298SOL     OW19792   5.548   4.207   6.707
 6298SOL    HW119793   5.557   4.146   6.786
 6298SOL    HW219794   5.588   4.163   6.626
 6299SOL     OW19795   5.072   2.652   2.664
 6299SOL    HW119796   5.114   2.674   2.752
 6299SOL    HW219797   5.112   2.569   2.627
 6300SOL     OW19798   4.258   0.797   6.611
 6300SOL    HW119799   4.249   0.737   6.531
 6300SOL    HW219800   4.250   0.892   6.582
 6301SOL     OW19801   3.018   6.466   6.729
 6301SOL    HW119802   3.085   6.402   6.694
 6301SOL    HW219803   3.065   6.544   6.770
 6302SOL     OW19804   2.114   1.642   5.908
 6302SOL    HW119805   2.100   1.595   5.996
 6302SOL    HW219806   2.160   1.729   5.924
 6303SOL     OW19807   1.004   6.433   5.487
 6303SOL    HW119808   1.029   6.493   5.411
 6303SOL    HW219809   0.906   6.442   5.506
 6304SOL     OW19810   3.981   1.113   3.424
 6304SOL    HW119811   3.951   1.020   3.447
 6304SOL    HW219812   3.938   1.142   3.339
 6305SOL     OW19813   6.355   5.461   6.103
 6305SOL    HW119814   6.385   5.373   6.066
 6305SOL    HW219815   6.332   5.522   6.027
 6306SOL     OW19816   0.764   3.786   3.971
 6306SOL    HW119817   0.821   3.844   3.912
 6306SOL    HW219818   0.792   3.797   4.066
 6307SOL     OW19819   3.815   4.014   3.905
 6307SOL    HW119820   3.868   4.049   3.983
 6307SOL    HW219821   3.867   3.942   3.860
 6308SOL     OW19822   0.312   2.307   5.654
 6308SOL    HW119823   0.322   2.361   5.570
 6308SOL    HW219824   0.296   2.369   5.731
 6309SOL     OW19825   0.826   6.743   4.352
 6309SOL    HW119826   0.817   6.823   4.292
 6309SOL    HW219827   0.865   6.667   4.299
 6310SOL     OW19828   1.543   6.758   3.305
 6310SOL    HW119829   1.586   6.828   3.248
 6310SOL    HW219830   1.511   6.683   3.247
 6311SOL     OW19831   5.053   0.965   6.812
 6311SOL    HW119832   5.056   0.898   6.738
 6311SOL    HW219833   4.967   1.015   6.807
 6312SOL     OW19834   2.797   6.722   6.481
 6312SOL    HW119835   2.822   6.625   6.482
 6312SOL    HW219836   2.742   6.741   6.400
 6313SOL     OW19837   5.601   6.177   3.284
 6313SOL    HW119838   5.633   6.189   3.378
 6313SOL    HW219839   5.533   6.247   3.262
 6314SOL     OW19840   3.219   0.084   1.284
 6314SOL    HW119841   3.207   0.138   1.367
 6314SOL    HW219842   3.264   7.025   1.306
 6315SOL     OW19843   1.985   2.614   4.395
 6315SOL    HW119844   1.951   2.677   4.465
 6315SOL    HW219845   2.004   2.665   4.311
 6316SOL     OW19846   4.407   1.892   5.731
 6316SOL    HW119847   4.504   1.875   5.748
 6316SOL    HW219848   4.384   1.986   5.757
 6317SOL     OW19849   5.223   4.234   2.521
 6317SOL    HW119850   5.124   4.248   2.509
 6317SOL    HW219851   5.248   4.256   2.615
 6318SOL     OW19852   6.542   0.157   6.663
 6318SOL    HW119853   6.606   0.126   6.733
 6318SOL    HW219854   6.583   0.144   6.573
 6319SOL     OW19855   5.957   2.414   4.913
 6319SOL    HW119856   5.860   2.435   4.901
 6319SOL    HW219857   6.008   2.445   4.833
 6320SOL     OW19858   0.861   0.786   3.638
 6320SOL    HW119859   0.792   0.826   3.578
 6320SOL    HW219860   0.896   0.702   3.596
 6321SOL     OW19861   5.263   2.829   0.627
 6321SOL    HW119862   5.318   2.759   0.672
 6321SOL    HW219863   5.203   2.873   0.695
 6322SOL     OW19864   2.400   1.740   0.424
 6322SOL    HW119865   2.469   1.796   0.378
 6322SOL    HW219866   2.328   1.799   0.461
 6323SOL     OW19867   2.878   2.972   1.186
 6323SOL    HW119868   2.955   3.028   1.155
 6323SOL    HW219869   2.905   2.921   1.267
 6324SOL     OW19870   4.743   1.231   1.024
 6324SOL    HW119871   4.684   1.187   0.957
 6324SOL    HW219872   4.688   1.264   1.101
 6325SOL     OW19873   1.638   2.697   2.442
 6325SOL    HW119874   1.698   2.762   2.394
 6325SOL    HW219875   1.554   2.685   2.390
 6326SOL     OW19876   4.565   4.726   5.636
 6326SOL    HW119877   4.591   4.789   5.709
 6326SOL    HW219878   4.645   4.675   5.606
 6327SOL     OW19879   0.432   1.933   3.627
 6327SOL    HW119880   0.523   1.975   3.623
 6327SOL    HW219881   0.397   1.938   3.720
 6328SOL     OW19882   4.901   4.230   6.237
 6328SOL    HW119883   4.850   4.202   6.318
 6328SOL    HW219884   4.991   4.265   6.264
 6329SOL     OW19885   1.086   2.845   5.080
 6329SOL    HW119886   1.065   2.752   5.052
 6329SOL    HW219887   1.153   2.844   5.155
 6330SOL     OW19888   5.743   0.725   3.427
 6330SOL    HW119889   5.677   0.797   3.449
 6330SOL    HW219890   5.737   0.652   3.495
 6331SOL     OW19891   6.267   3.011   4.842
 6331SOL    HW119892   6.259   2.969   4.932
 6331SOL    HW219893   6.214   3.096   4.840
 6332SOL     OW19894   1.818   1.598   1.402
 6332SOL    HW119895   1.895   1.652   1.436
 6332SOL    HW219896   1.852   1.510   1.368
 6333SOL     OW19897   4.868   0.104   0.458
 6333SOL    HW119898   4.919   0.147   0.383
 6333SOL    HW219899   4.850   0.172   0.529
 6334SOL     OW19900   2.283   1.859   1.707
 6334SOL    HW119901   2.317   1.837   1.615
 6334SOL    HW219902   2.350   1.915   1.755
 6335SOL     OW19903   5.429   0.990   1.053
 6335SOL    HW119904   5.330   0.976   1.047
 6335SOL    HW219905   5.449   1.063   1.118
 6336SOL     OW19906   6.643   4.631   6.173
 6336SOL    HW119907   6.656   4.716   6.121
 6336SOL    HW219908   6.710   4.564   6.142
 6337SOL     OW19909   4.246   5.599   4.924
 6337SOL    HW119910   4.291   5.510   4.933
 6337SOL    HW219911   4.249   5.629   4.829
 6338SOL     OW19912   3.116   2.168   4.390
 6338SOL    HW119913   3.216   2.166   4.384
 6338SOL    HW219914   3.077   2.198   4.303
 6339SOL     OW19915   0.636   3.273   2.588
 6339SOL    HW119916   0.558   3.212   2.573
 6339SOL    HW219917   0.703   3.260   2.515
 6340SOL     OW19918   2.750   3.966   1.450
 6340SOL    HW119919   2.770   3.887   1.393
 6340SOL    HW219920   2.835   4.001   1.489
 6341SOL     OW19921   1.195   3.572   3.377
 6341SOL    HW119922   1.250   3.617   3.447
 6341SOL    HW219923   1.229   3.596   3.286
 6342SOL     OW19924   2.426   1.017   1.302
 6342SOL    HW119925   2.359   1.058   1.241
 6342SOL    HW219926   2.467   1.088   1.359
 6343SOL     OW19927   3.514   6.424   0.156
 6343SOL    HW119928   3.535   6.348   0.094
 6343SOL    HW219929   3.447   6.393   0.224
 6344SOL     OW19930   5.841   2.829   4.099
 6344SOL    HW119931   5.826   2.747   4.043
 6344SOL    HW219932   5.899   2.806   4.177
 6345SOL     OW19933   4.986   3.409   1.973
 6345SOL    HW119934   4.991   3.381   1.877
 6345SOL    HW219935   4.964   3.506   1.979
 6346SOL     OW19936   0.041   4.158   5.510
 6346SOL    HW119937   6.968   4.157   5.502
 6346SOL    HW219938   0.072   4.252   5.527
 6347SOL     OW19939   2.619   2.351   2.374
 6347SOL    HW119940   2.550   2.350   2.302
 6347SOL    HW219941   2.621   2.440   2.418
 6348SOL     OW19942   0.389   1.847   5.992
 6348SOL    HW119943   0.371   1.750   6.003
 6348SOL    HW219944   0.473   1.860   5.939
 6349SOL     OW19945   1.480   0.232   0.149
 6349SOL    HW119946   1.427   0.161   0.195
 6349SOL    HW219947   1.425   0.272   0.075
 6350SOL     OW19948   1.033   4.915   2.729
 6350SOL    HW119949   1.022   4.820   2.699
 6350SOL    HW219950   0.974   4.933   2.807
 6351SOL     OW19951   6.305   4.318   3.693
 6351SOL    HW119952   6.249   4.268   3.626
 6351SOL    HW219953   6.373   4.256   3.733
 6352SOL     OW19954   2.611   0.422   4.298
 6352SOL    HW119955   2.656   0.511   4.299
 6352SOL    HW219956   2.575   0.402   4.390
 6353SOL     OW19957   2.489   5.213   0.067
 6353SOL    HW119958   2.435   5.286   0.025
 6353SOL    HW219959   2.429   5.153   0.120
 6354SOL     OW19960   4.908   5.174   2.905
 6354SOL    HW119961   4.950   5.097   2.952
 6354SOL    HW219962   4.828   5.142   2.855
 6355SOL     OW19963   2.637   5.226   0.839
 6355SOL    HW119964   2.573   5.244   0.764
 6355SOL    HW219965   2.731   5.229   0.804
 6356SOL     OW19966   5.077   5.064   6.900
 6356SOL    HW119967   5.065   5.044   6.803
 6356SOL    HW219968   5.120   4.986   6.945
 6357SOL     OW19969   5.693   1.955   1.249
 6357SOL    HW119970   5.652   1.951   1.158
 6357SOL    HW219971   5.628   1.995   1.314
 6358SOL     OW19972   0.643   1.576   6.712
 6358SOL    HW119973   0.597   1.645   6.655
 6358SOL    HW219974   0.738   1.566   6.682
 6359SOL     OW19975   6.287   6.723   0.627
 6359SOL    HW119976   6.288   6.671   0.542
 6359SOL    HW219977   6.315   6.664   0.703
 6360SOL     OW19978   6.997   2.616   3.614
 6360SOL    HW119979   6.907   2.601   3.572
 6360SOL    HW219980   7.001   2.707   3.653
 6361SOL     OW19981   0.576   0.734   0.256
 6361SOL    HW119982   0.663   0.783   0.246
 6361SOL    HW219983   0.526   0.739   0.170
 6362SOL     OW19984   1.089   6.319   6.616
 6362SOL    HW119985   1.093   6.412   6.652
 6362SOL    HW219986   1.062   6.321   6.520
 6363SOL     OW19987   2.688   5.280   3.527
 6363SOL    HW119988   2.728   5.343   3.593
 6363SOL    HW219989   2.759   5.249   3.463
 6364SOL     OW19990   2.205   2.418   5.007
 6364SOL    HW119991   2.280   2.479   5.033
 6364SOL    HW219992   2.150   2.396   5.087
 6365SOL     OW19993   6.167   5.695   4.801
 6365SOL    HW119994   6.205   5.762   4.737
 6365SOL    HW219995   6.067   5.705   4.803
 6366SOL     OW19996   5.974   6.640   4.392
 6366SOL    HW119997   5.990   6.571   4.463
 6366SOL    HW219998   6.018   6.726   4.418
 6367SOL     OW19999   2.859   1.734   2.843
 6367SOL    HW120000   2.846   1.735   2.942
 6367SOL    HW220001   2.796   1.800   2.800
 6368SOL     OW20002   4.568   4.355   4.096
 6368SOL    HW120003   4.543   4.451   4.111
 6368SOL    HW220004   4.597   4.314   4.182
 6369SOL     OW20005   2.374   5.765   5.872
 6369SOL    HW120006   2.449   5.703   5.892
 6369SOL    HW220007   2.329   5.737   5.787
 6370SOL     OW20008   5.265   3.878   3.477
 6370SOL    HW120009   5.300   3.790   3.445
 6370SOL    HW220010   5.173   3.892   3.442
 6371SOL     OW20011   5.582   3.851   1.952
 6371SOL    HW120012   5.494   3.899   1.943
 6371SOL    HW220013   5.631   3.856   1.865
 6372SOL     OW20014   0.300   0.973   2.723
 6372SOL    HW120015   0.339   0.991   2.633
 6372SOL    HW220016   0.371   0.938   2.784
 6373SOL     OW20017   5.622   4.099   1.514
 6373SOL    HW120018   5.667   4.168   1.458
 6373SOL    HW220019   5.533   4.075   1.474
 6374SOL     OW20020   4.658   3.147   0.315
 6374SOL    HW120021   4.653   3.133   0.414
 6374SOL    HW220022   4.707   3.070   0.274
 6375SOL     OW20023   0.500   2.421   2.117
 6375SOL    HW120024   0.574   2.487   2.107
 6375SOL    HW220025   0.502   2.382   2.209
 6376SOL     OW20026   4.674   0.806   5.703
 6376SOL    HW120027   4.597   0.822   5.765
 6376SOL    HW220028   4.751   0.769   5.754
 6377SOL     OW20029   6.897   0.569   6.441
 6377SOL    HW120030   6.882   0.649   6.382
 6377SOL    HW220031   6.987   0.530   6.422
 6378SOL     OW20032   5.019   5.787   2.800
 6378SOL    HW120033   4.925   5.805   2.771
 6378SOL    HW220034   5.046   5.696   2.771
 6379SOL     OW20035   1.841   5.549   5.846
 6379SOL    HW120036   1.906   5.473   5.849
 6379SOL    HW220037   1.856   5.609   5.924
 6380SOL     OW20038   0.693   3.248   4.562
 6380SOL    HW120039   0.763   3.307   4.604
 6380SOL    HW220040   0.616   3.238   4.625
 6381SOL     OW20041   3.871   2.998   0.543
 6381SOL    HW120042   3.853   3.081   0.492
 6381SOL    HW220043   3.962   2.963   0.520
 6382SOL     OW20044   2.713   1.963   1.309
 6382SOL    HW120045   2.680   1.881   1.356
 6382SOL    HW220046   2.776   1.937   1.236
 6383SOL     OW20047   1.833   2.961   2.582
 6383SOL    HW120048   1.833   3.052   2.541
 6383SOL    HW220049   1.763   2.905   2.538
 6384SOL     OW20050   5.918   2.451   2.250
 6384SOL    HW120051   5.823   2.451   2.221
 6384SOL    HW220052   5.975   2.490   2.178
 6385SOL     OW20053   6.760   3.937   0.944
 6385SOL    HW120054   6.771   3.953   0.846
 6385SOL    HW220055   6.787   4.018   0.995
 6386SOL     OW20056   1.962   3.886   0.537
 6386SOL    HW120057   1.973   3.881   0.637
 6386SOL    HW220058   2.039   3.936   0.497
 6387SOL     OW20059   6.200   1.296   0.217
 6387SOL    HW120060   6.208   1.394   0.237
 6387SOL    HW220061   6.112   1.263   0.250
 6388SOL     OW20062   6.567   5.073   2.679
 6388SOL    HW120063   6.541   5.129   2.600
 6388SOL    HW220064   6.655   5.029   2.661
 6389SOL     OW20065   1.699   6.916   0.114
 6389SOL    HW120066   1.674   6.977   0.188
 6389SOL    HW220067   1.711   6.968   0.029
 6390SOL     OW20068   6.319   0.690   0.519
 6390SOL    HW120069   6.343   0.668   0.424
 6390SOL    HW220070   6.240   0.752   0.520
 6391SOL     OW20071   0.957   0.860   5.615
 6391SOL    HW120072   1.045   0.903   5.631
 6391SOL    HW220073   0.884   0.927   5.630
 6392SOL     OW20074   3.765   5.891   3.415
 6392SOL    HW120075   3.709   5.811   3.394
 6392SOL    HW220076   3.713   5.974   3.398
 6393SOL     OW20077   5.631   6.608   1.626
 6393SOL    HW120078   5.724   6.630   1.599
 6393SOL    HW220079   5.632   6.554   1.710
 6394SOL     OW20080   1.045   4.925   0.781
 6394SOL    HW120081   1.011   5.019   0.777
 6394SOL    HW220082   0.968   4.863   0.797
 6395SOL     OW20083   0.403   4.029   2.821
 6395SOL    HW120084   0.423   3.956   2.755
 6395SOL    HW220085   0.304   4.041   2.828
 6396SOL     OW20086   6.927   3.452   6.695
 6396SOL    HW120087   6.956   3.370   6.646
 6396SOL    HW220088   6.827   3.457   6.695
 6397SOL     OW20089   6.410   2.267   3.147
 6397SOL    HW120090   6.428   2.313   3.060
 6397SOL    HW220091   6.363   2.180   3.129
 6398SOL     OW20092   1.561   6.372   1.331
 6398SOL    HW120093   1.601   6.313   1.402
 6398SOL    HW220094   1.513   6.315   1.264
 6399SOL     OW20095   1.875   0.191   6.675
 6399SOL    HW120096   1.963   0.159   6.640
 6399SOL    HW220097   1.824   0.236   6.601
 6400SOL     OW20098   1.678   6.064   3.353
 6400SOL    HW120099   1.745   6.132   3.324
 6400SOL    HW220100   1.591   6.109   3.372
 6401SOL     OW20101   4.244   4.636   2.971
 6401SOL    HW120102   4.283   4.556   3.018
 6401SOL    HW220103   4.304   4.715   2.986
 6402SOL     OW20104   1.302   3.687   3.615
 6402SOL    HW120105   1.272   3.782   3.626
 6402SOL    HW220106   1.402   3.682   3.620
 6403SOL     OW20107   5.811   6.412   4.820
 6403SOL    HW120108   5.884   6.386   4.883
 6403SOL    HW220109   5.774   6.501   4.847
 6404SOL     OW20110   3.675   0.942   2.588
 6404SOL    HW120111   3.697   0.883   2.510
 6404SOL    HW220112   3.577   0.963   2.586
 6405SOL     OW20113   5.073   1.619   3.483
 6405SOL    HW120114   5.112   1.529   3.500
 6405SOL    HW220115   5.110   1.685   3.549
 6406SOL     OW20116   0.767   2.645   2.805
 6406SOL    HW120117   0.677   2.616   2.838
 6406SOL    HW220118   0.813   2.697   2.877
 6407SOL     OW20119   1.899   6.393   3.521
 6407SOL    HW120120   1.903   6.424   3.616
 6407SOL    HW220121   1.853   6.461   3.465
 6408SOL     OW20122   0.192   0.868   1.345
 6408SOL    HW120123   0.188   0.939   1.416
 6408SOL    HW220124   0.226   0.909   1.260
 6409SOL     OW20125   6.347   4.729   3.922
 6409SOL    HW120126   6.355   4.644   3.974
 6409SOL    HW220127   6.255   4.768   3.934
 6410SOL     OW20128   2.465   1.414   5.643
 6410SOL    HW120129   2.522   1.490   5.610
 6410SOL    HW220130   2.513   1.365   5.715
 6411SOL     OW20131   0.022   3.183   1.797
 6411SOL    HW120132   0.037   3.203   1.700
 6411SOL    HW220133   0.107   3.149   1.837
 6412SOL     OW20134   3.215   0.792   0.043
 6412SOL    HW120135   3.308   0.785   0.080
 6412SOL    HW220136   3.194   0.709   7.017
 6413SOL     OW20137   4.301   5.039   4.395
 6413SOL    HW120138   4.291   4.979   4.316
 6413SOL    HW220139   4.231   5.111   4.391
 6414SOL     OW20140   0.745   6.673   0.000
 6414SOL    HW120141   0.671   6.671   6.960
 6414SOL    HW220142   0.723   6.612   0.076
 6415SOL     OW20143   1.358   3.502   2.717
 6415SOL    HW120144   1.386   3.591   2.679
 6415SOL    HW220145   1.274   3.513   2.770
 6416SOL     OW20146   3.141   0.035   6.508
 6416SOL    HW120147   3.101   6.978   6.545
 6416SOL    HW220148   3.088   0.064   6.428
 6417SOL     OW20149   4.779   2.114   0.739
 6417SOL    HW120150   4.788   2.158   0.828
 6417SOL    HW220151   4.870   2.094   0.702
 6418SOL     OW20152   4.633   4.522   1.838
 6418SOL    HW120153   4.593   4.601   1.885
 6418SOL    HW220154   4.583   4.439   1.862
 6419SOL     OW20155   0.896   6.740   6.491
 6419SOL    HW120156   0.979   6.772   6.446
 6419SOL    HW220157   0.909   6.645   6.520
 6420SOL     OW20158   1.460   2.614   4.225
 6420SOL    HW120159   1.427   2.520   4.239
 6420SOL    HW220160   1.456   2.664   4.311
 6421SOL     OW20161   5.564   0.669   1.457
 6421SOL    HW120162   5.616   0.604   1.512
 6421SOL    HW220163   5.589   0.660   1.361
 6422SOL     OW20164   6.988   2.406   5.370
 6422SOL    HW120165   6.962   2.376   5.278
 6422SOL    HW220166   6.985   2.506   5.374
 6423SOL     OW20167   2.901   5.840   4.415
 6423SOL    HW120168   2.951   5.798   4.339
 6423SOL    HW220169   2.958   5.909   4.459
 6424SOL     OW20170   0.439   3.222   4.719
 6424SOL    HW120171   0.408   3.258   4.631
 6424SOL    HW220172   0.434   3.122   4.718
 6425SOL     OW20173   0.038   5.610   2.453
 6425SOL    HW120174   6.998   5.670   2.497
 6425SOL    HW220175   0.040   5.628   2.355
 6426SOL     OW20176   4.648   4.841   4.594
 6426SOL    HW120177   4.630   4.751   4.632
 6426SOL    HW220178   4.743   4.868   4.613
 6427SOL     OW20179   2.975   3.873   3.048
 6427SOL    HW120180   2.902   3.911   3.105
 6427SOL    HW220181   2.988   3.776   3.071
 6428SOL     OW20182   5.037   2.142   0.626
 6428SOL    HW120183   5.072   2.064   0.574
 6428SOL    HW220184   5.092   2.223   0.606
 6429SOL     OW20185   2.028   0.920   5.157
 6429SOL    HW120186   1.935   0.920   5.120
 6429SOL    HW220187   2.060   0.826   5.167
 6430SOL     OW20188   6.980   0.749   5.380
 6430SOL    HW120189   6.955   0.658   5.349
 6430SOL    HW220190   6.900   0.809   5.377
 6431SOL     OW20191   4.782   5.396   3.187
 6431SOL    HW120192   4.704   5.335   3.178
 6431SOL    HW220193   4.800   5.442   3.100
 6432SOL     OW20194   3.481   3.727   6.518
 6432SOL    HW120195   3.402   3.668   6.500
 6432SOL    HW220196   3.524   3.699   6.604
 6433SOL     OW20197   2.910   5.309   6.912
 6433SOL    HW120198   2.933   5.308   7.009
 6433SOL    HW220199   2.948   5.391   6.869
 6434SOL     OW20200   3.130   6.057   6.401
 6434SOL    HW120201   3.068   6.013   6.466
 6434SOL    HW220202   3.095   6.045   6.308
 6435SOL     OW20203   6.057   0.220   0.760
 6435SOL    HW120204   6.097   0.130   0.745
 6435SOL    HW220205   6.089   0.256   0.848
 6436SOL     OW20206   0.795   3.857   3.440
 6436SOL    HW120207   0.891   3.834   3.453
 6436SOL    HW220208   0.779   3.952   3.467
 6437SOL     OW20209   0.675   1.398   5.134
 6437SOL    HW120210   0.704   1.447   5.052
 6437SOL    HW220211   0.755   1.372   5.187
 6438SOL     OW20212   0.706   5.395   6.588
 6438SOL    HW120213   0.645   5.464   6.548
 6438SOL    HW220214   0.745   5.339   6.515
 6439SOL     OW20215   6.789   0.775   3.769
 6439SOL    HW120216   6.886   0.757   3.783
 6439SOL    HW220217   6.778   0.848   3.701
 6440SOL     OW20218   2.274   0.565   6.631
 6440SOL    HW120219   2.368   0.598   6.630
 6440SOL    HW220220   2.257   0.514   6.715
 6441SOL     OW20221   0.276   0.782   3.395
 6441SOL    HW120222   0.194   0.751   3.443
 6441SOL    HW220223   0.354   0.724   3.420
 6442SOL     OW20224   2.490   2.024   4.802
 6442SOL    HW120225   2.391   2.039   4.795
 6442SOL    HW220226   2.517   2.021   4.898
 6443SOL     OW20227   3.732   2.140   0.416
 6443SOL    HW120228   3.814   2.142   0.359
 6443SOL    HW220229   3.678   2.222   0.401
 6444SOL     OW20230   6.999   2.701   5.402
 6444SOL    HW120231   7.024   2.767   5.473
 6444SOL    HW220232   6.916   2.733   5.355
 6445SOL     OW20233   3.240   3.419   3.241
 6445SOL    HW120234   3.301   3.439   3.318
 6445SOL    HW220235   3.272   3.336   3.195
 6446SOL     OW20236   1.664   2.106   6.502
 6446SOL    HW120237   1.751   2.085   6.457
 6446SOL    HW220238   1.603   2.027   6.496
 6447SOL     OW20239   6.797   4.299   1.381
 6447SOL    HW120240   6.773   4.383   1.430
 6447SOL    HW220241   6.895   4.296   1.364
 6448SOL     OW20242   4.839   5.416   1.555
 6448SOL    HW120243   4.899   5.343   1.587
 6448SOL    HW220244   4.747   5.402   1.593
 6449SOL     OW20245   2.244   5.811   1.162
 6449SOL    HW120246   2.196   5.871   1.226
 6449SOL    HW220247   2.259   5.722   1.204
 6450SOL     OW20248   0.394   4.062   0.825
 6450SOL    HW120249   0.418   3.968   0.845
 6450SOL    HW220250   0.297   4.077   0.846
 6451SOL     OW20251   3.491   1.862   0.109
 6451SOL    HW120252   3.453   1.954   0.117
 6451SOL    HW220253   3.500   1.837   0.012
 6452SOL     OW20254   5.171   3.556   2.638
 6452SOL    HW120255   5.231   3.615   2.585
 6452SOL    HW220256   5.081   3.598   2.647
 6453SOL     OW20257   3.337   0.022   0.806
 6453SOL    HW120258   3.359   0.062   0.717
 6453SOL    HW220259   3.411   0.041   0.871
 6454SOL     OW20260   6.836   1.857   2.787
 6454SOL    HW120261   6.773   1.780   2.779
 6454SOL    HW220262   6.926   1.831   2.751
 6455SOL     OW20263   6.349   4.714   2.822
 6455SOL    HW120264   6.378   4.667   2.738
 6455SOL    HW220265   6.395   4.672   2.901
 6456SOL     OW20266   0.855   1.224   2.799
 6456SOL    HW120267   0.927   1.293   2.795
 6456SOL    HW220268   0.778   1.253   2.742
 6457SOL     OW20269   5.201   6.952   1.653
 6457SOL    HW120270   5.186   6.987   1.561
 6457SOL    HW220271   5.262   7.013   1.703
 6458SOL     OW20272   1.239   5.082   4.278
 6458SOL    HW120273   1.217   5.136   4.359
 6458SOL    HW220274   1.271   4.991   4.306
 6459SOL     OW20275   6.134   2.789   2.957
 6459SOL    HW120276   6.227   2.750   2.961
 6459SOL    HW220277   6.082   2.758   3.036
 6460SOL     OW20278   6.519   5.288   5.247
 6460SOL    HW120279   6.615   5.315   5.240
 6460SOL    HW220280   6.512   5.190   5.263
 6461SOL     OW20281   3.419   4.326   0.708
 6461SOL    HW120282   3.437   4.327   0.807
 6461SOL    HW220283   3.399   4.419   0.678
 6462SOL     OW20284   1.859   3.678   4.435
 6462SOL    HW120285   1.839   3.776   4.436
 6462SOL    HW220286   1.952   3.662   4.401
 6463SOL     OW20287   5.516   0.559   0.678
 6463SOL    HW120288   5.575   0.479   0.689
 6463SOL    HW220289   5.420   0.532   0.688
 6464SOL     OW20290   1.048   6.310   5.056
 6464SOL    HW120291   1.100   6.242   5.108
 6464SOL    HW220292   1.068   6.300   4.959
 6465SOL     OW20293   5.657   2.438   2.167
 6465SOL    HW120294   5.621   2.382   2.093
 6465SOL    HW220295   5.583   2.495   2.205
 6466SOL     OW20296   6.698   2.643   6.499
 6466SOL    HW120297   6.703   2.673   6.594
 6466SOL    HW220298   6.787   2.607   6.471
 6467SOL     OW20299   3.450   1.061   0.768
 6467SOL    HW120300   3.484   1.130   0.832
 6467SOL    HW220301   3.525   1.002   0.739
 6468SOL     OW20302   4.233   6.157   0.626
 6468SOL    HW120303   4.147   6.124   0.666
 6468SOL    HW220304   4.213   6.218   0.549
 6469SOL     OW20305   3.098   2.184   4.106
 6469SOL    HW120306   3.194   2.161   4.088
 6469SOL    HW220307   3.050   2.196   4.020
 6470SOL     OW20308   6.602   2.253   0.542
 6470SOL    HW120309   6.548   2.234   0.624
 6470SOL    HW220310   6.585   2.181   0.474
 6471SOL     OW20311   0.838   6.711   5.072
 6471SOL    HW120312   0.774   6.767   5.125
 6471SOL    HW220313   0.818   6.614   5.090
 6472SOL     OW20314   6.529   6.440   2.491
 6472SOL    HW120315   6.538   6.436   2.392
 6472SOL    HW220316   6.508   6.349   2.527
 6473SOL     OW20317   1.938   1.628   4.094
 6473SOL    HW120318   1.875   1.656   4.022
 6473SOL    HW220319   2.015   1.692   4.097
 6474SOL     OW20320   4.323   5.339   5.536
 6474SOL    HW120321   4.395   5.272   5.556
 6474SOL    HW220322   4.348   5.427   5.576
 6475SOL     OW20323   5.460   5.281   3.439
 6475SOL    HW120324   5.493   5.303   3.347
 6475SOL    HW220325   5.431   5.365   3.485
 6476SOL     OW20326   3.649   2.059   6.683
 6476SOL    HW120327   3.666   2.155   6.704
 6476SOL    HW220328   3.607   2.051   6.592
 6477SOL     OW20329   6.843   5.663   0.847
 6477SOL    HW120330   6.896   5.616   0.918
 6477SOL    HW220331   6.748   5.673   0.878
 6478SOL     OW20332   2.565   5.721   1.662
 6478SOL    HW120333   2.586   5.783   1.586
 6478SOL    HW220334   2.649   5.702   1.713
 6479SOL     OW20335   3.328   5.802   4.446
 6479SOL    HW120336   3.352   5.789   4.542
 6479SOL    HW220337   3.341   5.898   4.421
 6480SOL     OW20338   2.067   0.872   0.090
 6480SOL    HW120339   2.097   0.805   0.158
 6480SOL    HW220340   1.984   0.917   0.121
 6481SOL     OW20341   3.160   2.363   1.697
 6481SOL    HW120342   3.249   2.342   1.736
 6481SOL    HW220343   3.121   2.443   1.743
 6482SOL     OW20344   7.011   2.330   5.887
 6482SOL    HW120345   7.005   2.406   5.952
 6482SOL    HW220346   0.013   2.365   5.798
 6483SOL     OW20347   1.250   5.497   4.411
 6483SOL    HW120348   1.332   5.533   4.455
 6483SOL    HW220349   1.269   5.478   4.314
 6484SOL     OW20350   2.933   1.448   2.839
 6484SOL    HW120351   2.947   1.505   2.920
 6484SOL    HW220352   2.965   1.498   2.758
 6485SOL     OW20353   2.193   6.482   5.062
 6485SOL    HW120354   2.157   6.450   5.150
 6485SOL    HW220355   2.178   6.580   5.053
 6486SOL     OW20356   0.736   4.923   2.803
 6486SOL    HW120357   0.714   4.948   2.708
 6486SOL    HW220358   0.719   5.002   2.862
 6487SOL     OW20359   1.137   5.247   4.495
 6487SOL    HW120360   1.161   5.340   4.467
 6487SOL    HW220361   1.168   5.232   4.589
 6488SOL     OW20362   4.764   5.590   5.069
 6488SOL    HW120363   4.830   5.629   5.132
 6488SOL    HW220364   4.738   5.658   5.001
 6489SOL     OW20365   3.656   3.135   6.015
 6489SOL    HW120366   3.675   3.230   5.988
 6489SOL    HW220367   3.741   3.083   6.012
 6490SOL     OW20368   2.186   1.849   6.772
 6490SOL    HW120369   2.250   1.921   6.802
 6490SOL    HW220370   2.093   1.885   6.776
 6491SOL     OW20371   2.155   6.769   1.080
 6491SOL    HW120372   2.231   6.833   1.063
 6491SOL    HW220373   2.080   6.818   1.125
 6492SOL     OW20374   3.362   4.071   4.136
 6492SOL    HW120375   3.390   4.100   4.044
 6492SOL    HW220376   3.406   4.129   4.204
 6493SOL     OW20377   1.321   4.740   6.500
 6493SOL    HW120378   1.228   4.705   6.500
 6493SOL    HW220379   1.384   4.665   6.477
 6494SOL     OW20380   5.867   6.513   2.418
 6494SOL    HW120381   5.814   6.430   2.437
 6494SOL    HW220382   5.890   6.558   2.504
 6495SOL     OW20383   6.541   0.038   4.716
 6495SOL    HW120384   6.510   0.091   4.637
 6495SOL    HW220385   6.502   0.076   4.800
 6496SOL     OW20386   4.752   6.681   1.716
 6496SOL    HW120387   4.736   6.727   1.804
 6496SOL    HW220388   4.849   6.687   1.693
 6497SOL     OW20389   0.594   1.669   1.272
 6497SOL    HW120390   0.679   1.627   1.240
 6497SOL    HW220391   0.522   1.599   1.276
 6498SOL     OW20392   1.017   4.387   4.235
 6498SOL    HW120393   1.076   4.374   4.315
 6498SOL    HW220394   0.953   4.310   4.228
 6499SOL     OW20395   5.402   3.984   4.173
 6499SOL    HW120396   5.434   3.893   4.198
 6499SOL    HW220397   5.305   3.993   4.197
 6500SOL     OW20398   0.745   3.706   2.260
 6500SOL    HW120399   0.665   3.649   2.243
 6500SOL    HW220400   0.805   3.660   2.325
 6501SOL     OW20401   0.189   1.744   0.992
 6501SOL    HW120402   0.177   1.818   0.925
 6501SOL    HW220403   0.200   1.657   0.943
 6502SOL     OW20404   6.462   3.663   1.468
 6502SOL    HW120405   6.376   3.658   1.418
 6502SOL    HW220406   6.479   3.757   1.498
 6503SOL     OW20407   6.501   2.324   5.603
 6503SOL    HW120408   6.432   2.381   5.648
 6503SOL    HW220409   6.458   2.270   5.531
 6504SOL     OW20410   4.994   6.870   6.424
 6504SOL    HW120411   5.063   6.843   6.491
 6504SOL    HW220412   4.948   6.953   6.455
 6505SOL     OW20413   5.658   6.639   0.103
 6505SOL    HW120414   5.732   6.692   0.144
 6505SOL    HW220415   5.570   6.674   0.135
 6506SOL     OW20416   7.003   3.734   3.698
 6506SOL    HW120417   6.917   3.686   3.678
 6506SOL    HW220418   0.013   3.773   3.613
 6507SOL     OW20419   3.560   5.505   6.369
 6507SOL    HW120420   3.615   5.566   6.313
 6507SOL    HW220421   3.463   5.519   6.350
 6508SOL     OW20422   1.571   6.493   2.482
 6508SOL    HW120423   1.499   6.438   2.441
 6508SOL    HW220424   1.555   6.590   2.462
 6509SOL     OW20425   3.850   1.260   5.075
 6509SOL    HW120426   3.777   1.329   5.070
 6509SOL    HW220427   3.913   1.274   4.999
 6510SOL     OW20428   4.706   6.396   6.201
 6510SOL    HW120429   4.606   6.387   6.195
 6510SOL    HW220430   4.746   6.387   6.110
 6511SOL     OW20431   3.949   0.912   5.898
 6511SOL    HW120432   4.028   0.970   5.919
 6511SOL    HW220433   3.976   0.841   5.834
 6512SOL     OW20434   2.798   0.159   2.540
 6512SOL    HW120435   2.709   0.148   2.497
 6512SOL    HW220436   2.847   0.072   2.541
 6513SOL     OW20437   2.629   5.660   4.452
 6513SOL    HW120438   2.611   5.666   4.550
 6513SOL    HW220439   2.601   5.745   4.408
 6514SOL     OW20440   5.989   0.533   5.309
 6514SOL    HW120441   5.924   0.608   5.315
 6514SOL    HW220442   6.071   0.563   5.261
 6515SOL     OW20443   2.290   4.512   2.541
 6515SOL    HW120444   2.275   4.416   2.517
 6515SOL    HW220445   2.318   4.564   2.460
 6516SOL     OW20446   6.791   3.188   1.914
 6516SOL    HW120447   6.742   3.104   1.892
 6516SOL    HW220448   6.880   3.188   1.867
 6517SOL     OW20449   6.886   1.904   0.868
 6517SOL    HW120450   6.945   1.977   0.902
 6517SOL    HW220451   6.791   1.935   0.867
 6518SOL     OW20452   6.760   0.878   2.242
 6518SOL    HW120453   6.850   0.904   2.277
 6518SOL    HW220454   6.770   0.797   2.184
 6519SOL     OW20455   0.515   0.553   2.956
 6519SOL    HW120456   0.466   0.513   2.878
 6519SOL    HW220457   0.450   0.579   3.027
 6520SOL     OW20458   0.234   5.952   6.812
 6520SOL    HW120459   0.252   6.010   6.732
 6520SOL    HW220460   0.143   5.912   6.805
 6521SOL     OW20461   1.743   2.914   3.076
 6521SOL    HW120462   1.725   2.866   3.162
 6521SOL    HW220463   1.667   2.976   3.056
 6522SOL     OW20464   2.874   4.431   5.561
 6522SOL    HW120465   2.836   4.497   5.496
 6522SOL    HW220466   2.800   4.395   5.618
 6523SOL     OW20467   5.531   0.117   0.194
 6523SOL    HW120468   5.522   0.091   0.290
 6523SOL    HW220469   5.453   0.082   0.142
 6524SOL     OW20470   2.782   2.397   1.671
 6524SOL    HW120471   2.834   2.411   1.756
 6524SOL    HW220472   2.828   2.328   1.615
 6525SOL     OW20473   1.886   5.202   3.430
 6525SOL    HW120474   1.844   5.290   3.449
 6525SOL    HW220475   1.910   5.196   3.333
 6526SOL     OW20476   0.347   6.998   1.109
 6526SOL    HW120477   0.314   0.066   1.108
 6526SOL    HW220478   0.269   6.936   1.104
 6527SOL     OW20479   0.595   2.264   0.689
 6527SOL    HW120480   0.577   2.251   0.787
 6527SOL    HW220481   0.567   2.356   0.662
 6528SOL     OW20482   6.483   1.371   6.261
 6528SOL    HW120483   6.427   1.439   6.213
 6528SOL    HW220484   6.445   1.354   6.351
 6529SOL     OW20485   0.233   0.506   2.461
 6529SOL    HW120486   0.167   0.552   2.401
 6529SOL    HW220487   0.215   0.533   2.556
 6530SOL     OW20488   0.659   1.784   2.202
 6530SOL    HW120489   0.641   1.876   2.166
 6530SOL    HW220490   0.685   1.724   2.127
 6531SOL     OW20491   3.970   3.402   5.651
 6531SOL    HW120492   3.975   3.501   5.668
 6531SOL    HW220493   3.941   3.386   5.557
 6532SOL     OW20494   1.679   1.184   0.307
 6532SOL    HW120495   1.648   1.216   0.217
 6532SOL    HW220496   1.744   1.249   0.345
 6533SOL     OW20497   4.584   5.863   0.261
 6533SOL    HW120498   4.612   5.903   0.173
 6533SOL    HW220499   4.659   5.871   0.326
 6534SOL     OW20500   4.924   5.084   2.007
 6534SOL    HW120501   4.974   5.139   2.075
 6534SOL    HW220502   4.952   4.988   2.015
 6535SOL     OW20503   5.798   3.998   4.570
 6535SOL    HW120504   5.738   4.066   4.612
 6535SOL    HW220505   5.839   4.037   4.487
 6536SOL     OW20506   0.591   2.260   5.085
 6536SOL    HW120507   0.540   2.309   5.015
 6536SOL    HW220508   0.536   2.253   5.168
 6537SOL     OW20509   6.475   4.428   4.583
 6537SOL    HW120510   6.571   4.436   4.608
 6537SOL    HW220511   6.419   4.419   4.666
 6538SOL     OW20512   1.997   3.620   5.655
 6538SOL    HW120513   2.000   3.716   5.683
 6538SOL    HW220514   1.949   3.613   5.567
 6539SOL     OW20515   5.232   0.750   6.957
 6539SOL    HW120516   5.229   0.766   0.029
 6539SOL    HW220517   5.165   0.809   6.911
 6540SOL     OW20518   2.505   3.043   6.301
 6540SOL    HW120519   2.527   3.126   6.249
 6540SOL    HW220520   2.439   2.988   6.251
 6541SOL     OW20521   5.273   2.404   5.783
 6541SOL    HW120522   5.198   2.383   5.719
 6541SOL    HW220523   5.275   2.334   5.855
 6542SOL     OW20524   1.057   3.367   4.461
 6542SOL    HW120525   0.987   3.369   4.533
 6542SOL    HW220526   1.102   3.278   4.462
 6543SOL     OW20527   3.615   2.413   5.361
 6543SOL    HW120528   3.555   2.336   5.380
 6543SOL    HW220529   3.569   2.479   5.302
 6544SOL     OW20530   0.514   6.644   2.081
 6544SOL    HW120531   0.414   6.644   2.072
 6544SOL    HW220532   0.548   6.737   2.069
 6545SOL     OW20533   3.794   6.779   0.825
 6545SOL    HW120534   3.795   6.799   0.923
 6545SOL    HW220535   3.716   6.720   0.804
 6546SOL     OW20536   4.128   4.526   6.603
 6546SOL    HW120537   4.038   4.567   6.598
 6546SOL    HW220538   4.144   4.492   6.696
 6547SOL     OW20539   4.884   0.225   5.496
 6547SOL    HW120540   4.983   0.207   5.495
 6547SOL    HW220541   4.835   0.145   5.461
 6548SOL     OW20542   1.013   3.044   6.424
 6548SOL    HW120543   1.109   3.046   6.397
 6548SOL    HW220544   0.962   3.115   6.374
 6549SOL     OW20545   4.614   0.237   1.835
 6549SOL    HW120546   4.635   0.335   1.837
 6549SOL    HW220547   4.519   0.223   1.864
 6550SOL     OW20548   0.140   0.119   3.767
 6550SOL    HW120549   0.047   0.151   3.784
 6550SOL    HW220550   0.186   0.181   3.704
 6551SOL     OW20551   2.697   3.279   1.645
 6551SOL    HW120552   2.773   3.309   1.702
 6551SOL    HW220553   2.633   3.356   1.632
 6552SOL     OW20554   2.050   6.952   0.578
 6552SOL    HW120555   2.122   7.020   0.590
 6552SOL    HW220556   2.089   6.860   0.588
 6553SOL     OW20557   0.490   1.325   2.903
 6553SOL    HW120558   0.533   1.406   2.943
 6553SOL    HW220559   0.539   1.243   2.933
 6554SOL     OW20560   2.832   1.249   5.583
 6554SOL    HW120561   2.747   1.234   5.634
 6554SOL    HW220562   2.842   1.178   5.513
 6555SOL     OW20563   5.878   1.860   4.089
 6555SOL    HW120564   5.893   1.761   4.083
 6555SOL    HW220565   5.910   1.903   4.004
 6556SOL     OW20566   6.356   3.261   2.378
 6556SOL    HW120567   6.285   3.194   2.402
 6556SOL    HW220568   6.388   3.306   2.462
 6557SOL     OW20569   2.230   0.526   2.245
 6557SOL    HW120570   2.246   0.615   2.202
 6557SOL    HW220571   2.133   0.503   2.239
 6558SOL     OW20572   5.589   4.995   0.109
 6558SOL    HW120573   5.571   5.093   0.118
 6558SOL    HW220574   5.616   4.975   0.014
 6559SOL     OW20575   6.574   3.488   6.393
 6559SOL    HW120576   6.507   3.545   6.345
 6559SOL    HW220577   6.652   3.544   6.420
 6560SOL     OW20578   4.034   4.907   0.500
 6560SOL    HW120579   4.067   5.001   0.513
 6560SOL    HW220580   3.958   4.907   0.436
 6561SOL     OW20581   4.117   4.976   0.938
 6561SOL    HW120582   4.113   5.065   0.895
 6561SOL    HW220583   4.077   4.907   0.878
 6562SOL     OW20584   5.418   2.636   1.123
 6562SOL    HW120585   5.442   2.539   1.112
 6562SOL    HW220586   5.499   2.687   1.151
 6563SOL     OW20587   5.020   0.448   6.005
 6563SOL    HW120588   4.950   0.452   6.076
 6563SOL    HW220589   4.977   0.433   5.916
 6564SOL     OW20590   6.578   3.761   1.857
 6564SOL    HW120591   6.503   3.807   1.809
 6564SOL    HW220592   6.548   3.671   1.887
 6565SOL     OW20593   6.149   6.461   3.119
 6565SOL    HW120594   6.239   6.422   3.098
 6565SOL    HW220595   6.158   6.526   3.194
 6566SOL     OW20596   3.124   5.551   2.349
 6566SOL    HW120597   3.065   5.545   2.429
 6566SOL    HW220598   3.220   5.552   2.379
 6567SOL     OW20599   3.981   0.365   1.638
 6567SOL    HW120600   4.005   0.409   1.724
 6567SOL    HW220601   3.965   0.267   1.655
 6568SOL     OW20602   4.284   1.639   2.594
 6568SOL    HW120603   4.289   1.547   2.555
 6568SOL    HW220604   4.310   1.637   2.690
 6569SOL     OW20605   0.709   3.046   6.052
 6569SOL    HW120606   0.640   3.118   6.044
 6569SOL    HW220607   0.798   3.088   6.072
 6570SOL     OW20608   4.185   0.783   2.750
 6570SOL    HW120609   4.158   0.717   2.680
 6570SOL    HW220610   4.246   0.739   2.816
 6571SOL     OW20611   2.409   4.982   3.291
 6571SOL    HW120612   2.343   5.057   3.297
 6571SOL    HW220613   2.484   5.009   3.229
 6572SOL     OW20614   0.905   3.846   4.186
 6572SOL    HW120615   0.890   3.943   4.204
 6572SOL    HW220616   1.001   3.823   4.204
 6573SOL     OW20617   1.310   1.254   3.535
 6573SOL    HW120618   1.301   1.171   3.590
 6573SOL    HW220619   1.398   1.254   3.488
 6574SOL     OW20620   2.542   6.894   3.433
 6574SOL    HW120621   2.631   6.875   3.392
 6574SOL    HW220622   2.556   6.939   3.521
 6575SOL     OW20623   0.416   6.785   3.219
 6575SOL    HW120624   0.347   6.722   3.256
 6575SOL    HW220625   0.402   6.794   3.120
 6576SOL     OW20626   3.347   4.998   0.390
 6576SOL    HW120627   3.382   5.090   0.409
 6576SOL    HW220628   3.302   4.997   0.301
 6577SOL     OW20629   1.791   2.261   3.338
 6577SOL    HW120630   1.706   2.305   3.365
 6577SOL    HW220631   1.829   2.307   3.257
 6578SOL     OW20632   0.789   5.970   1.791
 6578SOL    HW120633   0.813   5.954   1.695
 6578SOL    HW220634   0.774   6.067   1.806
 6579SOL     OW20635   0.011   2.031   3.996
 6579SOL    HW120636   0.100   2.074   4.011
 6579SOL    HW220637   6.965   2.093   4.026
 6580SOL     OW20638   1.120   1.319   0.834
 6580SOL    HW120639   1.161   1.387   0.772
 6580SOL    HW220640   1.193   1.270   0.882
 6581SOL     OW20641   1.560   1.384   0.695
 6581SOL    HW120642   1.630   1.390   0.766
 6581SOL    HW220643   1.494   1.313   0.720
 6582SOL     OW20644   6.746   0.569   2.541
 6582SOL    HW120645   6.676   0.601   2.477
 6582SOL    HW220646   6.825   0.631   2.538
 6583SOL     OW20647   5.463   6.387   5.178
 6583SOL    HW120648   5.461   6.415   5.082
 6583SOL    HW220649   5.447   6.289   5.185
 6584SOL     OW20650   3.515   2.749   0.853
 6584SOL    HW120651   3.601   2.720   0.894
 6584SOL    HW220652   3.521   2.741   0.754
 6585SOL     OW20653   0.025   6.618   7.025
 6585SOL    HW120654   7.006   6.614   0.088
 6585SOL    HW220655   6.989   6.584   6.955
 6586SOL     OW20656   6.246   1.912   6.159
 6586SOL    HW120657   6.283   1.837   6.104
 6586SOL    HW220658   6.316   1.946   6.221
 6587SOL     OW20659   1.064   4.685   5.977
 6587SOL    HW120660   0.968   4.695   6.004
 6587SOL    HW220661   1.109   4.619   6.037
 6588SOL     OW20662   0.685   3.155   0.883
 6588SOL    HW120663   0.653   3.095   0.956
 6588SOL    HW220664   0.688   3.105   0.797
 6589SOL     OW20665   5.196   1.026   2.215
 6589SOL    HW120666   5.215   1.119   2.248
 6589SOL    HW220667   5.119   1.029   2.152
 6590SOL     OW20668   0.475   0.254   5.053
 6590SOL    HW120669   0.379   0.280   5.041
 6590SOL    HW220670   0.528   0.287   4.974
 6591SOL     OW20671   5.328   5.555   3.838
 6591SOL    HW120672   5.318   5.556   3.937
 6591SOL    HW220673   5.237   5.560   3.796
 6592SOL     OW20674   5.149   0.276   3.447
 6592SOL    HW120675   5.074   0.223   3.407
 6592SOL    HW220676   5.237   0.237   3.418
 6593SOL     OW20677   2.914   2.230   2.313
 6593SOL    HW120678   2.834   2.270   2.358
 6593SOL    HW220679   2.924   2.269   2.221
 6594SOL     OW20680   3.797   1.468   5.732
 6594SOL    HW120681   3.874   1.521   5.767
 6594SOL    HW220682   3.771   1.501   5.642
 6595SOL     OW20683   1.505   3.050   5.014
 6595SOL    HW120684   1.601   3.079   5.006
 6595SOL    HW220685   1.449   3.100   4.948
 6596SOL     OW20686   4.158   6.015   3.359
 6596SOL    HW120687   4.212   6.072   3.297
 6596SOL    HW220688   4.191   5.921   3.356
 6597SOL     OW20689   1.336   4.741   2.088
 6597SOL    HW120690   1.237   4.728   2.089
 6597SOL    HW220691   1.369   4.744   1.994
 6598SOL     OW20692   2.029   4.403   3.395
 6598SOL    HW120693   2.089   4.342   3.343
 6598SOL    HW220694   2.080   4.486   3.419
 6599SOL     OW20695   5.252   6.074   7.020
 6599SOL    HW120696   5.313   6.055   0.070
 6599SOL    HW220697   5.306   6.107   6.942
 6600SOL     OW20698   4.332   6.921   4.391
 6600SOL    HW120699   4.273   6.973   4.330
 6600SOL    HW220700   4.298   6.930   4.485
 6601SOL     OW20701   0.603   2.424   3.210
 6601SOL    HW120702   0.687   2.471   3.236
 6601SOL    HW220703   0.621   2.365   3.131
 6602SOL     OW20704   2.571   0.040   1.172
 6602SOL    HW120705   2.662   0.000   1.181
 6602SOL    HW220706   2.575   0.118   1.110
 6603SOL     OW20707   0.745   3.031   3.630
 6603SOL    HW120708   0.746   3.130   3.618
 6603SOL    HW220709   0.827   3.003   3.681
 6604SOL     OW20710   2.009   0.168   1.172
 6604SOL    HW120711   1.993   0.174   1.074
 6604SOL    HW220712   2.064   0.246   1.202
 6605SOL     OW20713   5.722   5.774   1.797
 6605SOL    HW120714   5.690   5.814   1.711
 6605SOL    HW220715   5.761   5.846   1.854
 6606SOL     OW20716   6.789   4.087   3.058
 6606SOL    HW120717   6.854   4.145   3.008
 6606SOL    HW220718   6.770   4.129   3.147
 6607SOL     OW20719   6.505   4.909   3.624
 6607SOL    HW120720   6.477   5.001   3.599
 6607SOL    HW220721   6.577   4.914   3.694
 6608SOL     OW20722   6.877   0.460   0.967
 6608SOL    HW120723   6.855   0.474   0.871
 6608SOL    HW220724   6.825   0.383   1.003
 6609SOL     OW20725   5.085   1.394   6.346
 6609SOL    HW120726   5.017   1.449   6.299
 6609SOL    HW220727   5.051   1.368   6.437
 6610SOL     OW20728   2.853   5.886   0.112
 6610SOL    HW120729   2.845   5.952   0.037
 6610SOL    HW220730   2.769   5.831   0.118
 6611SOL     OW20731   4.964   2.709   3.452
 6611SOL    HW120732   4.906   2.788   3.469
 6611SOL    HW220733   5.016   2.724   3.367
 6612SOL     OW20734   6.615   2.120   6.156
 6612SOL    HW120735   6.661   2.208   6.167
 6612SOL    HW220736   6.638   2.081   6.067
 6613SOL     OW20737   5.841   0.363   6.158
 6613SOL    HW120738   5.808   0.294   6.094
 6613SOL    HW220739   5.921   0.408   6.119
 6614SOL     OW20740   4.742   6.970   0.876
 6614SOL    HW120741   4.770   6.947   0.969
 6614SOL    HW220742   4.822   6.997   0.823
 6615SOL     OW20743   2.331   5.363   0.457
 6615SOL    HW120744   2.269   5.427   0.411
 6615SOL    HW220745   2.321   5.375   0.556
 6616SOL     OW20746   4.554   6.622   5.588
 6616SOL    HW120747   4.491   6.700   5.583
 6616SOL    HW220748   4.562   6.580   5.498
 6617SOL     OW20749   4.064   6.398   3.199
 6617SOL    HW120750   4.086   6.425   3.293
 6617SOL    HW220751   4.027   6.476   3.149
 6618SOL     OW20752   0.558   1.034   3.124
 6618SOL    HW120753   0.603   1.123   3.129
 6618SOL    HW220754   0.626   0.962   3.140
 6619SOL     OW20755   4.805   6.939   3.800
 6619SOL    HW120756   4.840   7.026   3.767
 6619SOL    HW220757   4.803   6.939   3.900
 6620SOL     OW20758   2.115   3.339   3.872
 6620SOL    HW120759   2.170   3.256   3.881
 6620SOL    HW220760   2.098   3.377   3.962
 6621SOL     OW20761   3.688   2.923   5.134
 6621SOL    HW120762   3.634   2.853   5.088
 6621SOL    HW220763   3.695   3.003   5.075
 6622SOL     OW20764   5.897   6.006   1.561
 6622SOL    HW120765   5.991   6.006   1.528
 6622SOL    HW220766   5.856   5.916   1.546
 6623SOL     OW20767   3.901   4.336   5.244
 6623SOL    HW120768   3.918   4.434   5.258
 6623SOL    HW220769   3.810   4.323   5.205
 6624SOL     OW20770   0.539   3.544   5.512
 6624SOL    HW120771   0.624   3.585   5.477
 6624SOL    HW220772   0.464   3.610   5.503
 6625SOL     OW20773   5.860   1.955   5.300
 6625SOL    HW120774   5.880   1.867   5.342
 6625SOL    HW220775   5.764   1.956   5.270
 6626SOL     OW20776   3.398   6.740   5.597
 6626SOL    HW120777   3.475   6.680   5.618
 6626SOL    HW220778   3.428   6.814   5.537
 6627SOL     OW20779   1.993   6.298   3.969
 6627SOL    HW120780   2.057   6.284   4.044
 6627SOL    HW220781   1.901   6.270   3.998
 6628SOL     OW20782   5.276   5.090   3.741
 6628SOL    HW120783   5.275   5.158   3.815
 6628SOL    HW220784   5.363   5.096   3.692
 6629SOL     OW20785   4.595   5.260   6.426
 6629SOL    HW120786   4.588   5.347   6.377
 6629SOL    HW220787   4.652   5.272   6.507
 6630SOL     OW20788   3.516   1.553   1.477
 6630SOL    HW120789   3.427   1.516   1.503
 6630SOL    HW220790   3.524   1.554   1.377
 6631SOL     OW20791   2.180   5.254   4.207
 6631SOL    HW120792   2.251   5.219   4.268
 6631SOL    HW220793   2.094   5.207   4.226
 6632SOL     OW20794   1.679   1.345   1.036
 6632SOL    HW120795   1.683   1.282   0.959
 6632SOL    HW220796   1.671   1.439   1.002
 6633SOL     OW20797   2.868   4.615   6.101
 6633SOL    HW120798   2.864   4.708   6.137
 6633SOL    HW220799   2.794   4.601   6.036
 6634SOL     OW20800   4.750   2.116   5.273
 6634SOL    HW120801   4.762   2.090   5.369
 6634SOL    HW220802   4.699   2.045   5.226
 6635SOL     OW20803   4.973   3.922   3.062
 6635SOL    HW120804   4.916   3.840   3.069
 6635SOL    HW220805   4.994   3.940   2.967
 6636SOL     OW20806   3.209   1.395   1.835
 6636SOL    HW120807   3.121   1.360   1.802
 6636SOL    HW220808   3.201   1.419   1.931
 6637SOL     OW20809   2.666   0.258   7.023
 6637SOL    HW120810   2.584   0.264   0.054
 6637SOL    HW220811   2.663   0.173   6.969
 6638SOL     OW20812   3.426   3.665   3.108
 6638SOL    HW120813   3.330   3.684   3.128
 6638SOL    HW220814   3.433   3.621   3.018
 6639SOL     OW20815   3.751   3.069   6.510
 6639SOL    HW120816   3.779   3.131   6.436
 6639SOL    HW220817   3.702   3.121   6.580
 6640SOL     OW20818   7.010   2.455   5.645
 6640SOL    HW120819   6.913   2.432   5.653
 6640SOL    HW220820   0.011   2.446   5.549
 6641SOL     OW20821   3.642   1.853   0.369
 6641SOL    HW120822   3.619   1.857   0.272
 6641SOL    HW220823   3.656   1.945   0.404
 6642SOL     OW20824   2.475   4.989   6.367
 6642SOL    HW120825   2.493   4.964   6.272
 6642SOL    HW220826   2.377   4.984   6.385
 6643SOL     OW20827   6.710   6.829   0.748
 6643SOL    HW120828   6.697   6.737   0.711
 6643SOL    HW220829   6.759   6.886   0.682
 6644SOL     OW20830   1.739   6.193   3.608
 6644SOL    HW120831   1.793   6.259   3.557
 6644SOL    HW220832   1.712   6.118   3.547
 6645SOL     OW20833   5.862   3.197   0.465
 6645SOL    HW120834   5.930   3.154   0.406
 6645SOL    HW220835   5.770   3.182   0.427
 6646SOL     OW20836   4.718   0.683   6.285
 6646SOL    HW120837   4.643   0.748   6.273
 6646SOL    HW220838   4.717   0.647   6.378
 6647SOL     OW20839   4.636   6.577   1.065
 6647SOL    HW120840   4.547   6.619   1.045
 6647SOL    HW220841   4.690   6.573   0.981
 6648SOL     OW20842   3.662   5.989   4.702
 6648SOL    HW120843   3.648   5.891   4.687
 6648SOL    HW220844   3.582   6.040   4.672
 6649SOL     OW20845   6.021   3.022   6.582
 6649SOL    HW120846   6.020   3.043   6.680
 6649SOL    HW220847   6.114   3.003   6.552
 6650SOL     OW20848   4.013   1.440   4.789
 6650SOL    HW120849   3.967   1.407   4.707
 6650SOL    HW220850   4.063   1.365   4.832
 6651SOL     OW20851   1.592   1.937   6.838
 6651SOL    HW120852   1.590   1.861   6.773
 6651SOL    HW220853   1.511   1.994   6.825
 6652SOL     OW20854   0.711   4.411   6.886
 6652SOL    HW120855   0.631   4.407   6.825
 6652SOL    HW220856   0.699   4.484   6.953
 6653SOL     OW20857   4.885   3.182   0.971
 6653SOL    HW120858   4.827   3.246   1.020
 6653SOL    HW220859   4.936   3.127   1.037
 6654SOL     OW20860   0.450   5.173   2.567
 6654SOL    HW120861   0.461   5.237   2.491
 6654SOL    HW220862   0.403   5.218   2.643
 6655SOL     OW20863   0.186   6.144   2.025
 6655SOL    HW120864   0.177   6.117   1.929
 6655SOL    HW220865   0.275   6.113   2.059
 6656SOL     OW20866   4.954   2.019   3.016
 6656SOL    HW120867   4.997   1.929   3.025
 6656SOL    HW220868   4.899   2.022   2.933
 6657SOL     OW20869   6.005   2.850   4.604
 6657SOL    HW120870   6.093   2.825   4.564
 6657SOL    HW220871   6.017   2.866   4.702
 6658SOL     OW20872   6.401   0.096   5.434
 6658SOL    HW120873   6.359   0.170   5.381
 6658SOL    HW220874   6.382   0.008   5.390
 6659SOL     OW20875   1.164   3.786   1.631
 6659SOL    HW120876   1.234   3.731   1.677
 6659SOL    HW220877   1.166   3.879   1.667
 6660SOL     OW20878   1.848   5.066   1.814
 6660SOL    HW120879   1.807   5.152   1.844
 6660SOL    HW220880   1.776   5.001   1.789
 6661SOL     OW20881   3.042   0.927   4.862
 6661SOL    HW120882   2.986   0.915   4.780
 6661SOL    HW220883   3.113   0.995   4.844
 6662SOL     OW20884   2.185   0.414   0.902
 6662SOL    HW120885   2.094   0.405   0.863
 6662SOL    HW220886   2.183   0.390   0.999
 6663SOL     OW20887   0.685   6.240   5.285
 6663SOL    HW120888   0.743   6.164   5.316
 6663SOL    HW220889   0.625   6.269   5.359
 6664SOL     OW20890   2.146   0.403   1.196
 6664SOL    HW120891   2.054   0.439   1.182
 6664SOL    HW220892   2.169   0.405   1.293
 6665SOL     OW20893   1.656   6.572   5.829
 6665SOL    HW120894   1.754   6.586   5.814
 6665SOL    HW220895   1.638   6.475   5.843
 6666SOL     OW20896   6.491   5.589   5.213
 6666SOL    HW120897   6.430   5.617   5.139
 6666SOL    HW220898   6.507   5.490   5.208
 6667SOL     OW20899   6.710   6.496   6.179
 6667SOL    HW120900   6.785   6.510   6.245
 6667SOL    HW220901   6.748   6.486   6.087
 6668SOL     OW20902   6.915   5.977   1.496
 6668SOL    HW120903   6.970   5.932   1.425
 6668SOL    HW220904   6.843   6.031   1.453
 6669SOL     OW20905   3.721   2.009   1.380
 6669SOL    HW120906   3.776   2.034   1.461
 6669SOL    HW220907   3.665   1.929   1.402
 6670SOL     OW20908   3.017   0.857   6.599
 6670SOL    HW120909   2.999   0.817   6.689
 6670SOL    HW220910   2.931   0.876   6.553
 6671SOL     OW20911   5.953   6.642   0.795
 6671SOL    HW120912   5.974   6.735   0.766
 6671SOL    HW220913   5.943   6.583   0.715
 6672SOL     OW20914   1.259   2.539   0.380
 6672SOL    HW120915   1.321   2.482   0.433
 6672SOL    HW220916   1.298   2.554   0.289
 6673SOL     OW20917   4.786   4.111   3.588
 6673SOL    HW120918   4.744   4.182   3.645
 6673SOL    HW220919   4.746   4.113   3.496
 6674SOL     OW20920   0.310   3.154   6.904
 6674SOL    HW120921   0.322   3.057   6.883
 6674SOL    HW220922   0.345   3.209   6.829
 6675SOL     OW20923   5.491   2.645   0.415
 6675SOL    HW120924   5.586   2.673   0.399
 6675SOL    HW220925   5.465   2.666   0.509
 6676SOL     OW20926   1.044   3.511   2.908
 6676SOL    HW120927   0.989   3.437   2.947
 6676SOL    HW220928   1.109   3.544   2.976
 6677SOL     OW20929   0.601   1.068   6.450
 6677SOL    HW120930   0.563   1.160   6.440
 6677SOL    HW220931   0.528   1.000   6.435
 6678SOL     OW20932   2.048   4.253   0.946
 6678SOL    HW120933   2.065   4.304   1.030
 6678SOL    HW220934   2.043   4.316   0.869
 6679SOL     OW20935   3.995   0.967   4.054
 6679SOL    HW120936   3.972   1.026   3.976
 6679SOL    HW220937   4.084   0.925   4.038
 6680SOL     OW20938   4.736   6.134   6.717
 6680SOL    HW120939   4.770   6.227   6.729
 6680SOL    HW220940   4.657   6.135   6.655
 6681SOL     OW20941   4.901   5.586   1.367
 6681SOL    HW120942   4.922   5.520   1.295
 6681SOL    HW220943   4.882   5.538   1.452
 6682SOL     OW20944   2.082   4.561   6.892
 6682SOL    HW120945   2.150   4.565   6.819
 6682SOL    HW220946   2.128   4.571   6.980
 6683SOL     OW20947   6.043   3.146   5.944
 6683SOL    HW120948   6.030   3.046   5.944
 6683SOL    HW220949   6.040   3.180   6.038
 6684SOL     OW20950   3.711   6.753   2.217
 6684SOL    HW120951   3.752   6.687   2.279
 6684SOL    HW220952   3.718   6.720   2.123
 6685SOL     OW20953   4.979   2.441   6.482
 6685SOL    HW120954   5.074   2.456   6.507
 6685SOL    HW220955   4.920   2.488   6.548
 6686SOL     OW20956   6.043   6.010   3.791
 6686SOL    HW120957   6.009   6.099   3.760
 6686SOL    HW220958   6.034   5.943   3.717
 6687SOL     OW20959   0.441   2.643   1.957
 6687SOL    HW120960   0.497   2.719   1.990
 6687SOL    HW220961   0.457   2.562   2.014
 6688SOL     OW20962   4.199   4.560   0.760
 6688SOL    HW120963   4.238   4.515   0.841
 6688SOL    HW220964   4.267   4.559   0.687
 6689SOL     OW20965   4.192   3.492   5.933
 6689SOL    HW120966   4.110   3.541   5.962
 6689SOL    HW220967   4.177   3.454   5.841
 6690SOL     OW20968   1.354   6.699   0.181
 6690SOL    HW120969   1.275   6.637   0.183
 6690SOL    HW220970   1.362   6.746   0.268
 6691SOL     OW20971   1.714   0.340   2.533
 6691SOL    HW120972   1.714   0.251   2.487
 6691SOL    HW220973   1.728   0.412   2.466
 6692SOL     OW20974   4.137   3.692   2.058
 6692SOL    HW120975   4.217   3.647   2.018
 6692SOL    HW220976   4.167   3.755   2.130
 6693SOL     OW20977   4.597   1.947   5.146
 6693SOL    HW120978   4.545   1.985   5.069
 6693SOL    HW220979   4.536   1.895   5.205
 6694SOL     OW20980   4.648   6.292   1.371
 6694SOL    HW120981   4.731   6.292   1.315
 6694SOL    HW220982   4.574   6.337   1.321
 6695SOL     OW20983   2.952   2.053   6.900
 6695SOL    HW120984   2.970   1.966   6.855
 6695SOL    HW220985   2.853   2.064   6.913
 6696SOL     OW20986   4.127   3.558   3.121
 6696SOL    HW120987   4.156   3.505   3.200
 6696SOL    HW220988   4.060   3.626   3.149
 6697SOL     OW20989   4.738   2.454   3.356
 6697SOL    HW120990   4.698   2.544   3.370
 6697SOL    HW220991   4.822   2.463   3.303
 6698SOL     OW20992   3.222   3.529   1.171
 6698SOL    HW120993   3.235   3.503   1.267
 6698SOL    HW220994   3.217   3.446   1.115
 6699SOL     OW20995   2.272   6.603   5.402
 6699SOL    HW120996   2.269   6.692   5.447
 6699SOL    HW220997   2.367   6.580   5.380
 6700SOL     OW20998   5.761   1.158   1.055
 6700SOL    HW120999   5.733   1.071   1.014
 6700SOL    HW221000   5.681   1.217   1.065
 6701SOL     OW21001   5.458   6.288   1.809
 6701SOL    HW121002   5.525   6.225   1.769
 6701SOL    HW221003   5.414   6.340   1.736
 6702SOL     OW21004   1.936   2.486   1.898
 6702SOL    HW121005   1.908   2.431   1.976
 6702SOL    HW221006   1.931   2.583   1.921
 6703SOL     OW21007   0.791   1.339   6.894
 6703SOL    HW121008   0.706   1.312   6.847
 6703SOL    HW221009   0.865   1.345   6.827
 6704SOL     OW21010   4.322   2.393   4.450
 6704SOL    HW121011   4.346   2.437   4.536
 6704SOL    HW221012   4.349   2.453   4.374
 6705SOL     OW21013   6.098   2.659   0.754
 6705SOL    HW121014   6.066   2.713   0.676
 6705SOL    HW221015   6.110   2.719   0.833
 6706SOL     OW21016   1.957   6.206   0.638
 6706SOL    HW121017   2.007   6.133   0.593
 6706SOL    HW221018   2.022   6.265   0.688
 6707SOL     OW21019   5.439   6.854   2.991
 6707SOL    HW121020   5.356   6.910   2.996
 6707SOL    HW221021   5.437   6.800   2.906
 6708SOL     OW21022   5.621   5.423   1.044
 6708SOL    HW121023   5.546   5.440   1.107
 6708SOL    HW221024   5.691   5.367   1.090
 6709SOL     OW21025   0.366   5.262   2.826
 6709SOL    HW121026   0.397   5.172   2.857
 6709SOL    HW221027   0.395   5.332   2.891
 6710SOL     OW21028   4.380   1.339   0.700
 6710SOL    HW121029   4.391   1.435   0.726
 6710SOL    HW221030   4.294   1.327   0.651
 6711SOL     OW21031   5.129   6.726   5.728
 6711SOL    HW121032   5.119   6.819   5.692
 6711SOL    HW221033   5.042   6.697   5.769
 6712SOL     OW21034   6.081   3.203   1.372
 6712SOL    HW121035   6.052   3.117   1.330
 6712SOL    HW221036   6.088   3.192   1.471
 6713SOL     OW21037   1.157   1.065   3.167
 6713SOL    HW121038   1.173   1.008   3.247
 6713SOL    HW221039   1.167   1.010   3.084
 6714SOL     OW21040   5.674   1.215   0.483
 6714SOL    HW121041   5.693   1.162   0.566
 6714SOL    HW221042   5.670   1.312   0.507
 6715SOL     OW21043   1.451   0.507   1.359
 6715SOL    HW121044   1.353   0.518   1.378
 6715SOL    HW221045   1.479   0.573   1.289
 6716SOL     OW21046   6.759   5.936   2.381
 6716SOL    HW121047   6.715   5.911   2.295
 6716SOL    HW221048   6.782   5.853   2.433
 6717SOL     OW21049   2.516   2.293   6.472
 6717SOL    HW121050   2.529   2.218   6.538
 6717SOL    HW221051   2.548   2.264   6.382
 6718SOL     OW21052   3.596   0.710   1.327
 6718SOL    HW121053   3.691   0.704   1.356
 6718SOL    HW221054   3.581   0.795   1.277
 6719SOL     OW21055   2.244   6.832   0.090
 6719SOL    HW121056   2.166   6.894   0.103
 6719SOL    HW221057   2.281   6.843   7.025
 6720SOL     OW21058   2.493   1.666   4.678
 6720SOL    HW121059   2.502   1.643   4.774
 6720SOL    HW221060   2.418   1.731   4.665
 6721SOL     OW21061   6.728   6.769   0.402
 6721SOL    HW121062   6.781   6.848   0.431
 6721SOL    HW221063   6.709   6.711   0.481
 6722SOL     OW21064   0.103   2.387   0.026
 6722SOL    HW121065   0.111   2.464   6.989
 6722SOL    HW221066   0.125   2.417   0.119
 6723SOL     OW21067   1.718   6.895   5.914
 6723SOL    HW121068   1.765   6.809   5.898
 6723SOL    HW221069   1.624   6.889   5.879
 6724SOL     OW21070   2.272   2.367   6.377
 6724SOL    HW121071   2.359   2.336   6.414
 6724SOL    HW221072   2.197   2.322   6.426
 6725SOL     OW21073   6.707   2.655   2.235
 6725SOL    HW121074   6.769   2.596   2.286
 6725SOL    HW221075   6.621   2.665   2.284
 6726SOL     OW21076   0.515   2.178   4.261
 6726SOL    HW121077   0.518   2.083   4.229
 6726SOL    HW221078   0.450   2.230   4.205
 6727SOL     OW21079   0.254   4.426   5.816
 6727SOL    HW121080   0.305   4.512   5.819
 6727SOL    HW221081   0.318   4.349   5.815
 6728SOL     OW21082   3.641   1.806   2.959
 6728SOL    HW121083   3.615   1.901   2.974
 6728SOL    HW221084   3.725   1.786   3.010
 6729SOL     OW21085   6.935   1.640   0.870
 6729SOL    HW121086   6.923   1.738   0.856
 6729SOL    HW221087   6.944   1.594   0.782
 6730SOL     OW21088   1.897   0.121   0.911
 6730SOL    HW121089   1.880   0.041   0.969
 6730SOL    HW221090   1.842   0.114   0.828
 6731SOL     OW21091   1.600   6.758   0.798
 6731SOL    HW121092   1.586   6.660   0.816
 6731SOL    HW221093   1.513   6.800   0.776
 6732SOL     OW21094   5.014   4.451   4.535
 6732SOL    HW121095   4.922   4.488   4.545
 6732SOL    HW221096   5.046   4.415   4.622
 6733SOL     OW21097   4.172   5.567   6.298
 6733SOL    HW121098   4.197   5.633   6.370
 6733SOL    HW221099   4.150   5.617   6.214
 6734SOL     OW21100   5.319   2.180   5.976
 6734SOL    HW121101   5.221   2.163   5.990
 6734SOL    HW221102   5.360   2.101   5.930
 6735SOL     OW21103   5.761   3.290   4.086
 6735SOL    HW121104   5.840   3.279   4.025
 6735SOL    HW221105   5.681   3.244   4.045
 6736SOL     OW21106   3.387   3.663   6.205
 6736SOL    HW121107   3.465   3.636   6.148
 6736SOL    HW221108   3.400   3.629   6.298
 6737SOL     OW21109   1.219   3.310   1.264
 6737SOL    HW121110   1.131   3.348   1.237
 6737SOL    HW221111   1.210   3.211   1.279
 6738SOL     OW21112   1.718   5.530   3.956
 6738SOL    HW121113   1.807   5.572   3.938
 6738SOL    HW221114   1.690   5.475   3.877
 6739SOL     OW21115   6.328   5.940   3.758
 6739SOL    HW121116   6.368   5.995   3.831
 6739SOL    HW221117   6.230   5.960   3.751
 6740SOL     OW21118   6.614   0.479   5.166
 6740SOL    HW121119   6.582   0.386   5.150
 6740SOL    HW221120   6.581   0.511   5.255
 6741SOL     OW21121   3.402   2.055   5.552
 6741SOL    HW121122   3.424   2.138   5.602
 6741SOL    HW221123   3.357   1.990   5.614
 6742SOL     OW21124   5.506   5.493   3.649
 6742SOL    HW121125   5.582   5.459   3.705
 6742SOL    HW221126   5.429   5.516   3.709
 6743SOL     OW21127   3.657   3.909   6.370
 6743SOL    HW121128   3.694   3.973   6.437
 6743SOL    HW221129   3.598   3.843   6.416
 6744SOL     OW21130   0.191   6.697   5.380
 6744SOL    HW121131   0.166   6.786   5.343
 6744SOL    HW221132   0.258   6.709   5.453
 6745SOL     OW21133   6.717   6.260   3.719
 6745SOL    HW121134   6.672   6.333   3.770
 6745SOL    HW221135   6.743   6.187   3.782
 6746SOL     OW21136   1.319   0.620   3.742
 6746SOL    HW121137   1.257   0.564   3.688
 6746SOL    HW221138   1.299   0.609   3.840
 6747SOL     OW21139   6.151   0.436   0.232
 6747SOL    HW121140   6.072   0.493   0.210
 6747SOL    HW221141   6.189   0.464   0.321
 6748SOL     OW21142   3.044   1.887   3.407
 6748SOL    HW121143   3.139   1.857   3.413
 6748SOL    HW221144   3.035   1.952   3.331
 6749SOL     OW21145   3.962   4.632   1.193
 6749SOL    HW121146   3.952   4.643   1.292
 6749SOL    HW221147   4.059   4.628   1.170
 6750SOL     OW21148   3.083   1.929   4.558
 6750SOL    HW121149   3.132   1.939   4.645
 6750SOL    HW221150   3.086   2.015   4.508
 6751SOL     OW21151   4.747   0.544   3.270
 6751SOL    HW121152   4.695   0.482   3.329
 6751SOL    HW221153   4.844   0.538   3.294
 6752SOL     OW21154   2.075   0.213   2.814
 6752SOL    HW121155   2.053   0.220   2.716
 6752SOL    HW221156   1.990   0.218   2.867
 6753SOL     OW21157   3.263   1.467   6.301
 6753SOL    HW121158   3.350   1.471   6.252
 6753SOL    HW221159   3.276   1.502   6.394
 6754SOL     OW21160   6.594   1.266   0.825
 6754SOL    HW121161   6.689   1.293   0.839
 6754SOL    HW221162   6.578   1.250   0.727
 6755SOL     OW21163   4.287   3.938   1.168
 6755SOL    HW121164   4.311   4.020   1.116
 6755SOL    HW221165   4.359   3.869   1.158
 6756SOL     OW21166   3.589   6.906   5.427
 6756SOL    HW121167   3.643   6.975   5.474
 6756SOL    HW221168   3.646   6.827   5.405
 6757SOL     OW21169   3.746   2.464   0.817
 6757SOL    HW121170   3.752   2.381   0.762
 6757SOL    HW221171   3.755   2.440   0.914
 6758SOL     OW21172   6.168   2.819   1.523
 6758SOL    HW121173   6.256   2.790   1.484
 6758SOL    HW221174   6.181   2.841   1.620
 6759SOL     OW21175   0.197   3.166   2.546
 6759SOL    HW121176   0.101   3.149   2.522
 6759SOL    HW221177   0.244   3.205   2.467
 6760SOL     OW21178   6.320   3.775   2.302
 6760SOL    HW121179   6.405   3.804   2.344
 6760SOL    HW221180   6.247   3.776   2.370
 6761SOL     OW21181   5.676   3.297   4.962
 6761SOL    HW121182   5.698   3.394   4.969
 6761SOL    HW221183   5.687   3.267   4.867
 6762SOL     OW21184   0.922   4.959   4.404
 6762SOL    HW121185   0.952   5.019   4.330
 6762SOL    HW221186   0.876   4.879   4.366
 6763SOL     OW21187   5.342   5.520   4.125
 6763SOL    HW121188   5.432   5.502   4.165
 6763SOL    HW221189   5.273   5.518   4.198
 6764SOL     OW21190   2.382   5.155   1.688
 6764SOL    HW121191   2.429   5.194   1.608
 6764SOL    HW221192   2.374   5.224   1.759
 6765SOL     OW21193   5.816   4.805   2.888
 6765SOL    HW121194   5.725   4.769   2.872
 6765SOL    HW221195   5.862   4.750   2.959
 6766SOL     OW21196   5.161   6.469   5.558
 6766SOL    HW121197   5.157   6.539   5.629
 6766SOL    HW221198   5.221   6.500   5.484
 6767SOL     OW21199   3.208   0.404   1.137
 6767SOL    HW121200   3.260   0.487   1.156
 6767SOL    HW221201   3.264   0.340   1.085
 6768SOL     OW21202   2.001   0.951   5.415
 6768SOL    HW121203   2.016   1.041   5.455
 6768SOL    HW221204   2.009   0.957   5.316
 6769SOL     OW21205   3.348   1.731   0.651
 6769SOL    HW121206   3.298   1.650   0.620
 6769SOL    HW221207   3.444   1.723   0.626
 6770SOL     OW21208   0.243   1.026   2.179
 6770SOL    HW121209   0.291   1.104   2.141
 6770SOL    HW221210   0.251   1.027   2.279
 6771SOL     OW21211   4.873   2.484   3.622
 6771SOL    HW121212   4.912   2.576   3.614
 6771SOL    HW221213   4.815   2.466   3.543
 6772SOL     OW21214   3.472   1.953   3.250
 6772SOL    HW121215   3.470   2.012   3.169
 6772SOL    HW221216   3.395   1.889   3.246
 6773SOL     OW21217   6.922   5.206   1.971
 6773SOL    HW121218   6.844   5.178   2.026
 6773SOL    HW221219   6.962   5.289   2.010
 6774SOL     OW21220   0.523   2.113   5.689
 6774SOL    HW121221   0.447   2.177   5.681
 6774SOL    HW221222   0.590   2.130   5.617
 6775SOL     OW21223   2.501   2.829   1.703
 6775SOL    HW121224   2.551   2.750   1.736
 6775SOL    HW221225   2.564   2.894   1.660
 6776SOL     OW21226   4.107   4.853   0.176
 6776SOL    HW121227   4.203   4.874   0.192
 6776SOL    HW221228   4.077   4.782   0.240
 6777SOL     OW21229   4.263   4.020   6.952
 6777SOL    HW121230   4.266   3.940   6.892
 6777SOL    HW221231   4.352   4.032   6.996
 6778SOL     OW21232   5.955   4.902   1.941
 6778SOL    HW121233   5.917   4.936   2.027
 6778SOL    HW221234   5.967   4.979   1.877
 6779SOL     OW21235   6.654   5.261   6.524
 6779SOL    HW121236   6.618   5.282   6.433
 6779SOL    HW221237   6.625   5.332   6.588
 6780SOL     OW21238   1.295   2.802   1.940
 6780SOL    HW121239   1.304   2.892   1.983
 6780SOL    HW221240   1.375   2.786   1.881
 6781SOL     OW21241   6.613   0.682   4.946
 6781SOL    HW121242   6.698   0.734   4.938
 6781SOL    HW221243   6.619   0.620   5.024
 6782SOL     OW21244   0.034   0.257   3.417
 6782SOL    HW121245   7.023   0.286   3.506
 6782SOL    HW221246   0.132   0.275   3.416
 6783SOL     OW21247   6.141   1.375   5.671
 6783SOL    HW121248   6.168   1.371   5.575
 6783SOL    HW221249   6.208   1.430   5.722
 6784SOL     OW21250   2.705   4.330   1.096
 6784SOL    HW121251   2.626   4.274   1.119
 6784SOL    HW221252   2.787   4.272   1.091
 6785SOL     OW21253   5.057   5.215   3.570
 6785SOL    HW121254   5.137   5.195   3.626
 6785SOL    HW221255   4.992   5.270   3.623
 6786SOL     OW21256   1.606   2.048   0.166
 6786SOL    HW121257   1.628   2.118   0.099
 6786SOL    HW221258   1.518   2.006   0.143
 6787SOL     OW21259   2.021   2.458   1.230
 6787SOL    HW121260   2.025   2.521   1.153
 6787SOL    HW221261   2.081   2.492   1.303
 6788SOL     OW21262   2.294   3.855   1.393
 6788SOL    HW121263   2.236   3.883   1.469
 6788SOL    HW221264   2.243   3.862   1.307
 6789SOL     OW21265   6.674   5.877   3.022
 6789SOL    HW121266   6.683   5.900   3.119
 6789SOL    HW221267   6.722   5.945   2.966
 6790SOL     OW21268   0.833   3.895   1.309
 6790SOL    HW121269   0.771   3.844   1.369
 6790SOL    HW221270   0.787   3.977   1.276
 6791SOL     OW21271   4.050   2.600   1.596
 6791SOL    HW121272   4.117   2.657   1.643
 6791SOL    HW221273   4.083   2.506   1.591
 6792SOL     OW21274   6.467   5.606   5.516
 6792SOL    HW121275   6.427   5.574   5.430
 6792SOL    HW221276   6.566   5.617   5.505
 6793SOL     OW21277   0.797   1.985   0.753
 6793SOL    HW121278   0.759   1.893   0.744
 6793SOL    HW221279   0.726   2.046   0.788
 6794SOL     OW21280   4.961   1.334   6.595
 6794SOL    HW121281   5.025   1.311   6.669
 6794SOL    HW221282   4.895   1.402   6.629
 6795SOL     OW21283   2.588   6.605   1.264
 6795SOL    HW121284   2.605   6.511   1.235
 6795SOL    HW221285   2.671   6.643   1.304
 6796SOL     OW21286   6.433   1.088   1.891
 6796SOL    HW121287   6.434   1.076   1.792
 6796SOL    HW221288   6.513   1.044   1.931
 6797SOL     OW21289   5.518   2.937   1.995
 6797SOL    HW121290   5.456   2.862   2.015
 6797SOL    HW221291   5.533   2.942   1.896
 6798SOL     OW21292   5.077   6.869   2.237
 6798SOL    HW121293   4.993   6.915   2.266
 6798SOL    HW221294   5.058   6.774   2.215
 6799SOL     OW21295   6.729   6.606   1.040
 6799SOL    HW121296   6.637   6.638   1.016
 6799SOL    HW221297   6.797   6.654   0.984
 6800SOL     OW21298   2.113   3.668   1.117
 6800SOL    HW121299   2.019   3.657   1.086
 6800SOL    HW221300   2.150   3.755   1.085
 6801SOL     OW21301   0.582   0.125   2.754
 6801SOL    HW121302   0.570   0.162   2.846
 6801SOL    HW221303   0.508   0.060   2.735
 6802SOL     OW21304   3.173   6.002   0.477
 6802SOL    HW121305   3.176   5.911   0.520
 6802SOL    HW221306   3.262   6.047   0.490
 6803SOL     OW21307   5.014   3.071   6.007
 6803SOL    HW121308   5.043   3.159   6.045
 6803SOL    HW221309   4.979   3.084   5.914
 6804SOL     OW21310   3.308   5.276   4.025
 6804SOL    HW121311   3.359   5.264   3.940
 6804SOL    HW221312   3.231   5.212   4.028
 6805SOL     OW21313   5.998   5.096   6.312
 6805SOL    HW121314   6.018   5.122   6.217
 6805SOL    HW221315   6.062   5.141   6.373
 6806SOL     OW21316   5.904   0.208   3.880
 6806SOL    HW121317   6.001   0.186   3.884
 6806SOL    HW221318   5.890   0.283   3.815
 6807SOL     OW21319   3.013   3.109   0.201
 6807SOL    HW121320   3.054   3.081   0.114
 6807SOL    HW221321   2.968   3.198   0.189
 6808SOL     OW21322   0.571   1.826   5.122
 6808SOL    HW121323   0.535   1.734   5.136
 6808SOL    HW221324   0.643   1.844   5.189
 6809SOL     OW21325   1.263   3.050   1.351
 6809SOL    HW121326   1.183   2.993   1.334
 6809SOL    HW221327   1.342   2.992   1.371
 6810SOL     OW21328   1.835   0.233   1.581
 6810SOL    HW121329   1.924   0.270   1.607
 6810SOL    HW221330   1.806   0.274   1.495
 6811SOL     OW21331   5.219   4.103   0.607
 6811SOL    HW121332   5.170   4.128   0.523
 6811SOL    HW221333   5.200   4.007   0.628
 6812SOL     OW21334   3.364   3.158   3.188
 6812SOL    HW121335   3.338   3.085   3.251
 6812SOL    HW221336   3.447   3.203   3.222
 6813SOL     OW21337   5.085   2.314   2.955
 6813SOL    HW121338   5.081   2.219   2.986
 6813SOL    HW221339   4.993   2.350   2.946
 6814SOL     OW21340   3.212   1.798   6.234
 6814SOL    HW121341   3.302   1.759   6.218
 6814SOL    HW221342   3.218   1.868   6.305
 6815SOL     OW21343   3.139   6.936   1.584
 6815SOL    HW121344   3.124   0.008   1.581
 6815SOL    HW221345   3.234   6.916   1.561
 6816SOL     OW21346   0.500   0.000   0.062
 6816SOL    HW121347   0.515   7.024   6.990
 6816SOL    HW221348   0.585   0.030   0.107
 6817SOL     OW21349   1.215   2.467   3.638
 6817SOL    HW121350   1.314   2.450   3.639
 6817SOL    HW221351   1.175   2.436   3.724
 6818SOL     OW21352   3.064   5.004   1.945
 6818SOL    HW121353   3.061   4.968   1.852
 6818SOL    HW221354   3.022   4.939   2.008
 6819SOL     OW21355   5.210   0.731   4.379
 6819SOL    HW121356   5.173   0.653   4.430
 6819SOL    HW221357   5.175   0.816   4.418
 6820SOL     OW21358   1.663   5.924   2.911
 6820SOL    HW121359   1.761   5.943   2.917
 6820SOL    HW221360   1.641   5.850   2.974
 6821SOL     OW21361   3.485   1.085   4.671
 6821SOL    HW121362   3.512   0.998   4.629
 6821SOL    HW221363   3.527   1.161   4.620
 6822SOL     OW21364   5.396   2.452   6.753
 6822SOL    HW121365   5.451   2.452   6.837
 6822SOL    HW221366   5.302   2.426   6.774
 6823SOL     OW21367   3.784   3.282   4.663
 6823SOL    HW121368   3.821   3.190   4.679
 6823SOL    HW221369   3.742   3.285   4.572
 6824SOL     OW21370   1.061   2.704   6.796
 6824SOL    HW121371   1.105   2.633   6.742
 6824SOL    HW221372   1.000   2.663   6.863
 6825SOL     OW21373   4.790   0.120   1.984
 6825SOL    HW121374   4.854   0.196   1.996
 6825SOL    HW221375   4.716   0.147   1.922
 6826SOL     OW21376   1.832   4.083   2.294
 6826SOL    HW121377   1.795   4.024   2.223
 6826SOL    HW221378   1.932   4.075   2.296
 6827SOL     OW21379   4.606   5.799   6.329
 6827SOL    HW121380   4.531   5.852   6.369
 6827SOL    HW221381   4.654   5.855   6.261
 6828SOL     OW21382   3.054   2.186   1.546
 6828SOL    HW121383   3.093   2.249   1.613
 6828SOL    HW221384   2.954   2.189   1.551
 6829SOL     OW21385   4.214   6.390   4.150
 6829SOL    HW121386   4.306   6.361   4.178
 6829SOL    HW221387   4.169   6.315   4.102
 6830SOL     OW21388   5.214   1.360   4.001
 6830SOL    HW121389   5.251   1.347   4.093
 6830SOL    HW221390   5.115   1.345   4.003
 6831SOL     OW21391   1.328   0.505   6.554
 6831SOL    HW121392   1.336   0.596   6.513
 6831SOL    HW221393   1.247   0.459   6.518
 6832SOL     OW21394   2.165   4.007   0.850
 6832SOL    HW121395   2.107   4.082   0.881
 6832SOL    HW221396   2.108   3.931   0.819
 6833SOL     OW21397   4.006   3.789   6.109
 6833SOL    HW121398   3.973   3.851   6.038
 6833SOL    HW221399   3.976   3.696   6.088
 6834SOL     OW21400   5.290   6.549   1.094
 6834SOL    HW121401   5.280   6.456   1.060
 6834SOL    HW221402   5.227   6.609   1.045
 6835SOL     OW21403   3.715   0.259   4.341
 6835SOL    HW121404   3.752   0.208   4.418
 6835SOL    HW221405   3.701   0.197   4.264
 6836SOL     OW21406   2.993   5.401   0.119
 6836SOL    HW121407   3.078   5.389   0.170
 6836SOL    HW221408   2.921   5.345   0.158
 6837SOL     OW21409   1.033   1.573   2.526
 6837SOL    HW121410   1.059   1.662   2.564
 6837SOL    HW221411   0.936   1.575   2.501
 6838SOL     OW21412   2.738   6.154   0.489
 6838SOL    HW121413   2.762   6.078   0.429
 6838SOL    HW221414   2.821   6.193   0.528
 6839SOL     OW21415   5.403   0.500   6.993
 6839SOL    HW121416   5.355   0.578   6.953
 6839SOL    HW221417   5.458   0.532   0.044
 6840SOL     OW21418   2.774   1.022   4.972
 6840SOL    HW121419   2.716   1.091   4.930
 6840SOL    HW221420   2.867   1.029   4.935
 6841SOL     OW21421   4.696   4.160   6.455
 6841SOL    HW121422   4.600   4.139   6.434
 6841SOL    HW221423   4.699   4.239   6.517
 6842SOL     OW21424   2.777   4.279   1.409
 6842SOL    HW121425   2.695   4.262   1.354
 6842SOL    HW221426   2.847   4.211   1.388
 6843SOL     OW21427   6.071   6.399   1.008
 6843SOL    HW121428   5.976   6.427   0.995
 6843SOL    HW221429   6.082   6.304   0.979
 6844SOL     OW21430   5.812   0.830   4.551
 6844SOL    HW121431   5.828   0.914   4.602
 6844SOL    HW221432   5.713   0.814   4.543
 6845SOL     OW21433   6.118   3.689   3.224
 6845SOL    HW121434   6.028   3.652   3.247
 6845SOL    HW221435   6.116   3.725   3.131
 6846SOL     OW21436   3.876   3.105   0.054
 6846SOL    HW121437   3.808   3.127   0.124
 6846SOL    HW221438   3.953   3.056   0.096
 6847SOL     OW21439   6.981   3.349   4.985
 6847SOL    HW121440   6.970   3.360   5.083
 6847SOL    HW221441   6.992   3.439   4.942
 6848SOL     OW21442   5.221   4.619   3.441
 6848SOL    HW121443   5.320   4.625   3.452
 6848SOL    HW221444   5.186   4.705   3.404
 6849SOL     OW21445   4.739   3.914   5.455
 6849SOL    HW121446   4.718   3.816   5.456
 6849SOL    HW221447   4.675   3.962   5.514
 6850SOL     OW21448   5.256   2.914   2.982
 6850SOL    HW121449   5.305   2.840   2.934
 6850SOL    HW221450   5.210   2.972   2.915
 6851SOL     OW21451   0.627   2.237   2.990
 6851SOL    HW121452   0.613   2.158   3.049
 6851SOL    HW221453   0.721   2.271   3.003
 6852SOL     OW21454   2.615   4.659   1.075
 6852SOL    HW121455   2.551   4.671   1.151
 6852SOL    HW221456   2.635   4.562   1.063
 6853SOL     OW21457   5.386   4.385   6.575
 6853SOL    HW121458   5.432   4.316   6.631
 6853SOL    HW221459   5.443   4.466   6.567
 6854SOL     OW21460   5.241   0.591   5.990
 6854SOL    HW121461   5.327   0.541   5.981
 6854SOL    HW221462   5.165   0.526   5.995
 6855SOL     OW21463   4.473   5.759   3.703
 6855SOL    HW121464   4.444   5.838   3.649
 6855SOL    HW221465   4.567   5.735   3.678
 6856SOL     OW21466   0.347   2.303   4.917
 6856SOL    HW121467   0.322   2.213   4.880
 6856SOL    HW221468   0.272   2.337   4.974
 6857SOL     OW21469   1.292   3.008   6.446
 6857SOL    HW121470   1.371   3.059   6.411
 6857SOL    HW221471   1.311   2.978   6.540
 6858SOL     OW21472   4.057   4.008   1.793
 6858SOL    HW121473   4.089   4.101   1.775
 6858SOL    HW221474   4.132   3.943   1.774
 6859SOL     OW21475   0.728   1.099   1.218
 6859SOL    HW121476   0.810   1.156   1.222
 6859SOL    HW221477   0.736   1.036   1.141
 6860SOL     OW21478   0.006   4.931   1.122
 6860SOL    HW121479   0.032   5.006   1.183
 6860SOL    HW221480   0.009   4.844   1.171
 6861SOL     OW21481   5.129   3.958   6.617
 6861SOL    HW121482   5.035   3.923   6.623
 6861SOL    HW221483   5.170   3.928   6.532
 6862SOL     OW21484   0.280   5.800   5.757
 6862SOL    HW121485   0.340   5.808   5.678
 6862SOL    HW221486   0.249   5.892   5.785
 6863SOL     OW21487   6.626   6.515   5.692
 6863SOL    HW121488   6.569   6.595   5.713
 6863SOL    HW221489   6.567   6.436   5.676
 6864SOL     OW21490   2.443   4.449   5.361
 6864SOL    HW121491   2.451   4.532   5.307
 6864SOL    HW221492   2.475   4.466   5.454
 6865SOL     OW21493   0.789   6.897   4.806
 6865SOL    HW121494   0.780   6.832   4.881
 6865SOL    HW221495   0.703   6.947   4.793
 6866SOL     OW21496   5.763   5.208   2.983
 6866SOL    HW121497   5.757   5.136   3.052
 6866SOL    HW221498   5.839   5.189   2.921
 6867SOL     OW21499   2.196   3.277   1.677
 6867SOL    HW121500   2.254   3.342   1.726
 6867SOL    HW221501   2.117   3.325   1.638
 6868SOL     OW21502   1.934   6.840   5.377
 6868SOL    HW121503   1.895   6.749   5.386
 6868SOL    HW221504   2.010   6.837   5.312
 6869SOL     OW21505   5.316   0.857   6.025
 6869SOL    HW121506   5.225   0.888   6.000
 6869SOL    HW221507   5.316   0.758   6.038
 6870SOL     OW21508   0.555   4.251   0.969
 6870SOL    HW121509   0.617   4.300   0.908
 6870SOL    HW221510   0.504   4.182   0.917
 6871SOL     OW21511   5.826   4.158   3.179
 6871SOL    HW121512   5.864   4.187   3.267
 6871SOL    HW221513   5.884   4.193   3.105
 6872SOL     OW21514   0.681   2.520   1.613
 6872SOL    HW121515   0.671   2.456   1.689
 6872SOL    HW221516   0.592   2.559   1.591
 6873SOL     OW21517   0.765   3.163   4.122
 6873SOL    HW121518   0.752   3.236   4.188
 6873SOL    HW221519   0.798   3.202   4.036
 6874SOL     OW21520   6.805   5.365   3.444
 6874SOL    HW121521   6.765   5.453   3.419
 6874SOL    HW221522   6.793   5.351   3.543
 6875SOL     OW21523   2.209   1.715   2.247
 6875SOL    HW121524   2.224   1.664   2.162
 6875SOL    HW221525   2.112   1.713   2.270
 6876SOL     OW21526   3.907   6.714   3.678
 6876SOL    HW121527   3.907   6.814   3.675
 6876SOL    HW221528   3.885   6.678   3.587
 6877SOL     OW21529   3.108   4.399   1.397
 6877SOL    HW121530   3.040   4.460   1.359
 6877SOL    HW221531   3.070   4.353   1.478
 6878SOL     OW21532   2.691   1.967   3.765
 6878SOL    HW121533   2.629   1.891   3.787
 6878SOL    HW221534   2.720   1.960   3.670
 6879SOL     OW21535   2.485   2.606   6.880
 6879SOL    HW121536   2.437   2.611   6.968
 6879SOL    HW221537   2.440   2.538   6.822
 6880SOL     OW21538   0.807   6.114   5.726
 6880SOL    HW121539   0.861   6.081   5.648
 6880SOL    HW221540   0.776   6.035   5.780
 6881SOL     OW21541   1.254   3.215   1.619
 6881SOL    HW121542   1.210   3.132   1.652
 6881SOL    HW221543   1.260   3.212   1.520
 6882SOL     OW21544   2.615   0.414   0.473
 6882SOL    HW121545   2.660   0.406   0.384
 6882SOL    HW221546   2.541   0.347   0.479
 6883SOL     OW21547   5.118   1.361   0.213
 6883SOL    HW121548   5.131   1.415   0.295
 6883SOL    HW221549   5.178   1.281   0.215
 6884SOL     OW21550   0.990   4.243   2.878
 6884SOL    HW121551   1.081   4.259   2.840
 6884SOL    HW221552   0.996   4.182   2.956
 6885SOL     OW21553   4.601   4.828   3.142
 6885SOL    HW121554   4.554   4.805   3.057
 6885SOL    HW221555   4.643   4.918   3.133
 6886SOL     OW21556   0.131   1.405   4.726
 6886SOL    HW121557   0.209   1.342   4.729
 6886SOL    HW221558   0.159   1.495   4.759
 6887SOL     OW21559   4.730   5.672   6.535
 6887SOL    HW121560   4.801   5.727   6.580
 6887SOL    HW221561   4.693   5.723   6.457
 6888SOL     OW21562   5.284   4.888   6.391
 6888SOL    HW121563   5.240   4.928   6.471
 6888SOL    HW221564   5.215   4.855   6.327
 6889SOL     OW21565   1.828   2.700   5.894
 6889SOL    HW121566   1.757   2.634   5.916
 6889SOL    HW221567   1.898   2.657   5.837
 6890SOL     OW21568   4.023   5.882   1.890
 6890SOL    HW121569   4.042   5.785   1.904
 6890SOL    HW221570   3.924   5.895   1.879
 6891SOL     OW21571   2.142   3.571   1.376
 6891SOL    HW121572   2.237   3.568   1.406
 6891SOL    HW221573   2.135   3.631   1.296
 6892SOL     OW21574   3.876   1.604   4.287
 6892SOL    HW121575   3.968   1.583   4.320
 6892SOL    HW221576   3.860   1.559   4.200
 6893SOL     OW21577   4.873   3.903   6.898
 6893SOL    HW121578   4.792   3.912   6.840
 6893SOL    HW221579   4.864   3.965   6.977
 6894SOL     OW21580   6.269   5.094   1.042
 6894SOL    HW121581   6.221   5.024   1.095
 6894SOL    HW221582   6.252   5.079   0.945
 6895SOL     OW21583   1.907   5.013   1.429
 6895SOL    HW121584   1.938   5.020   1.524
 6895SOL    HW221585   1.908   4.917   1.401
 6896SOL     OW21586   3.281   2.083   3.614
 6896SOL    HW121587   3.227   2.000   3.599
 6896SOL    HW221588   3.277   2.109   3.710
 6897SOL     OW21589   4.865   3.285   5.183
 6897SOL    HW121590   4.917   3.294   5.098
 6897SOL    HW221591   4.917   3.326   5.258
 6898SOL     OW21592   3.817   1.696   1.162
 6898SOL    HW121593   3.730   1.679   1.209
 6898SOL    HW221594   3.799   1.723   1.067
 6899SOL     OW21595   4.620   5.857   2.440
 6899SOL    HW121596   4.546   5.791   2.446
 6899SOL    HW221597   4.587   5.941   2.395
 6900SOL     OW21598   6.592   4.758   4.641
 6900SOL    HW121599   6.600   4.804   4.729
 6900SOL    HW221600   6.515   4.796   4.590
 6901SOL     OW21601   5.709   6.080   6.549
 6901SOL    HW121602   5.656   6.128   6.619
 6901SOL    HW221603   5.784   6.030   6.592
 6902SOL     OW21604   6.731   5.573   5.800
 6902SOL    HW121605   6.634   5.559   5.777
 6902SOL    HW221606   6.743   5.663   5.841
 6903SOL     OW21607   3.210   4.947   5.150
 6903SOL    HW121608   3.237   4.877   5.217
 6903SOL    HW221609   3.111   4.944   5.137
 6904SOL     OW21610   6.331   0.642   5.851
 6904SOL    HW121611   6.341   0.644   5.951
 6904SOL    HW221612   6.412   0.601   5.811
 6905SOL     OW21613   5.197   5.541   6.620
 6905SOL    HW121614   5.099   5.520   6.625
 6905SOL    HW221615   5.227   5.539   6.525
 6906SOL     OW21616   3.972   1.300   3.952
 6906SOL    HW121617   4.063   1.296   3.911
 6906SOL    HW221618   3.914   1.228   3.915
 6907SOL     OW21619   5.978   2.040   1.282
 6907SOL    HW121620   5.882   2.024   1.303
 6907SOL    HW221621   6.035   1.984   1.342
 6908SOL     OW21622   2.168   5.278   6.505
 6908SOL    HW121623   2.200   5.197   6.456
 6908SOL    HW221624   2.224   5.357   6.479
 6909SOL     OW21625   5.140   3.830   0.683
 6909SOL    HW121626   5.118   3.846   0.586
 6909SOL    HW221627   5.233   3.793   0.690
 6910SOL     OW21628   1.382   3.225   2.768
 6910SOL    HW121629   1.357   3.321   2.782
 6910SOL    HW221630   1.455   3.219   2.700
 6911SOL     OW21631   4.183   0.052   4.243
 6911SOL    HW121632   4.120   0.129   4.256
 6911SOL    HW221633   4.149   7.021   4.169
 6912SOL     OW21634   2.788   3.348   6.312
 6912SOL    HW121635   2.801   3.353   6.213
 6912SOL    HW221636   2.719   3.414   6.340
 6913SOL     OW21637   5.457   6.282   4.623
 6913SOL    HW121638   5.414   6.331   4.548
 6913SOL    HW221639   5.387   6.232   4.675
 6914SOL     OW21640   5.544   4.568   3.943
 6914SOL    HW121641   5.519   4.599   4.035
 6914SOL    HW221642   5.642   4.585   3.928
 6915SOL     OW21643   6.755   2.413   2.001
 6915SOL    HW121644   6.698   2.447   2.077
 6915SOL    HW221645   6.839   2.468   1.996
 6916SOL     OW21646   5.751   0.980   0.156
 6916SOL    HW121647   5.721   0.978   0.252
 6916SOL    HW221648   5.783   0.890   0.129
 6917SOL     OW21649   4.293   6.315   1.807
 6917SOL    HW121650   4.237   6.361   1.875
 6917SOL    HW221651   4.274   6.217   1.808
 6918SOL     OW21652   6.847   2.478   3.836
 6918SOL    HW121653   6.942   2.488   3.806
 6918SOL    HW221654   6.799   2.565   3.826
 6919SOL     OW21655   6.503   5.615   4.051
 6919SOL    HW121656   6.541   5.542   3.994
 6919SOL    HW221657   6.411   5.637   4.018
 6920SOL     OW21658   4.573   6.696   4.924
 6920SOL    HW121659   4.550   6.793   4.935
 6920SOL    HW221660   4.607   6.681   4.831
 6921SOL     OW21661   4.574   6.388   3.344
 6921SOL    HW121662   4.571   6.297   3.302
 6921SOL    HW221663   4.501   6.395   3.412
 6922SOL     OW21664   1.806   6.118   5.764
 6922SOL    HW121665   1.767   6.028   5.781
 6922SOL    HW221666   1.906   6.110   5.759
 6923SOL     OW21667   5.426   5.899   2.478
 6923SOL    HW121668   5.385   5.868   2.564
 6923SOL    HW221669   5.520   5.865   2.472
 6924SOL     OW21670   2.674   4.129   0.025
 6924SOL    HW121671   2.576   4.134   0.005
 6924SOL    HW221672   2.726   4.154   6.970
 6925SOL     OW21673   5.166   5.766   4.529
 6925SOL    HW121674   5.236   5.837   4.520
 6925SOL    HW221675   5.177   5.719   4.617
 6926SOL     OW21676   2.582   2.020   0.190
 6926SOL    HW121677   2.538   2.065   0.267
 6926SOL    HW221678   2.675   2.057   0.179
 6927SOL     OW21679   3.795   1.959   5.991
 6927SOL    HW121680   3.779   1.921   6.082
 6927SOL    HW221681   3.760   2.053   5.987
 6928SOL     OW21682   5.661   5.760   0.683
 6928SOL    HW121683   5.593   5.717   0.624
 6928SOL    HW221684   5.653   5.724   0.776
 6929SOL     OW21685   5.181   6.026   2.380
 6929SOL    HW121686   5.255   5.974   2.423
 6929SOL    HW221687   5.093   5.995   2.415
 6930SOL     OW21688   1.354   1.062   1.258
 6930SOL    HW121689   1.289   1.136   1.245
 6930SOL    HW221690   1.360   1.039   1.356
 6931SOL     OW21691   1.483   1.762   2.713
 6931SOL    HW121692   1.459   1.796   2.804
 6931SOL    HW221693   1.445   1.823   2.644
 6932SOL     OW21694   4.966   6.655   0.634
 6932SOL    HW121695   5.036   6.669   0.565
 6932SOL    HW221696   4.998   6.690   0.722
 6933SOL     OW21697   3.298   6.197   5.537
 6933SOL    HW121698   3.366   6.199   5.610
 6933SOL    HW221699   3.316   6.272   5.473
 6934SOL     OW21700   4.418   3.440   6.058
 6934SOL    HW121701   4.333   3.450   6.006
 6934SOL    HW221702   4.479   3.516   6.036
 6935SOL     OW21703   4.375   5.781   2.758
 6935SOL    HW121704   4.423   5.733   2.831
 6935SOL    HW221705   4.279   5.791   2.782
 6936SOL     OW21706   5.983   2.832   4.313
 6936SOL    HW121707   5.940   2.851   4.401
 6936SOL    HW221708   6.066   2.887   4.304
 6937SOL     OW21709   6.261   6.057   0.827
 6937SOL    HW121710   6.294   6.039   0.734
 6937SOL    HW221711   6.323   6.122   0.872
 6938SOL     OW21712   0.029   2.316   4.749
 6938SOL    HW121713   0.111   2.371   4.732
 6938SOL    HW221714   0.006   2.264   4.667
 6939SOL     OW21715   0.060   5.056   2.543
 6939SOL    HW121716   0.139   4.997   2.564
 6939SOL    HW221717   0.053   5.128   2.612
 6940SOL     OW21718   4.168   0.063   0.084
 6940SOL    HW121719   4.208   7.004   0.050
 6940SOL    HW221720   4.217   0.141   0.044
 6941SOL     OW21721   3.015   3.777   2.098
 6941SOL    HW121722   3.045   3.682   2.101
 6941SOL    HW221723   3.093   3.836   2.080
 6942SOL     OW21724   5.527   6.882   2.226
 6942SOL    HW121725   5.469   6.841   2.296
 6942SOL    HW221726   5.618   6.841   2.230
 6943SOL     OW21727   3.647   5.425   0.961
 6943SOL    HW121728   3.590   5.441   1.041
 6943SOL    HW221729   3.590   5.398   0.883
 6944SOL     OW21730   1.291   5.269   6.219
 6944SOL    HW121731   1.324   5.280   6.126
 6944SOL    HW221732   1.225   5.194   6.222
 6945SOL     OW21733   6.830   1.452   1.613
 6945SOL    HW121734   6.825   1.551   1.597
 6945SOL    HW221735   6.781   1.429   1.697
 6946SOL     OW21736   4.374   6.433   1.549
 6946SOL    HW121737   4.418   6.521   1.567
 6946SOL    HW221738   4.350   6.390   1.635
 6947SOL     OW21739   4.289   5.293   6.286
 6947SOL    HW121740   4.250   5.385   6.294
 6947SOL    HW221741   4.241   5.242   6.215
 6948SOL     OW21742   0.965   6.195   1.173
 6948SOL    HW121743   1.038   6.232   1.115
 6948SOL    HW221744   0.935   6.106   1.137
 6949SOL     OW21745   2.480   1.071   3.429
 6949SOL    HW121746   2.441   1.045   3.518
 6949SOL    HW221747   2.477   0.993   3.367
 6950SOL     OW21748   1.623   0.862   4.762
 6950SOL    HW121749   1.631   0.799   4.840
 6950SOL    HW221750   1.551   0.928   4.780
 6951SOL     OW21751   0.491   6.110   6.348
 6951SOL    HW121752   0.449   6.040   6.290
 6951SOL    HW221753   0.462   6.200   6.316
 6952SOL     OW21754   1.296   4.995   3.051
 6952SOL    HW121755   1.387   5.006   3.089
 6952SOL    HW221756   1.284   5.059   2.975
 6953SOL     OW21757   5.269   6.735   0.784
 6953SOL    HW121758   5.177   6.748   0.823
 6953SOL    HW221759   5.317   6.823   0.783
 6954SOL     OW21760   1.001   4.407   1.348
 6954SOL    HW121761   0.961   4.403   1.440
 6954SOL    HW221762   0.962   4.485   1.298
 6955SOL     OW21763   4.734   0.796   2.734
 6955SOL    HW121764   4.814   0.761   2.686
 6955SOL    HW221765   4.718   0.891   2.709
 6956SOL     OW21766   4.967   5.794   3.246
 6956SOL    HW121767   4.952   5.879   3.295
 6956SOL    HW221768   5.049   5.801   3.189
 6957SOL     OW21769   5.858   5.697   0.169
 6957SOL    HW121770   5.882   5.710   0.073
 6957SOL    HW221771   5.807   5.776   0.202
 6958SOL     OW21772   4.068   3.511   4.623
 6958SOL    HW121773   4.094   3.420   4.590
 6958SOL    HW221774   4.000   3.501   4.697
 6959SOL     OW21775   1.854   4.032   3.082
 6959SOL    HW121776   1.949   4.031   3.115
 6959SOL    HW221777   1.844   4.104   3.013
 6960SOL     OW21778   1.711   3.996   0.708
 6960SOL    HW121779   1.772   4.037   0.641
 6960SOL    HW221780   1.684   3.905   0.678
 6961SOL     OW21781   6.079   1.184   5.067
 6961SOL    HW121782   6.020   1.216   4.993
 6961SOL    HW221783   6.035   1.205   5.155
 6962SOL     OW21784   4.276   5.731   1.166
 6962SOL    HW121785   4.299   5.672   1.088
 6962SOL    HW221786   4.332   5.814   1.162
 6963SOL     OW21787   5.546   5.323   0.786
 6963SOL    HW121788   5.557   5.386   0.863
 6963SOL    HW221789   5.451   5.322   0.756
 6964SOL     OW21790   3.445   0.722   6.526
 6964SOL    HW121791   3.348   0.722   6.502
 6964SOL    HW221792   3.467   0.639   6.578
 6965SOL     OW21793   1.866   1.769   6.581
 6965SOL    HW121794   1.877   1.818   6.668
 6965SOL    HW221795   1.913   1.818   6.508
 6966SOL     OW21796   0.063   0.847   2.768
 6966SOL    HW121797   0.018   0.897   2.842
 6966SOL    HW221798   0.152   0.889   2.748
 6967SOL     OW21799   3.300   1.259   5.457
 6967SOL    HW121800   3.306   1.277   5.555
 6967SOL    HW221801   3.228   1.316   5.417
 6968SOL     OW21802   2.656   1.261   3.998
 6968SOL    HW121803   2.574   1.315   4.014
 6968SOL    HW221804   2.677   1.261   3.900
 6969SOL     OW21805   2.941   2.316   1.156
 6969SOL    HW121806   2.856   2.313   1.208
 6969SOL    HW221807   3.009   2.369   1.206
 6970SOL     OW21808   4.197   3.532   5.061
 6970SOL    HW121809   4.200   3.571   5.153
 6970SOL    HW221810   4.278   3.562   5.010
 6971SOL     OW21811   6.151   4.460   1.283
 6971SOL    HW121812   6.168   4.388   1.350
 6971SOL    HW221813   6.180   4.430   1.192
 6972SOL     OW21814   5.220   3.959   2.485
 6972SOL    HW121815   5.130   3.948   2.445
 6972SOL    HW221816   5.239   4.056   2.499
 6973SOL     OW21817   0.735   2.481   3.561
 6973SOL    HW121818   0.705   2.490   3.466
 6973SOL    HW221819   0.657   2.453   3.618
 6974SOL     OW21820   3.077   4.028   2.739
 6974SOL    HW121821   3.115   4.019   2.831
 6974SOL    HW221822   2.989   3.982   2.735
 6975SOL     OW21823   1.841   6.760   4.669
 6975SOL    HW121824   1.857   6.670   4.709
 6975SOL    HW221825   1.743   6.774   4.657
 6976SOL     OW21826   6.405   4.569   5.880
 6976SOL    HW121827   6.391   4.655   5.930
 6976SOL    HW221828   6.411   4.589   5.782
 6977SOL     OW21829   3.734   3.596   1.154
 6977SOL    HW121830   3.796   3.591   1.232
 6977SOL    HW221831   3.658   3.532   1.167
 6978SOL     OW21832   5.364   2.519   1.802
 6978SOL    HW121833   5.291   2.544   1.739
 6978SOL    HW221834   5.371   2.589   1.874
 6979SOL     OW21835   0.839   3.621   1.241
 6979SOL    HW121836   0.837   3.720   1.259
 6979SOL    HW221837   0.824   3.572   1.327
 6980SOL     OW21838   2.123   0.991   3.580
 6980SOL    HW121839   2.097   1.081   3.543
 6980SOL    HW221840   2.084   0.919   3.521
 6981SOL     OW21841   3.602   3.206   5.704
 6981SOL    HW121842   3.613   3.287   5.646
 6981SOL    HW221843   3.661   3.215   5.785
 6982SOL     OW21844   1.061   0.831   4.360
 6982SOL    HW121845   1.103   0.850   4.272
 6982SOL    HW221846   0.989   0.762   4.349
 6983SOL     OW21847   4.988   1.433   4.959
 6983SOL    HW121848   4.975   1.518   4.907
 6983SOL    HW221849   5.080   1.431   4.998
 6984SOL     OW21850   2.102   1.879   2.910
 6984SOL    HW121851   2.173   1.809   2.903
 6984SOL    HW221852   2.031   1.848   2.974
 6985SOL     OW21853   6.383   5.247   0.609
 6985SOL    HW121854   6.425   5.186   0.542
 6985SOL    HW221855   6.378   5.340   0.572
 6986SOL     OW21856   3.390   6.510   6.613
 6986SOL    HW121857   3.330   6.584   6.642
 6986SOL    HW221858   3.429   6.464   6.693
 6987SOL     OW21859   6.551   1.058   6.359
 6987SOL    HW121860   6.541   1.014   6.269
 6987SOL    HW221861   6.476   1.123   6.372
 6988SOL     OW21862   1.411   6.737   5.812
 6988SOL    HW121863   1.340   6.708   5.876
 6988SOL    HW221864   1.497   6.689   5.834
 6989SOL     OW21865   6.965   4.747   2.964
 6989SOL    HW121866   6.872   4.782   2.956
 6989SOL    HW221867   6.962   4.648   2.973
 6990SOL     OW21868   3.885   2.890   1.236
 6990SOL    HW121869   3.906   2.974   1.286
 6990SOL    HW221870   3.932   2.813   1.279
 6991SOL     OW21871   5.023   3.920   3.332
 6991SOL    HW121872   5.014   3.912   3.232
 6991SOL    HW221873   4.999   4.013   3.360
 6992SOL     OW21874   6.285   6.584   6.719
 6992SOL    HW121875   6.272   6.681   6.698
 6992SOL    HW221876   6.339   6.542   6.646
 6993SOL     OW21877   6.099   0.740   1.847
 6993SOL    HW121878   6.048   0.797   1.912
 6993SOL    HW221879   6.102   0.786   1.758
 6994SOL     OW21880   0.936   1.744   4.276
 6994SOL    HW121881   0.843   1.720   4.246
 6994SOL    HW221882   0.998   1.739   4.198
 6995SOL     OW21883   6.807   3.627   6.466
 6995SOL    HW121884   6.837   3.628   6.371
 6995SOL    HW221885   6.884   3.602   6.525
 6996SOL     OW21886   1.673   0.563   0.127
 6996SOL    HW121887   1.647   0.626   0.054
 6996SOL    HW221888   1.722   0.485   0.088
 6997SOL     OW21889   0.587   4.824   4.912
 6997SOL    HW121890   0.528   4.746   4.892
 6997SOL    HW221891   0.588   4.841   5.010
 6998SOL     OW21892   1.586   1.734   1.322
 6998SOL    HW121893   1.676   1.692   1.335
 6998SOL    HW221894   1.596   1.820   1.273
 6999SOL     OW21895   1.993   2.332   6.166
 6999SOL    HW121896   1.956   2.349   6.257
 6999SOL    HW221897   2.087   2.367   6.162
 7000SOL     OW21898   5.948   0.588   2.708
 7000SOL    HW121899   5.941   0.587   2.608
 7000SOL    HW221900   5.907   0.505   2.745
 7001SOL     OW21901   0.990   2.508   5.211
 7001SOL    HW121902   0.934   2.426   5.196
 7001SOL    HW221903   1.039   2.530   5.126
 7002SOL     OW21904   2.143   4.939   3.986
 7002SOL    HW121905   2.072   5.009   3.987
 7002SOL    HW221906   2.189   4.939   3.897
 7003SOL     OW21907   4.578   6.152   1.582
 7003SOL    HW121908   4.519   6.082   1.542
 7003SOL    HW221909   4.607   6.216   1.510
 7004SOL     OW21910   0.563   6.549   0.713
 7004SOL    HW121911   0.545   6.619   0.644
 7004SOL    HW221912   0.586   6.463   0.667
 7005SOL     OW21913   1.304   1.109   0.464
 7005SOL    HW121914   1.367   1.051   0.412
 7005SOL    HW221915   1.304   1.080   0.560
 7006SOL     OW21916   5.792   5.845   3.441
 7006SOL    HW121917   5.777   5.796   3.355
 7006SOL    HW221918   5.723   5.818   3.508
 7007SOL     OW21919   4.220   0.657   4.689
 7007SOL    HW121920   4.148   0.608   4.738
 7007SOL    HW221921   4.203   0.755   4.695
 7008SOL     OW21922   0.494   4.325   4.282
 7008SOL    HW121923   0.567   4.367   4.228
 7008SOL    HW221924   0.411   4.318   4.228
 7009SOL     OW21925   3.825   6.527   2.379
 7009SOL    HW121926   3.848   6.444   2.329
 7009SOL    HW221927   3.815   6.507   2.476
 7010SOL     OW21928   5.527   4.062   3.829
 7010SOL    HW121929   5.460   4.064   3.755
 7010SOL    HW221930   5.595   3.991   3.809
 7011SOL     OW21931   3.841   6.819   0.352
 7011SOL    HW121932   3.809   6.816   0.258
 7011SOL    HW221933   3.775   6.772   0.412
 7012SOL     OW21934   0.623   1.847   1.048
 7012SOL    HW121935   0.715   1.884   1.061
 7012SOL    HW221936   0.592   1.803   1.132
 7013SOL     OW21937   1.504   0.062   6.485
 7013SOL    HW121938   1.580   0.089   6.426
 7013SOL    HW221939   1.418   0.070   6.434
 7014SOL     OW21940   5.613   3.192   0.394
 7014SOL    HW121941   5.579   3.113   0.444
 7014SOL    HW221942   5.553   3.211   0.316
 7015SOL     OW21943   5.617   4.548   1.664
 7015SOL    HW121944   5.640   4.450   1.661
 7015SOL    HW221945   5.624   4.580   1.758
 7016SOL     OW21946   4.038   4.844   1.487
 7016SOL    HW121947   4.019   4.874   1.393
 7016SOL    HW221948   4.039   4.924   1.548
 7017SOL     OW21949   3.222   5.291   3.069
 7017SOL    HW121950   3.156   5.306   2.995
 7017SOL    HW221951   3.267   5.203   3.056
 7018SOL     OW21952   5.225   3.985   4.455
 7018SOL    HW121953   5.182   4.012   4.369
 7018SOL    HW221954   5.167   4.011   4.532
 7019SOL     OW21955   3.941   4.272   1.468
 7019SOL    HW121956   3.902   4.337   1.403
 7019SOL    HW221957   3.907   4.292   1.560
 7020SOL     OW21958   0.157   4.122   5.779
 7020SOL    HW121959   0.255   4.111   5.767
 7020SOL    HW221960   0.113   4.129   5.689
 7021SOL     OW21961   1.887   3.066   3.931
 7021SOL    HW121962   1.969   3.060   3.874
 7021SOL    HW221963   1.913   3.071   4.027
 7022SOL     OW21964   4.982   0.267   0.259
 7022SOL    HW121965   5.024   0.296   0.174
 7022SOL    HW221966   4.915   0.335   0.289
 7023SOL     OW21967   0.448   2.652   1.568
 7023SOL    HW121968   0.452   2.750   1.549
 7023SOL    HW221969   0.373   2.633   1.631
 7024SOL     OW21970   3.650   3.644   4.459
 7024SOL    HW121971   3.604   3.717   4.409
 7024SOL    HW221972   3.589   3.609   4.531
 7025SOL     OW21973   3.740   1.205   1.163
 7025SOL    HW121974   3.767   1.118   1.205
 7025SOL    HW221975   3.769   1.281   1.221
 7026SOL     OW21976   3.627   2.048   2.184
 7026SOL    HW121977   3.655   2.134   2.142
 7026SOL    HW221978   3.657   1.972   2.126
 7027SOL     OW21979   2.481   5.685   3.682
 7027SOL    HW121980   2.474   5.658   3.778
 7027SOL    HW221981   2.445   5.612   3.624
 7028SOL     OW21982   4.010   0.428   4.002
 7028SOL    HW121983   4.046   0.482   4.077
 7028SOL    HW221984   3.916   0.401   4.022
 7029SOL     OW21985   4.840   3.447   5.554
 7029SOL    HW121986   4.868   3.383   5.625
 7029SOL    HW221987   4.741   3.463   5.561
 7030SOL     OW21988   0.750   1.233   4.463
 7030SOL    HW121989   0.849   1.247   4.456
 7030SOL    HW221990   0.730   1.174   4.540
 7031SOL     OW21991   3.899   6.106   0.294
 7031SOL    HW121992   3.990   6.115   0.253
 7031SOL    HW221993   3.845   6.188   0.273
 7032SOL     OW21994   4.039   1.342   3.603
 7032SOL    HW121995   4.008   1.252   3.574
 7032SOL    HW221996   4.093   1.385   3.530
 7033SOL     OW21997   1.340   2.878   3.313
 7033SOL    HW121998   1.304   2.970   3.303
 7033SOL    HW221999   1.343   2.853   3.410
 7034SOL     OW22000   6.988   1.768   3.185
 7034SOL    HW122001   6.951   1.854   3.149
 7034SOL    HW222002   6.915   1.714   3.226
 7035SOL     OW22003   1.756   0.353   0.585
 7035SOL    HW122004   1.794   0.335   0.495
 7035SOL    HW222005   1.665   0.313   0.592
 7036SOL     OW22006   6.665   2.097   2.377
 7036SOL    HW122007   6.628   2.118   2.287
 7036SOL    HW222008   6.626   2.011   2.410
 7037SOL     OW22009   0.461   1.297   6.415
 7037SOL    HW122010   0.399   1.253   6.479
 7037SOL    HW222011   0.446   1.396   6.415
 7038SOL     OW22012   2.599   4.716   5.064
 7038SOL    HW122013   2.561   4.711   4.971
 7038SOL    HW222014   2.698   4.703   5.061
 7039SOL     OW22015   0.229   6.201   3.854
 7039SOL    HW122016   0.195   6.227   3.944
 7039SOL    HW222017   0.171   6.128   3.817
 7040SOL     OW22018   4.839   2.597   6.018
 7040SOL    HW122019   4.844   2.686   6.062
 7040SOL    HW222020   4.893   2.531   6.070
 7041SOL     OW22021   0.174   1.737   3.023
 7041SOL    HW122022   0.240   1.669   3.054
 7041SOL    HW222023   0.089   1.727   3.075
 7042SOL     OW22024   4.107   6.160   4.254
 7042SOL    HW122025   4.013   6.158   4.221
 7042SOL    HW222026   4.124   6.080   4.312
 7043SOL     OW22027   2.867   5.198   3.334
 7043SOL    HW122028   2.966   5.212   3.339
 7043SOL    HW222029   2.838   5.196   3.239
 7044SOL     OW22030   5.009   6.202   4.980
 7044SOL    HW122031   4.923   6.187   5.029
 7044SOL    HW222032   5.085   6.205   5.045
 7045SOL     OW22033   5.391   5.934   2.146
 7045SOL    HW122034   5.469   5.946   2.085
 7045SOL    HW222035   5.386   5.839   2.176
 7046SOL     OW22036   3.304   1.584   3.847
 7046SOL    HW122037   3.403   1.570   3.856
 7046SOL    HW222038   3.255   1.503   3.880
 7047SOL     OW22039   6.899   1.207   1.902
 7047SOL    HW122040   6.853   1.151   1.833
 7047SOL    HW222041   6.908   1.154   1.987
 7048SOL     OW22042   5.830   6.110   4.726
 7048SOL    HW122043   5.749   6.103   4.669
 7048SOL    HW222044   5.838   6.204   4.762
 7049SOL     OW22045   3.394   1.876   2.087
 7049SOL    HW122046   3.435   1.813   2.153
 7049SOL    HW222047   3.309   1.913   2.125
 7050SOL     OW22048   4.036   3.822   1.263
 7050SOL    HW122049   4.021   3.888   1.336
 7050SOL    HW222050   4.102   3.860   1.198
 7051SOL     OW22051   6.850   6.558   1.341
 7051SOL    HW122052   6.903   6.635   1.306
 7051SOL    HW222053   6.805   6.511   1.264
 7052SOL     OW22054   6.108   0.729   4.083
 7052SOL    HW122055   6.019   0.745   4.042
 7052SOL    HW222056   6.108   0.640   4.128
 7053SOL     OW22057   1.796   3.927   4.352
 7053SOL    HW122058   1.696   3.932   4.344
 7053SOL    HW222059   1.837   3.997   4.294
 7054SOL     OW22060   0.204   6.779   1.566
 7054SOL    HW122061   0.166   6.865   1.602
 7054SOL    HW222062   0.263   6.737   1.635
 7055SOL     OW22063   2.919   0.134   6.999
 7055SOL    HW122064   2.958   0.118   6.908
 7055SOL    HW222065   2.840   0.195   6.991
 7056SOL     OW22066   6.995   5.491   1.032
 7056SOL    HW122067   6.962   5.406   0.991
 7056SOL    HW222068   0.057   5.515   0.992
 7057SOL     OW22069   2.976   5.795   3.955
 7057SOL    HW122070   2.949   5.718   4.013
 7057SOL    HW222071   3.041   5.764   3.886
 7058SOL     OW22072   5.116   1.929   6.555
 7058SOL    HW122073   5.216   1.921   6.550
 7058SOL    HW222074   5.092   2.016   6.597
 7059SOL     OW22075   1.663   1.081   4.220
 7059SOL    HW122076   1.736   1.069   4.153
 7059SOL    HW222077   1.589   1.016   4.200
 7060SOL     OW22078   4.013   6.733   1.106
 7060SOL    HW122079   4.067   6.816   1.115
 7060SOL    HW222080   4.070   6.659   1.070
 7061SOL     OW22081   0.466   2.912   3.113
 7061SOL    HW122082   0.542   2.931   3.050
 7061SOL    HW222083   0.473   2.818   3.147
 7062SOL     OW22084   3.988   2.063   5.186
 7062SOL    HW122085   4.020   1.973   5.215
 7062SOL    HW222086   3.898   2.054   5.143
 7063SOL     OW22087   1.294   0.434   1.843
 7063SOL    HW122088   1.346   0.357   1.882
 7063SOL    HW222089   1.200   0.431   1.877
 7064SOL     OW22090   4.241   1.575   6.353
 7064SOL    HW122091   4.267   1.604   6.260
 7064SOL    HW222092   4.233   1.656   6.411
 7065SOL     OW22093   3.666   4.270   5.119
 7065SOL    HW122094   3.637   4.327   5.042
 7065SOL    HW222095   3.586   4.248   5.176
 7066SOL     OW22096   4.469   0.206   5.626
 7066SOL    HW122097   4.547   0.240   5.574
 7066SOL    HW222098   4.391   0.193   5.565
 7067SOL     OW22099   1.183   3.228   6.109
 7067SOL    HW122100   1.176   3.266   6.201
 7067SOL    HW222101   1.217   3.134   6.114
 7068SOL     OW22102   5.545   4.403   4.539
 7068SOL    HW122103   5.572   4.480   4.481
 7068SOL    HW222104   5.475   4.349   4.491
 7069SOL     OW22105   5.607   1.763   5.449
 7069SOL    HW122106   5.705   1.762   5.427
 7069SOL    HW222107   5.556   1.718   5.375
 7070SOL     OW22108   1.164   6.518   4.367
 7070SOL    HW122109   1.123   6.609   4.374
 7070SOL    HW222110   1.128   6.471   4.286
 7071SOL     OW22111   4.847   5.892   6.689
 7071SOL    HW122112   4.912   5.864   6.760
 7071SOL    HW222113   4.830   5.990   6.696
 7072SOL     OW22114   2.337   4.905   6.976
 7072SOL    HW122115   2.303   4.999   6.972
 7072SOL    HW222116   2.387   4.891   0.035
 7073SOL     OW22117   3.579   0.351   3.026
 7073SOL    HW122118   3.582   0.447   3.052
 7073SOL    HW222119   3.605   0.294   3.104
 7074SOL     OW22120   6.277   3.378   3.205
 7074SOL    HW122121   6.178   3.379   3.191
 7074SOL    HW222122   6.309   3.470   3.226
 7075SOL     OW22123   2.595   5.323   4.731
 7075SOL    HW122124   2.512   5.360   4.773
 7075SOL    HW222125   2.674   5.375   4.764
 7076SOL     OW22126   5.739   2.841   0.858
 7076SOL    HW122127   5.832   2.844   0.897
 7076SOL    HW222128   5.739   2.782   0.777
 7077SOL     OW22129   2.433   4.335   3.266
 7077SOL    HW122130   2.493   4.415   3.273
 7077SOL    HW222131   2.409   4.320   3.170
 7078SOL     OW22132   6.064   6.100   1.001
 7078SOL    HW122133   6.083   6.052   1.086
 7078SOL    HW222134   6.129   6.070   0.931
 7079SOL     OW22135   1.301   6.553   4.001
 7079SOL    HW122136   1.278   6.457   4.021
 7079SOL    HW222137   1.312   6.564   3.903
 7080SOL     OW22138   4.241   2.027   3.947
 7080SOL    HW122139   4.199   1.945   3.987
 7080SOL    HW222140   4.277   2.005   3.856
 7081SOL     OW22141   1.139   6.001   0.625
 7081SOL    HW122142   1.049   5.986   0.583
 7081SOL    HW222143   1.190   6.067   0.571
 7082SOL     OW22144   6.847   4.110   0.567
 7082SOL    HW122145   6.888   4.195   0.600
 7082SOL    HW222146   6.774   4.082   0.629
 7083SOL     OW22147   0.386   1.370   2.403
 7083SOL    HW122148   0.360   1.430   2.479
 7083SOL    HW222149   0.388   1.422   2.318
 7084SOL     OW22150   0.849   5.331   5.637
 7084SOL    HW122151   0.766   5.337   5.582
 7084SOL    HW222152   0.906   5.412   5.622
 7085SOL     OW22153   6.728   2.511   2.717
 7085SOL    HW122154   6.635   2.477   2.724
 7085SOL    HW222155   6.740   2.588   2.780
 7086SOL     OW22156   5.535   0.335   6.591
 7086SOL    HW122157   5.546   0.372   6.683
 7086SOL    HW222158   5.593   0.385   6.527
 7087SOL     OW22159   5.297   3.788   2.130
 7087SOL    HW122160   5.210   3.739   2.124
 7087SOL    HW222161   5.372   3.725   2.112
 7088SOL     OW22162   5.041   2.338   5.641
 7088SOL    HW122163   4.993   2.255   5.671
 7088SOL    HW222164   4.985   2.418   5.660
 7089SOL     OW22165   2.522   4.541   2.961
 7089SOL    HW122166   2.596   4.577   2.904
 7089SOL    HW222167   2.485   4.615   3.018
 7090SOL     OW22168   2.847   1.607   0.500
 7090SOL    HW122169   2.841   1.681   0.433
 7090SOL    HW222170   2.756   1.589   0.538
 7091SOL     OW22171   0.736   0.666   1.497
 7091SOL    HW122172   0.643   0.671   1.532
 7091SOL    HW222173   0.767   0.571   1.497
 7092SOL     OW22174   3.922   2.763   5.902
 7092SOL    HW122175   3.828   2.792   5.887
 7092SOL    HW222176   3.967   2.750   5.813
 7093SOL     OW22177   3.394   3.394   1.936
 7093SOL    HW122178   3.450   3.470   1.904
 7093SOL    HW222179   3.373   3.334   1.859
 7094SOL     OW22180   1.425   0.147   5.474
 7094SOL    HW122181   1.334   0.114   5.449
 7094SOL    HW222182   1.451   0.108   5.563
 7095SOL     OW22183   3.504   5.086   6.072
 7095SOL    HW122184   3.507   5.064   5.974
 7095SOL    HW222185   3.412   5.116   6.097
 7096SOL     OW22186   6.579   0.483   2.221
 7096SOL    HW122187   6.501   0.536   2.255
 7096SOL    HW222188   6.651   0.546   2.189
 7097SOL     OW22189   4.749   0.618   2.082
 7097SOL    HW122190   4.810   0.677   2.029
 7097SOL    HW222191   4.789   0.601   2.172
 7098SOL     OW22192   1.413   6.357   5.647
 7098SOL    HW122193   1.500   6.312   5.625
 7098SOL    HW222194   1.384   6.330   5.739
 7099SOL     OW22195   3.859   2.034   4.510
 7099SOL    HW122196   3.917   2.107   4.474
 7099SOL    HW222197   3.917   1.967   4.557
 7100SOL     OW22198   6.617   3.023   0.774
 7100SOL    HW122199   6.619   2.944   0.835
 7100SOL    HW222200   6.631   3.106   0.827
 7101SOL     OW22201   2.616   0.254   5.893
 7101SOL    HW122202   2.671   0.213   5.820
 7101SOL    HW222203   2.567   0.182   5.942
 7102SOL     OW22204   5.974   0.327   1.403
 7102SOL    HW122205   5.952   0.230   1.411
 7102SOL    HW222206   5.990   0.365   1.494
 7103SOL     OW22207   5.043   5.634   1.941
 7103SOL    HW122208   5.142   5.634   1.925
 7103SOL    HW222209   5.004   5.546   1.914
 7104SOL     OW22210   5.319   3.695   2.467
 7104SOL    HW122211   5.355   3.668   2.378
 7104SOL    HW222212   5.271   3.783   2.458
 7105SOL     OW22213   3.870   3.948   4.501
 7105SOL    HW122214   3.876   3.940   4.600
 7105SOL    HW222215   3.910   3.868   4.458
 7106SOL     OW22216   3.146   3.038   1.093
 7106SOL    HW122217   3.176   3.046   1.188
 7106SOL    HW222218   3.140   2.941   1.068
 7107SOL     OW22219   3.679   0.137   0.424
 7107SOL    HW122220   3.598   0.193   0.443
 7107SOL    HW222221   3.671   0.098   0.332
 7108SOL     OW22222   2.536   6.304   2.463
 7108SOL    HW122223   2.454   6.258   2.497
 7108SOL    HW222224   2.554   6.276   2.369
 7109SOL     OW22225   1.637   1.030   6.706
 7109SOL    HW122226   1.572   0.976   6.652
 7109SOL    HW222227   1.694   1.085   6.644
 7110SOL     OW22228   3.601   6.030   4.092
 7110SOL    HW122229   3.542   5.956   4.059
 7110SOL    HW222230   3.559   6.118   4.073
 7111SOL     OW22231   1.346   2.025   4.019
 7111SOL    HW122232   1.347   1.986   4.111
 7111SOL    HW222233   1.432   2.004   3.973
 7112SOL     OW22234   2.276   4.173   4.534
 7112SOL    HW122235   2.256   4.120   4.616
 7112SOL    HW222236   2.324   4.257   4.558
 7113SOL     OW22237   3.297   4.791   5.354
 7113SOL    HW122238   3.390   4.762   5.334
 7113SOL    HW222239   3.292   4.824   5.448
 7114SOL     OW22240   4.373   5.428   1.431
 7114SOL    HW122241   4.360   5.527   1.435
 7114SOL    HW222242   4.294   5.386   1.386
 7115SOL     OW22243   5.673   3.663   0.020
 7115SOL    HW122244   5.662   3.640   0.117
 7115SOL    HW222245   5.770   3.667   7.024
 7116SOL     OW22246   5.579   4.051   3.128
 7116SOL    HW122247   5.514   4.066   3.202
 7116SOL    HW222248   5.667   4.091   3.153
 7117SOL     OW22249   0.069   0.029   4.549
 7117SOL    HW122250   0.046   0.097   4.618
 7117SOL    HW222251   0.076   6.966   4.593
 7118SOL     OW22252   3.673   4.303   5.662
 7118SOL    HW122253   3.695   4.210   5.693
 7118SOL    HW222254   3.633   4.354   5.739
 7119SOL     OW22255   5.075   1.022   5.116
 7119SOL    HW122256   5.110   1.023   5.210
 7119SOL    HW222257   5.151   1.008   5.052
 7120SOL     OW22258   4.566   1.877   1.589
 7120SOL    HW122259   4.469   1.871   1.613
 7120SOL    HW222260   4.618   1.910   1.668
 7121SOL     OW22261   0.208   6.473   2.868
 7121SOL    HW122262   0.200   6.375   2.885
 7121SOL    HW222263   0.302   6.494   2.839
 7122SOL     OW22264   1.580   0.280   5.813
 7122SOL    HW122265   1.641   0.275   5.734
 7122SOL    HW222266   1.509   0.349   5.796
 7123SOL     OW22267   6.968   5.057   4.060
 7123SOL    HW122268   0.025   5.089   4.017
 7123SOL    HW222269   6.945   5.115   4.138
 7124SOL     OW22270   0.704   2.133   1.601
 7124SOL    HW122271   0.728   2.127   1.698
 7124SOL    HW222272   0.605   2.126   1.590
 7125SOL     OW22273   1.551   1.422   1.526
 7125SOL    HW122274   1.535   1.379   1.438
 7125SOL    HW222275   1.629   1.484   1.519
 7126SOL     OW22276   4.294   5.789   0.849
 7126SOL    HW122277   4.270   5.869   0.905
 7126SOL    HW222278   4.373   5.744   0.888
 7127SOL     OW22279   2.766   6.221   5.990
 7127SOL    HW122280   2.793   6.131   5.956
 7127SOL    HW222281   2.670   6.237   5.968
 7128SOL     OW22282   3.837   3.568   6.787
 7128SOL    HW122283   3.863   3.638   6.853
 7128SOL    HW222284   3.913   3.551   6.724
 7129SOL     OW22285   1.261   1.326   1.268
 7129SOL    HW122286   1.361   1.328   1.273
 7129SOL    HW222287   1.227   1.419   1.253
 7130SOL     OW22288   3.570   6.798   4.228
 7130SOL    HW122289   3.523   6.741   4.160
 7130SOL    HW222290   3.635   6.741   4.279
 7131SOL     OW22291   3.273   1.449   1.521
 7131SOL    HW122292   3.237   1.532   1.478
 7131SOL    HW222293   3.223   1.432   1.606
 7132SOL     OW22294   5.222   4.382   0.166
 7132SOL    HW122295   5.321   4.370   0.154
 7132SOL    HW222296   5.199   4.479   0.155
 7133SOL     OW22297   4.221   4.924   4.126
 7133SOL    HW122298   4.183   4.847   4.075
 7133SOL    HW222299   4.321   4.920   4.121
 7134SOL     OW22300   5.414   6.617   1.866
 7134SOL    HW122301   5.371   6.530   1.842
 7134SOL    HW222302   5.343   6.684   1.888
 7135SOL     OW22303   2.155   3.087   2.220
 7135SOL    HW122304   2.224   3.021   2.252
 7135SOL    HW222305   2.159   3.169   2.276
 7136SOL     OW22306   2.749   1.559   1.266
 7136SOL    HW122307   2.760   1.543   1.168
 7136SOL    HW222308   2.786   1.649   1.289
 7137SOL     OW22309   3.084   1.590   0.629
 7137SOL    HW122310   3.066   1.505   0.679
 7137SOL    HW222311   3.001   1.619   0.581
 7138SOL     OW22312   2.075   1.200   0.901
 7138SOL    HW122313   2.134   1.213   0.822
 7138SOL    HW222314   2.025   1.114   0.891
 7139SOL     OW22315   5.056   4.838   1.979
 7139SOL    HW122316   5.128   4.790   1.929
 7139SOL    HW222317   5.019   4.778   2.050
 7140SOL     OW22318   6.010   4.372   0.931
 7140SOL    HW122319   5.950   4.363   0.852
 7140SOL    HW222320   6.083   4.437   0.910
 7141SOL     OW22321   4.467   6.995   0.980
 7141SOL    HW122322   4.554   0.018   0.983
 7141SOL    HW222323   4.440   6.968   1.072
 7142SOL     OW22324   3.384   6.952   4.055
 7142SOL    HW122325   3.337   6.866   4.073
 7142SOL    HW222326   3.437   6.944   3.970
 7143SOL     OW22327   1.310   3.997   6.861
 7143SOL    HW122328   1.243   3.925   6.843
 7143SOL    HW222329   1.276   4.056   6.934
 7144SOL     OW22330   0.600   1.070   3.637
 7144SOL    HW122331   0.513   1.102   3.600
 7144SOL    HW222332   0.638   0.999   3.577
 7145SOL     OW22333   4.482   0.835   6.748
 7145SOL    HW122334   4.480   0.911   6.813
 7145SOL    HW222335   4.388   0.808   6.725
 7146SOL     OW22336   1.687   1.834   6.150
 7146SOL    HW122337   1.712   1.752   6.202
 7146SOL    HW222338   1.640   1.898   6.210
 7147SOL     OW22339   6.066   6.056   3.145
 7147SOL    HW122340   5.997   6.094   3.084
 7147SOL    HW222341   6.032   5.971   3.185
 7148SOL     OW22342   5.771   5.770   1.500
 7148SOL    HW122343   5.796   5.676   1.477
 7148SOL    HW222344   5.699   5.802   1.438
 7149SOL     OW22345   0.212   4.884   3.454
 7149SOL    HW122346   0.147   4.829   3.507
 7149SOL    HW222347   0.236   4.835   3.370
 7150SOL     OW22348   4.129   3.240   0.310
 7150SOL    HW122349   4.180   3.305   0.253
 7150SOL    HW222350   4.046   3.285   0.345
 7151SOL     OW22351   3.529   6.367   0.747
 7151SOL    HW122352   3.447   6.399   0.700
 7151SOL    HW222353   3.507   6.285   0.800
 7152SOL     OW22354   6.075   0.746   6.455
 7152SOL    HW122355   5.990   0.749   6.403
 7152SOL    HW222356   6.097   0.838   6.488
 7153SOL     OW22357   3.610   5.149   2.549
 7153SOL    HW122358   3.605   5.137   2.450
 7153SOL    HW222359   3.591   5.244   2.573
 7154SOL     OW22360   4.095   1.015   2.872
 7154SOL    HW122361   4.094   0.918   2.846
 7154SOL    HW222362   4.163   1.063   2.818
 7155SOL     OW22363   2.749   2.438   0.859
 7155SOL    HW122364   2.727   2.435   0.956
 7155SOL    HW222365   2.849   2.440   0.847
 7156SOL     OW22366   4.888   3.622   2.564
 7156SOL    HW122367   4.886   3.708   2.513
 7156SOL    HW222368   4.836   3.633   2.649
 7157SOL     OW22369   6.580   4.585   1.231
 7157SOL    HW122370   6.521   4.504   1.234
 7157SOL    HW222371   6.610   4.600   1.136
 7158SOL     OW22372   6.868   0.426   3.584
 7158SOL    HW122373   6.932   0.474   3.524
 7158SOL    HW222374   6.816   0.493   3.637
 7159SOL     OW22375   0.781   4.773   4.281
 7159SOL    HW122376   0.685   4.787   4.308
 7159SOL    HW222377   0.784   4.732   4.190
 7160SOL     OW22378   5.955   6.524   2.688
 7160SOL    HW122379   6.023   6.455   2.714
 7160SOL    HW222380   5.993   6.616   2.704
 7161SOL     OW22381   3.755   4.071   3.095
 7161SOL    HW122382   3.700   3.994   3.061
 7161SOL    HW222383   3.822   4.097   3.026
 7162SOL     OW22384   0.299   4.941   0.205
 7162SOL    HW122385   0.218   4.883   0.211
 7162SOL    HW222386   0.361   4.905   0.136
 7163SOL     OW22387   1.808   0.636   2.590
 7163SOL    HW122388   1.773   0.622   2.497
 7163SOL    HW222389   1.908   0.643   2.588
 7164SOL     OW22390   1.919   1.178   4.684
 7164SOL    HW122391   1.842   1.122   4.652
 7164SOL    HW222392   2.002   1.122   4.684
 7165SOL     OW22393   6.202   5.923   1.755
 7165SOL    HW122394   6.135   5.933   1.829
 7165SOL    HW222395   6.290   5.960   1.785
 7166SOL     OW22396   5.740   0.442   6.414
 7166SOL    HW122397   5.809   0.467   6.482
 7166SOL    HW222398   5.785   0.419   6.328
 7167SOL     OW22399   5.178   1.865   5.622
 7167SOL    HW122400   5.142   1.823   5.539
 7167SOL    HW222401   5.152   1.809   5.701
 7168SOL     OW22402   3.074   1.653   2.692
 7168SOL    HW122403   3.110   1.719   2.625
 7168SOL    HW222404   3.004   1.698   2.748
 7169SOL     OW22405   0.762   4.250   4.420
 7169SOL    HW122406   0.718   4.188   4.485
 7169SOL    HW222407   0.728   4.343   4.436
 7170SOL     OW22408   4.036   6.678   2.267
 7170SOL    HW122409   3.950   6.665   2.317
 7170SOL    HW222410   4.054   6.776   2.256
 7171SOL     OW22411   5.918   4.093   0.986
 7171SOL    HW122412   5.920   4.096   1.086
 7171SOL    HW222413   5.956   4.178   0.949
 7172SOL     OW22414   1.976   1.697   5.191
 7172SOL    HW122415   1.985   1.623   5.125
 7172SOL    HW222416   2.067   1.724   5.224
 7173SOL     OW22417   6.531   5.502   6.677
 7173SOL    HW122418   6.546   5.525   6.773
 7173SOL    HW222419   6.436   5.520   6.653
 7174SOL     OW22420   6.734   4.610   0.984
 7174SOL    HW122421   6.711   4.568   0.896
 7174SOL    HW222422   6.776   4.699   0.969
 7175SOL     OW22423   6.330   3.594   5.149
 7175SOL    HW122424   6.233   3.592   5.125
 7175SOL    HW222425   6.384   3.596   5.065
 7176SOL     OW22426   0.667   1.345   4.055
 7176SOL    HW122427   0.714   1.315   3.973
 7176SOL    HW222428   0.591   1.283   4.075
 7177SOL     OW22429   2.012   5.617   5.543
 7177SOL    HW122430   2.021   5.678   5.621
 7177SOL    HW222431   1.916   5.590   5.531
 7178SOL     OW22432   1.126   1.015   6.236
 7178SOL    HW122433   1.160   0.941   6.295
 7178SOL    HW222434   1.152   1.103   6.276
 7179SOL     OW22435   2.470   4.686   4.761
 7179SOL    HW122436   2.376   4.665   4.733
 7179SOL    HW222437   2.512   4.746   4.693
 7180SOL     OW22438   2.517   3.891   1.115
 7180SOL    HW122439   2.525   3.792   1.128
 7180SOL    HW222440   2.602   3.926   1.077
 7181SOL     OW22441   2.196   1.012   5.957
 7181SOL    HW122442   2.231   1.093   6.006
 7181SOL    HW222443   2.100   0.998   5.982
 7182SOL     OW22444   1.071   3.845   3.205
 7182SOL    HW122445   1.145   3.795   3.159
 7182SOL    HW222446   0.984   3.800   3.186
 7183SOL     OW22447   2.106   5.566   2.049
 7183SOL    HW122448   2.117   5.604   2.140
 7183SOL    HW222449   2.158   5.621   1.983
 7184SOL     OW22450   5.689   1.398   3.631
 7184SOL    HW122451   5.602   1.362   3.596
 7184SOL    HW222452   5.753   1.323   3.645
 7185SOL     OW22453   5.523   0.958   5.770
 7185SOL    HW122454   5.534   0.865   5.806
 7185SOL    HW222455   5.427   0.975   5.751
 7186SOL     OW22456   0.400   0.718   1.003
 7186SOL    HW122457   0.429   0.628   1.035
 7186SOL    HW222458   0.387   0.715   0.903
 7187SOL     OW22459   3.082   3.685   5.169
 7187SOL    HW122460   3.041   3.762   5.120
 7187SOL    HW222461   3.016   3.647   5.233
 7188SOL     OW22462   4.587   3.983   0.079
 7188SOL    HW122463   4.672   4.035   0.088
 7188SOL    HW222464   4.607   3.886   0.091
 7189SOL     OW22465   6.366   3.400   5.331
 7189SOL    HW122466   6.366   3.317   5.275
 7189SOL    HW222467   6.368   3.481   5.273
 7190SOL     OW22468   6.097   6.095   1.409
 7190SOL    HW122469   6.146   6.172   1.369
 7190SOL    HW222470   6.005   6.091   1.371
 7191SOL     OW22471   0.208   4.065   3.176
 7191SOL    HW122472   0.299   4.027   3.189
 7191SOL    HW222473   0.159   4.011   3.108
 7192SOL     OW22474   1.649   4.355   5.932
 7192SOL    HW122475   1.625   4.265   5.898
 7192SOL    HW222476   1.659   4.351   6.032
 7193SOL     OW22477   2.529   1.643   2.831
 7193SOL    HW122478   2.574   1.564   2.874
 7193SOL    HW222479   2.594   1.719   2.826
 7194SOL     OW22480   2.069   2.241   0.017
 7194SOL    HW122481   2.115   2.184   6.974
 7194SOL    HW222482   2.032   2.323   7.000
 7195SOL     OW22483   5.915   4.255   6.517
 7195SOL    HW122484   5.901   4.352   6.498
 7195SOL    HW222485   5.980   4.246   6.592
 7196SOL     OW22486   3.291   3.891   2.139
 7196SOL    HW122487   3.264   3.956   2.210
 7196SOL    HW222488   3.325   3.941   2.059
 7197SOL     OW22489   1.139   4.290   5.701
 7197SOL    HW122490   1.144   4.328   5.609
 7197SOL    HW222491   1.216   4.323   5.755
 7198SOL     OW22492   0.330   0.508   0.049
 7198SOL    HW122493   0.266   0.580   0.023
 7198SOL    HW222494   0.410   0.511   7.015
 7199SOL     OW22495   1.067   0.058   2.539
 7199SOL    HW122496   1.085   0.129   2.606
 7199SOL    HW222497   0.999   0.090   2.474
 7200SOL     OW22498   1.849   3.547   0.759
 7200SOL    HW122499   1.879   3.499   0.676
 7200SOL    HW222500   1.884   3.498   0.839
 7201SOL     OW22501   0.304   5.703   4.179
 7201SOL    HW122502   0.250   5.637   4.233
 7201SOL    HW222503   0.398   5.670   4.170
 7202SOL     OW22504   5.346   0.147   5.799
 7202SOL    HW122505   5.280   0.100   5.858
 7202SOL    HW222506   5.384   0.082   5.733
 7203SOL     OW22507   1.341   1.009   1.786
 7203SOL    HW122508   1.292   1.025   1.871
 7203SOL    HW222509   1.390   1.092   1.759
 7204SOL     OW22510   6.384   1.541   6.955
 7204SOL    HW122511   6.285   1.529   6.961
 7204SOL    HW222512   6.422   1.551   0.020
 7205SOL     OW22513   1.214   3.158   4.545
 7205SOL    HW122514   1.189   3.116   4.633
 7205SOL    HW222515   1.314   3.161   4.538
 7206SOL     OW22516   1.254   1.559   1.605
 7206SOL    HW122517   1.349   1.587   1.586
 7206SOL    HW222518   1.244   1.461   1.589
 7207SOL     OW22519   2.736   1.383   3.743
 7207SOL    HW122520   2.781   1.464   3.782
 7207SOL    HW222521   2.787   1.353   3.662
 7208SOL     OW22522   4.753   6.982   4.071
 7208SOL    HW122523   4.720   0.030   4.129
 7208SOL    HW222524   4.822   6.930   4.120
 7209SOL     OW22525   1.974   2.688   2.361
 7209SOL    HW122526   1.985   2.700   2.460
 7209SOL    HW222527   2.026   2.608   2.332
 7210SOL     OW22528   3.797   1.921   3.461
 7210SOL    HW122529   3.830   1.986   3.393
 7210SOL    HW222530   3.726   1.966   3.517
 7211SOL     OW22531   3.206   5.871   5.524
 7211SOL    HW122532   3.270   5.849   5.597
 7211SOL    HW222533   3.205   5.970   5.510
 7212SOL     OW22534   6.825   6.592   6.432
 7212SOL    HW122535   6.886   6.647   6.490
 7212SOL    HW222536   6.739   6.641   6.417
 7213SOL     OW22537   3.792   6.435   6.499
 7213SOL    HW122538   3.752   6.483   6.421
 7213SOL    HW222539   3.731   6.362   6.528
 7214SOL     OW22540   6.941   1.254   5.630
 7214SOL    HW122541   6.901   1.223   5.543
 7214SOL    HW222542   6.996   1.336   5.614
 7215SOL     OW22543   6.261   2.795   4.509
 7215SOL    HW122544   6.291   2.806   4.415
 7215SOL    HW222545   6.316   2.725   4.555
 7216SOL     OW22546   3.115   6.075   2.262
 7216SOL    HW122547   3.061   6.105   2.340
 7216SOL    HW222548   3.212   6.085   2.282
 7217SOL     OW22549   1.464   3.629   3.245
 7217SOL    HW122550   1.518   3.596   3.323
 7217SOL    HW222551   1.435   3.723   3.263
 7218SOL     OW22552   0.201   3.132   3.772
 7218SOL    HW122553   0.226   3.155   3.866
 7218SOL    HW222554   0.251   3.051   3.743
 7219SOL     OW22555   3.196   6.972   1.928
 7219SOL    HW122556   3.252   6.917   1.867
 7219SOL    HW222557   3.115   7.005   1.879
 7220SOL     OW22558   6.617   4.856   3.882
 7220SOL    HW122559   6.605   4.955   3.872
 7220SOL    HW222560   6.530   4.811   3.867
 7221SOL     OW22561   3.272   6.162   4.777
 7221SOL    HW122562   3.337   6.176   4.852
 7221SOL    HW222563   3.313   6.191   4.691
 7222SOL     OW22564   5.418   0.241   3.336
 7222SOL    HW122565   5.480   0.292   3.396
 7222SOL    HW222566   5.466   0.162   3.298
 7223SOL     OW22567   2.887   0.708   0.467
 7223SOL    HW122568   2.831   0.736   0.545
 7223SOL    HW222569   2.982   0.699   0.496
 7224SOL     OW22570   4.818   2.430   4.629
 7224SOL    HW122571   4.877   2.367   4.680
 7224SOL    HW222572   4.788   2.386   4.544
 7225SOL     OW22573   1.942   6.755   0.899
 7225SOL    HW122574   2.036   6.777   0.926
 7225SOL    HW222575   1.944   6.679   0.834
 7226SOL     OW22576   6.056   0.484   1.623
 7226SOL    HW122577   6.152   0.458   1.632
 7226SOL    HW222578   6.017   0.498   1.714
 7227SOL     OW22579   2.809   1.605   1.978
 7227SOL    HW122580   2.906   1.622   1.990
 7227SOL    HW222581   2.792   1.506   1.973
 7228SOL     OW22582   1.252   1.480   3.703
 7228SOL    HW122583   1.259   1.441   3.795
 7228SOL    HW222584   1.288   1.414   3.636
 7229SOL     OW22585   0.072   6.979   4.882
 7229SOL    HW122586   0.087   6.920   4.803
 7229SOL    HW222587   0.100   0.046   4.858
 7230SOL     OW22588   3.139   5.579   3.470
 7230SOL    HW122589   3.230   5.619   3.478
 7230SOL    HW222590   3.110   5.582   3.374
 7231SOL     OW22591   4.108   0.733   0.747
 7231SOL    HW122592   4.137   0.638   0.757
 7231SOL    HW222593   4.033   0.739   0.682
 7232SOL     OW22594   4.703   6.367   2.491
 7232SOL    HW122595   4.701   6.457   2.535
 7232SOL    HW222596   4.611   6.327   2.493
 7233SOL     OW22597   1.183   1.155   5.003
 7233SOL    HW122598   1.246   1.078   5.010
 7233SOL    HW222599   1.091   1.124   5.028
 7234SOL     OW22600   5.470   3.383   2.880
 7234SOL    HW122601   5.387   3.375   2.934
 7234SOL    HW222602   5.446   3.415   2.788
 7235SOL     OW22603   6.212   4.816   1.851
 7235SOL    HW122604   6.215   4.769   1.763
 7235SOL    HW222605   6.126   4.868   1.857
 7236SOL     OW22606   2.094   2.605   2.718
 7236SOL    HW122607   2.130   2.512   2.722
 7236SOL    HW222608   1.994   2.602   2.708
 7237SOL     OW22609   4.061   0.212   6.401
 7237SOL    HW122610   4.098   0.124   6.370
 7237SOL    HW222611   4.135   0.279   6.405
 7238SOL     OW22612   4.496   2.359   6.452
 7238SOL    HW122613   4.567   2.296   6.419
 7238SOL    HW222614   4.422   2.363   6.385
 7239SOL     OW22615   1.110   3.111   1.943
 7239SOL    HW122616   1.206   3.101   1.920
 7239SOL    HW222617   1.064   3.023   1.938
 7240SOL     OW22618   6.478   1.432   6.710
 7240SOL    HW122619   6.456   1.469   6.800
 7240SOL    HW222620   6.487   1.506   6.644
 7241SOL     OW22621   2.618   6.869   0.465
 7241SOL    HW122622   2.533   6.908   0.430
 7241SOL    HW222623   2.601   6.778   0.503
 7242SOL     OW22624   6.952   5.413   5.882
 7242SOL    HW122625   6.976   5.372   5.794
 7242SOL    HW222626   6.878   5.478   5.870
 7243SOL     OW22627   6.822   4.421   6.108
 7243SOL    HW122628   6.875   4.393   6.028
 7243SOL    HW222629   6.822   4.348   6.176
 7244SOL     OW22630   0.528   0.480   1.390
 7244SOL    HW122631   0.511   0.491   1.488
 7244SOL    HW222632   0.466   0.538   1.339
 7245SOL     OW22633   1.133   2.636   5.402
 7245SOL    HW122634   1.086   2.608   5.486
 7245SOL    HW222635   1.092   2.591   5.323
 7246SOL     OW22636   1.736   0.303   4.133
 7246SOL    HW122637   1.803   0.309   4.207
 7246SOL    HW222638   1.784   0.293   4.046
 7247SOL     OW22639   3.017   2.161   5.575
 7247SOL    HW122640   2.992   2.179   5.480
 7247SOL    HW222641   3.023   2.062   5.590
 7248SOL     OW22642   3.117   0.718   2.918
 7248SOL    HW122643   3.209   0.757   2.925
 7248SOL    HW222644   3.110   0.665   2.834
 7249SOL     OW22645   4.725   5.340   1.840
 7249SOL    HW122646   4.742   5.394   1.923
 7249SOL    HW222647   4.649   5.380   1.790
 7250SOL     OW22648   5.285   5.265   5.918
 7250SOL    HW122649   5.311   5.362   5.922
 7250SOL    HW222650   5.223   5.250   5.842
 7251SOL     OW22651   0.944   0.111   4.798
 7251SOL    HW122652   0.994   0.143   4.878
 7251SOL    HW222653   0.907   0.019   4.816
 7252SOL     OW22654   3.087   3.441   1.891
 7252SOL    HW122655   3.023   3.396   1.828
 7252SOL    HW222656   3.043   3.453   1.980
 7253SOL     OW22657   2.094   5.853   6.840
 7253SOL    HW122658   2.090   5.931   6.779
 7253SOL    HW222659   2.149   5.780   6.799
 7254SOL     OW22660   5.488   5.305   4.666
 7254SOL    HW122661   5.538   5.241   4.724
 7254SOL    HW222662   5.419   5.352   4.720
 7255SOL     OW22663   4.669   3.735   0.108
 7255SOL    HW122664   4.592   3.688   0.064
 7255SOL    HW222665   4.744   3.743   0.043
 7256SOL     OW22666   3.431   5.867   5.688
 7256SOL    HW122667   3.509   5.926   5.708
 7256SOL    HW222668   3.440   5.782   5.739
 7257SOL     OW22669   0.700   2.036   3.622
 7257SOL    HW122670   0.751   2.001   3.543
 7257SOL    HW222671   0.765   2.066   3.692
 7258SOL     OW22672   4.863   2.065   2.758
 7258SOL    HW122673   4.910   2.138   2.709
 7258SOL    HW222674   4.779   2.041   2.708
 7259SOL     OW22675   1.316   3.366   2.107
 7259SOL    HW122676   1.275   3.433   2.168
 7259SOL    HW222677   1.260   3.283   2.106
 7260SOL     OW22678   5.854   1.586   1.930
 7260SOL    HW122679   5.895   1.676   1.944
 7260SOL    HW222680   5.926   1.520   1.907
 7261SOL     OW22681   0.955   4.632   1.221
 7261SOL    HW122682   0.993   4.721   1.248
 7261SOL    HW222683   0.986   4.610   1.128
 7262SOL     OW22684   5.096   2.026   6.882
 7262SOL    HW122685   5.140   2.085   6.814
 7262SOL    HW222686   5.114   2.060   6.974
 7263SOL     OW22687   0.270   6.414   0.375
 7263SOL    HW122688   0.217   6.330   0.361
 7263SOL    HW222689   0.290   6.455   0.286
 7264SOL     OW22690   5.318   1.152   0.837
 7264SOL    HW122691   5.268   1.197   0.763
 7264SOL    HW222692   5.254   1.099   0.894
 7265SOL     OW22693   5.715   4.553   5.652
 7265SOL    HW122694   5.734   4.614   5.728
 7265SOL    HW222695   5.649   4.484   5.681
 7266SOL     OW22696   6.015   1.362   3.278
 7266SOL    HW122697   5.967   1.387   3.194
 7266SOL    HW222698   5.993   1.268   3.303
 7267SOL     OW22699   6.598   6.721   5.013
 7267SOL    HW122700   6.669   6.779   5.052
 7267SOL    HW222701   6.563   6.659   5.084
 7268SOL     OW22702   0.080   6.094   4.595
 7268SOL    HW122703   0.072   6.181   4.547
 7268SOL    HW222704   0.170   6.088   4.639
 7269SOL     OW22705   1.975   6.283   5.996
 7269SOL    HW122706   2.005   6.346   6.069
 7269SOL    HW222707   1.926   6.335   5.926
 7270SOL     OW22708   0.280   2.989   4.719
 7270SOL    HW122709   0.235   2.911   4.677
 7270SOL    HW222710   0.281   2.978   4.819
 7271SOL     OW22711   1.718   4.935   4.487
 7271SOL    HW122712   1.683   4.872   4.556
 7271SOL    HW222713   1.656   5.013   4.478
 7272SOL     OW22714   5.965   6.016   2.296
 7272SOL    HW122715   6.059   6.018   2.260
 7272SOL    HW222716   5.924   5.927   2.278
 7273SOL     OW22717   6.057   3.987   0.463
 7273SOL    HW122718   6.126   3.921   0.495
 7273SOL    HW222719   6.100   4.051   0.399
 7274SOL     OW22720   0.407   4.929   6.813
 7274SOL    HW122721   0.493   4.912   6.861
 7274SOL    HW222722   0.345   4.982   6.872
 7275SOL     OW22723   6.962   5.751   2.839
 7275SOL    HW122724   6.916   5.768   2.926
 7275SOL    HW222725   6.940   5.824   2.774
 7276SOL     OW22726   5.041   0.794   3.350
 7276SOL    HW122727   4.966   0.837   3.400
 7276SOL    HW222728   5.102   0.864   3.314
 7277SOL     OW22729   5.102   0.493   4.503
 7277SOL    HW122730   5.023   0.479   4.563
 7277SOL    HW222731   5.152   0.407   4.493
 7278SOL     OW22732   3.642   2.967   1.453
 7278SOL    HW122733   3.643   2.872   1.484
 7278SOL    HW222734   3.664   3.027   1.530
 7279SOL     OW22735   4.481   4.698   6.078
 7279SOL    HW122736   4.415   4.635   6.037
 7279SOL    HW222737   4.527   4.652   6.154
 7280SOL     OW22738   0.340   1.120   3.562
 7280SOL    HW122739   0.335   1.218   3.542
 7280SOL    HW222740   0.370   1.071   3.480
 7281SOL     OW22741   3.145   1.812   6.843
 7281SOL    HW122742   3.226   1.814   6.784
 7281SOL    HW222743   3.174   1.817   6.939
 7282SOL     OW22744   5.627   5.597   3.076
 7282SOL    HW122745   5.700   5.652   3.116
 7282SOL    HW222746   5.538   5.629   3.110
 7283SOL     OW22747   4.231   1.439   2.856
 7283SOL    HW122748   4.196   1.362   2.804
 7283SOL    HW222749   4.177   1.521   2.836
 7284SOL     OW22750   0.323   3.219   6.182
 7284SOL    HW122751   0.245   3.160   6.158
 7284SOL    HW222752   0.383   3.228   6.102
 7285SOL     OW22753   5.157   3.274   2.643
 7285SOL    HW122754   5.192   3.367   2.656
 7285SOL    HW222755   5.060   3.278   2.621
 7286SOL     OW22756   2.994   0.538   0.247
 7286SOL    HW122757   2.955   0.626   0.220
 7286SOL    HW222758   3.048   0.549   0.330
 7287SOL     OW22759   0.270   2.403   6.084
 7287SOL    HW122760   0.331   2.387   6.162
 7287SOL    HW222761   0.321   2.394   5.999
 7288SOL     OW22762   3.198   0.570   0.473
 7288SOL    HW122763   3.193   0.474   0.499
 7288SOL    HW222764   3.287   0.607   0.500
 7289SOL     OW22765   5.056   2.152   4.370
 7289SOL    HW122766   4.966   2.129   4.406
 7289SOL    HW222767   5.078   2.247   4.393
 7290SOL     OW22768   3.749   0.311   5.815
 7290SOL    HW122769   3.693   0.360   5.881
 7290SOL    HW222770   3.843   0.346   5.818
 7291SOL     OW22771   1.965   6.565   0.696
 7291SOL    HW122772   1.871   6.547   0.668
 7291SOL    HW222773   2.010   6.479   0.718
 7292SOL     OW22774   3.242   0.830   3.153
 7292SOL    HW122775   3.209   0.845   3.246
 7292SOL    HW222776   3.170   0.789   3.097
 7293SOL     OW22777   1.340   2.185   5.174
 7293SOL    HW122778   1.339   2.163   5.271
 7293SOL    HW222779   1.433   2.178   5.138
 7294SOL     OW22780   2.114   4.756   0.089
 7294SOL    HW122781   2.162   4.798   0.011
 7294SOL    HW222782   2.176   4.752   0.167
 7295SOL     OW22783   0.741   2.603   0.869
 7295SOL    HW122784   0.761   2.683   0.926
 7295SOL    HW222785   0.742   2.520   0.926
 7296SOL     OW22786   2.935   5.413   1.558
 7296SOL    HW122787   2.865   5.378   1.495
 7296SOL    HW222788   2.939   5.354   1.639
 7297SOL     OW22789   3.590   6.095   1.397
 7297SOL    HW122790   3.570   6.186   1.362
 7297SOL    HW222791   3.687   6.074   1.380
 7298SOL     OW22792   4.646   4.713   5.194
 7298SOL    HW122793   4.679   4.624   5.162
 7298SOL    HW222794   4.713   4.783   5.173
 7299SOL     OW22795   0.855   1.594   0.573
 7299SOL    HW122796   0.936   1.589   0.514
 7299SOL    HW222797   0.877   1.650   0.654
 7300SOL     OW22798   6.416   5.809   3.062
 7300SOL    HW122799   6.440   5.872   3.136
 7300SOL    HW222800   6.492   5.805   2.997
 7301SOL     OW22801   5.929   1.295   4.888
 7301SOL    HW122802   5.880   1.230   4.830
 7301SOL    HW222803   5.886   1.385   4.882
 7302SOL     OW22804   0.907   2.003   5.787
 7302SOL    HW122805   0.919   1.911   5.825
 7302SOL    HW222806   0.927   2.001   5.689
 7303SOL     OW22807   3.866   0.441   0.088
 7303SOL    HW122808   3.814   0.458   0.172
 7303SOL    HW222809   3.881   0.343   0.077
 7304SOL     OW22810   4.007   4.764   0.749
 7304SOL    HW122811   4.066   4.683   0.758
 7304SOL    HW222812   4.020   4.804   0.658
 7305SOL     OW22813   4.784   1.051   0.339
 7305SOL    HW122814   4.710   0.994   0.303
 7305SOL    HW222815   4.869   1.030   0.290
 7306SOL     OW22816   4.943   2.309   1.914
 7306SOL    HW122817   4.861   2.308   1.971
 7306SOL    HW222818   4.925   2.361   1.831
 7307SOL     OW22819   1.960   0.049   2.253
 7307SOL    HW122820   2.039   0.059   2.192
 7307SOL    HW222821   1.991   0.021   2.344
 7308SOL     OW22822   6.959   3.442   5.982
 7308SOL    HW122823   7.000   3.361   5.939
 7308SOL    HW222824   6.877   3.415   6.031
 7309SOL     OW22825   4.854   5.901   1.370
 7309SOL    HW122826   4.884   5.807   1.354
 7309SOL    HW222827   4.817   5.909   1.462
 7310SOL     OW22828   2.178   3.952   1.620
 7310SOL    HW122829   2.169   4.051   1.608
 7310SOL    HW222830   2.090   3.913   1.645
 7311SOL     OW22831   3.343   2.070   1.903
 7311SOL    HW122832   3.375   1.986   1.947
 7311SOL    HW222833   3.245   2.082   1.921
 7312SOL     OW22834   0.457   3.463   4.888
 7312SOL    HW122835   0.440   3.390   4.823
 7312SOL    HW222836   0.403   3.447   4.971
 7313SOL     OW22837   2.718   1.710   6.404
 7313SOL    HW122838   2.767   1.642   6.350
 7313SOL    HW222839   2.642   1.666   6.452
 7314SOL     OW22840   0.049   5.407   6.114
 7314SOL    HW122841   0.041   5.483   6.179
 7314SOL    HW222842   6.997   5.408   6.052
 7315SOL     OW22843   6.523   0.739   2.358
 7315SOL    HW122844   6.429   0.771   2.346
 7315SOL    HW222845   6.585   0.796   2.305
 7316SOL     OW22846   3.095   3.768   6.466
 7316SOL    HW122847   3.054   3.841   6.412
 7316SOL    HW222848   3.088   3.682   6.416
 7317SOL     OW22849   5.117   1.143   2.814
 7317SOL    HW122850   5.070   1.098   2.890
 7317SOL    HW222851   5.139   1.237   2.840
 7318SOL     OW22852   1.644   0.633   1.110
 7318SOL    HW122853   1.713   0.654   1.041
 7318SOL    HW222854   1.589   0.714   1.128
 7319SOL     OW22855   6.652   4.582   6.428
 7319SOL    HW122856   6.750   4.561   6.437
 7319SOL    HW222857   6.631   4.598   6.332
 7320SOL     OW22858   6.621   3.551   2.373
 7320SOL    HW122859   6.586   3.641   2.400
 7320SOL    HW222860   6.719   3.557   2.354
 7321SOL     OW22861   2.453   0.493   5.471
 7321SOL    HW122862   2.550   0.510   5.453
 7321SOL    HW222863   2.431   0.524   5.564
 7322SOL     OW22864   6.566   2.906   3.229
 7322SOL    HW122865   6.517   2.821   3.208
 7322SOL    HW222866   6.499   2.979   3.247
 7323SOL     OW22867   1.732   2.098   2.016
 7323SOL    HW122868   1.727   2.179   2.075
 7323SOL    HW222869   1.640   2.060   2.004
 7324SOL     OW22870   4.620   6.146   2.276
 7324SOL    HW122871   4.586   6.206   2.349
 7324SOL    HW222872   4.720   6.157   2.268
 7325SOL     OW22873   3.349   6.335   0.355
 7325SOL    HW122874   3.264   6.331   0.303
 7325SOL    HW222875   3.335   6.389   0.438
 7326SOL     OW22876   2.974   5.827   5.715
 7326SOL    HW122877   3.011   5.856   5.626
 7326SOL    HW222878   2.875   5.816   5.707
 7327SOL     OW22879   5.999   2.049   6.277
 7327SOL    HW122880   6.001   1.988   6.357
 7327SOL    HW222881   6.062   2.014   6.208
 7328SOL     OW22882   3.413   0.469   6.724
 7328SOL    HW122883   3.347   0.505   6.790
 7328SOL    HW222884   3.412   0.369   6.725
 7329SOL     OW22885   5.720   3.958   1.196
 7329SOL    HW122886   5.751   3.939   1.289
 7329SOL    HW222887   5.731   3.876   1.140
 7330SOL     OW22888   2.306   2.068   6.879
 7330SOL    HW122889   2.354   2.001   6.936
 7330SOL    HW222890   2.339   2.160   6.900
 7331SOL     OW22891   5.620   0.094   2.063
 7331SOL    HW122892   5.600   0.016   2.123
 7331SOL    HW222893   5.535   0.128   2.024
 7332SOL     OW22894   2.306   6.090   0.546
 7332SOL    HW122895   2.338   6.148   0.470
 7332SOL    HW222896   2.222   6.043   0.518
 7333SOL     OW22897   0.259   2.143   2.629
 7333SOL    HW122898   0.210   2.164   2.714
 7333SOL    HW222899   0.355   2.125   2.651
 7334SOL     OW22900   3.137   5.653   6.415
 7334SOL    HW122901   3.037   5.652   6.418
 7334SOL    HW222902   3.168   5.572   6.365
 7335SOL     OW22903   1.565   2.535   3.148
 7335SOL    HW122904   1.648   2.488   3.118
 7335SOL    HW222905   1.588   2.628   3.178
 7336SOL     OW22906   1.262   6.817   3.301
 7336SOL    HW122907   1.274   6.720   3.322
 7336SOL    HW222908   1.350   6.865   3.314
 7337SOL     OW22909   6.930   3.475   2.092
 7337SOL    HW122910   6.892   3.429   2.012
 7337SOL    HW222911   0.003   3.476   2.086
 7338SOL     OW22912   6.631   2.046   1.324
 7338SOL    HW122913   6.633   2.107   1.404
 7338SOL    HW222914   6.537   2.023   1.302
 7339SOL     OW22915   6.020   6.919   3.671
 7339SOL    HW122916   6.084   6.854   3.711
 7339SOL    HW222917   5.930   6.877   3.662
 7340SOL     OW22918   2.621   0.673   1.079
 7340SOL    HW122919   2.649   0.756   1.127
 7340SOL    HW222920   2.552   0.625   1.132
 7341SOL     OW22921   6.683   3.172   6.780
 7341SOL    HW122922   6.681   3.264   6.740
 7341SOL    HW222923   6.777   3.147   6.802
 7342SOL     OW22924   0.398   1.580   1.585
 7342SOL    HW122925   0.300   1.596   1.597
 7342SOL    HW222926   0.447   1.667   1.589
 7343SOL     OW22927   5.421   3.965   0.208
 7343SOL    HW122928   5.390   3.908   0.284
 7343SOL    HW222929   5.417   3.912   0.123
 7344SOL     OW22930   0.557   1.276   6.746
 7344SOL    HW122931   0.586   1.371   6.747
 7344SOL    HW222932   0.467   1.269   6.704
 7345SOL     OW22933   4.615   3.684   5.395
 7345SOL    HW122934   4.529   3.656   5.438
 7345SOL    HW222935   4.616   3.655   5.299
 7346SOL     OW22936   4.077   5.554   2.416
 7346SOL    HW122937   4.109   5.642   2.379
 7346SOL    HW222938   3.979   5.544   2.398
 7347SOL     OW22939   1.076   1.975   0.736
 7347SOL    HW122940   0.980   1.994   0.756
 7347SOL    HW222941   1.114   2.049   0.680
 7348SOL     OW22942   1.405   3.879   3.299
 7348SOL    HW122943   1.309   3.893   3.277
 7348SOL    HW222944   1.450   3.967   3.313
 7349SOL     OW22945   4.059   0.116   1.706
 7349SOL    HW122946   4.088   0.165   1.788
 7349SOL    HW222947   4.092   0.022   1.710
 7350SOL     OW22948   2.644   2.392   5.600
 7350SOL    HW122949   2.708   2.469   5.596
 7350SOL    HW222950   2.571   2.406   5.533
 7351SOL     OW22951   5.823   5.455   4.090
 7351SOL    HW122952   5.843   5.465   3.993
 7351SOL    HW222953   5.752   5.520   4.116
 7352SOL     OW22954   2.009   1.933   2.661
 7352SOL    HW122955   1.936   1.868   2.638
 7352SOL    HW222956   2.048   1.910   2.750
 7353SOL     OW22957   0.205   0.531   6.441
 7353SOL    HW122958   0.301   0.502   6.439
 7353SOL    HW222959   0.161   0.504   6.355
 7354SOL     OW22960   1.177   2.012   4.848
 7354SOL    HW122961   1.122   2.095   4.836
 7354SOL    HW222962   1.192   1.996   4.946
 7355SOL     OW22963   1.364   1.124   0.740
 7355SOL    HW122964   1.425   1.045   0.748
 7355SOL    HW222965   1.340   1.156   0.832
 7356SOL     OW22966   4.031   3.440   6.386
 7356SOL    HW122967   3.968   3.369   6.357
 7356SOL    HW222968   3.979   3.523   6.409
 7357SOL     OW22969   3.378   5.929   2.366
 7357SOL    HW122970   3.340   5.906   2.277
 7357SOL    HW222971   3.467   5.974   2.354
 7358SOL     OW22972   6.489   3.365   2.602
 7358SOL    HW122973   6.561   3.416   2.555
 7358SOL    HW222974   6.528   3.318   2.681
 7359SOL     OW22975   4.599   2.198   5.605
 7359SOL    HW122976   4.682   2.142   5.605
 7359SOL    HW222977   4.557   2.195   5.695
 7360SOL     OW22978   2.938   3.173   5.556
 7360SOL    HW122979   3.028   3.131   5.548
 7360SOL    HW222980   2.902   3.191   5.464
 7361SOL     OW22981   5.217   0.565   2.870
 7361SOL    HW122982   5.281   0.562   2.946
 7361SOL    HW222983   5.124   0.550   2.903
 7362SOL     OW22984   1.268   5.954   5.991
 7362SOL    HW122985   1.233   6.044   5.962
 7362SOL    HW222986   1.366   5.951   5.976
 7363SOL     OW22987   4.641   1.487   1.146
 7363SOL    HW122988   4.684   1.486   1.236
 7363SOL    HW222989   4.640   1.580   1.111
 7364SOL     OW22990   3.951   1.115   2.111
 7364SOL    HW122991   4.036   1.142   2.067
 7364SOL    HW222992   3.966   1.105   2.210
 7365SOL     OW22993   0.587   6.413   1.919
 7365SOL    HW122994   0.524   6.478   1.961
 7365SOL    HW222995   0.664   6.397   1.981
 7366SOL     OW22996   1.966   0.039   5.639
 7366SOL    HW122997   1.987   0.096   5.559
 7366SOL    HW222998   1.883   7.012   5.620
 7367SOL     OW22999   4.689   2.965   0.913
 7367SOL    HW123000   4.715   2.887   0.970
 7367SOL    HW223001   4.669   2.932   0.820
 7368SOL     OW23002   3.865   2.937   2.558
 7368SOL    HW123003   3.937   2.867   2.550
 7368SOL    HW223004   3.906   3.028   2.548
 7369SOL     OW23005   2.875   1.929   1.096
 7369SOL    HW123006   2.969   1.895   1.087
 7369SOL    HW223007   2.858   2.000   1.028
 7370SOL     OW23008   2.505   1.392   6.216
 7370SOL    HW123009   2.452   1.446   6.282
 7370SOL    HW223010   2.467   1.405   6.125
 7371SOL     OW23011   2.614   6.656   3.044
 7371SOL    HW123012   2.692   6.718   3.030
 7371SOL    HW223013   2.552   6.695   3.112
 7372SOL     OW23014   4.342   6.644   4.456
 7372SOL    HW123015   4.412   6.591   4.407
 7372SOL    HW223016   4.352   6.741   4.433
 7373SOL     OW23017   6.289   1.501   4.620
 7373SOL    HW123018   6.374   1.489   4.569
 7373SOL    HW223019   6.294   1.585   4.674
 7374SOL     OW23020   2.530   2.071   5.065
 7374SOL    HW123021   2.437   2.059   5.099
 7374SOL    HW223022   2.554   2.168   5.067
 7375SOL     OW23023   2.316   2.763   2.111
 7375SOL    HW123024   2.358   2.848   2.078
 7375SOL    HW223025   2.283   2.776   2.205
 7376SOL     OW23026   1.312   1.896   1.465
 7376SOL    HW123027   1.353   1.844   1.540
 7376SOL    HW223028   1.383   1.951   1.420
 7377SOL     OW23029   4.791   5.123   0.598
 7377SOL    HW123030   4.707   5.131   0.545
 7377SOL    HW223031   4.783   5.046   0.662
 7378SOL     OW23032   1.328   0.607   4.691
 7378SOL    HW123033   1.291   0.690   4.734
 7378SOL    HW223034   1.371   0.631   4.604
 7379SOL     OW23035   3.524   1.348   2.308
 7379SOL    HW123036   3.581   1.420   2.346
 7379SOL    HW223037   3.577   1.294   2.242
 7380SOL     OW23038   0.280   4.515   3.950
 7380SOL    HW123039   0.184   4.543   3.943
 7380SOL    HW223040   0.287   4.416   3.938
 7381SOL     OW23041   4.199   3.091   0.576
 7381SOL    HW123042   4.107   3.130   0.577
 7381SOL    HW223043   4.266   3.162   0.555
 7382SOL     OW23044   6.953   1.338   5.000
 7382SOL    HW123045   6.960   1.248   4.956
 7382SOL    HW223046   7.016   1.402   4.957
 7383SOL     OW23047   2.927   5.919   1.276
 7383SOL    HW123048   2.997   5.848   1.285
 7383SOL    HW223049   2.840   5.876   1.253
 7384SOL     OW23050   6.851   6.649   2.744
 7384SOL    HW123051   6.770   6.604   2.781
 7384SOL    HW223052   6.869   6.614   2.652
 7385SOL     OW23053   2.940   5.470   2.599
 7385SOL    HW123054   2.965   5.566   2.584
 7385SOL    HW223055   3.018   5.421   2.638
 7386SOL     OW23056   6.797   2.766   6.752
 7386SOL    HW123057   6.718   2.748   6.810
 7386SOL    HW223058   6.879   2.776   6.808
 7387SOL     OW23059   6.758   5.027   5.119
 7387SOL    HW123060   6.845   5.014   5.167
 7387SOL    HW223061   6.682   5.015   5.183
 7388SOL     OW23062   1.156   4.778   2.366
 7388SOL    HW123063   1.116   4.869   2.373
 7388SOL    HW223064   1.105   4.724   2.299
 7389SOL     OW23065   6.423   3.752   6.309
 7389SOL    HW123066   6.424   3.789   6.402
 7389SOL    HW223067   6.498   3.793   6.256
 7390SOL     OW23068   2.537   1.989   1.921
 7390SOL    HW123069   2.606   2.038   1.974
 7390SOL    HW223070   2.467   1.951   1.982
 7391SOL     OW23071   3.948   3.330   3.084
 7391SOL    HW123072   3.967   3.239   3.120
 7391SOL    HW223073   4.023   3.392   3.106
 7392SOL     OW23074   3.388   6.125   6.782
 7392SOL    HW123075   3.420   6.118   6.876
 7392SOL    HW223076   3.296   6.086   6.775
 7393SOL     OW23077   5.902   4.637   3.097
 7393SOL    HW123078   5.989   4.672   3.063
 7393SOL    HW223079   5.914   4.601   3.189
 7394SOL     OW23080   1.331   2.910   5.675
 7394SOL    HW123081   1.364   2.815   5.675
 7394SOL    HW223082   1.358   2.955   5.760
 7395SOL     OW23083   1.873   3.795   1.392
 7395SOL    HW123084   1.951   3.829   1.338
 7395SOL    HW223085   1.792   3.791   1.333
 7396SOL     OW23086   2.025   6.536   1.435
 7396SOL    HW123087   1.931   6.545   1.402
 7396SOL    HW223088   2.081   6.490   1.366
 7397SOL     OW23089   4.918   5.135   4.586
 7397SOL    HW123090   4.899   5.085   4.502
 7397SOL    HW223091   4.835   5.139   4.642
 7398SOL     OW23092   1.065   4.880   3.070
 7398SOL    HW123093   1.151   4.931   3.060
 7398SOL    HW223094   0.988   4.944   3.065
 7399SOL     OW23095   0.058   2.754   3.990
 7399SOL    HW123096   0.130   2.708   3.937
 7399SOL    HW223097   0.098   2.827   4.045
 7400SOL     OW23098   4.105   2.651   6.067
 7400SOL    HW123099   4.189   2.681   6.022
 7400SOL    HW223100   4.026   2.689   6.020
 7401SOL     OW23101   1.244   3.688   3.035
 7401SOL    HW123102   1.271   3.750   2.962
 7401SOL    HW223103   1.324   3.641   3.071
 7402SOL     OW23104   3.374   4.105   6.201
 7402SOL    HW123105   3.403   4.027   6.256
 7402SOL    HW223106   3.280   4.091   6.170
 7403SOL     OW23107   1.548   3.872   2.237
 7403SOL    HW123108   1.613   3.886   2.163
 7403SOL    HW223109   1.503   3.783   2.226
 7404SOL     OW23110   2.780   4.783   1.763
 7404SOL    HW123111   2.866   4.770   1.714
 7404SOL    HW223112   2.776   4.722   1.842
 7405SOL     OW23113   3.580   4.963   4.352
 7405SOL    HW123114   3.528   4.916   4.281
 7405SOL    HW223115   3.520   5.024   4.403
 7406SOL     OW23116   1.016   1.513   4.602
 7406SOL    HW123117   1.041   1.442   4.668
 7406SOL    HW223118   1.062   1.598   4.626
 7407SOL     OW23119   1.568   6.806   5.416
 7407SOL    HW123120   1.571   6.783   5.319
 7407SOL    HW223121   1.488   6.763   5.459
 7408SOL     OW23122   3.859   3.880   5.882
 7408SOL    HW123123   3.830   3.904   5.790
 7408SOL    HW223124   3.796   3.919   5.949
 7409SOL     OW23125   5.338   3.696   0.408
 7409SOL    HW123126   5.426   3.714   0.452
 7409SOL    HW223127   5.297   3.613   0.447
 7410SOL     OW23128   0.538   1.107   0.516
 7410SOL    HW123129   0.513   1.141   0.426
 7410SOL    HW223130   0.509   1.173   0.586
 7411SOL     OW23131   1.992   0.746   6.869
 7411SOL    HW123132   2.027   0.801   6.945
 7411SOL    HW223133   2.043   0.767   6.786
 7412SOL     OW23134   4.404   6.726   0.987
 7412SOL    HW123135   4.427   6.818   0.955
 7412SOL    HW223136   4.330   6.688   0.932
 7413SOL     OW23137   4.310   4.957   3.664
 7413SOL    HW123138   4.379   4.888   3.686
 7413SOL    HW223139   4.219   4.917   3.668
 7414SOL     OW23140   2.071   0.909   3.008
 7414SOL    HW123141   1.994   0.901   3.072
 7414SOL    HW223142   2.122   0.823   3.006
 7415SOL     OW23143   2.205   4.585   4.711
 7415SOL    HW123144   2.141   4.510   4.727
 7415SOL    HW223145   2.158   4.660   4.665
 7416SOL     OW23146   2.382   0.295   2.201
 7416SOL    HW123147   2.470   0.298   2.153
 7416SOL    HW223148   2.346   0.388   2.210
 7417SOL     OW23149   1.965   2.189   1.906
 7417SOL    HW123150   1.886   2.142   1.946
 7417SOL    HW223151   2.023   2.224   1.978
 7418SOL     OW23152   1.781   5.067   6.424
 7418SOL    HW123153   1.815   4.982   6.464
 7418SOL    HW223154   1.787   5.141   6.492
 7419SOL     OW23155   6.543   4.276   3.930
 7419SOL    HW123156   6.602   4.234   3.998
 7419SOL    HW223157   6.599   4.320   3.860
 7420SOL     OW23158   0.229   6.343   1.044
 7420SOL    HW123159   0.194   6.295   1.125
 7420SOL    HW223160   0.180   6.312   0.963
 7421SOL     OW23161   4.337   3.508   1.095
 7421SOL    HW123162   4.387   3.584   1.135
 7421SOL    HW223163   4.297   3.536   1.007
 7422SOL     OW23164   6.991   4.452   2.025
 7422SOL    HW123165   6.996   4.369   1.969
 7422SOL    HW223166   6.903   4.454   2.074
 7423SOL     OW23167   6.279   2.699   5.579
 7423SOL    HW123168   6.355   2.668   5.637
 7423SOL    HW223169   6.222   2.621   5.554
 7424SOL     OW23170   6.877   1.819   5.637
 7424SOL    HW123171   6.896   1.748   5.570
 7424SOL    HW223172   6.800   1.875   5.605
 7425SOL     OW23173   5.133   0.055   0.524
 7425SOL    HW123174   5.208   0.007   0.478
 7425SOL    HW223175   5.047   0.037   0.476
 7426SOL     OW23176   3.259   1.781   5.527
 7426SOL    HW123177   3.197   1.709   5.556
 7426SOL    HW223178   3.319   1.747   5.455
 7427SOL     OW23179   4.965   1.005   4.289
 7427SOL    HW123180   5.035   1.005   4.361
 7427SOL    HW223181   4.879   1.039   4.326
 7428SOL     OW23182   4.250   0.453   5.504
 7428SOL    HW123183   4.330   0.497   5.544
 7428SOL    HW223184   4.275   0.362   5.470
 7429SOL     OW23185   0.684   6.427   3.383
 7429SOL    HW123186   0.644   6.399   3.470
 7429SOL    HW223187   0.728   6.348   3.340
 7430SOL     OW23188   0.161   3.218   1.146
 7430SOL    HW123189   0.182   3.289   1.079
 7430SOL    HW223190   0.088   3.250   1.207
 7431SOL     OW23191   0.538   2.438   2.825
 7431SOL    HW123192   0.576   2.404   2.739
 7431SOL    HW223193   0.562   2.375   2.899
 7432SOL     OW23194   1.907   0.556   3.566
 7432SOL    HW123195   1.881   0.509   3.651
 7432SOL    HW223196   1.857   0.515   3.489
 7433SOL     OW23197   4.272   6.434   6.451
 7433SOL    HW123198   4.358   6.429   6.501
 7433SOL    HW223199   4.210   6.362   6.484
 7434SOL     OW23200   5.340   5.479   5.471
 7434SOL    HW123201   5.422   5.536   5.482
 7434SOL    HW223202   5.334   5.447   5.377
 7435SOL     OW23203   4.827   6.934   1.414
 7435SOL    HW123204   4.827   6.853   1.474
 7435SOL    HW223205   4.807   7.015   1.469
 7436SOL     OW23206   4.601   4.299   6.132
 7436SOL    HW123207   4.694   4.269   6.156
 7436SOL    HW223208   4.588   4.394   6.162
 7437SOL     OW23209   3.079   5.403   0.498
 7437SOL    HW123210   3.106   5.361   0.412
 7437SOL    HW223211   3.160   5.430   0.550
 7438SOL     OW23212   1.255   0.085   0.056
 7438SOL    HW123213   1.314   0.005   0.044
 7438SOL    HW223214   1.183   0.064   0.123
 7439SOL     OW23215   1.659   6.263   5.601
 7439SOL    HW123216   1.724   6.309   5.542
 7439SOL    HW223217   1.707   6.197   5.659
 7440SOL     OW23218   6.792   2.927   3.931
 7440SOL    HW123219   6.864   2.874   3.886
 7440SOL    HW223220   6.716   2.941   3.868
 7441SOL     OW23221   5.523   0.191   4.623
 7441SOL    HW123222   5.606   0.205   4.569
 7441SOL    HW223223   5.542   0.127   4.698
 7442SOL     OW23224   5.966   1.491   0.497
 7442SOL    HW123225   5.895   1.519   0.433
 7442SOL    HW223226   6.044   1.553   0.490
 7443SOL     OW23227   6.016   5.159   1.862
 7443SOL    HW123228   6.040   5.181   1.767
 7443SOL    HW223229   5.970   5.237   1.903
 7444SOL     OW23230   5.513   1.038   6.642
 7444SOL    HW123231   5.569   1.115   6.673
 7444SOL    HW223232   5.418   1.067   6.636
 7445SOL     OW23233   3.125   0.768   1.507
 7445SOL    HW123234   3.197   0.725   1.453
 7445SOL    HW223235   3.040   0.717   1.495
 7446SOL     OW23236   5.129   1.927   0.459
 7446SOL    HW123237   5.210   1.983   0.443
 7446SOL    HW223238   5.065   1.939   0.383
 7447SOL     OW23239   6.337   5.259   6.670
 7447SOL    HW123240   6.417   5.319   6.674
 7447SOL    HW223241   6.257   5.306   6.708
 7448SOL     OW23242   5.882   6.932   4.228
 7448SOL    HW123243   5.900   6.940   4.326
 7448SOL    HW223244   5.969   6.923   4.179
 7449SOL     OW23245   0.811   5.502   0.797
 7449SOL    HW123246   0.868   5.500   0.879
 7449SOL    HW223247   0.726   5.552   0.817
 7450SOL     OW23248   5.514   2.572   5.085
 7450SOL    HW123249   5.535   2.565   5.182
 7450SOL    HW223250   5.595   2.549   5.031
 7451SOL     OW23251   6.193   5.973   2.165
 7451SOL    HW123252   6.243   5.907   2.110
 7451SOL    HW223253   6.255   6.015   2.231
 7452SOL     OW23254   5.834   5.777   4.614
 7452SOL    HW123255   5.911   5.839   4.603
 7452SOL    HW223256   5.763   5.799   4.547
 7453SOL     OW23257   4.478   4.970   4.909
 7453SOL    HW123258   4.402   5.027   4.942
 7453SOL    HW223259   4.442   4.891   4.859
 7454SOL     OW23260   2.688   1.720   0.846
 7454SOL    HW123261   2.615   1.784   0.871
 7454SOL    HW223262   2.704   1.657   0.921
 7455SOL     OW23263   6.802   3.122   2.199
 7455SOL    HW123264   6.705   3.117   2.222
 7455SOL    HW223265   6.813   3.165   2.110
 7456SOL     OW23266   2.183   1.433   4.776
 7456SOL    HW123267   2.204   1.490   4.697
 7456SOL    HW223268   2.218   1.340   4.761
 7457SOL     OW23269   3.156   0.235   4.831
 7457SOL    HW123270   3.168   0.319   4.884
 7457SOL    HW223271   3.110   0.256   4.745
 7458SOL     OW23272   1.466   0.215   6.056
 7458SOL    HW123273   1.500   0.221   5.963
 7458SOL    HW223274   1.437   0.121   6.075
 7459SOL     OW23275   6.076   1.590   2.880
 7459SOL    HW123276   5.998   1.568   2.822
 7459SOL    HW223277   6.155   1.614   2.823
 7460SOL     OW23278   1.293   5.570   0.234
 7460SOL    HW123279   1.296   5.658   0.281
 7460SOL    HW223280   1.245   5.504   0.290
 7461SOL     OW23281   6.008   6.231   6.182
 7461SOL    HW123282   5.949   6.305   6.214
 7461SOL    HW223283   5.956   6.145   6.179
 7462SOL     OW23284   1.944   4.469   1.817
 7462SOL    HW123285   1.951   4.566   1.838
 7462SOL    HW223286   2.004   4.417   1.878
 7463SOL     OW23287   2.863   4.430   0.138
 7463SOL    HW123288   2.766   4.411   0.127
 7463SOL    HW223289   2.905   4.443   0.048
 7464SOL     OW23290   6.037   6.614   5.412
 7464SOL    HW123291   5.938   6.622   5.415
 7464SOL    HW223292   6.078   6.665   5.487
 7465SOL     OW23293   2.476   4.653   6.718
 7465SOL    HW123294   2.441   4.694   6.633
 7465SOL    HW223295   2.482   4.724   6.788
 7466SOL     OW23296   0.125   0.812   5.867
 7466SOL    HW123297   0.221   0.809   5.838
 7466SOL    HW223298   0.093   0.907   5.866
 7467SOL     OW23299   0.432   2.609   5.670
 7467SOL    HW123300   0.413   2.601   5.572
 7467SOL    HW223301   0.347   2.603   5.722
 7468SOL     OW23302   5.094   3.151   4.485
 7468SOL    HW123303   5.018   3.203   4.447
 7468SOL    HW223304   5.068   3.116   4.575
 7469SOL     OW23305   6.626   1.291   0.174
 7469SOL    HW123306   6.693   1.289   0.248
 7469SOL    HW223307   6.570   1.208   0.176
 7470SOL     OW23308   5.343   4.082   3.624
 7470SOL    HW123309   5.273   4.153   3.627
 7470SOL    HW223310   5.306   4.001   3.577
 7471SOL     OW23311   5.325   6.435   6.260
 7471SOL    HW123312   5.388   6.511   6.268
 7471SOL    HW223313   5.313   6.411   6.164
 7472SOL     OW23314   6.516   1.339   5.451
 7472SOL    HW123315   6.570   1.296   5.524
 7472SOL    HW223316   6.419   1.318   5.465
 7473SOL     OW23317   5.025   5.653   4.085
 7473SOL    HW123318   5.075   5.616   4.163
 7473SOL    HW223319   4.928   5.661   4.108
 7474SOL     OW23320   6.477   1.707   6.609
 7474SOL    HW123321   6.448   1.703   6.513
 7474SOL    HW223322   6.565   1.755   6.614
 7475SOL     OW23323   4.422   2.405   2.058
 7475SOL    HW123324   4.343   2.442   2.009
 7475SOL    HW223325   4.413   2.426   2.156
 7476SOL     OW23326   2.546   1.576   3.298
 7476SOL    HW123327   2.469   1.529   3.343
 7476SOL    HW223328   2.511   1.653   3.245
 7477SOL     OW23329   6.934   2.638   5.000
 7477SOL    HW123330   6.967   2.546   5.019
 7477SOL    HW223331   6.856   2.633   4.938
 7478SOL     OW23332   5.835   3.652   5.335
 7478SOL    HW123333   5.826   3.584   5.262
 7478SOL    HW223334   5.857   3.605   5.421
 7479SOL     OW23335   5.081   2.734   1.963
 7479SOL    HW123336   5.046   2.667   2.029
 7479SOL    HW223337   5.026   2.817   1.968
 7480SOL     OW23338   1.575   4.417   2.216
 7480SOL    HW123339   1.545   4.504   2.255
 7480SOL    HW223340   1.669   4.399   2.243
 7481SOL     OW23341   6.452   5.198   0.196
 7481SOL    HW123342   6.474   5.144   0.115
 7481SOL    HW223343   6.359   5.234   0.187
 7482SOL     OW23344   4.524   2.444   2.375
 7482SOL    HW123345   4.555   2.523   2.428
 7482SOL    HW223346   4.443   2.404   2.418
 7483SOL     OW23347   4.920   2.947   4.678
 7483SOL    HW123348   4.933   2.942   4.777
 7483SOL    HW223349   4.918   2.855   4.641
 7484SOL     OW23350   1.899   5.302   4.402
 7484SOL    HW123351   1.947   5.219   4.372
 7484SOL    HW223352   1.816   5.276   4.452
 7485SOL     OW23353   2.582   0.664   4.872
 7485SOL    HW123354   2.490   0.674   4.909
 7485SOL    HW223355   2.629   0.589   4.918
 7486SOL     OW23356   1.194   6.054   0.032
 7486SOL    HW123357   1.130   6.092   0.098
 7486SOL    HW223358   1.251   6.127   7.021
 7487SOL     OW23359   3.027   0.492   3.691
 7487SOL    HW123360   3.013   0.573   3.633
 7487SOL    HW223361   3.111   0.502   3.743
 7488SOL     OW23362   2.236   5.988   4.556
 7488SOL    HW123363   2.137   6.000   4.550
 7488SOL    HW223364   2.267   5.926   4.484
 7489SOL     OW23365   6.024   3.064   6.874
 7489SOL    HW123366   5.975   3.129   6.932
 7489SOL    HW223367   6.107   3.107   6.838
 7490SOL     OW23368   1.433   0.471   3.382
 7490SOL    HW123369   1.389   0.469   3.292
 7490SOL    HW223370   1.481   0.558   3.393
 7491SOL     OW23371   4.331   2.615   6.616
 7491SOL    HW123372   4.298   2.526   6.648
 7491SOL    HW223373   4.291   2.636   6.527
 7492SOL     OW23374   2.113   0.736   4.403
 7492SOL    HW123375   2.094   0.834   4.409
 7492SOL    HW223376   2.149   0.715   4.311
 7493SOL     OW23377   6.303   3.093   5.749
 7493SOL    HW123378   6.210   3.117   5.721
 7493SOL    HW223379   6.366   3.105   5.672
 7494SOL     OW23380   5.706   1.848   3.678
 7494SOL    HW123381   5.721   1.751   3.663
 7494SOL    HW223382   5.689   1.894   3.591
 7495SOL     OW23383   1.086   3.074   5.627
 7495SOL    HW123384   1.179   3.037   5.632
 7495SOL    HW223385   1.020   2.999   5.632
 7496SOL     OW23386   5.754   3.402   4.342
 7496SOL    HW123387   5.766   3.380   4.245
 7496SOL    HW223388   5.804   3.486   4.364
 7497SOL     OW23389   1.735   4.917   1.144
 7497SOL    HW123390   1.663   4.878   1.087
 7497SOL    HW223391   1.710   5.010   1.170
 7498SOL     OW23392   3.293   1.107   4.450
 7498SOL    HW123393   3.344   1.073   4.529
 7498SOL    HW223394   3.209   1.151   4.481
 7499SOL     OW23395   4.302   2.179   3.464
 7499SOL    HW123396   4.297   2.167   3.365
 7499SOL    HW223397   4.387   2.225   3.489
 7500SOL     OW23398   3.365   6.052   2.795
 7500SOL    HW123399   3.351   6.076   2.699
 7500SOL    HW223400   3.300   6.103   2.852
 7501SOL     OW23401   5.211   4.486   3.681
 7501SOL    HW123402   5.276   4.540   3.735
 7501SOL    HW223403   5.211   4.519   3.587
 7502SOL     OW23404   2.935   6.803   4.189
 7502SOL    HW123405   2.957   6.897   4.215
 7502SOL    HW223406   2.836   6.791   4.187
 7503SOL     OW23407   2.659   6.316   1.255
 7503SOL    HW123408   2.683   6.301   1.159
 7503SOL    HW223409   2.710   6.251   1.313
 7504SOL     OW23410   0.164   6.180   3.014
 7504SOL    HW123411   0.248   6.180   3.068
 7504SOL    HW223412   0.085   6.183   3.076
 7505SOL     OW23413   1.500   2.251   6.341
 7505SOL    HW123414   1.447   2.190   6.399
 7505SOL    HW223415   1.587   2.273   6.386
 7506SOL     OW23416   4.524   2.284   3.543
 7506SOL    HW123417   4.575   2.281   3.628
 7506SOL    HW223418   4.587   2.301   3.467
 7507SOL     OW23419   5.933   2.545   3.122
 7507SOL    HW123420   5.889   2.456   3.136
 7507SOL    HW223421   5.872   2.617   3.155
 7508SOL     OW23422   2.384   5.009   0.230
 7508SOL    HW123423   2.313   5.066   0.273
 7508SOL    HW223424   2.464   5.004   0.290
 7509SOL     OW23425   6.024   3.424   0.569
 7509SOL    HW123426   6.080   3.467   0.498
 7509SOL    HW223427   5.980   3.343   0.531
 7510SOL     OW23428   4.023   3.945   4.759
 7510SOL    HW123429   4.095   4.004   4.723
 7510SOL    HW223430   4.063   3.861   4.795
 7511SOL     OW23431   2.984   6.317   3.057
 7511SOL    HW123432   2.952   6.230   3.092
 7511SOL    HW223433   2.908   6.366   3.015
 7512SOL     OW23434   2.648   0.915   6.867
 7512SOL    HW123435   2.667   1.000   6.917
 7512SOL    HW223436   2.582   0.934   6.794
 7513SOL     OW23437   1.524   1.809   2.334
 7513SOL    HW123438   1.513   1.769   2.425
 7513SOL    HW223439   1.621   1.805   2.308
 7514SOL     OW23440   2.471   5.498   3.121
 7514SOL    HW123441   2.503   5.485   3.027
 7514SOL    HW223442   2.372   5.488   3.125
 7515SOL     OW23443   0.070   4.802   5.001
 7515SOL    HW123444   0.061   4.703   4.993
 7515SOL    HW223445   7.013   4.845   4.966
 7516SOL     OW23446   0.586   5.270   6.175
 7516SOL    HW123447   0.502   5.242   6.221
 7516SOL    HW223448   0.664   5.245   6.232
 7517SOL     OW23449   0.792   2.171   0.163
 7517SOL    HW123450   0.845   2.194   0.245
 7517SOL    HW223451   0.750   2.081   0.175
 7518SOL     OW23452   5.225   3.614   3.617
 7518SOL    HW123453   5.272   3.578   3.537
 7518SOL    HW223454   5.212   3.541   3.684
 7519SOL     OW23455   6.629   6.543   4.541
 7519SOL    HW123456   6.655   6.511   4.632
 7519SOL    HW223457   6.704   6.594   4.501
 7520SOL     OW23458   1.713   0.555   2.334
 7520SOL    HW123459   1.616   0.533   2.323
 7520SOL    HW223460   1.738   0.628   2.271
 7521SOL     OW23461   5.579   2.721   4.722
 7521SOL    HW123462   5.622   2.705   4.811
 7521SOL    HW223463   5.610   2.809   4.686
 7522SOL     OW23464   1.615   0.440   5.395
 7522SOL    HW123465   1.527   0.484   5.409
 7522SOL    HW223466   1.684   0.509   5.375
 7523SOL     OW23467   5.069   0.768   6.637
 7523SOL    HW123468   5.075   0.765   6.537
 7523SOL    HW223469   5.125   0.694   6.675
 7524SOL     OW23470   6.988   2.834   4.660
 7524SOL    HW123471   6.920   2.798   4.723
 7524SOL    HW223472   6.974   2.932   4.646
 7525SOL     OW23473   4.540   6.815   6.871
 7525SOL    HW123474   4.477   6.806   6.793
 7525SOL    HW223475   4.488   6.846   6.951
 7526SOL     OW23476   2.644   3.086   1.309
 7526SOL    HW123477   2.637   3.062   1.406
 7526SOL    HW223478   2.722   3.039   1.268
 7527SOL     OW23479   3.459   5.890   3.627
 7527SOL    HW123480   3.428   5.984   3.614
 7527SOL    HW223481   3.409   5.830   3.565
 7528SOL     OW23482   5.933   2.450   0.014
 7528SOL    HW123483   5.995   2.386   0.059
 7528SOL    HW223484   5.947   2.447   6.942
 7529SOL     OW23485   5.423   1.815   4.472
 7529SOL    HW123486   5.335   1.848   4.506
 7529SOL    HW223487   5.494   1.882   4.494
 7530SOL     OW23488   5.954   2.172   2.109
 7530SOL    HW123489   6.015   2.210   2.179
 7530SOL    HW223490   5.945   2.237   2.034
 7531SOL     OW23491   5.114   3.062   3.537
 7531SOL    HW123492   5.059   2.985   3.506
 7531SOL    HW223493   5.055   3.139   3.560
 7532SOL     OW23494   4.680   6.310   7.020
 7532SOL    HW123495   4.637   6.400   7.014
 7532SOL    HW223496   4.770   6.313   6.976
 7533SOL     OW23497   3.624   2.010   1.847
 7533SOL    HW123498   3.681   2.071   1.902
 7533SOL    HW223499   3.529   2.038   1.854
 7534SOL     OW23500   4.867   5.898   4.467
 7534SOL    HW123501   4.824   5.846   4.393
 7534SOL    HW223502   4.932   5.839   4.515
 7535SOL     OW23503   1.831   6.487   4.798
 7535SOL    HW123504   1.776   6.407   4.821
 7535SOL    HW223505   1.866   6.529   4.882
 7536SOL     OW23506   5.055   5.897   3.786
 7536SOL    HW123507   5.077   5.950   3.868
 7536SOL    HW223508   5.006   5.955   3.721
 7537SOL     OW23509   2.037   4.527   2.360
 7537SOL    HW123510   2.136   4.529   2.367
 7537SOL    HW223511   2.005   4.613   2.320
 7538SOL     OW23512   2.166   2.593   1.420
 7538SOL    HW123513   2.140   2.689   1.430
 7538SOL    HW223514   2.135   2.542   1.500
 7539SOL     OW23515   1.363   4.353   3.392
 7539SOL    HW123516   1.304   4.378   3.315
 7539SOL    HW223517   1.307   4.319   3.468
 7540SOL     OW23518   4.089   6.469   4.782
 7540SOL    HW123519   4.030   6.415   4.722
 7540SOL    HW223520   4.179   6.478   4.741
 7541SOL     OW23521   0.982   4.279   5.941
 7541SOL    HW123522   1.007   4.182   5.948
 7541SOL    HW223523   1.036   4.322   5.868
 7542SOL     OW23524   6.607   5.978   6.645
 7542SOL    HW123525   6.564   6.021   6.724
 7542SOL    HW223526   6.687   6.030   6.617
 7543SOL     OW23527   2.943   0.585   5.273
 7543SOL    HW123528   2.914   0.650   5.202
 7543SOL    HW223529   3.017   0.624   5.326
 7544SOL     OW23530   6.920   2.707   4.214
 7544SOL    HW123531   6.959   2.730   4.125
 7544SOL    HW223532   6.825   2.739   4.218
 7545SOL     OW23533   0.741   6.651   6.230
 7545SOL    HW123534   0.712   6.738   6.191
 7545SOL    HW223535   0.743   6.658   6.330
 7546SOL     OW23536   4.845   2.412   1.648
 7546SOL    HW123537   4.864   2.451   1.558
 7546SOL    HW223538   4.791   2.329   1.638
 7547SOL     OW23539   4.837   0.529   0.941
 7547SOL    HW123540   4.850   0.617   0.987
 7547SOL    HW223541   4.823   0.545   0.843
 7548SOL     OW23542   4.323   2.311   6.693
 7548SOL    HW123543   4.386   2.332   6.618
 7548SOL    HW223544   4.303   2.213   6.694
 7549SOL     OW23545   3.826   2.949   6.271
 7549SOL    HW123546   3.776   2.877   6.225
 7549SOL    HW223547   3.800   2.952   6.368
 7550SOL     OW23548   1.821   4.795   3.165
 7550SOL    HW123549   1.801   4.791   3.263
 7550SOL    HW223550   1.906   4.746   3.146
 7551SOL     OW23551   5.710   3.198   5.498
 7551SOL    HW123552   5.745   3.146   5.576
 7551SOL    HW223553   5.628   3.248   5.525
 7552SOL     OW23554   1.546   5.809   4.364
 7552SOL    HW123555   1.446   5.806   4.363
 7552SOL    HW223556   1.581   5.770   4.279
 7553SOL     OW23557   5.377   6.684   5.608
 7553SOL    HW123558   5.287   6.688   5.651
 7553SOL    HW223559   5.366   6.668   5.510
 7554SOL     OW23560   4.916   0.882   0.105
 7554SOL    HW123561   4.954   0.885   0.197
 7554SOL    HW223562   4.955   0.956   0.050
 7555SOL     OW23563   3.770   5.878   6.531
 7555SOL    HW123564   3.735   5.970   6.544
 7555SOL    HW223565   3.764   5.827   6.617
 7556SOL     OW23566   2.555   1.337   0.210
 7556SOL    HW123567   2.578   1.296   0.298
 7556SOL    HW223568   2.620   1.409   0.188
 7557SOL     OW23569   4.887   0.301   6.541
 7557SOL    HW123570   4.902   0.354   6.457
 7557SOL    HW223571   4.856   0.363   6.613
 7558SOL     OW23572   2.148   2.990   3.793
 7558SOL    HW123573   2.134   2.892   3.792
 7558SOL    HW223574   2.108   3.030   3.710
 7559SOL     OW23575   4.153   2.330   5.793
 7559SOL    HW123576   4.090   2.286   5.729
 7559SOL    HW223577   4.209   2.397   5.743
 7560SOL     OW23578   6.214   0.160   0.286
 7560SOL    HW123579   6.178   0.159   0.380
 7560SOL    HW223580   6.170   0.234   0.235
 7561SOL     OW23581   6.224   3.369   5.903
 7561SOL    HW123582   6.259   3.364   5.997
 7561SOL    HW223583   6.173   3.286   5.881
 7562SOL     OW23584   0.889   4.876   5.184
 7562SOL    HW123585   0.891   4.831   5.094
 7562SOL    HW223586   0.796   4.875   5.219
 7563SOL     OW23587   2.649   6.143   1.996
 7563SOL    HW123588   2.666   6.211   1.924
 7563SOL    HW223589   2.736   6.104   2.026
 7564SOL     OW23590   3.855   0.145   4.555
 7564SOL    HW123591   3.924   0.103   4.496
 7564SOL    HW223592   3.878   0.128   4.650
 7565SOL     OW23593   5.320   3.765   5.645
 7565SOL    HW123594   5.379   3.738   5.721
 7565SOL    HW223595   5.277   3.852   5.667
 7566SOL     OW23596   5.787   5.417   2.394
 7566SOL    HW123597   5.716   5.403   2.462
 7566SOL    HW223598   5.756   5.483   2.326
 7567SOL     OW23599   0.736   0.906   5.912
 7567SOL    HW123600   0.692   0.817   5.903
 7567SOL    HW223601   0.685   0.974   5.858
 7568SOL     OW23602   5.285   5.036   2.059
 7568SOL    HW123603   5.190   5.005   2.061
 7568SOL    HW223604   5.337   4.988   2.130
 7569SOL     OW23605   3.832   4.198   6.130
 7569SOL    HW123606   3.882   4.231   6.210
 7569SOL    HW223607   3.853   4.256   6.051
 7570SOL     OW23608   6.045   4.042   3.944
 7570SOL    HW123609   6.012   3.949   3.961
 7570SOL    HW223610   6.143   4.039   3.924
 7571SOL     OW23611   5.305   3.653   3.287
 7571SOL    HW123612   5.306   3.718   3.212
 7571SOL    HW223613   5.396   3.613   3.299
 7572SOL     OW23614   5.345   0.597   3.497
 7572SOL    HW123615   5.346   0.680   3.442
 7572SOL    HW223616   5.304   0.616   3.586
 7573SOL     OW23617   6.587   0.619   5.486
 7573SOL    HW123618   6.602   0.623   5.584
 7573SOL    HW223619   6.577   0.712   5.450
 7574SOL     OW23620   5.776   1.145   4.230
 7574SOL    HW123621   5.816   1.170   4.318
 7574SOL    HW223622   5.715   1.218   4.200
 7575SOL     OW23623   6.352   6.594   0.350
 7575SOL    HW123624   6.387   6.677   0.306
 7575SOL    HW223625   6.280   6.555   0.294
 7576SOL     OW23626   4.934   2.032   0.270
 7576SOL    HW123627   4.846   2.011   0.314
 7576SOL    HW223628   4.949   2.131   0.273
 7577SOL     OW23629   0.433   6.135   0.627
 7577SOL    HW123630   0.412   6.137   0.529
 7577SOL    HW223631   0.354   6.167   0.679
 7578SOL     OW23632   1.559   5.412   2.423
 7578SOL    HW123633   1.520   5.493   2.466
 7578SOL    HW223634   1.578   5.431   2.327
 7579SOL     OW23635   0.023   1.266   1.671
 7579SOL    HW123636   6.979   1.327   1.634
 7579SOL    HW223637   7.017   1.224   1.755
 7580SOL     OW23638   1.183   4.392   3.192
 7580SOL    HW123639   1.140   4.474   3.154
 7580SOL    HW223640   1.234   4.345   3.120
 7581SOL     OW23641   0.509   1.154   1.784
 7581SOL    HW123642   0.566   1.162   1.703
 7581SOL    HW223643   0.460   1.240   1.798
 7582SOL     OW23644   4.107   1.821   4.111
 7582SOL    HW123645   4.010   1.799   4.098
 7582SOL    HW223646   4.164   1.747   4.077
 7583SOL     OW23647   5.464   3.497   2.609
 7583SOL    HW123648   5.421   3.569   2.554
 7583SOL    HW223649   5.520   3.438   2.550
 7584SOL     OW23650   1.420   0.288   2.885
 7584SOL    HW123651   1.505   0.325   2.847
 7584SOL    HW223652   1.422   0.188   2.879
 7585SOL     OW23653   1.485   2.028   6.055
 7585SOL    HW123654   1.553   2.100   6.048
 7585SOL    HW223655   1.484   1.975   5.970
 7586SOL     OW23656   1.751   6.556   3.321
 7586SOL    HW123657   1.709   6.643   3.347
 7586SOL    HW223658   1.791   6.564   3.230
 7587SOL     OW23659   2.718   1.443   6.851
 7587SOL    HW123660   2.625   1.453   6.816
 7587SOL    HW223661   2.770   1.384   6.790
 7588SOL     OW23662   1.698   2.539   3.998
 7588SOL    HW123663   1.677   2.549   4.095
 7588SOL    HW223664   1.797   2.544   3.984
 7589SOL     OW23665   0.003   0.997   2.978
 7589SOL    HW123666   6.963   1.046   2.921
 7589SOL    HW223667   0.062   1.063   3.025
 7590SOL     OW23668   5.903   0.577   0.274
 7590SOL    HW123669   5.819   0.523   0.278
 7590SOL    HW223670   5.912   0.617   0.182
 7591SOL     OW23671   5.350   3.772   6.656
 7591SOL    HW123672   5.292   3.840   6.701
 7591SOL    HW223673   5.412   3.732   6.723
 7592SOL     OW23674   6.272   5.155   4.506
 7592SOL    HW123675   6.186   5.107   4.523
 7592SOL    HW223676   6.284   5.227   4.574
 7593SOL     OW23677   6.978   2.744   6.941
 7593SOL    HW123678   6.931   2.666   6.983
 7593SOL    HW223679   0.049   2.725   6.934
 7594SOL     OW23680   1.133   4.789   1.053
 7594SOL    HW123681   1.096   4.818   0.965
 7594SOL    HW223682   1.194   4.711   1.040
 7595SOL     OW23683   6.548   2.844   6.202
 7595SOL    HW123684   6.467   2.893   6.172
 7595SOL    HW223685   6.524   2.785   6.280
 7596SOL     OW23686   3.161   6.568   5.308
 7596SOL    HW123687   3.199   6.660   5.301
 7596SOL    HW223688   3.110   6.547   5.224
 7597SOL     OW23689   1.831   6.661   3.018
 7597SOL    HW123690   1.791   6.571   3.002
 7597SOL    HW223691   1.804   6.724   2.944
 7598SOL     OW23692   6.196   0.735   3.339
 7598SOL    HW123693   6.112   0.781   3.313
 7598SOL    HW223694   6.178   0.637   3.349
 7599SOL     OW23695   5.527   3.254   1.397
 7599SOL    HW123696   5.516   3.157   1.419
 7599SOL    HW223697   5.545   3.306   1.480
 7600SOL     OW23698   1.196   0.953   3.426
 7600SOL    HW123699   1.113   0.965   3.479
 7600SOL    HW223700   1.274   0.941   3.488
 7601SOL     OW23701   3.132   5.224   2.052
 7601SOL    HW123702   3.106   5.148   1.993
 7601SOL    HW223703   3.228   5.248   2.035
 7602SOL     OW23704   1.083   3.235   6.789
 7602SOL    HW123705   1.095   3.137   6.808
 7602SOL    HW223706   1.168   3.273   6.754
 7603SOL     OW23707   1.676   6.565   6.134
 7603SOL    HW123708   1.697   6.566   6.036
 7603SOL    HW223709   1.691   6.473   6.170
 7604SOL     OW23710   1.365   2.088   5.425
 7604SOL    HW123711   1.415   2.017   5.473
 7604SOL    HW223712   1.311   2.142   5.491
 7605SOL     OW23713   1.235   0.616   0.632
 7605SOL    HW123714   1.138   0.616   0.610
 7605SOL    HW223715   1.247   0.631   0.730
 7606SOL     OW23716   5.715   2.722   4.945
 7606SOL    HW123717   5.666   2.807   4.963
 7606SOL    HW223718   5.800   2.721   4.998
 7607SOL     OW23719   3.848   5.541   6.962
 7607SOL    HW123720   3.943   5.548   6.992
 7607SOL    HW223721   3.790   5.591   7.026
 7608SOL     OW23722   5.038   2.693   0.547
 7608SOL    HW123723   5.113   2.758   0.562
 7608SOL    HW223724   5.067   2.624   0.481
 7609SOL     OW23725   1.119   3.549   3.789
 7609SOL    HW123726   1.159   3.519   3.875
 7609SOL    HW223727   1.191   3.584   3.729
 7610SOL     OW23728   3.711   4.581   5.548
 7610SOL    HW123729   3.781   4.626   5.603
 7610SOL    HW223730   3.702   4.485   5.576
 7611SOL     OW23731   5.449   3.564   1.154
 7611SOL    HW123732   5.504   3.502   1.210
 7611SOL    HW223733   5.507   3.637   1.118
 7612SOL     OW23734   4.768   2.814   2.889
 7612SOL    HW123735   4.702   2.807   2.964
 7612SOL    HW223736   4.857   2.781   2.920
 7613SOL     OW23737   0.757   1.575   2.047
 7613SOL    HW123738   0.797   1.495   2.091
 7613SOL    HW223739   0.810   1.597   1.964
 7614SOL     OW23740   5.171   3.499   1.162
 7614SOL    HW123741   5.270   3.516   1.156
 7614SOL    HW223742   5.123   3.559   1.098
 7615SOL     OW23743   4.759   4.034   5.818
 7615SOL    HW123744   4.833   3.966   5.810
 7615SOL    HW223745   4.708   4.018   5.903
 7616SOL     OW23746   0.143   0.009   4.284
 7616SOL    HW123747   0.127   0.001   4.383
 7616SOL    HW223748   0.145   0.106   4.259
 7617SOL     OW23749   5.719   6.094   3.547
 7617SOL    HW123750   5.733   6.020   3.482
 7617SOL    HW223751   5.684   6.057   3.633
 7618SOL     OW23752   1.110   2.978   6.820
 7618SOL    HW123753   1.104   2.997   6.918
 7618SOL    HW223754   1.077   2.885   6.802
 7619SOL     OW23755   6.899   2.420   4.289
 7619SOL    HW123756   6.987   2.399   4.332
 7619SOL    HW223757   6.892   2.519   4.275
 7620SOL     OW23758   4.102   5.165   1.170
 7620SOL    HW123759   4.024   5.227   1.157
 7620SOL    HW223760   4.168   5.180   1.097
 7621SOL     OW23761   0.510   0.272   1.196
 7621SOL    HW123762   0.536   0.309   1.285
 7621SOL    HW223763   0.584   0.213   1.162
 7622SOL     OW23764   4.603   4.636   6.310
 7622SOL    HW123765   4.560   4.564   6.365
 7622SOL    HW223766   4.571   4.725   6.341
 7623SOL     OW23767   4.373   4.429   0.941
 7623SOL    HW123768   4.429   4.406   0.862
 7623SOL    HW223769   4.431   4.463   1.015
 7624SOL     OW23770   6.561   3.518   3.472
 7624SOL    HW123771   6.481   3.544   3.418
 7624SOL    HW223772   6.628   3.474   3.413
 7625SOL     OW23773   6.842   1.627   0.057
 7625SOL    HW123774   6.820   1.670   6.996
 7625SOL    HW223775   6.760   1.586   0.096
 7626SOL     OW23776   6.639   1.238   5.712
 7626SOL    HW123777   6.649   1.148   5.754
 7626SOL    HW223778   6.728   1.271   5.681
 7627SOL     OW23779   3.043   2.027   0.373
 7627SOL    HW123780   3.013   2.092   0.443
 7627SOL    HW223781   3.132   1.990   0.399
 7628SOL     OW23782   3.941   2.865   1.633
 7628SOL    HW123783   3.934   2.776   1.589
 7628SOL    HW223784   3.918   2.857   1.730
 7629SOL     OW23785   6.771   4.497   3.268
 7629SOL    HW123786   6.811   4.425   3.326
 7629SOL    HW223787   6.694   4.539   3.317
 7630SOL     OW23788   0.830   0.814   6.440
 7630SOL    HW123789   0.885   0.738   6.407
 7630SOL    HW223790   0.826   0.885   6.369
 7631SOL     OW23791   1.370   1.323   5.576
 7631SOL    HW123792   1.387   1.234   5.535
 7631SOL    HW223793   1.432   1.391   5.535
 7632SOL     OW23794   4.349   5.159   1.016
 7632SOL    HW123795   4.441   5.165   1.056
 7632SOL    HW223796   4.340   5.076   0.963
 7633SOL     OW23797   5.163   0.673   2.051
 7633SOL    HW123798   5.066   0.692   2.034
 7633SOL    HW223799   5.183   0.688   2.147
 7634SOL     OW23800   2.109   1.286   1.593
 7634SOL    HW123801   2.118   1.233   1.509
 7634SOL    HW223802   2.179   1.357   1.596
 7635SOL     OW23803   3.419   5.159   4.494
 7635SOL    HW123804   3.412   5.139   4.592
 7635SOL    HW223805   3.484   5.234   4.480
 7636SOL     OW23806   1.490   4.056   4.554
 7636SOL    HW123807   1.483   3.959   4.578
 7636SOL    HW223808   1.499   4.065   4.455
 7637SOL     OW23809   1.482   6.257   3.051
 7637SOL    HW123810   1.579   6.282   3.057
 7637SOL    HW223811   1.473   6.173   2.998
 7638SOL     OW23812   1.056   5.274   2.217
 7638SOL    HW123813   1.053   5.345   2.147
 7638SOL    HW223814   0.999   5.301   2.295
 7639SOL     OW23815   0.586   1.474   0.354
 7639SOL    HW123816   0.572   1.408   0.280
 7639SOL    HW223817   0.613   1.426   0.437
 7640SOL     OW23818   2.994   2.318   6.973
 7640SOL    HW123819   3.023   2.259   6.898
 7640SOL    HW223820   3.061   2.314   0.021
 7641SOL     OW23821   6.781   3.958   2.731
 7641SOL    HW123822   6.820   3.953   2.823
 7641SOL    HW223823   6.726   4.041   2.722
 7642SOL     OW23824   5.900   1.224   2.866
 7642SOL    HW123825   5.989   1.184   2.887
 7642SOL    HW223826   5.849   1.162   2.806
 7643SOL     OW23827   5.334   1.353   2.887
 7643SOL    HW123828   5.416   1.320   2.840
 7643SOL    HW223829   5.287   1.419   2.828
 7644SOL     OW23830   4.842   3.122   2.428
 7644SOL    HW123831   4.838   3.036   2.376
 7644SOL    HW223832   4.837   3.199   2.365
 7645SOL     OW23833   4.257   3.378   5.707
 7645SOL    HW123834   4.162   3.356   5.684
 7645SOL    HW223835   4.298   3.430   5.632
 7646SOL     OW23836   0.567   2.749   3.766
 7646SOL    HW123837   0.567   2.842   3.802
 7646SOL    HW223838   0.525   2.687   3.832
 7647SOL     OW23839   0.424   3.013   4.460
 7647SOL    HW123840   0.518   3.038   4.439
 7647SOL    HW223841   0.422   2.951   4.538
 7648SOL     OW23842   2.428   1.454   2.434
 7648SOL    HW123843   2.364   1.404   2.492
 7648SOL    HW223844   2.392   1.545   2.416
 7649SOL     OW23845   1.325   1.396   4.422
 7649SOL    HW123846   1.267   1.348   4.356
 7649SOL    HW223847   1.419   1.400   4.387
 7650SOL     OW23848   6.181   0.099   1.280
 7650SOL    HW123849   6.164   0.190   1.319
 7650SOL    HW223850   6.162   0.030   1.350
 7651SOL     OW23851   2.541   6.140   4.429
 7651SOL    HW123852   2.577   6.103   4.515
 7651SOL    HW223853   2.553   6.072   4.357
 7652SOL     OW23854   5.562   2.888   5.306
 7652SOL    HW123855   5.531   2.876   5.212
 7652SOL    HW223856   5.486   2.921   5.362
 7653SOL     OW23857   1.366   1.440   0.196
 7653SOL    HW123858   1.363   1.441   0.296
 7653SOL    HW223859   1.458   1.414   0.166
 7654SOL     OW23860   5.472   3.671   4.729
 7654SOL    HW123861   5.439   3.628   4.814
 7654SOL    HW223862   5.498   3.600   4.664
 7655SOL     OW23863   3.788   0.724   3.741
 7655SOL    HW123864   3.751   0.641   3.698
 7655SOL    HW223865   3.765   0.725   3.838
 7656SOL     OW23866   4.805   2.743   6.406
 7656SOL    HW123867   4.820   2.763   6.309
 7656SOL    HW223868   4.718   2.694   6.416
 7657SOL     OW23869   1.956   2.550   3.927
 7657SOL    HW123870   2.025   2.492   3.885
 7657SOL    HW223871   2.001   2.624   3.978
 7658SOL     OW23872   3.171   0.379   0.758
 7658SOL    HW123873   3.128   0.469   0.766
 7658SOL    HW223874   3.160   0.346   0.664
 7659SOL     OW23875   4.822   4.140   0.024
 7659SOL    HW123876   4.778   4.166   6.965
 7659SOL    HW223877   4.918   4.167   0.023
 7660SOL     OW23878   6.101   5.382   4.164
 7660SOL    HW123879   6.113   5.347   4.071
 7660SOL    HW223880   6.013   5.430   4.171
 7661SOL     OW23881   4.658   1.878   5.828
 7661SOL    HW123882   4.706   1.838   5.750
 7661SOL    HW223883   4.701   1.965   5.852
 7662SOL     OW23884   0.861   2.549   3.238
 7662SOL    HW123885   0.870   2.647   3.252
 7662SOL    HW223886   0.923   2.501   3.300
 7663SOL     OW23887   4.957   5.514   6.452
 7663SOL    HW123888   4.869   5.549   6.485
 7663SOL    HW223889   4.958   5.414   6.460
 7664SOL     OW23890   3.253   1.605   2.908
 7664SOL    HW123891   3.348   1.606   2.878
 7664SOL    HW223892   3.193   1.622   2.830
 7665SOL     OW23893   5.431   1.661   4.110
 7665SOL    HW123894   5.397   1.604   4.185
 7665SOL    HW223895   5.397   1.755   4.120
 7666SOL     OW23896   0.304   4.833   3.924
 7666SOL    HW123897   0.305   4.901   3.851
 7666SOL    HW223898   0.391   4.835   3.973
 7667SOL     OW23899   4.061   0.701   3.052
 7667SOL    HW123900   4.049   0.698   3.151
 7667SOL    HW223901   3.978   0.670   3.007
 7668SOL     OW23902   2.654   5.016   0.382
 7668SOL    HW123903   2.753   5.001   0.392
 7668SOL    HW223904   2.606   4.930   0.399
 7669SOL     OW23905   4.565   0.801   5.180
 7669SOL    HW123906   4.523   0.786   5.269
 7669SOL    HW223907   4.497   0.787   5.108
 7670SOL     OW23908   0.971   6.143   0.879
 7670SOL    HW123909   0.933   6.170   0.791
 7670SOL    HW223910   0.982   6.044   0.882
 7671SOL     OW23911   4.216   0.178   2.357
 7671SOL    HW123912   4.274   0.099   2.377
 7671SOL    HW223913   4.250   0.226   2.276
 7672SOL     OW23914   6.608   4.832   3.344
 7672SOL    HW123915   6.612   4.882   3.257
 7672SOL    HW223916   6.586   4.895   3.418
 7673SOL     OW23917   1.933   5.439   2.284
 7673SOL    HW123918   1.851   5.463   2.233
 7673SOL    HW223919   2.007   5.502   2.258
 7674SOL     OW23920   4.676   0.221   4.177
 7674SOL    HW123921   4.591   0.169   4.179
 7674SOL    HW223922   4.685   0.273   4.262
 7675SOL     OW23923   4.664   6.270   3.644
 7675SOL    HW123924   4.588   6.328   3.676
 7675SOL    HW223925   4.745   6.327   3.630
 7676SOL     OW23926   2.952   2.209   6.176
 7676SOL    HW123927   3.021   2.152   6.132
 7676SOL    HW223928   2.952   2.300   6.134
 7677SOL     OW23929   0.196   4.504   0.642
 7677SOL    HW123930   0.102   4.495   0.608
 7677SOL    HW223931   0.257   4.527   0.566
 7678SOL     OW23932   1.655   2.785   5.345
 7678SOL    HW123933   1.662   2.809   5.248
 7678SOL    HW223934   1.743   2.803   5.390
 7679SOL     OW23935   2.017   5.266   5.547
 7679SOL    HW123936   2.025   5.166   5.549
 7679SOL    HW223937   2.097   5.305   5.501
 7680SOL     OW23938   1.267   0.390   6.110
 7680SOL    HW123939   1.340   0.323   6.098
 7680SOL    HW223940   1.208   0.362   6.186
 7681SOL     OW23941   2.850   1.220   0.214
 7681SOL    HW123942   2.895   1.272   0.286
 7681SOL    HW223943   2.874   1.123   0.224
 7682SOL     OW23944   4.797   1.192   2.116
 7682SOL    HW123945   4.777   1.170   2.211
 7682SOL    HW223946   4.711   1.202   2.065
 7683SOL     OW23947   0.431   1.396   4.873
 7683SOL    HW123948   0.463   1.479   4.826
 7683SOL    HW223949   0.416   1.417   4.970
 7684SOL     OW23950   3.800   2.407   1.369
 7684SOL    HW123951   3.760   2.473   1.306
 7684SOL    HW223952   3.746   2.403   1.453
 7685SOL     OW23953   3.304   1.542   6.582
 7685SOL    HW123954   3.290   1.490   6.666
 7685SOL    HW223955   3.293   1.640   6.602
 7686SOL     OW23956   6.146   6.965   4.111
 7686SOL    HW123957   6.148   6.999   4.017
 7686SOL    HW223958   6.221   6.901   4.126
 7687SOL     OW23959   4.861   5.355   4.937
 7687SOL    HW123960   4.847   5.451   4.961
 7687SOL    HW223961   4.911   5.309   5.011
 7688SOL     OW23962   6.830   6.462   5.935
 7688SOL    HW123963   6.800   6.545   5.887
 7688SOL    HW223964   6.874   6.400   5.870
 7689SOL     OW23965   5.013   0.137   2.958
 7689SOL    HW123966   5.057   0.048   2.945
 7689SOL    HW223967   5.082   0.205   2.981
 7690SOL     OW23968   5.703   5.200   0.582
 7690SOL    HW123969   5.641   5.204   0.661
 7690SOL    HW223970   5.744   5.110   0.577
 7691SOL     OW23971   4.888   4.592   1.700
 7691SOL    HW123972   4.920   4.687   1.695
 7691SOL    HW223973   4.791   4.590   1.723
 7692SOL     OW23974   0.837   6.157   1.551
 7692SOL    HW123975   0.849   6.232   1.486
 7692SOL    HW223976   0.884   6.179   1.637
 7693SOL     OW23977   3.146   0.204   1.512
 7693SOL    HW123978   3.199   0.289   1.515
 7693SOL    HW223979   3.048   0.227   1.511
 7694SOL     OW23980   5.724   2.917   4.610
 7694SOL    HW123981   5.718   2.988   4.540
 7694SOL    HW223982   5.814   2.874   4.607
 7695SOL     OW23983   5.868   0.711   1.404
 7695SOL    HW123984   5.923   0.794   1.396
 7695SOL    HW223985   5.910   0.637   1.352
 7696SOL     OW23986   6.925   1.393   5.977
 7696SOL    HW123987   6.830   1.396   6.007
 7696SOL    HW223988   6.981   1.348   6.047
 7697SOL     OW23989   2.964   0.911   2.731
 7697SOL    HW123990   3.004   0.881   2.818
 7697SOL    HW223991   2.974   1.010   2.722
 7698SOL     OW23992   6.704   1.481   5.312
 7698SOL    HW123993   6.646   1.434   5.379
 7698SOL    HW223994   6.689   1.441   5.221
 7699SOL     OW23995   2.539   5.167   6.682
 7699SOL    HW123996   2.448   5.209   6.687
 7699SOL    HW223997   2.588   5.185   6.767
 7700SOL     OW23998   3.950   6.061   3.533
 7700SOL    HW123999   4.035   6.067   3.480
 7700SOL    HW224000   3.882   6.009   3.481
 7701SOL     OW24001   0.315   2.371   6.723
 7701SOL    HW124002   0.321   2.460   6.678
 7701SOL    HW224003   0.407   2.333   6.732
 7702SOL     OW24004   4.380   6.326   5.241
 7702SOL    HW124005   4.391   6.399   5.173
 7702SOL    HW224006   4.282   6.310   5.256
 7703SOL     OW24007   6.276   6.869   5.477
 7703SOL    HW124008   6.246   6.897   5.568
 7703SOL    HW224009   6.337   6.790   5.485
 7704SOL     OW24010   6.162   2.143   3.416
 7704SOL    HW124011   6.165   2.163   3.514
 7704SOL    HW224012   6.141   2.227   3.366
 7705SOL     OW24013   2.402   4.944   1.057
 7705SOL    HW124014   2.366   5.037   1.071
 7705SOL    HW224015   2.349   4.879   1.113
 7706SOL     OW24016   3.597   3.230   3.336
 7706SOL    HW124017   3.568   3.276   3.420
 7706SOL    HW224018   3.672   3.167   3.357
 7707SOL     OW24019   0.346   4.814   6.577
 7707SOL    HW124020   0.357   4.861   6.665
 7707SOL    HW224021   0.293   4.731   6.590
 7708SOL     OW24022   1.557   6.634   4.526
 7708SOL    HW124023   1.564   6.572   4.605
 7708SOL    HW224024   1.517   6.584   4.449
 7709SOL     OW24025   6.519   5.244   1.850
 7709SOL    HW124026   6.492   5.147   1.848
 7709SOL    HW224027   6.441   5.301   1.825
 7710SOL     OW24028   1.861   2.626   0.595
 7710SOL    HW124029   1.878   2.545   0.539
 7710SOL    HW224030   1.900   2.612   0.686
 7711SOL     OW24031   5.810   5.591   5.825
 7711SOL    HW124032   5.907   5.613   5.811
 7711SOL    HW224033   5.793   5.497   5.797
 7712SOL     OW24034   6.162   4.628   0.070
 7712SOL    HW124035   6.076   4.604   0.113
 7712SOL    HW224036   6.214   4.688   0.132
 7713SOL     OW24037   2.015   3.778   0.826
 7713SOL    HW124038   2.042   3.686   0.797
 7713SOL    HW224039   1.953   3.771   0.905
 7714SOL     OW24040   0.533   6.546   5.117
 7714SOL    HW124041   0.575   6.512   5.033
 7714SOL    HW224042   0.528   6.646   5.114
 7715SOL     OW24043   2.489   2.060   6.658
 7715SOL    HW124044   2.564   1.995   6.655
 7715SOL    HW224045   2.423   2.033   6.728
 7716SOL     OW24046   6.955   5.254   0.119
 7716SOL    HW124047   6.894   5.179   0.143
 7716SOL    HW224048   7.002   5.232   0.034
 7717SOL     OW24049   1.451   1.598   5.340
 7717SOL    HW124050   1.478   1.536   5.266
 7717SOL    HW224051   1.444   1.691   5.304
 7718SOL     OW24052   7.015   4.368   2.672
 7718SOL    HW124053   0.068   4.410   2.630
 7718SOL    HW224054   6.954   4.439   2.708
 7719SOL     OW24055   0.981   4.223   4.611
 7719SOL    HW124056   0.887   4.205   4.581
 7719SOL    HW224057   1.039   4.237   4.531
 7720SOL     OW24058   6.090   1.588   5.901
 7720SOL    HW124059   6.001   1.591   5.856
 7720SOL    HW224060   6.161   1.612   5.835
 7721SOL     OW24061   0.374   7.003   2.728
 7721SOL    HW124062   0.399   6.934   2.660
 7721SOL    HW224063   0.287   0.019   2.701
 7722SOL     OW24064   1.886   5.051   3.939
 7722SOL    HW124065   1.908   5.098   3.854
 7722SOL    HW224066   1.790   5.021   3.937
 7723SOL     OW24067   4.932   3.727   6.296
 7723SOL    HW124068   4.914   3.811   6.347
 7723SOL    HW224069   4.995   3.747   6.221
 7724SOL     OW24070   3.321   4.308   0.411
 7724SOL    HW124071   3.263   4.385   0.383
 7724SOL    HW224072   3.378   4.335   0.488
 7725SOL     OW24073   5.781   2.531   2.818
 7725SOL    HW124074   5.685   2.553   2.838
 7725SOL    HW224075   5.796   2.433   2.834
 7726SOL     OW24076   0.936   3.253   6.008
 7726SOL    HW124077   1.034   3.250   6.023
 7726SOL    HW224078   0.916   3.311   5.929
 7727SOL     OW24079   5.897   2.571   1.446
 7727SOL    HW124080   5.818   2.615   1.404
 7727SOL    HW224081   5.912   2.609   1.537
 7728SOL     OW24082   2.248   2.778   5.100
 7728SOL    HW124083   2.284   2.871   5.108
 7728SOL    HW224084   2.304   2.727   5.035
 7729SOL     OW24085   5.463   1.634   2.053
 7729SOL    HW124086   5.433   1.539   2.056
 7729SOL    HW224087   5.448   1.677   2.143
 7730SOL     OW24088   6.380   4.821   6.029
 7730SOL    HW124089   6.434   4.885   6.084
 7730SOL    HW224090   6.309   4.871   5.980
 7731SOL     OW24091   6.859   6.999   0.571
 7731SOL    HW124092   6.794   0.048   0.577
 7731SOL    HW224093   6.949   0.003   0.602
 7732SOL     OW24094   4.204   0.065   0.336
 7732SOL    HW124095   4.122   0.077   0.393
 7732SOL    HW224096   4.176   0.053   0.240
 7733SOL     OW24097   6.180   5.299   2.474
 7733SOL    HW124098   6.103   5.347   2.432
 7733SOL    HW224099   6.246   5.365   2.509
 7734SOL     OW24100   2.470   4.895   4.350
 7734SOL    HW124101   2.406   4.819   4.345
 7734SOL    HW224102   2.535   4.879   4.425
 7735SOL     OW24103   6.365   5.716   0.350
 7735SOL    HW124104   6.323   5.705   0.260
 7735SOL    HW224105   6.418   5.800   0.352
 7736SOL     OW24106   2.187   3.200   0.531
 7736SOL    HW124107   2.093   3.187   0.501
 7736SOL    HW224108   2.190   3.211   0.630
 7737SOL     OW24109   3.143   5.737   1.995
 7737SOL    HW124110   3.119   5.645   2.025
 7737SOL    HW224111   3.060   5.783   1.963
 7738SOL     OW24112   2.411   5.877   6.974
 7738SOL    HW124113   2.402   5.825   6.889
 7738SOL    HW224114   2.430   5.973   6.952
 7739SOL     OW24115   1.828   1.941   1.611
 7739SOL    HW124116   1.911   1.974   1.655
 7739SOL    HW224117   1.852   1.884   1.532
 7740SOL     OW24118   1.730   0.924   2.625
 7740SOL    HW124119   1.795   0.848   2.618
 7740SOL    HW224120   1.775   1.003   2.668
 7741SOL     OW24121   0.737   4.085   5.056
 7741SOL    HW124122   0.770   4.163   5.004
 7741SOL    HW224123   0.646   4.104   5.092
 7742SOL     OW24124   4.348   1.629   3.918
 7742SOL    HW124125   4.307   1.601   3.831
 7742SOL    HW224126   4.412   1.704   3.902
 7743SOL     OW24127   4.950   1.160   0.024
 7743SOL    HW124128   4.932   1.258   0.033
 7743SOL    HW224129   5.030   1.136   0.078
 7744SOL     OW24130   0.613   6.069   3.364
 7744SOL    HW124131   0.700   6.077   3.315
 7744SOL    HW224132   0.607   5.978   3.405
 7745SOL     OW24133   2.438   6.906   6.890
 7745SOL    HW124134   2.369   6.879   6.823
 7745SOL    HW224135   2.462   6.827   6.946
 7746SOL     OW24136   1.538   0.042   0.828
 7746SOL    HW124137   1.625   0.008   0.791
 7746SOL    HW224138   1.467   7.000   0.813
 7747SOL     OW24139   0.508   6.272   1.336
 7747SOL    HW124140   0.518   6.371   1.324
 7747SOL    HW224141   0.450   6.236   1.263
 7748SOL     OW24142   3.194   3.781   4.321
 7748SOL    HW124143   3.163   3.686   4.325
 7748SOL    HW224144   3.122   3.838   4.282
 7749SOL     OW24145   3.241   3.730   3.463
 7749SOL    HW124146   3.280   3.786   3.536
 7749SOL    HW224147   3.314   3.679   3.418
 7750SOL     OW24148   5.908   5.951   6.235
 7750SOL    HW124149   6.003   5.933   6.262
 7750SOL    HW224150   5.847   5.892   6.288
 7751SOL     OW24151   0.962   2.042   2.951
 7751SOL    HW124152   1.040   2.104   2.962
 7751SOL    HW224153   0.901   2.079   2.880
 7752SOL     OW24154   5.651   5.711   6.050
 7752SOL    HW124155   5.691   5.673   5.966
 7752SOL    HW224156   5.617   5.803   6.031
 7753SOL     OW24157   2.800   0.975   4.222
 7753SOL    HW124158   2.749   0.891   4.207
 7753SOL    HW224159   2.898   0.954   4.230
 7754SOL     OW24160   5.667   0.489   1.719
 7754SOL    HW124161   5.668   0.431   1.638
 7754SOL    HW224162   5.694   0.435   1.799
 7755SOL     OW24163   1.171   1.056   5.965
 7755SOL    HW124164   1.134   1.033   6.055
 7755SOL    HW224165   1.237   1.131   5.974
 7756SOL     OW24166   2.825   5.918   2.379
 7756SOL    HW124167   2.889   5.994   2.366
 7756SOL    HW224168   2.801   5.880   2.289
 7757SOL     OW24169   4.945   6.297   3.935
 7757SOL    HW124170   4.997   6.383   3.933
 7757SOL    HW224171   4.874   6.303   4.005
 7758SOL     OW24172   1.688   2.232   6.742
 7758SOL    HW124173   1.667   2.161   6.675
 7758SOL    HW224174   1.761   2.291   6.707
 7759SOL     OW24175   2.058   1.478   5.025
 7759SOL    HW124176   2.128   1.462   4.957
 7759SOL    HW224177   2.073   1.419   5.104
 7760SOL     OW24178   5.985   3.298   2.240
 7760SOL    HW124179   6.025   3.366   2.301
 7760SOL    HW224180   6.056   3.257   2.183
 7761SOL     OW24181   2.086   0.103   5.984
 7761SOL    HW124182   2.141   0.149   5.915
 7761SOL    HW224183   2.012   0.163   6.013
 7762SOL     OW24184   4.177   0.662   5.279
 7762SOL    HW124185   4.205   0.733   5.343
 7762SOL    HW224186   4.253   0.600   5.262
 7763SOL     OW24187   1.138   1.556   1.246
 7763SOL    HW124188   1.081   1.586   1.322
 7763SOL    HW224189   1.128   1.621   1.170
 7764SOL     OW24190   3.565   3.259   2.744
 7764SOL    HW124191   3.598   3.164   2.741
 7764SOL    HW224192   3.493   3.271   2.675
 7765SOL     OW24193   6.427   2.934   3.977
 7765SOL    HW124194   6.374   3.015   4.003
 7765SOL    HW224195   6.518   2.961   3.948
 7766SOL     OW24196   5.121   1.460   0.459
 7766SOL    HW124197   5.026   1.480   0.485
 7766SOL    HW224198   5.177   1.541   0.473
 7767SOL     OW24199   3.815   6.771   4.045
 7767SOL    HW124200   3.911   6.791   4.021
 7767SOL    HW224201   3.798   6.673   4.038
 7768SOL     OW24202   3.966   5.070   2.687
 7768SOL    HW124203   3.903   5.126   2.741
 7768SOL    HW224204   4.050   5.057   2.739
 7769SOL     OW24205   4.960   1.614   1.591
 7769SOL    HW124206   4.966   1.578   1.685
 7769SOL    HW224207   5.043   1.664   1.570
 7770SOL     OW24208   1.486   4.160   2.296
 7770SOL    HW124209   1.505   4.082   2.238
 7770SOL    HW224210   1.552   4.233   2.278
 7771SOL     OW24211   2.456   2.806   5.342
 7771SOL    HW124212   2.485   2.819   5.437
 7771SOL    HW224213   2.472   2.890   5.291
 7772SOL     OW24214   5.138   0.847   3.751
 7772SOL    HW124215   5.167   0.752   3.740
 7772SOL    HW224216   5.089   0.877   3.670
 7773SOL     OW24217   2.786   5.252   5.508
 7773SOL    HW124218   2.868   5.200   5.485
 7773SOL    HW224219   2.793   5.285   5.603
 7774SOL     OW24220   6.023   2.283   6.457
 7774SOL    HW124221   6.018   2.219   6.380
 7774SOL    HW224222   5.949   2.266   6.521
 7775SOL     OW24223   3.308   6.935   3.047
 7775SOL    HW124224   3.281   0.004   3.048
 7775SOL    HW224225   3.377   6.918   3.118
 7776SOL     OW24226   3.164   3.611   7.003
 7776SOL    HW124227   3.121   3.543   6.944
 7776SOL    HW224228   3.184   3.693   6.950
 7777SOL     OW24229   2.553   1.595   5.270
 7777SOL    HW124230   2.512   1.682   5.297
 7777SOL    HW224231   2.644   1.611   5.231
 7778SOL     OW24232   4.992   6.923   0.282
 7778SOL    HW124233   4.894   6.942   0.294
 7778SOL    HW224234   5.011   6.909   0.185
 7779SOL     OW24235   3.379   3.081   0.580
 7779SOL    HW124236   3.292   3.056   0.537
 7779SOL    HW224237   3.364   3.096   0.677
 7780SOL     OW24238   1.771   5.134   4.964
 7780SOL    HW124239   1.832   5.107   5.038
 7780SOL    HW224240   1.824   5.144   4.879
 7781SOL     OW24241   1.365   4.164   6.664
 7781SOL    HW124242   1.352   4.099   6.739
 7781SOL    HW224243   1.373   4.257   6.701
 7782SOL     OW24244   1.599   3.689   5.419
 7782SOL    HW124245   1.514   3.643   5.395
 7782SOL    HW224246   1.603   3.778   5.374
 7783SOL     OW24247   2.405   6.016   5.802
 7783SOL    HW124248   2.480   6.027   5.736
 7783SOL    HW224249   2.416   5.929   5.850
 7784SOL     OW24250   2.190   2.531   0.310
 7784SOL    HW124251   2.258   2.469   0.270
 7784SOL    HW224252   2.237   2.605   0.358
 7785SOL     OW24253   1.400   6.988   3.793
 7785SOL    HW124254   1.460   6.942   3.727
 7785SOL    HW224255   1.441   6.985   3.884
 7786SOL     OW24256   3.629   5.777   6.295
 7786SOL    HW124257   3.556   5.834   6.332
 7786SOL    HW224258   3.711   5.787   6.351
 7787SOL     OW24259   1.952   3.489   5.376
 7787SOL    HW124260   1.998   3.405   5.347
 7787SOL    HW224261   1.934   3.546   5.296
 7788SOL     OW24262   1.402   0.048   1.628
 7788SOL    HW124263   1.302   0.056   1.630
 7788SOL    HW224264   1.433   0.040   1.533
 7789SOL     OW24265   3.448   6.698   0.150
 7789SOL    HW124266   3.469   6.601   0.138
 7789SOL    HW224267   3.527   6.753   0.123
 7790SOL     OW24268   5.904   5.239   2.236
 7790SOL    HW124269   5.857   5.292   2.306
 7790SOL    HW224270   5.847   5.161   2.210
 7791SOL     OW24271   3.064   6.595   3.769
 7791SOL    HW124272   3.021   6.676   3.807
 7791SOL    HW224273   2.998   6.520   3.766
 7792SOL     OW24274   1.038   5.791   5.869
 7792SOL    HW124275   1.056   5.692   5.864
 7792SOL    HW224276   1.124   5.840   5.876
 7793SOL     OW24277   1.767   0.767   6.112
 7793SOL    HW124278   1.809   0.843   6.061
 7793SOL    HW224279   1.689   0.732   6.060
 7794SOL     OW24280   4.586   5.197   3.330
 7794SOL    HW124281   4.515   5.155   3.387
 7794SOL    HW224282   4.631   5.270   3.382
 7795SOL     OW24283   1.948   3.571   5.129
 7795SOL    HW124284   1.939   3.664   5.094
 7795SOL    HW224285   2.016   3.521   5.075
 7796SOL     OW24286   2.858   3.547   4.009
 7796SOL    HW124287   2.849   3.453   3.977
 7796SOL    HW224288   2.896   3.604   3.936
 7797SOL     OW24289   0.826   6.041   2.831
 7797SOL    HW124290   0.777   6.014   2.914
 7797SOL    HW224291   0.835   6.141   2.830
 7798SOL     OW24292   1.341   4.938   6.309
 7798SOL    HW124293   1.324   4.854   6.359
 7798SOL    HW224294   1.261   4.961   6.254
 7799SOL     OW24295   6.902   6.389   1.597
 7799SOL    HW124296   6.836   6.387   1.672
 7799SOL    HW224297   6.860   6.432   1.517
 7800SOL     OW24298   1.530   5.384   0.762
 7800SOL    HW124299   1.587   5.384   0.680
 7800SOL    HW224300   1.496   5.292   0.780
 7801SOL     OW24301   2.763   2.135   1.532
 7801SOL    HW124302   2.760   2.080   1.449
 7801SOL    HW224303   2.672   2.138   1.574
 7802SOL     OW24304   5.288   2.161   1.443
 7802SOL    HW124305   5.221   2.221   1.486
 7802SOL    HW224306   5.314   2.089   1.507
 7803SOL     OW24307   4.442   3.213   5.833
 7803SOL    HW124308   4.377   3.280   5.798
 7803SOL    HW224309   4.392   3.140   5.881
 7804SOL     OW24310   6.372   1.061   3.778
 7804SOL    HW124311   6.299   1.118   3.740
 7804SOL    HW224312   6.382   1.080   3.876
 7805SOL     OW24313   5.591   0.969   1.492
 7805SOL    HW124314   5.670   1.007   1.444
 7805SOL    HW224315   5.608   0.873   1.513
 7806SOL     OW24316   5.602   2.410   5.859
 7806SOL    HW124317   5.503   2.422   5.848
 7806SOL    HW224318   5.650   2.475   5.800
 7807SOL     OW24319   0.285   4.890   6.269
 7807SOL    HW124320   0.253   4.984   6.262
 7807SOL    HW224321   0.308   4.869   6.364
 7808SOL     OW24322   0.286   2.740   4.320
 7808SOL    HW124323   0.213   2.707   4.379
 7808SOL    HW224324   0.371   2.748   4.373
 7809SOL     OW24325   2.589   6.038   4.701
 7809SOL    HW124326   2.500   6.050   4.746
 7809SOL    HW224327   2.620   5.944   4.713
 7810SOL     OW24328   3.505   6.850   5.154
 7810SOL    HW124329   3.525   6.879   5.248
 7810SOL    HW224330   3.520   6.926   5.091
 7811SOL     OW24331   0.232   4.701   3.708
 7811SOL    HW124332   0.139   4.737   3.707
 7811SOL    HW224333   0.276   4.725   3.794
 7812SOL     OW24334   1.181   2.163   3.847
 7812SOL    HW124335   1.214   2.103   3.920
 7812SOL    HW224336   1.252   2.171   3.776
 7813SOL     OW24337   4.215   2.369   6.325
 7813SOL    HW124338   4.165   2.357   6.239
 7813SOL    HW224339   4.159   2.335   6.401
 7814SOL     OW24340   6.730   3.623   3.643
 7814SOL    HW124341   6.725   3.566   3.725
 7814SOL    HW224342   6.654   3.599   3.582
 7815SOL     OW24343   4.804   0.653   0.031
 7815SOL    HW124344   4.847   0.739   0.061
 7815SOL    HW224345   4.855   0.576   0.068
 7816SOL     OW24346   1.375   2.750   6.367
 7816SOL    HW124347   1.326   2.730   6.282
 7816SOL    HW224348   1.349   2.840   6.400
 7817SOL     OW24349   5.901   4.240   4.058
 7817SOL    HW124350   5.956   4.161   4.031
 7817SOL    HW224351   5.807   4.210   4.075
 7818SOL     OW24352   4.468   0.883   3.041
 7818SOL    HW124353   4.422   0.812   2.988
 7818SOL    HW224354   4.447   0.871   3.138
 7819SOL     OW24355   6.584   3.007   1.642
 7819SOL    HW124356   6.680   3.033   1.644
 7819SOL    HW224357   6.538   3.055   1.567
 7820SOL     OW24358   1.134   2.330   4.528
 7820SOL    HW124359   1.109   2.353   4.622
 7820SOL    HW224360   1.094   2.397   4.465
 7821SOL     OW24361   4.991   6.361   0.912
 7821SOL    HW124362   5.019   6.317   0.827
 7821SOL    HW224363   5.058   6.339   0.984
 7822SOL     OW24364   0.204   0.426   5.578
 7822SOL    HW124365   0.299   0.414   5.607
 7822SOL    HW224366   0.161   0.495   5.637
 7823SOL     OW24367   2.463   3.838   5.335
 7823SOL    HW124368   2.383   3.782   5.317
 7823SOL    HW224369   2.455   3.925   5.286
 7824SOL     OW24370   6.036   1.769   4.801
 7824SOL    HW124371   6.031   1.832   4.879
 7824SOL    HW224372   6.124   1.721   4.803
 7825SOL     OW24373   1.684   3.264   0.491
 7825SOL    HW124374   1.621   3.341   0.479
 7825SOL    HW224375   1.654   3.208   0.568
 7826SOL     OW24376   5.962   1.264   1.493
 7826SOL    HW124377   5.991   1.245   1.587
 7826SOL    HW224378   5.891   1.335   1.494
 7827SOL     OW24379   2.029   5.903   0.979
 7827SOL    HW124380   2.083   5.825   0.947
 7827SOL    HW224381   2.089   5.981   0.993
 7828SOL     OW24382   6.576   4.791   7.020
 7828SOL    HW124383   6.637   4.712   7.022
 7828SOL    HW224384   6.505   4.780   0.062
 7829SOL     OW24385   2.815   3.569   1.136
 7829SOL    HW124386   2.754   3.625   1.080
 7829SOL    HW224387   2.761   3.514   1.199
 7830SOL     OW24388   3.643   5.129   5.324
 7830SOL    HW124389   3.725   5.184   5.341
 7830SOL    HW224390   3.564   5.189   5.317
 7831SOL     OW24391   1.608   0.197   1.751
 7831SOL    HW124392   1.688   0.222   1.696
 7831SOL    HW224393   1.542   0.148   1.693
 7832SOL     OW24394   6.431   0.627   4.718
 7832SOL    HW124395   6.481   0.628   4.804
 7832SOL    HW224396   6.368   0.704   4.716
 7833SOL     OW24397   1.219   0.911   4.766
 7833SOL    HW124398   1.145   0.958   4.718
 7833SOL    HW224399   1.187   0.883   4.857
 7834SOL     OW24400   6.948   1.833   3.609
 7834SOL    HW124401   0.005   1.885   3.588
 7834SOL    HW224402   6.969   1.736   3.612
 7835SOL     OW24403   4.088   1.805   5.291
 7835SOL    HW124404   4.038   1.722   5.314
 7835SOL    HW224405   4.080   1.871   5.366
 7836SOL     OW24406   3.135   4.059   5.329
 7836SOL    HW124407   3.139   4.018   5.238
 7836SOL    HW224408   3.087   4.147   5.324
 7837SOL     OW24409   4.993   5.668   6.850
 7837SOL    HW124410   4.971   5.678   6.947
 7837SOL    HW224411   5.085   5.705   6.833
 7838SOL     OW24412   4.230   6.444   1.310
 7838SOL    HW124413   4.289   6.419   1.386
 7838SOL    HW224414   4.145   6.484   1.345
 7839SOL     OW24415   6.208   4.060   4.364
 7839SOL    HW124416   6.278   4.042   4.433
 7839SOL    HW224417   6.231   4.144   4.315
 7840SOL     OW24418   0.092   3.413   4.127
 7840SOL    HW124419   0.129   3.505   4.112
 7840SOL    HW224420   7.026   3.421   4.164
 7841SOL     OW24421   4.226   1.842   6.938
 7841SOL    HW124422   4.287   1.858   6.861
 7841SOL    HW224423   4.133   1.871   6.914
 7842SOL     OW24424   2.078   1.395   2.369
 7842SOL    HW124425   2.031   1.482   2.354
 7842SOL    HW224426   2.119   1.365   2.283
 7843SOL     OW24427   0.092   6.432   3.752
 7843SOL    HW124428   0.127   6.354   3.803
 7843SOL    HW224429   0.168   6.485   3.715
 7844SOL     OW24430   2.990   0.856   2.435
 7844SOL    HW124431   3.001   0.909   2.520
 7844SOL    HW224432   2.982   0.759   2.458
 7845SOL     OW24433   4.799   1.691   2.600
 7845SOL    HW124434   4.824   1.604   2.559
 7845SOL    HW224435   4.873   1.723   2.658
 7846SOL     OW24436   1.268   2.426   1.550
 7846SOL    HW124437   1.225   2.395   1.465
 7846SOL    HW224438   1.229   2.376   1.627
 7847SOL     OW24439   6.590   1.403   3.526
 7847SOL    HW124440   6.548   1.492   3.512
 7847SOL    HW224441   6.522   1.331   3.513
 7848SOL     OW24442   3.365   4.706   1.267
 7848SOL    HW124443   3.340   4.803   1.273
 7848SOL    HW224444   3.328   4.658   1.346
 7849SOL     OW24445   6.089   4.081   4.841
 7849SOL    HW124446   6.101   3.998   4.787
 7849SOL    HW224447   6.132   4.158   4.793
 7850SOL     OW24448   0.559   1.511   3.714
 7850SOL    HW124449   0.514   1.564   3.785
 7850SOL    HW224450   0.490   1.458   3.663
 7851SOL     OW24451   0.108   2.254   1.784
 7851SOL    HW124452   0.040   2.234   1.855
 7851SOL    HW224453   0.188   2.299   1.826
 7852SOL     OW24454   3.029   0.991   0.429
 7852SOL    HW124455   3.023   0.954   0.336
 7852SOL    HW224456   2.938   1.010   0.464
 7853SOL     OW24457   4.872   2.855   1.410
 7853SOL    HW124458   4.788   2.869   1.462
 7853SOL    HW224459   4.926   2.939   1.410
 7854SOL     OW24460   3.010   2.704   6.134
 7854SOL    HW124461   2.956   2.732   6.213
 7854SOL    HW224462   3.001   2.773   6.062
 7855SOL     OW24463   4.242   5.939   4.783
 7855SOL    HW124464   4.253   5.847   4.745
 7855SOL    HW224465   4.193   5.996   4.717
 7856SOL     OW24466   0.406   5.520   4.900
 7856SOL    HW124467   0.501   5.548   4.911
 7856SOL    HW224468   0.398   5.457   4.823
 7857SOL     OW24469   4.900   3.293   0.706
 7857SOL    HW124470   4.879   3.241   0.788
 7857SOL    HW224471   4.994   3.328   0.710
 7858SOL     OW24472   6.532   6.796   4.776
 7858SOL    HW124473   6.519   6.893   4.755
 7858SOL    HW224474   6.551   6.785   4.873
 7859SOL     OW24475   4.746   3.431   0.335
 7859SOL    HW124476   4.677   3.401   0.268
 7859SOL    HW224477   4.725   3.391   0.424
 7860SOL     OW24478   4.365   1.149   4.438
 7860SOL    HW124479   4.287   1.102   4.396
 7860SOL    HW224480   4.421   1.083   4.488
 7861SOL     OW24481   2.732   5.030   1.777
 7861SOL    HW124482   2.756   4.933   1.772
 7861SOL    HW224483   2.647   5.041   1.827
 7862SOL     OW24484   1.999   5.538   2.724
 7862SOL    HW124485   2.061   5.473   2.768
 7862SOL    HW224486   2.048   5.590   2.655
 7863SOL     OW24487   0.533   4.291   3.872
 7863SOL    HW124488   0.607   4.225   3.859
 7863SOL    HW224489   0.547   4.369   3.811
 7864SOL     OW24490   1.181   5.555   5.795
 7864SOL    HW124491   1.192   5.503   5.880
 7864SOL    HW224492   1.260   5.615   5.782
 7865SOL     OW24493   6.255   5.490   4.443
 7865SOL    HW124494   6.288   5.416   4.384
 7865SOL    HW224495   6.282   5.578   4.404
 7866SOL     OW24496   1.141   0.655   5.480
 7866SOL    HW124497   1.074   0.722   5.511
 7866SOL    HW224498   1.098   0.591   5.416
 7867SOL     OW24499   5.825   6.716   2.992
 7867SOL    HW124500   5.815   6.640   2.928
 7867SOL    HW224501   5.794   6.800   2.949
 7868SOL     OW24502   4.459   5.946   1.188
 7868SOL    HW124503   4.558   5.957   1.191
 7868SOL    HW224504   4.415   6.023   1.234
 7869SOL     OW24505   5.464   4.595   5.953
 7869SOL    HW124506   5.444   4.663   5.882
 7869SOL    HW224507   5.432   4.505   5.923
 7870SOL     OW24508   4.820   6.485   4.665
 7870SOL    HW124509   4.764   6.404   4.644
 7870SOL    HW224510   4.913   6.456   4.687
 7871SOL     OW24511   4.710   2.350   2.093
 7871SOL    HW124512   4.635   2.394   2.044
 7871SOL    HW224513   4.673   2.285   2.159
 7872SOL     OW24514   1.654   3.689   2.584
 7872SOL    HW124515   1.601   3.621   2.534
 7872SOL    HW224516   1.597   3.769   2.604
 7873SOL     OW24517   6.405   0.205   0.611
 7873SOL    HW124518   6.495   0.164   0.593
 7873SOL    HW224519   6.383   0.195   0.708
 7874SOL     OW24520   4.471   2.536   1.299
 7874SOL    HW124521   4.514   2.619   1.265
 7874SOL    HW224522   4.399   2.508   1.235
 7875SOL     OW24523   3.664   2.745   0.204
 7875SOL    HW124524   3.644   2.837   0.238
 7875SOL    HW224525   3.580   2.690   0.206
 7876SOL     OW24526   1.238   6.313   3.727
 7876SOL    HW124527   1.159   6.372   3.748
 7876SOL    HW224528   1.209   6.218   3.726
 7877SOL     OW24529   0.217   1.213   2.846
 7877SOL    HW124530   0.309   1.248   2.864
 7877SOL    HW224531   0.222   1.115   2.828
 7878SOL     OW24532   4.610   4.342   3.630
 7878SOL    HW124533   4.623   4.405   3.553
 7878SOL    HW224534   4.535   4.374   3.687
 7879SOL     OW24535   3.809   5.197   2.889
 7879SOL    HW124536   3.773   5.285   2.920
 7879SOL    HW224537   3.750   5.123   2.921
 7880SOL     OW24538   2.246   3.916   1.084
 7880SOL    HW124539   2.344   3.904   1.101
 7880SOL    HW224540   2.233   3.968   1.000
 7881SOL     OW24541   4.931   4.019   4.532
 7881SOL    HW124542   4.990   4.025   4.612
 7881SOL    HW224543   4.847   4.072   4.547
 7882SOL     OW24544   1.986   3.449   1.571
 7882SOL    HW124545   2.049   3.499   1.513
 7882SOL    HW224546   1.999   3.476   1.667
 7883SOL     OW24547   1.008   0.758   5.908
 7883SOL    HW124548   0.941   0.826   5.935
 7883SOL    HW224549   1.061   0.792   5.830
 7884SOL     OW24550   0.813   3.642   4.377
 7884SOL    HW124551   0.866   3.624   4.294
 7884SOL    HW224552   0.723   3.599   4.370
 7885SOL     OW24553   6.915   5.861   1.052
 7885SOL    HW124554   6.897   5.812   0.967
 7885SOL    HW224555   6.847   5.835   1.121
 7886SOL     OW24556   4.155   6.088   0.214
 7886SOL    HW124557   4.249   6.084   0.249
 7886SOL    HW224558   4.135   6.005   0.162
 7887SOL     OW24559   3.529   2.071   6.421
 7887SOL    HW124560   3.469   2.049   6.344
 7887SOL    HW224561   3.554   2.168   6.416
 7888SOL     OW24562   6.376   0.196   4.875
 7888SOL    HW124563   6.290   0.174   4.922
 7888SOL    HW224564   6.362   0.275   4.816
 7889SOL     OW24565   1.966   4.724   1.736
 7889SOL    HW124566   2.041   4.714   1.670
 7889SOL    HW224567   1.878   4.725   1.687
 7890SOL     OW24568   1.506   3.902   2.508
 7890SOL    HW124569   1.517   3.905   2.408
 7890SOL    HW224570   1.517   3.995   2.544
 7891SOL     OW24571   1.649   3.938   2.741
 7891SOL    HW124572   1.704   4.007   2.693
 7891SOL    HW224573   1.621   3.974   2.830
 7892SOL     OW24574   2.070   2.713   4.134
 7892SOL    HW124575   2.016   2.796   4.146
 7892SOL    HW224576   2.161   2.737   4.102
 7893SOL     OW24577   6.164   0.183   2.705
 7893SOL    HW124578   6.194   0.278   2.715
 7893SOL    HW224579   6.238   0.129   2.664
 7894SOL     OW24580   2.534   6.379   1.721
 7894SOL    HW124581   2.489   6.458   1.679
 7894SOL    HW224582   2.482   6.296   1.700
 7895SOL     OW24583   6.637   1.529   5.794
 7895SOL    HW124584   6.652   1.430   5.790
 7895SOL    HW224585   6.703   1.571   5.856
 7896SOL     OW24586   5.115   4.419   6.553
 7896SOL    HW124587   5.079   4.464   6.635
 7896SOL    HW224588   5.215   4.427   6.553
 7897SOL     OW24589   2.964   3.871   6.185
 7897SOL    HW124590   2.910   3.931   6.126
 7897SOL    HW224591   2.948   3.776   6.158
 7898SOL     OW24592   5.263   2.014   3.483
 7898SOL    HW124593   5.296   1.935   3.430
 7898SOL    HW224594   5.314   2.019   3.569
 7899SOL     OW24595   6.572   1.487   2.107
 7899SOL    HW124596   6.505   1.431   2.155
 7899SOL    HW224597   6.650   1.504   2.167
 7900SOL     OW24598   1.376   4.887   1.115
 7900SOL    HW124599   1.390   4.935   1.202
 7900SOL    HW224600   1.278   4.877   1.098
 7901SOL     OW24601   4.937   0.463   6.320
 7901SOL    HW124602   4.893   0.552   6.308
 7901SOL    HW224603   5.032   0.477   6.348
 7902SOL     OW24604   5.463   4.956   1.831
 7902SOL    HW124605   5.501   5.036   1.786
 7902SOL    HW224606   5.414   4.984   1.914
 7903SOL     OW24607   6.116   2.262   0.814
 7903SOL    HW124608   6.174   2.340   0.837
 7903SOL    HW224609   6.115   2.198   0.891
 7904SOL     OW24610   5.827   0.477   3.075
 7904SOL    HW124611   5.916   0.483   3.121
 7904SOL    HW224612   5.771   0.556   3.102
 7905SOL     OW24613   4.290   1.817   0.387
 7905SOL    HW124614   4.193   1.794   0.373
 7905SOL    HW224615   4.313   1.898   0.333
 7906SOL     OW24616   0.775   5.703   0.112
 7906SOL    HW124617   0.736   5.649   0.038
 7906SOL    HW224618   0.869   5.729   0.088
 7907SOL     OW24619   6.148   1.831   4.471
 7907SOL    HW124620   6.223   1.808   4.533
 7907SOL    HW224621   6.065   1.784   4.501
 7908SOL     OW24622   1.567   1.648   4.122
 7908SOL    HW124623   1.646   1.601   4.162
 7908SOL    HW224624   1.507   1.581   4.078
 7909SOL     OW24625   5.329   3.539   4.935
 7909SOL    HW124626   5.350   3.451   4.893
 7909SOL    HW224627   5.231   3.558   4.926
 7910SOL     OW24628   3.277   3.002   5.915
 7910SOL    HW124629   3.237   2.929   5.859
 7910SOL    HW224630   3.303   3.079   5.856
 7911SOL     OW24631   0.607   3.879   6.310
 7911SOL    HW124632   0.556   3.962   6.333
 7911SOL    HW224633   0.704   3.902   6.297
 7912SOL     OW24634   0.452   5.044   0.432
 7912SOL    HW124635   0.422   5.008   0.344
 7912SOL    HW224636   0.549   5.065   0.428
 7913SOL     OW24637   0.766   5.029   0.419
 7913SOL    HW124638   0.751   4.939   0.459
 7913SOL    HW224639   0.860   5.037   0.387
 7914SOL     OW24640   0.150   5.296   6.564
 7914SOL    HW124641   0.094   5.295   6.647
 7914SOL    HW224642   0.168   5.391   6.538
 7915SOL     OW24643   4.673   2.690   2.473
 7915SOL    HW124644   4.692   2.774   2.523
 7915SOL    HW224645   4.745   2.673   2.406
 7916SOL     OW24646   5.968   3.899   5.336
 7916SOL    HW124647   5.943   3.803   5.328
 7916SOL    HW224648   5.962   3.943   5.247
 7917SOL     OW24649   3.887   3.018   4.026
 7917SOL    HW124650   3.956   3.067   3.972
 7917SOL    HW224651   3.912   3.023   4.123
 7918SOL     OW24652   0.012   1.328   0.785
 7918SOL    HW124653   6.991   1.320   0.697
 7918SOL    HW224654   6.972   1.325   0.860
 7919SOL     OW24655   0.144   4.385   3.222
 7919SOL    HW124656   0.135   4.441   3.139
 7919SOL    HW224657   0.209   4.311   3.205
 7920SOL     OW24658   0.087   5.049   1.409
 7920SOL    HW124659   0.121   5.136   1.446
 7920SOL    HW224660   0.156   5.009   1.349
 7921SOL     OW24661   3.555   5.445   0.356
 7921SOL    HW124662   3.511   5.493   0.431
 7921SOL    HW224663   3.652   5.431   0.377
 7922SOL     OW24664   6.849   5.777   0.515
 7922SOL    HW124665   6.759   5.772   0.556
 7922SOL    HW224666   6.910   5.711   0.558
 7923SOL     OW24667   2.379   0.518   2.727
 7923SOL    HW124668   2.471   0.483   2.707
 7923SOL    HW224669   2.314   0.481   2.661
 7924SOL     OW24670   3.956   6.630   3.110
 7924SOL    HW124671   3.893   6.632   3.033
 7924SOL    HW224672   3.917   6.682   3.186
 7925SOL     OW24673   0.279   1.892   6.440
 7925SOL    HW124674   0.344   1.915   6.367
 7925SOL    HW224675   0.191   1.868   6.399
 7926SOL     OW24676   4.476   1.352   4.301
 7926SOL    HW124677   4.569   1.360   4.337
 7926SOL    HW224678   4.425   1.284   4.354
 7927SOL     OW24679   3.994   5.570   4.999
 7927SOL    HW124680   3.953   5.499   5.057
 7927SOL    HW224681   4.093   5.570   5.013
 7928SOL     OW24682   0.890   3.540   3.956
 7928SOL    HW124683   0.825   3.616   3.948
 7928SOL    HW224684   0.964   3.554   3.891
 7929SOL     OW24685   4.002   4.092   5.150
 7929SOL    HW124686   3.948   4.077   5.067
 7929SOL    HW224687   3.992   4.187   5.180
 7930SOL     OW24688   4.767   5.710   4.109
 7930SOL    HW124689   4.691   5.750   4.057
 7930SOL    HW224690   4.749   5.719   4.207
 7931SOL     OW24691   1.893   2.375   6.413
 7931SOL    HW124692   1.817   2.426   6.372
 7931SOL    HW224693   1.904   2.402   6.508
 7932SOL     OW24694   2.570   6.434   0.325
 7932SOL    HW124695   2.644   6.478   0.377
 7932SOL    HW224696   2.485   6.485   0.338
 7933SOL     OW24697   6.667   0.052   0.167
 7933SOL    HW124698   6.630   0.144   0.154
 7933SOL    HW224699   6.595   7.020   0.205
 7934SOL     OW24700   2.334   4.212   6.664
 7934SOL    HW124701   2.432   4.213   6.644
 7934SOL    HW224702   2.301   4.306   6.669
 7935SOL     OW24703   5.191   5.253   0.218
 7935SOL    HW124704   5.219   5.303   0.136
 7935SOL    HW224705   5.092   5.236   0.213
 7936SOL     OW24706   3.398   5.590   2.148
 7936SOL    HW124707   3.484   5.614   2.103
 7936SOL    HW224708   3.324   5.589   2.081
 7937SOL     OW24709   5.322   6.885   3.793
 7937SOL    HW124710   5.359   6.842   3.711
 7937SOL    HW224711   5.260   6.959   3.767
 7938SOL     OW24712   5.639   4.836   5.028
 7938SOL    HW124713   5.665   4.914   4.971
 7938SOL    HW224714   5.657   4.751   4.978
 7939SOL     OW24715   0.865   2.161   6.032
 7939SOL    HW124716   0.896   2.086   6.091
 7939SOL    HW224717   0.879   2.136   5.937
 7940SOL     OW24718   2.458   4.709   2.632
 7940SOL    HW124719   2.555   4.686   2.643
 7940SOL    HW224720   2.408   4.629   2.598
 7941SOL     OW24721   6.819   6.969   1.237
 7941SOL    HW124722   6.886   0.017   1.235
 7941SOL    HW224723   6.786   6.952   1.144
 7942SOL     OW24724   6.871   6.320   3.056
 7942SOL    HW124725   6.784   6.366   3.075
 7942SOL    HW224726   6.921   6.308   3.141
 7943SOL     OW24727   5.442   1.935   1.053
 7943SOL    HW124728   5.362   1.984   1.089
 7943SOL    HW224729   5.466   1.971   0.963
 7944SOL     OW24730   0.219   2.878   0.478
 7944SOL    HW124731   0.217   2.961   0.422
 7944SOL    HW224732   0.176   2.803   0.428
 7945SOL     OW24733   5.219   0.125   2.583
 7945SOL    HW124734   5.229   0.224   2.572
 7945SOL    HW224735   5.303   0.087   2.622
 7946SOL     OW24736   1.905   2.832   5.439
 7946SOL    HW124737   1.905   2.819   5.538
 7946SOL    HW224738   1.967   2.766   5.397
 7947SOL     OW24739   4.069   2.924   6.863
 7947SOL    HW124740   4.070   2.913   6.764
 7947SOL    HW224741   4.125   3.003   6.889
 7948SOL     OW24742   0.178   6.590   1.380
 7948SOL    HW124743   0.094   6.606   1.328
 7948SOL    HW224744   0.192   6.666   1.444
 7949SOL     OW24745   4.484   4.762   3.734
 7949SOL    HW124746   4.552   4.764   3.661
 7949SOL    HW224747   4.471   4.668   3.766
 7950SOL     OW24748   4.887   5.403   3.718
 7950SOL    HW124749   4.821   5.391   3.792
 7950SOL    HW224750   4.953   5.473   3.744
 7951SOL     OW24751   2.770   3.707   0.856
 7951SOL    HW124752   2.710   3.633   0.887
 7951SOL    HW224753   2.716   3.787   0.832
 7952SOL     OW24754   6.911   3.059   6.881
 7952SOL    HW124755   6.981   3.128   6.902
 7952SOL    HW224756   6.944   2.969   6.908
 7953SOL     OW24757   2.210   2.901   2.958
 7953SOL    HW124758   2.127   2.912   2.905
 7953SOL    HW224759   2.247   2.991   2.982
 7954SOL     OW24760   5.015   4.985   5.510
 7954SOL    HW124761   5.077   5.047   5.559
 7954SOL    HW224762   5.015   4.896   5.555
 7955SOL     OW24763   0.977   6.560   6.083
 7955SOL    HW124764   0.882   6.557   6.113
 7955SOL    HW224765   0.991   6.492   6.011
 7956SOL     OW24766   1.235   5.879   3.095
 7956SOL    HW124767   1.154   5.845   3.047
 7956SOL    HW224768   1.256   5.820   3.173
 7957SOL     OW24769   2.165   1.632   0.834
 7957SOL    HW124770   2.228   1.556   0.817
 7957SOL    HW224771   2.215   1.706   0.879
 7958SOL     OW24772   3.465   5.609   4.232
 7958SOL    HW124773   3.379   5.559   4.224
 7958SOL    HW224774   3.477   5.640   4.326
 7959SOL     OW24775   4.037   5.443   0.715
 7959SOL    HW124776   3.940   5.423   0.699
 7959SOL    HW224777   4.053   5.541   0.702
 7960SOL     OW24778   3.617   1.659   0.568
 7960SOL    HW124779   3.691   1.593   0.557
 7960SOL    HW224780   3.633   1.738   0.509
 7961SOL     OW24781   1.695   6.025   6.689
 7961SOL    HW124782   1.682   5.931   6.719
 7961SOL    HW224783   1.614   6.055   6.638
 7962SOL     OW24784   2.012   0.465   7.021
 7962SOL    HW124785   2.050   0.531   0.060
 7962SOL    HW224786   2.058   0.377   0.004
 7963SOL     OW24787   6.274   1.110   4.355
 7963SOL    HW124788   6.257   1.088   4.451
 7963SOL    HW224789   6.201   1.073   4.298
 7964SOL     OW24790   6.190   5.030   3.398
 7964SOL    HW124791   6.230   5.107   3.448
 7964SOL    HW224792   6.217   4.944   3.441
 7965SOL     OW24793   3.676   2.634   6.573
 7965SOL    HW124794   3.762   2.658   6.528
 7965SOL    HW224795   3.604   2.696   6.544
 7966SOL     OW24796   0.803   3.572   4.871
 7966SOL    HW124797   0.801   3.607   4.965
 7966SOL    HW224798   0.802   3.649   4.807
 7967SOL     OW24799   3.065   6.418   4.152
 7967SOL    HW124800   3.096   6.511   4.134
 7967SOL    HW224801   2.966   6.415   4.151
 7968SOL     OW24802   2.255   3.014   3.330
 7968SOL    HW124803   2.302   3.088   3.281
 7968SOL    HW224804   2.175   2.986   3.278
 7969SOL     OW24805   4.660   0.350   2.220
 7969SOL    HW124806   4.628   0.422   2.159
 7969SOL    HW224807   4.697   0.391   2.304
 7970SOL     OW24808   0.123   3.921   2.913
 7970SOL    HW124809   0.046   3.871   2.952
 7970SOL    HW224810   0.203   3.861   2.910
 7971SOL     OW24811   3.221   1.665   1.325
 7971SOL    HW124812   3.181   1.707   1.406
 7971SOL    HW224813   3.270   1.733   1.271
 7972SOL     OW24814   0.355   4.400   1.092
 7972SOL    HW124815   0.317   4.456   1.018
 7972SOL    HW224816   0.429   4.344   1.057
 7973SOL     OW24817   4.872   3.442   2.928
 7973SOL    HW124818   4.883   3.398   2.839
 7973SOL    HW224819   4.849   3.538   2.916
 7974SOL     OW24820   5.585   0.368   4.901
 7974SOL    HW124821   5.672   0.337   4.940
 7974SOL    HW224822   5.514   0.300   4.918
 7975SOL     OW24823   5.661   0.067   3.882
 7975SOL    HW124824   5.745   0.109   3.850
 7975SOL    HW224825   5.584   0.101   3.828
 7976SOL     OW24826   0.666   0.299   5.878
 7976SOL    HW124827   0.701   0.231   5.813
 7976SOL    HW224828   0.737   0.367   5.896
 7977SOL     OW24829   4.422   5.697   2.482
 7977SOL    HW124830   4.329   5.698   2.446
 7977SOL    HW224831   4.423   5.740   2.572
 7978SOL     OW24832   5.849   3.870   6.091
 7978SOL    HW124833   5.813   3.942   6.033
 7978SOL    HW224834   5.944   3.851   6.065
 7979SOL     OW24835   2.779   0.353   5.500
 7979SOL    HW124836   2.783   0.260   5.465
 7979SOL    HW224837   2.739   0.413   5.430
 7980SOL     OW24838   3.527   5.969   0.010
 7980SOL    HW124839   3.521   5.955   0.109
 7980SOL    HW224840   3.475   5.899   6.989
 7981SOL     OW24841   1.075   5.717   1.904
 7981SOL    HW124842   1.104   5.812   1.917
 7981SOL    HW224843   0.998   5.714   1.841
 7982SOL     OW24844   6.633   1.715   0.941
 7982SOL    HW124845   6.662   1.805   0.907
 7982SOL    HW224846   6.629   1.650   0.865
 7983SOL     OW24847   5.328   1.914   2.952
 7983SOL    HW124848   5.380   1.842   2.999
 7983SOL    HW224849   5.386   1.994   2.939
 7984SOL     OW24850   1.480   1.700   1.564
 7984SOL    HW124851   1.539   1.736   1.637
 7984SOL    HW224852   1.525   1.715   1.475
 7985SOL     OW24853   1.982   6.874   3.317
 7985SOL    HW124854   1.981   6.774   3.310
 7985SOL    HW224855   2.042   6.912   3.247
 7986SOL     OW24856   3.413   0.967   6.858
 7986SOL    HW124857   3.335   1.007   6.908
 7986SOL    HW224858   3.430   0.874   6.892
 7987SOL     OW24859   0.117   3.937   6.353
 7987SOL    HW124860   0.112   3.908   6.257
 7987SOL    HW224861   0.111   3.857   6.413
 7988SOL     OW24862   2.029   2.372   4.520
 7988SOL    HW124863   1.983   2.290   4.484
 7988SOL    HW224864   2.007   2.450   4.463
 7989SOL     OW24865   3.364   2.305   5.389
 7989SOL    HW124866   3.309   2.288   5.471
 7989SOL    HW224867   3.304   2.331   5.313
 7990SOL     OW24868   6.915   3.982   3.455
 7990SOL    HW124869   6.828   3.943   3.484
 7990SOL    HW224870   6.965   3.915   3.400
 7991SOL     OW24871   6.586   1.879   5.542
 7991SOL    HW124872   6.541   1.791   5.525
 7991SOL    HW224873   6.607   1.923   5.455
 7992SOL     OW24874   1.683   6.352   0.885
 7992SOL    HW124875   1.756   6.386   0.944
 7992SOL    HW224876   1.714   6.353   0.790
 7993SOL     OW24877   1.665   5.832   6.340
 7993SOL    HW124878   1.596   5.774   6.296
 7993SOL    HW224879   1.691   5.792   6.428
 7994SOL     OW24880   4.584   0.284   3.595
 7994SOL    HW124881   4.607   0.332   3.679
 7994SOL    HW224882   4.588   0.185   3.610
 7995SOL     OW24883   3.969   5.580   3.272
 7995SOL    HW124884   3.998   5.545   3.361
 7995SOL    HW224885   4.016   5.530   3.200
 7996SOL     OW24886   2.570   6.417   4.287
 7996SOL    HW124887   2.477   6.455   4.285
 7996SOL    HW224888   2.579   6.354   4.364
 7997SOL     OW24889   0.134   1.263   1.192
 7997SOL    HW124890   0.188   1.335   1.236
 7997SOL    HW224891   0.042   1.296   1.174
 7998SOL     OW24892   4.079   5.723   0.686
 7998SOL    HW124893   3.986   5.759   0.696
 7998SOL    HW224894   4.137   5.760   0.758
 7999SOL     OW24895   0.862   0.516   5.948
 7999SOL    HW124896   0.906   0.604   5.933
 7999SOL    HW224897   0.849   0.501   6.046
 8000SOL     OW24898   5.961   0.525   6.560
 8000SOL    HW124899   6.001   0.506   6.650
 8000SOL    HW224900   6.026   0.577   6.505
 8001SOL     OW24901   3.246   6.022   1.403
 8001SOL    HW124902   3.286   6.095   1.348
 8001SOL    HW224903   3.311   5.947   1.411
 8002SOL     OW24904   0.061   3.087   6.187
 8002SOL    HW124905   0.054   3.184   6.212
 8002SOL    HW224906   7.002   3.041   6.210
 8003SOL     OW24907   2.221   4.252   2.489
 8003SOL    HW124908   2.128   4.258   2.526
 8003SOL    HW224909   2.267   4.172   2.527
 8004SOL     OW24910   1.625   4.656   2.866
 8004SOL    HW124911   1.673   4.577   2.903
 8004SOL    HW224912   1.529   4.653   2.892
 8005SOL     OW24913   3.169   1.586   2.400
 8005SOL    HW124914   3.185   1.677   2.440
 8005SOL    HW224915   3.237   1.570   2.328
 8006SOL     OW24916   2.503   6.275   0.601
 8006SOL    HW124917   2.421   6.220   0.589
 8006SOL    HW224918   2.584   6.217   0.590
 8007SOL     OW24919   1.043   6.700   3.997
 8007SOL    HW124920   1.130   6.650   3.995
 8007SOL    HW224921   1.061   6.798   4.006
 8008SOL     OW24922   4.883   6.739   5.880
 8008SOL    HW124923   4.842   6.827   5.903
 8008SOL    HW224924   4.943   6.710   5.954
 8009SOL     OW24925   6.393   0.324   3.447
 8009SOL    HW124926   6.493   0.324   3.445
 8009SOL    HW224927   6.357   0.317   3.354
 8010SOL     OW24928   1.696   1.314   6.782
 8010SOL    HW124929   1.732   1.265   6.703
 8010SOL    HW224930   1.718   1.411   6.775
 8011SOL     OW24931   2.427   2.590   1.313
 8011SOL    HW124932   2.458   2.675   1.270
 8011SOL    HW224933   2.330   2.597   1.335
 8012SOL     OW24934   1.900   5.620   1.441
 8012SOL    HW124935   1.874   5.691   1.376
 8012SOL    HW224936   1.874   5.648   1.533
 8013SOL     OW24937   0.860   5.274   4.878
 8013SOL    HW124938   0.799   5.273   4.957
 8013SOL    HW224939   0.876   5.180   4.847
 8014SOL     OW24940   0.978   6.045   5.522
 8014SOL    HW124941   1.073   6.077   5.520
 8014SOL    HW224942   0.931   6.076   5.440
 8015SOL     OW24943   2.991   1.361   0.432
 8015SOL    HW124944   3.076   1.346   0.481
 8015SOL    HW224945   2.948   1.445   0.465
 8016SOL     OW24946   4.295   0.354   6.378
 8016SOL    HW124947   4.312   0.330   6.282
 8016SOL    HW224948   4.376   0.333   6.432
 8017SOL     OW24949   6.496   5.004   6.180
 8017SOL    HW124950   6.439   5.085   6.164
 8017SOL    HW224951   6.588   5.032   6.207
 8018SOL     OW24952   4.118   2.380   6.081
 8018SOL    HW124953   4.116   2.480   6.077
 8018SOL    HW224954   4.146   2.344   5.992
 8019SOL     OW24955   1.812   3.737   0.156
 8019SOL    HW124956   1.849   3.753   0.065
 8019SOL    HW224957   1.712   3.733   0.152
 8020SOL     OW24958   6.324   5.975   0.589
 8020SOL    HW124959   6.334   6.065   0.546
 8020SOL    HW224960   6.397   5.915   0.558
 8021SOL     OW24961   1.394   1.994   2.185
 8021SOL    HW124962   1.429   2.080   2.220
 8021SOL    HW224963   1.433   1.918   2.238
 8022SOL     OW24964   4.295   0.642   2.962
 8022SOL    HW124965   4.340   0.570   3.015
 8022SOL    HW224966   4.197   0.641   2.979
 8023SOL     OW24967   5.863   5.542   3.388
 8023SOL    HW124968   5.764   5.546   3.401
 8023SOL    HW224969   5.902   5.473   3.449
 8024SOL     OW24970   2.661   4.712   0.087
 8024SOL    HW124971   2.674   4.753   7.023
 8024SOL    HW224972   2.664   4.613   0.079
 8025SOL     OW24973   3.287   6.189   6.049
 8025SOL    HW124974   3.386   6.200   6.059
 8025SOL    HW224975   3.246   6.276   6.022
 8026SOL     OW24976   0.374   4.102   6.705
 8026SOL    HW124977   0.451   4.063   6.654
 8026SOL    HW224978   0.390   4.090   6.803
 8027SOL     OW24979   4.411   2.156   5.814
 8027SOL    HW124980   4.453   2.145   5.904
 8027SOL    HW224981   4.349   2.235   5.815
 8028SOL     OW24982   4.195   4.810   5.990
 8028SOL    HW124983   4.292   4.826   5.973
 8028SOL    HW224984   4.179   4.713   6.006
 8029SOL     OW24985   5.780   3.599   6.703
 8029SOL    HW124986   5.838   3.522   6.729
 8029SOL    HW224987   5.691   3.565   6.671
 8030SOL     OW24988   5.567   3.923   6.265
 8030SOL    HW124989   5.647   3.892   6.213
 8030SOL    HW224990   5.514   3.987   6.209
 8031SOL     OW24991   4.711   5.789   2.844
 8031SOL    HW124992   4.643   5.719   2.823
 8031SOL    HW224993   4.718   5.801   2.943
 8032SOL     OW24994   5.787   4.556   5.201
 8032SOL    HW124995   5.852   4.522   5.268
 8032SOL    HW224996   5.697   4.515   5.217
 8033SOL     OW24997   4.956   3.253   0.274
 8033SOL    HW124998   4.922   3.206   0.192
 8033SOL    HW224999   4.888   3.320   0.304
 8034SOL     OW25000   5.967   1.202   5.332
 8034SOL    HW125001   5.918   1.201   5.419
 8034SOL    HW225002   5.992   1.108   5.307
 8035SOL     OW25003   4.755   6.848   5.275
 8035SOL    HW125004   4.830   6.805   5.325
 8035SOL    HW225005   4.793   6.913   5.209
 8036SOL     OW25006   0.769   3.634   1.978
 8036SOL    HW125007   0.864   3.615   1.954
 8036SOL    HW225008   0.758   3.630   2.077
 8037SOL     OW25009   1.606   3.625   1.611
 8037SOL    HW125010   1.618   3.654   1.516
 8037SOL    HW225011   1.657   3.541   1.627
 8038SOL     OW25012   4.967   1.471   2.520
 8038SOL    HW125013   4.903   1.400   2.546
 8038SOL    HW225014   4.994   1.458   2.424
 8039SOL     OW25015   1.068   6.683   3.542
 8039SOL    HW125016   1.145   6.626   3.512
 8039SOL    HW225017   1.007   6.700   3.464
 8040SOL     OW25018   1.327   5.973   1.283
 8040SOL    HW125019   1.250   6.021   1.324
 8040SOL    HW225020   1.410   5.992   1.335
 8041SOL     OW25021   3.125   1.953   2.181
 8041SOL    HW125022   3.187   2.022   2.219
 8041SOL    HW225023   3.089   1.985   2.093
 8042SOL     OW25024   3.689   2.962   2.788
 8042SOL    HW125025   3.590   2.949   2.779
 8042SOL    HW225026   3.735   2.926   2.706
 8043SOL     OW25027   3.834   6.323   0.711
 8043SOL    HW125028   3.872   6.414   0.696
 8043SOL    HW225029   3.736   6.330   0.729
 8044SOL     OW25030   3.040   3.739   1.088
 8044SOL    HW125031   2.959   3.683   1.104
 8044SOL    HW225032   3.118   3.701   1.137
 8045SOL     OW25033   5.406   0.886   2.247
 8045SOL    HW125034   5.329   0.937   2.209
 8045SOL    HW225035   5.396   0.789   2.224
 8046SOL     OW25036   5.877   4.763   6.426
 8046SOL    HW125037   5.852   4.704   6.349
 8046SOL    HW225038   5.976   4.780   6.425
 8047SOL     OW25039   3.730   4.982   4.975
 8047SOL    HW125040   3.815   4.963   4.926
 8047SOL    HW225041   3.724   4.925   5.057
 8048SOL     OW25042   5.184   1.179   5.610
 8048SOL    HW125043   5.252   1.249   5.629
 8048SOL    HW225044   5.098   1.222   5.580
 8049SOL     OW25045   1.153   0.057   1.727
 8049SOL    HW125046   1.055   0.050   1.709
 8049SOL    HW225047   1.171   0.034   1.823
 8050SOL     OW25048   0.588   4.031   1.598
 8050SOL    HW125049   0.562   3.991   1.686
 8050SOL    HW225050   0.667   4.090   1.611
 8051SOL     OW25051   4.952   6.711   3.051
 8051SOL    HW125052   5.044   6.730   3.087
 8051SOL    HW225053   4.926   6.785   2.989
 8052SOL     OW25054   3.349   1.687   1.861
 8052SOL    HW125055   3.367   1.767   1.918
 8052SOL    HW225056   3.434   1.636   1.846
 8053SOL     OW25057   3.370   3.544   2.599
 8053SOL    HW125058   3.402   3.572   2.508
 8053SOL    HW225059   3.339   3.625   2.649
 8054SOL     OW25060   5.272   6.307   3.867
 8054SOL    HW125061   5.317   6.397   3.865
 8054SOL    HW225062   5.202   6.303   3.795
 8055SOL     OW25063   0.773   0.471   6.209
 8055SOL    HW125064   0.789   0.375   6.230
 8055SOL    HW225065   0.681   0.483   6.173
 8056SOL     OW25066   4.126   1.001   3.663
 8056SOL    HW125067   4.137   1.082   3.720
 8056SOL    HW225068   4.072   1.024   3.583
 8057SOL     OW25069   2.193   1.335   2.132
 8057SOL    HW125070   2.292   1.331   2.144
 8057SOL    HW225071   2.158   1.244   2.110
 8058SOL     OW25072   3.298   0.205   3.074
 8058SOL    HW125073   3.391   0.238   3.062
 8058SOL    HW225074   3.250   0.265   3.138
 8059SOL     OW25075   4.189   2.189   5.012
 8059SOL    HW125076   4.110   2.143   5.053
 8059SOL    HW225077   4.198   2.280   5.051
 8060SOL     OW25078   0.316   1.387   4.438
 8060SOL    HW125079   0.337   1.375   4.535
 8060SOL    HW225080   0.336   1.481   4.410
 8061SOL     OW25081   6.709   6.663   2.213
 8061SOL    HW125082   6.667   6.695   2.128
 8061SOL    HW225083   6.676   6.571   2.234
 8062SOL     OW25084   2.103   4.262   3.819
 8062SOL    HW125085   2.098   4.356   3.853
 8062SOL    HW225086   2.131   4.201   3.892
 8063SOL     OW25087   1.662   3.730   0.646
 8063SOL    HW125088   1.666   3.707   0.549
 8063SOL    HW225089   1.723   3.669   0.697
 8064SOL     OW25090   0.277   4.572   0.884
 8064SOL    HW125091   0.248   4.558   0.789
 8064SOL    HW225092   0.253   4.664   0.913
 8065SOL     OW25093   4.422   6.415   3.591
 8065SOL    HW125094   4.338   6.370   3.623
 8065SOL    HW225095   4.408   6.514   3.593
 8066SOL     OW25096   1.562   1.700   6.683
 8066SOL    HW125097   1.491   1.632   6.666
 8066SOL    HW225098   1.638   1.657   6.732
 8067SOL     OW25099   4.773   3.149   1.398
 8067SOL    HW125100   4.727   3.135   1.486
 8067SOL    HW225101   4.813   3.240   1.395
 8068SOL     OW25102   6.974   5.256   6.357
 8068SOL    HW125103   7.008   5.334   6.305
 8068SOL    HW225104   6.946   5.286   6.448
 8069SOL     OW25105   2.341   5.498   1.600
 8069SOL    HW125106   2.259   5.521   1.653
 8069SOL    HW225107   2.422   5.526   1.652
 8070SOL     OW25108   2.874   4.446   0.690
 8070SOL    HW125109   2.933   4.415   0.615
 8070SOL    HW225110   2.804   4.377   0.708
 8071SOL     OW25111   3.124   6.375   4.802
 8071SOL    HW125112   3.192   6.302   4.793
 8071SOL    HW225113   3.042   6.349   4.752
 8072SOL     OW25114   3.199   1.151   0.722
 8072SOL    HW125115   3.161   1.069   0.678
 8072SOL    HW225116   3.299   1.144   0.723
 8073SOL     OW25117   5.010   0.015   6.840
 8073SOL    HW125118   5.030   6.973   6.910
 8073SOL    HW225119   4.978   6.997   6.757
 8074SOL     OW25120   3.551   2.582   6.827
 8074SOL    HW125121   3.477   2.532   6.782
 8074SOL    HW225122   3.621   2.605   6.759
 8075SOL     OW25123   6.651   1.380   1.799
 8075SOL    HW125124   6.663   1.281   1.799
 8075SOL    HW225125   6.622   1.409   1.890
 8076SOL     OW25126   4.363   2.972   5.317
 8076SOL    HW125127   4.278   2.933   5.352
 8076SOL    HW225128   4.363   3.071   5.331
 8077SOL     OW25129   1.185   6.766   1.881
 8077SOL    HW125130   1.254   6.785   1.951
 8077SOL    HW225131   1.093   6.779   1.920
 8078SOL     OW25132   6.004   1.500   0.794
 8078SOL    HW125133   6.101   1.525   0.787
 8078SOL    HW225134   5.966   1.484   0.703
 8079SOL     OW25135   5.278   1.774   3.316
 8079SOL    HW125136   5.265   1.774   3.216
 8079SOL    HW225137   5.198   1.734   3.360
 8080SOL     OW25138   1.214   3.870   0.609
 8080SOL    HW125139   1.238   3.778   0.577
 8080SOL    HW225140   1.138   3.864   0.673
 8081SOL     OW25141   5.577   0.614   5.331
 8081SOL    HW125142   5.659   0.650   5.378
 8081SOL    HW225143   5.585   0.631   5.233
 8082SOL     OW25144   5.960   1.664   2.295
 8082SOL    HW125145   5.870   1.706   2.282
 8082SOL    HW225146   5.989   1.678   2.390
 8083SOL     OW25147   5.141   3.106   2.280
 8083SOL    HW125148   5.047   3.137   2.266
 8083SOL    HW225149   5.142   3.010   2.306
 8084SOL     OW25150   6.015   6.667   1.199
 8084SOL    HW125151   5.946   6.617   1.146
 8084SOL    HW225152   5.999   6.653   1.297
 8085SOL     OW25153   5.564   0.598   2.486
 8085SOL    HW125154   5.586   0.602   2.583
 8085SOL    HW225155   5.613   0.522   2.443
 8086SOL     OW25156   4.015   0.256   4.278
 8086SOL    HW125157   4.063   0.338   4.247
 8086SOL    HW225158   3.937   0.282   4.334
 8087SOL     OW25159   2.068   1.441   1.018
 8087SOL    HW125160   2.064   1.350   0.977
 8087SOL    HW225161   2.099   1.507   0.950
 8088SOL     OW25162   6.186   1.618   1.992
 8088SOL    HW125163   6.276   1.647   1.959
 8088SOL    HW225164   6.142   1.693   2.041
 8089SOL     OW25165   5.594   1.928   0.489
 8089SOL    HW125166   5.578   1.844   0.438
 8089SOL    HW225167   5.685   1.964   0.466
 8090SOL     OW25168   4.538   1.862   6.193
 8090SOL    HW125169   4.448   1.902   6.207
 8090SOL    HW225170   4.592   1.871   6.277
 8091SOL     OW25171   3.237   3.747   6.737
 8091SOL    HW125172   3.188   3.759   6.651
 8091SOL    HW225173   3.296   3.666   6.731
 8092SOL     OW25174   1.475   1.836   5.148
 8092SOL    HW125175   1.441   1.781   5.072
 8092SOL    HW225176   1.502   1.926   5.115
 8093SOL     OW25177   5.773   5.498   1.710
 8093SOL    HW125178   5.749   5.594   1.718
 8093SOL    HW225179   5.800   5.463   1.800
 8094SOL     OW25180   2.459   4.475   4.976
 8094SOL    HW125181   2.450   4.536   4.896
 8094SOL    HW225182   2.532   4.409   4.958
 8095SOL     OW25183   6.356   3.591   3.773
 8095SOL    HW125184   6.399   3.501   3.765
 8095SOL    HW225185   6.290   3.604   3.699
 8096SOL     OW25186   3.132   5.682   3.748
 8096SOL    HW125187   3.142   5.612   3.677
 8096SOL    HW225188   3.179   5.652   3.831
 8097SOL     OW25189   5.301   0.902   4.174
 8097SOL    HW125190   5.244   0.851   4.238
 8097SOL    HW225191   5.396   0.874   4.184
 8098SOL     OW25192   2.378   6.750   4.586
 8098SOL    HW125193   2.283   6.782   4.577
 8098SOL    HW225194   2.431   6.781   4.507
 8099SOL     OW25195   6.473   0.858   4.516
 8099SOL    HW125196   6.390   0.899   4.478
 8099SOL    HW225197   6.490   0.770   4.473
 8100SOL     OW25198   0.111   6.754   0.428
 8100SOL    HW125199   0.128   6.849   0.403
 8100SOL    HW225200   0.071   6.705   0.350
 8101SOL     OW25201   2.193   0.339   4.721
 8101SOL    HW125202   2.182   0.244   4.692
 8101SOL    HW225203   2.239   0.391   4.649
 8102SOL     OW25204   1.574   5.391   6.123
 8102SOL    HW125205   1.536   5.373   6.032
 8102SOL    HW225206   1.509   5.359   6.193
 8103SOL     OW25207   3.864   1.459   1.277
 8103SOL    HW125208   3.896   1.467   1.372
 8103SOL    HW225209   3.874   1.547   1.231
 8104SOL     OW25210   3.116   6.850   6.244
 8104SOL    HW125211   3.142   6.787   6.317
 8104SOL    HW225212   3.188   6.919   6.233
 8105SOL     OW25213   2.438   2.200   3.628
 8105SOL    HW125214   2.435   2.140   3.707
 8105SOL    HW225215   2.466   2.292   3.656
 8106SOL     OW25216   2.142   5.763   3.389
 8106SOL    HW125217   2.152   5.811   3.302
 8106SOL    HW225218   2.202   5.804   3.457
 8107SOL     OW25219   1.647   6.321   5.930
 8107SOL    HW125220   1.552   6.289   5.936
 8107SOL    HW225221   1.700   6.259   5.872
 8108SOL     OW25222   6.162   2.691   4.858
 8108SOL    HW125223   6.247   2.720   4.815
 8108SOL    HW225224   6.117   2.623   4.801
 8109SOL     OW25225   1.949   4.123   4.582
 8109SOL    HW125226   1.910   4.167   4.502
 8109SOL    HW225227   2.044   4.098   4.564
 8110SOL     OW25228   3.736   6.348   0.319
 8110SOL    HW125229   3.660   6.405   0.287
 8110SOL    HW225230   3.818   6.404   0.329
 8111SOL     OW25231   3.460   0.255   5.985
 8111SOL    HW125232   3.435   0.181   6.048
 8111SOL    HW225233   3.503   0.329   6.036
 8112SOL     OW25234   2.135   1.334   5.843
 8112SOL    HW125235   2.147   1.347   5.744
 8112SOL    HW225236   2.080   1.410   5.879
 8113SOL     OW25237   2.619   2.836   0.097
 8113SOL    HW125238   2.642   2.741   0.119
 8113SOL    HW225239   2.519   2.848   0.102
 8114SOL     OW25240   2.299   2.844   2.375
 8114SOL    HW125241   2.398   2.844   2.390
 8114SOL    HW225242   2.252   2.873   2.458
 8115SOL     OW25243   3.404   1.207   1.356
 8115SOL    HW125244   3.473   1.167   1.417
 8115SOL    HW225245   3.393   1.304   1.376
 8116SOL     OW25246   4.928   6.821   4.894
 8116SOL    HW125247   4.982   6.784   4.818
 8116SOL    HW225248   4.901   6.746   4.955
 8117SOL     OW25249   1.921   1.716   3.608
 8117SOL    HW125250   1.856   1.776   3.561
 8117SOL    HW225251   1.932   1.631   3.556
 8118SOL     OW25252   0.144   3.795   5.668
 8118SOL    HW125253   0.082   3.771   5.594
 8118SOL    HW225254   0.114   3.879   5.712
 8119SOL     OW25255   0.048   6.096   4.951
 8119SOL    HW125256   0.050   6.013   4.896
 8119SOL    HW225257   0.138   6.112   4.991
 8120SOL     OW25258   3.943   4.061   6.771
 8120SOL    HW125259   4.003   4.117   6.829
 8120SOL    HW225260   3.873   4.120   6.731
 8121SOL     OW25261   6.904   5.832   3.441
 8121SOL    HW125262   6.908   5.895   3.363
 8121SOL    HW225263   6.840   5.758   3.421
 8122SOL     OW25264   0.289   4.914   2.585
 8122SOL    HW125265   0.355   4.989   2.592
 8122SOL    HW225266   0.312   4.857   2.506
 8123SOL     OW25267   0.444   0.372   6.742
 8123SOL    HW125268   0.361   0.428   6.752
 8123SOL    HW225269   0.419   0.276   6.729
 8124SOL     OW25270   0.786   6.783   1.649
 8124SOL    HW125271   0.701   6.732   1.662
 8124SOL    HW225272   0.814   6.777   1.553
 8125SOL     OW25273   6.046   5.073   3.015
 8125SOL    HW125274   6.040   4.973   3.021
 8125SOL    HW225275   6.134   5.099   2.975
 8126SOL     OW25276   6.303   4.425   2.102
 8126SOL    HW125277   6.237   4.417   2.027
 8126SOL    HW225278   6.336   4.335   2.127
 8127SOL     OW25279   2.345   5.750   0.917
 8127SOL    HW125280   2.373   5.707   1.003
 8127SOL    HW225281   2.249   5.728   0.898
 8128SOL     OW25282   3.079   2.535   6.756
 8128SOL    HW125283   3.035   2.499   6.839
 8128SOL    HW225284   3.171   2.566   6.779
 8129SOL     OW25285   4.919   1.052   6.525
 8129SOL    HW125286   4.829   1.021   6.494
 8129SOL    HW225287   4.909   1.140   6.572
 8130SOL     OW25288   1.011   5.614   6.060
 8130SOL    HW125289   0.971   5.571   5.980
 8130SOL    HW225290   0.978   5.708   6.067
 8131SOL     OW25291   2.708   0.843   0.644
 8131SOL    HW125292   2.633   0.776   0.641
 8131SOL    HW225293   2.725   0.870   0.739
 8132SOL     OW25294   5.349   6.100   5.845
 8132SOL    HW125295   5.332   6.146   5.758
 8132SOL    HW225296   5.383   6.167   5.911
 8133SOL     OW25297   3.313   5.013   2.409
 8133SOL    HW125298   3.304   5.112   2.402
 8133SOL    HW225299   3.404   4.986   2.377
 8134SOL     OW25300   1.986   1.331   4.203
 8134SOL    HW125301   2.006   1.352   4.299
 8134SOL    HW225302   1.924   1.400   4.165
 8135SOL     OW25303   2.676   4.747   2.443
 8135SOL    HW125304   2.687   4.686   2.364
 8135SOL    HW225305   2.591   4.799   2.433
 8136SOL     OW25306   4.684   5.130   2.750
 8136SOL    HW125307   4.610   5.067   2.726
 8136SOL    HW225308   4.653   5.224   2.737
 8137SOL     OW25309   2.200   2.470   4.231
 8137SOL    HW125310   2.250   2.437   4.151
 8137SOL    HW225311   2.129   2.534   4.202
 8138SOL     OW25312   5.692   1.761   2.259
 8138SOL    HW125313   5.643   1.676   2.280
 8138SOL    HW225314   5.630   1.838   2.267
 8139SOL     OW25315   1.334   2.769   3.576
 8139SOL    HW125316   1.431   2.777   3.551
 8139SOL    HW225317   1.308   2.673   3.581
 8140SOL     OW25318   3.772   0.492   0.322
 8140SOL    HW125319   3.855   0.486   0.377
 8140SOL    HW225320   3.695   0.451   0.371
 8141SOL     OW25321   5.347   0.263   5.222
 8141SOL    HW125322   5.267   0.263   5.282
 8141SOL    HW225323   5.321   0.230   5.131
 8142SOL     OW25324   1.966   4.928   0.947
 8142SOL    HW125325   1.888   4.868   0.965
 8142SOL    HW225326   2.037   4.910   1.015
 8143SOL     OW25327   5.164   5.033   1.448
 8143SOL    HW125328   5.193   4.937   1.459
 8143SOL    HW225329   5.088   5.038   1.383
 8144SOL     OW25330   0.505   5.774   5.576
 8144SOL    HW125331   0.600   5.789   5.601
 8144SOL    HW225332   0.497   5.689   5.524
 8145SOL     OW25333   4.693   4.879   0.365
 8145SOL    HW125334   4.649   4.960   0.403
 8145SOL    HW225335   4.774   4.906   0.313
 8146SOL     OW25336   6.257   0.344   5.361
 8146SOL    HW125337   6.237   0.407   5.436
 8146SOL    HW225338   6.268   0.396   5.277
 8147SOL     OW25339   0.373   0.695   0.732
 8147SOL    HW125340   0.331   0.615   0.689
 8147SOL    HW225341   0.448   0.728   0.674
 8148SOL     OW25342   3.930   4.333   6.368
 8148SOL    HW125343   4.019   4.362   6.332
 8148SOL    HW225344   3.877   4.413   6.396
 8149SOL     OW25345   1.525   6.419   4.716
 8149SOL    HW125346   1.432   6.387   4.695
 8149SOL    HW225347   1.584   6.341   4.733
 8150SOL     OW25348   0.344   3.484   0.998
 8150SOL    HW125349   0.397   3.490   1.082
 8150SOL    HW225350   0.370   3.401   0.948
 8151SOL     OW25351   6.291   5.699   3.917
 8151SOL    HW125352   6.325   5.773   3.860
 8151SOL    HW225353   6.199   5.723   3.951
 8152SOL     OW25354   4.591   2.220   2.932
 8152SOL    HW125355   4.527   2.198   3.006
 8152SOL    HW225356   4.621   2.135   2.888
 8153SOL     OW25357   0.684   0.865   3.451
 8153SOL    HW125358   0.761   0.874   3.388
 8153SOL    HW225359   0.610   0.925   3.421
 8154SOL     OW25360   3.004   1.226   3.159
 8154SOL    HW125361   3.058   1.169   3.097
 8154SOL    HW225362   2.907   1.209   3.145
 8155SOL     OW25363   1.019   4.350   2.196
 8155SOL    HW125364   0.953   4.420   2.222
 8155SOL    HW225365   1.062   4.375   2.109
 8156SOL     OW25366   5.281   5.880   1.374
 8156SOL    HW125367   5.257   5.784   1.357
 8156SOL    HW225368   5.227   5.915   1.451
 8157SOL     OW25369   6.016   3.962   5.758
 8157SOL    HW125370   5.973   3.881   5.716
 8157SOL    HW225371   6.114   3.947   5.767
 8158SOL     OW25372   5.265   5.500   6.364
 8158SOL    HW125373   5.343   5.507   6.302
 8158SOL    HW225374   5.185   5.468   6.313
 8159SOL     OW25375   3.708   6.019   5.545
 8159SOL    HW125376   3.742   6.108   5.514
 8159SOL    HW225377   3.741   5.947   5.485
 8160SOL     OW25378   4.698   0.312   3.852
 8160SOL    HW125379   4.770   0.269   3.906
 8160SOL    HW225380   4.623   0.340   3.911
 8161SOL     OW25381   5.957   3.656   6.500
 8161SOL    HW125382   5.934   3.629   6.406
 8161SOL    HW225383   5.882   3.630   6.561
 8162SOL     OW25384   0.425   5.517   0.120
 8162SOL    HW125385   0.396   5.453   0.192
 8162SOL    HW225386   0.361   5.511   0.043
 8163SOL     OW25387   3.669   4.927   5.589
 8163SOL    HW125388   3.757   4.974   5.589
 8163SOL    HW225389   3.679   4.837   5.547
 8164SOL     OW25390   4.590   1.296   0.333
 8164SOL    HW125391   4.535   1.286   0.416
 8164SOL    HW225392   4.636   1.209   0.314
 8165SOL     OW25393   6.782   4.229   6.652
 8165SOL    HW125394   6.805   4.165   6.726
 8165SOL    HW225395   6.745   4.313   6.692
 8166SOL     OW25396   2.149   1.900   3.418
 8166SOL    HW125397   2.051   1.922   3.421
 8166SOL    HW225398   2.197   1.971   3.366
 8167SOL     OW25399   6.604   0.592   3.693
 8167SOL    HW125400   6.667   0.664   3.721
 8167SOL    HW225401   6.583   0.601   3.596
 8168SOL     OW25402   2.834   0.079   1.582
 8168SOL    HW125403   2.735   0.078   1.567
 8168SOL    HW225404   2.872   7.015   1.564
 8169SOL     OW25405   3.961   2.041   0.681
 8169SOL    HW125406   3.868   2.065   0.656
 8169SOL    HW225407   3.987   1.955   0.637
 8170SOL     OW25408   6.555   4.836   1.458
 8170SOL    HW125409   6.566   4.751   1.406
 8170SOL    HW225410   6.602   4.911   1.411
 8171SOL     OW25411   1.395   1.158   6.480
 8171SOL    HW125412   1.444   1.072   6.498
 8171SOL    HW225413   1.355   1.192   6.565
 8172SOL     OW25414   0.263   2.337   2.022
 8172SOL    HW125415   0.338   2.370   2.080
 8172SOL    HW225416   0.176   2.370   2.059
 8173SOL     OW25417   5.779   2.255   2.809
 8173SOL    HW125418   5.718   2.223   2.881
 8173SOL    HW225419   5.757   2.208   2.723
 8174SOL     OW25420   0.852   6.526   2.849
 8174SOL    HW125421   0.863   6.608   2.906
 8174SOL    HW225422   0.824   6.449   2.906
 8175SOL     OW25423   0.689   2.700   4.389
 8175SOL    HW125424   0.667   2.647   4.307
 8175SOL    HW225425   0.619   2.685   4.458
 8176SOL     OW25426   2.303   4.410   1.494
 8176SOL    HW125427   2.329   4.377   1.403
 8176SOL    HW225428   2.383   4.409   1.553
 8177SOL     OW25429   3.349   0.941   2.895
 8177SOL    HW125430   3.397   0.867   2.849
 8177SOL    HW225431   3.331   0.915   2.990
 8178SOL     OW25432   3.096   6.320   1.129
 8178SOL    HW125433   3.073   6.417   1.125
 8178SOL    HW225434   3.033   6.268   1.071
 8179SOL     OW25435   5.546   0.993   4.301
 8179SOL    HW125436   5.622   1.016   4.240
 8179SOL    HW225437   5.474   1.062   4.293
 8180SOL     OW25438   5.892   0.714   0.048
 8180SOL    HW125439   5.815   0.687   7.016
 8180SOL    HW225440   5.960   0.762   7.019
 8181SOL     OW25441   1.024   0.693   1.161
 8181SOL    HW125442   0.925   0.688   1.163
 8181SOL    HW225443   1.062   0.606   1.131
 8182SOL     OW25444   3.527   3.420   4.772
 8182SOL    HW125445   3.506   3.496   4.711
 8182SOL    HW225446   3.551   3.340   4.717
 8183SOL     OW25447   6.572   1.482   4.501
 8183SOL    HW125448   6.641   1.548   4.469
 8183SOL    HW225449   6.575   1.400   4.443
 8184SOL     OW25450   0.900   6.887   0.063
 8184SOL    HW125451   0.968   6.896   7.017
 8184SOL    HW225452   0.850   6.801   0.051
 8185SOL     OW25453   2.176   0.394   0.388
 8185SOL    HW125454   2.080   0.370   0.377
 8185SOL    HW225455   2.205   0.455   0.314
 8186SOL     OW25456   2.523   4.197   5.346
 8186SOL    HW125457   2.487   4.289   5.335
 8186SOL    HW225458   2.475   4.135   5.283
 8187SOL     OW25459   2.217   1.766   4.893
 8187SOL    HW125460   2.297   1.738   4.947
 8187SOL    HW225461   2.222   1.864   4.877
 8188SOL     OW25462   4.436   2.163   4.044
 8188SOL    HW125463   4.448   2.163   4.143
 8188SOL    HW225464   4.351   2.116   4.021
 8189SOL     OW25465   5.709   5.860   2.457
 8189SOL    HW125466   5.748   5.818   2.375
 8189SOL    HW225467   5.775   5.853   2.532
 8190SOL     OW25468   5.139   4.107   3.931
 8190SOL    HW125469   5.043   4.082   3.940
 8190SOL    HW225470   5.192   4.026   3.906
 8191SOL     OW25471   4.407   5.117   2.554
 8191SOL    HW125472   4.327   5.094   2.499
 8191SOL    HW225473   4.396   5.208   2.592
 8192SOL     OW25474   1.307   5.244   2.359
 8192SOL    HW125475   1.334   5.340   2.369
 8192SOL    HW225476   1.229   5.237   2.297
 8193SOL     OW25477   6.285   5.358   4.698
 8193SOL    HW125478   6.373   5.379   4.740
 8193SOL    HW225479   6.253   5.437   4.645
 8194SOL     OW25480   4.056   0.776   1.204
 8194SOL    HW125481   4.118   0.853   1.211
 8194SOL    HW225482   3.976   0.802   1.149
 8195SOL     OW25483   6.440   0.063   3.807
 8195SOL    HW125484   6.481   0.148   3.775
 8195SOL    HW225485   6.499   0.021   3.876
 8196SOL     OW25486   5.268   0.047   0.134
 8196SOL    HW125487   5.237   0.140   0.157
 8196SOL    HW225488   5.200   0.003   0.076
 8197SOL     OW25489   4.356   1.625   1.119
 8197SOL    HW125490   4.415   1.697   1.156
 8197SOL    HW225491   4.399   1.536   1.133
 8198SOL     OW25492   2.931   6.936   2.525
 8198SOL    HW125493   2.903   6.840   2.536
 8198SOL    HW225494   3.010   6.940   2.464
 8199SOL     OW25495   5.123   3.294   6.087
 8199SOL    HW125496   5.184   3.344   6.026
 8199SOL    HW225497   5.159   3.298   6.180
 8200SOL     OW25498   6.101   4.394   1.931
 8200SOL    HW125499   6.053   4.306   1.927
 8200SOL    HW225500   6.034   4.469   1.935
 8201SOL     OW25501   0.031   0.742   5.120
 8201SOL    HW125502   7.024   0.728   5.213
 8201SOL    HW225503   0.128   0.766   5.123
 8202SOL     OW25504   6.639   5.940   2.697
 8202SOL    HW125505   6.617   5.867   2.633
 8202SOL    HW225506   6.567   5.948   2.766
 8203SOL     OW25507   1.921   2.458   6.974
 8203SOL    HW125508   1.944   2.498   0.036
 8203SOL    HW225509   1.822   2.446   6.967
 8204SOL     OW25510   4.017   4.061   0.532
 8204SOL    HW125511   4.060   4.088   0.446
 8204SOL    HW225512   3.918   4.069   0.524
 8205SOL     OW25513   6.933   3.710   0.063
 8205SOL    HW125514   6.896   3.685   0.152
 8205SOL    HW225515   6.865   3.765   0.013
 8206SOL     OW25516   4.624   1.911   0.005
 8206SOL    HW125517   4.582   1.922   0.095
 8206SOL    HW225518   4.689   1.835   0.008
 8207SOL     OW25519   3.773   3.756   4.112
 8207SOL    HW125520   3.864   3.788   4.084
 8207SOL    HW225521   3.753   3.791   4.203
 8208SOL     OW25522   1.512   0.736   0.795
 8208SOL    HW125523   1.451   0.661   0.820
 8208SOL    HW225524   1.587   0.701   0.738
 8209SOL     OW25525   0.126   0.805   4.586
 8209SOL    HW125526   0.056   0.735   4.601
 8209SOL    HW225527   0.213   0.761   4.564
 8210SOL     OW25528   1.880   2.220   0.270
 8210SOL    HW125529   1.832   2.132   0.278
 8210SOL    HW225530   1.928   2.224   0.182
 8211SOL     OW25531   3.748   3.923   1.337
 8211SOL    HW125532   3.816   3.958   1.402
 8211SOL    HW225533   3.753   3.824   1.334
 8212SOL     OW25534   1.311   2.434   3.061
 8212SOL    HW125535   1.402   2.463   3.091
 8212SOL    HW225536   1.243   2.499   3.094
 8213SOL     OW25537   6.686   5.050   1.355
 8213SOL    HW125538   6.677   5.119   1.283
 8213SOL    HW225539   6.735   5.089   1.433
 8214SOL     OW25540   6.094   4.807   3.995
 8214SOL    HW125541   6.085   4.739   4.068
 8214SOL    HW225542   6.019   4.796   3.930
 8215SOL     OW25543   3.732   5.888   5.310
 8215SOL    HW125544   3.751   5.856   5.218
 8215SOL    HW225545   3.658   5.955   5.307
 8216SOL     OW25546   5.384   5.869   4.316
 8216SOL    HW125547   5.313   5.852   4.247
 8216SOL    HW225548   5.392   5.788   4.375
 8217SOL     OW25549   2.326   5.097   0.698
 8217SOL    HW125550   2.408   5.127   0.650
 8217SOL    HW225551   2.339   5.003   0.731
 8218SOL     OW25552   7.011   0.657   6.674
 8218SOL    HW125553   7.011   0.755   6.696
 8218SOL    HW225554   6.931   0.636   6.618
 8219SOL     OW25555   4.414   2.267   0.173
 8219SOL    HW125556   4.430   2.308   0.084
 8219SOL    HW225557   4.496   2.277   0.230
 8220SOL     OW25558   3.679   3.361   3.083
 8220SOL    HW125559   3.778   3.371   3.073
 8220SOL    HW225560   3.658   3.322   3.172
 8221SOL     OW25561   4.685   6.073   4.550
 8221SOL    HW125562   4.757   6.016   4.510
 8221SOL    HW225563   4.628   6.016   4.610
 8222SOL     OW25564   5.300   1.700   2.312
 8222SOL    HW125565   5.241   1.772   2.276
 8222SOL    HW225566   5.252   1.612   2.309
 8223SOL     OW25567   1.788   3.909   5.885
 8223SOL    HW125568   1.767   3.884   5.790
 8223SOL    HW225569   1.790   3.826   5.941
 8224SOL     OW25570   0.128   2.489   2.623
 8224SOL    HW125571   0.040   2.443   2.627
 8224SOL    HW225572   0.184   2.459   2.701
 8225SOL     OW25573   3.638   1.117   6.904
 8225SOL    HW125574   3.556   1.060   6.895
 8225SOL    HW225575   3.648   1.173   6.822
 8226SOL     OW25576   4.466   6.359   2.103
 8226SOL    HW125577   4.535   6.289   2.123
 8226SOL    HW225578   4.379   6.315   2.082
 8227SOL     OW25579   6.992   2.632   3.236
 8227SOL    HW125580   6.930   2.710   3.240
 8227SOL    HW225581   6.942   2.551   3.202
 8228SOL     OW25582   0.194   2.553   5.786
 8228SOL    HW125583   0.176   2.611   5.865
 8228SOL    HW225584   0.108   2.517   5.750
 8229SOL     OW25585   3.824   4.324   0.270
 8229SOL    HW125586   3.888   4.400   0.255
 8229SOL    HW225587   3.790   4.327   0.364
 8230SOL     OW25588   4.094   6.869   5.134
 8230SOL    HW125589   4.025   6.864   5.206
 8230SOL    HW225590   4.071   6.805   5.061
 8231SOL     OW25591   4.383   5.319   0.587
 8231SOL    HW125592   4.320   5.396   0.581
 8231SOL    HW225593   4.477   5.352   0.585
 8232SOL     OW25594   5.164   1.537   0.973
 8232SOL    HW125595   5.120   1.447   0.980
 8232SOL    HW225596   5.252   1.534   1.019
 8233SOL     OW25597   0.904   6.361   6.381
 8233SOL    HW125598   0.809   6.395   6.381
 8233SOL    HW225599   0.907   6.271   6.337
 8234SOL     OW25600   2.747   3.843   0.123
 8234SOL    HW125601   2.735   3.866   0.026
 8234SOL    HW225602   2.721   3.922   0.179
 8235SOL     OW25603   1.467   3.390   0.440
 8235SOL    HW125604   1.408   3.425   0.367
 8235SOL    HW225605   1.413   3.331   0.501
 8236SOL     OW25606   7.007   4.416   6.754
 8236SOL    HW125607   6.923   4.406   6.808
 8236SOL    HW225608   6.998   4.364   6.669
 8237SOL     OW25609   4.458   6.226   4.287
 8237SOL    HW125610   4.534   6.168   4.260
 8237SOL    HW225611   4.422   6.196   4.376
 8238SOL     OW25612   1.380   4.824   7.007
 8238SOL    HW125613   1.414   4.759   0.048
 8238SOL    HW225614   1.344   4.774   6.928
 8239SOL     OW25615   6.515   1.262   5.152
 8239SOL    HW125616   6.534   1.265   5.250
 8239SOL    HW225617   6.576   1.325   5.104
 8240SOL     OW25618   3.473   4.117   2.813
 8240SOL    HW125619   3.434   4.176   2.884
 8240SOL    HW225620   3.521   4.041   2.855
 8241SOL     OW25621   3.636   6.902   0.111
 8241SOL    HW125622   3.636   7.002   0.114
 8241SOL    HW225623   3.676   6.872   0.024
 8242SOL     OW25624   0.765   4.775   5.972
 8242SOL    HW125625   0.766   4.865   6.015
 8242SOL    HW225626   0.806   4.781   5.881
 8243SOL     OW25627   0.967   2.288   0.371
 8243SOL    HW125628   1.065   2.297   0.390
 8243SOL    HW225629   0.920   2.260   0.454
 8244SOL     OW25630   1.166   0.241   3.990
 8244SOL    HW125631   1.122   0.282   4.070
 8244SOL    HW225632   1.254   0.287   3.974
 8245SOL     OW25633   4.355   1.423   3.136
 8245SOL    HW125634   4.283   1.397   3.072
 8245SOL    HW225635   4.368   1.522   3.134
 8246SOL     OW25636   0.064   2.954   5.856
 8246SOL    HW125637   0.148   2.936   5.907
 8246SOL    HW225638   7.016   2.899   5.894
 8247SOL     OW25639   0.835   6.832   2.179
 8247SOL    HW125640   0.871   6.762   2.241
 8247SOL    HW225641   0.897   6.910   2.178
 8248SOL     OW25642   6.051   5.129   4.220
 8248SOL    HW125643   6.074   5.225   4.234
 8248SOL    HW225644   6.091   5.074   4.292
 8249SOL     OW25645   2.010   2.766   4.981
 8249SOL    HW125646   2.008   2.811   4.892
 8249SOL    HW225647   2.100   2.780   5.023
 8250SOL     OW25648   3.142   4.062   2.347
 8250SOL    HW125649   3.122   4.153   2.311
 8250SOL    HW225650   3.209   4.069   2.420
 8251SOL     OW25651   5.903   3.017   3.931
 8251SOL    HW125652   5.980   2.980   3.879
 8251SOL    HW225653   5.887   2.961   4.012
 8252SOL     OW25654   3.172   2.259   5.997
 8252SOL    HW125655   3.150   2.330   6.064
 8252SOL    HW225656   3.261   2.277   5.956
 8253SOL     OW25657   4.358   4.264   5.313
 8253SOL    HW125658   4.302   4.190   5.350
 8253SOL    HW225659   4.298   4.336   5.277
 8254SOL     OW25660   4.329   4.751   4.819
 8254SOL    HW125661   4.340   4.675   4.883
 8254SOL    HW225662   4.342   4.719   4.726
 8255SOL     OW25663   2.870   6.294   5.114
 8255SOL    HW125664   2.891   6.253   5.202
 8255SOL    HW225665   2.857   6.221   5.046
 8256SOL     OW25666   5.960   0.623   2.442
 8256SOL    HW125667   6.021   0.548   2.417
 8256SOL    HW225668   5.930   0.670   2.359
 8257SOL     OW25669   6.407   3.922   3.588
 8257SOL    HW125670   6.398   3.851   3.659
 8257SOL    HW225671   6.316   3.959   3.567
 8258SOL     OW25672   5.151   1.024   1.013
 8258SOL    HW125673   5.066   1.068   1.042
 8258SOL    HW225674   5.146   0.926   1.033
 8259SOL     OW25675   4.047   1.863   3.235
 8259SOL    HW125676   4.078   1.807   3.312
 8259SOL    HW225677   4.110   1.939   3.222
 8260SOL     OW25678   2.700   6.743   1.838
 8260SOL    HW125679   2.647   6.809   1.890
 8260SOL    HW225680   2.693   6.653   1.881
 8261SOL     OW25681   6.240   1.458   2.229
 8261SOL    HW125682   6.241   1.361   2.205
 8261SOL    HW225683   6.228   1.512   2.146
 8262SOL     OW25684   0.408   2.684   0.540
 8262SOL    HW125685   0.432   2.674   0.637
 8262SOL    HW225686   0.354   2.767   0.528
 8263SOL     OW25687   1.154   2.225   0.664
 8263SOL    HW125688   1.055   2.237   0.667
 8263SOL    HW225689   1.198   2.314   0.655
 8264SOL     OW25690   2.615   6.085   2.910
 8264SOL    HW125691   2.559   6.007   2.940
 8264SOL    HW225692   2.707   6.053   2.888
 8265SOL     OW25693   1.116   6.675   0.781
 8265SOL    HW125694   1.201   6.649   0.734
 8265SOL    HW225695   1.137   6.701   0.875
 8266SOL     OW25696   2.268   1.349   4.068
 8266SOL    HW125697   2.174   1.370   4.094
 8266SOL    HW225698   2.322   1.331   4.150
 8267SOL     OW25699   1.309   2.842   0.742
 8267SOL    HW125700   1.227   2.821   0.688
 8267SOL    HW225701   1.385   2.862   0.680
 8268SOL     OW25702   2.264   6.359   5.576
 8268SOL    HW125703   2.358   6.367   5.609
 8268SOL    HW225704   2.249   6.425   5.502
 8269SOL     OW25705   4.806   1.666   2.165
 8269SOL    HW125706   4.848   1.579   2.140
 8269SOL    HW225707   4.777   1.714   2.082
 8270SOL     OW25708   2.892   0.009   5.104
 8270SOL    HW125709   2.985   0.025   5.137
 8270SOL    HW225710   2.894   6.965   5.033
 8271SOL     OW25711   6.537   0.368   2.608
 8271SOL    HW125712   6.591   0.443   2.572
 8271SOL    HW225713   6.595   0.307   2.661
 8272SOL     OW25714   4.623   2.049   1.358
 8272SOL    HW125715   4.587   1.962   1.391
 8272SOL    HW225716   4.564   2.124   1.388
 8273SOL     OW25717   2.731   6.540   0.518
 8273SOL    HW125718   2.675   6.492   0.584
 8273SOL    HW225719   2.805   6.589   0.566
 8274SOL     OW25720   5.286   5.144   2.800
 8274SOL    HW125721   5.309   5.199   2.880
 8274SOL    HW225722   5.209   5.186   2.751
 8275SOL     OW25723   4.960   1.317   5.513
 8275SOL    HW125724   4.988   1.358   5.426
 8275SOL    HW225725   4.876   1.264   5.498
 8276SOL     OW25726   1.153   2.021   3.477
 8276SOL    HW125727   1.233   1.997   3.533
 8276SOL    HW225728   1.168   1.992   3.383
 8277SOL     OW25729   6.827   0.117   0.856
 8277SOL    HW125730   6.925   0.136   0.863
 8277SOL    HW225731   6.807   0.032   0.905
 8278SOL     OW25732   2.619   2.129   5.610
 8278SOL    HW125733   2.651   2.223   5.596
 8278SOL    HW225734   2.654   2.094   5.697
 8279SOL     OW25735   1.496   0.207   4.157
 8279SOL    HW125736   1.594   0.226   4.158
 8279SOL    HW225737   1.449   0.277   4.103
 8280SOL     OW25738   2.406   3.034   0.453
 8280SOL    HW125739   2.459   3.076   0.379
 8280SOL    HW225740   2.328   3.091   0.476
 8281SOL     OW25741   2.570   4.748   1.572
 8281SOL    HW125742   2.509   4.823   1.544
 8281SOL    HW225743   2.624   4.778   1.651
 8282SOL     OW25744   5.330   3.833   7.022
 8282SOL    HW125745   5.387   3.773   6.966
 8282SOL    HW225746   5.276   3.893   6.963
 8283SOL     OW25747   1.960   5.296   6.689
 8283SOL    HW125748   2.023   5.306   6.612
 8283SOL    HW225749   1.881   5.355   6.676
 8284SOL     OW25750   0.786   3.627   0.979
 8284SOL    HW125751   0.774   3.534   0.946
 8284SOL    HW225752   0.813   3.625   1.076
 8285SOL     OW25753   3.012   3.197   4.869
 8285SOL    HW125754   2.939   3.261   4.892
 8285SOL    HW225755   3.065   3.233   4.793
 8286SOL     OW25756   5.535   3.355   6.133
 8286SOL    HW125757   5.473   3.433   6.143
 8286SOL    HW225758   5.482   3.274   6.107
 8287SOL     OW25759   2.038   5.505   4.250
 8287SOL    HW125760   2.102   5.439   4.210
 8287SOL    HW225761   1.959   5.456   4.287
 8288SOL     OW25762   2.927   1.733   1.654
 8288SOL    HW125763   2.947   1.644   1.695
 8288SOL    HW225764   3.010   1.773   1.616
 8289SOL     OW25765   0.975   5.478   1.010
 8289SOL    HW125766   0.945   5.558   1.062
 8289SOL    HW225767   1.048   5.431   1.060
 8290SOL     OW25768   5.547   1.352   1.125
 8290SOL    HW125769   5.470   1.307   1.171
 8290SOL    HW225770   5.596   1.410   1.190
 8291SOL     OW25771   5.380   6.299   5.643
 8291SOL    HW125772   5.302   6.361   5.639
 8291SOL    HW225773   5.463   6.350   5.667
 8292SOL     OW25774   2.796   6.101   6.987
 8292SOL    HW125775   2.780   6.171   0.031
 8292SOL    HW225776   2.811   6.146   6.899
 8293SOL     OW25777   3.952   6.494   0.081
 8293SOL    HW125778   3.866   6.525   0.042
 8293SOL    HW225779   3.939   6.470   0.177
 8294SOL     OW25780   5.614   4.365   4.932
 8294SOL    HW125781   5.705   4.329   4.913
 8294SOL    HW225782   5.546   4.292   4.918
 8295SOL     OW25783   5.106   5.807   1.653
 8295SOL    HW125784   5.011   5.802   1.683
 8295SOL    HW225785   5.123   5.739   1.581
 8296SOL     OW25786   1.973   6.008   6.097
 8296SOL    HW125787   1.913   6.072   6.048
 8296SOL    HW225788   2.063   6.007   6.055
 8297SOL     OW25789   6.164   2.756   2.168
 8297SOL    HW125790   6.264   2.755   2.164
 8297SOL    HW225791   6.127   2.672   2.128
 8298SOL     OW25792   5.915   1.650   1.253
 8298SOL    HW125793   5.876   1.697   1.174
 8298SOL    HW225794   5.912   1.711   1.332
 8299SOL     OW25795   6.554   2.739   1.735
 8299SOL    HW125796   6.618   2.662   1.740
 8299SOL    HW225797   6.595   2.814   1.683
 8300SOL     OW25798   0.304   6.152   4.999
 8300SOL    HW125799   0.344   6.199   4.919
 8300SOL    HW225800   0.346   6.188   5.082
 8301SOL     OW25801   4.102   1.731   1.940
 8301SOL    HW125802   4.030   1.663   1.930
 8301SOL    HW225803   4.109   1.785   1.856
 8302SOL     OW25804   6.182   5.921   6.647
 8302SOL    HW125805   6.114   5.994   6.640
 8302SOL    HW225806   6.192   5.895   6.744
 8303SOL     OW25807   6.203   0.466   4.441
 8303SOL    HW125808   6.287   0.519   4.427
 8303SOL    HW225809   6.212   0.412   4.524
 8304SOL     OW25810   0.348   3.751   1.070
 8304SOL    HW125811   0.336   3.667   1.017
 8304SOL    HW225812   0.444   3.778   1.069
 8305SOL     OW25813   4.036   5.056   4.245
 8305SOL    HW125814   3.966   4.991   4.274
 8305SOL    HW225815   4.108   5.008   4.196
 8306SOL     OW25816   6.934   2.670   5.771
 8306SOL    HW125817   6.895   2.758   5.743
 8306SOL    HW225818   6.973   2.624   5.691
 8307SOL     OW25819   3.673   5.185   1.351
 8307SOL    HW125820   3.599   5.165   1.416
 8307SOL    HW225821   3.662   5.129   1.269
 8308SOL     OW25822   3.888   5.311   1.135
 8308SOL    HW125823   3.834   5.283   1.215
 8308SOL    HW225824   3.827   5.329   1.058
 8309SOL     OW25825   5.838   5.693   3.808
 8309SOL    HW125826   5.830   5.594   3.803
 8309SOL    HW225827   5.750   5.733   3.831
 8310SOL     OW25828   0.581   4.388   0.529
 8310SOL    HW125829   0.671   4.430   0.543
 8310SOL    HW225830   0.549   4.409   0.436
 8311SOL     OW25831   1.025   1.232   4.446
 8311SOL    HW125832   1.092   1.211   4.374
 8311SOL    HW225833   1.058   1.306   4.503
 8312SOL     OW25834   4.702   6.769   0.562
 8312SOL    HW125835   4.718   6.806   0.654
 8312SOL    HW225836   4.783   6.719   0.532
 8313SOL     OW25837   4.954   0.843   2.371
 8313SOL    HW125838   5.036   0.897   2.385
 8313SOL    HW225839   4.873   0.902   2.379
 8314SOL     OW25840   4.359   0.491   0.966
 8314SOL    HW125841   4.371   0.394   0.943
 8314SOL    HW225842   4.446   0.529   0.996
 8315SOL     OW25843   4.040   3.379   1.139
 8315SOL    HW125844   4.101   3.406   1.065
 8315SOL    HW225845   4.027   3.457   1.201
 8316SOL     OW25846   0.449   2.202   1.783
 8316SOL    HW125847   0.374   2.217   1.847
 8316SOL    HW225848   0.526   2.261   1.806
 8317SOL     OW25849   2.169   2.349   2.704
 8317SOL    HW125850   2.081   2.301   2.707
 8317SOL    HW225851   2.243   2.282   2.711
 8318SOL     OW25852   4.332   1.256   4.725
 8318SOL    HW125853   4.339   1.231   4.629
 8318SOL    HW225854   4.424   1.276   4.761
 8319SOL     OW25855   2.648   1.271   6.555
 8319SOL    HW125856   2.621   1.175   6.550
 8319SOL    HW225857   2.747   1.278   6.566
 8320SOL     OW25858   3.243   3.584   1.702
 8320SOL    HW125859   3.327   3.639   1.697
 8320SOL    HW225860   3.236   3.543   1.793
 8321SOL     OW25861   6.989   0.681   0.308
 8321SOL    HW125862   7.014   0.673   0.405
 8321SOL    HW225863   6.960   0.592   0.274
 8322SOL     OW25864   0.219   0.462   0.662
 8322SOL    HW125865   0.180   0.427   0.577
 8322SOL    HW225866   0.307   0.417   0.679
 8323SOL     OW25867   5.941   5.745   2.293
 8323SOL    HW125868   6.022   5.694   2.322
 8323SOL    HW225869   5.900   5.699   2.214
 8324SOL     OW25870   5.317   0.568   1.530
 8324SOL    HW125871   5.319   0.575   1.630
 8324SOL    HW225872   5.394   0.618   1.491
 8325SOL     OW25873   3.105   3.444   5.454
 8325SOL    HW125874   3.117   3.476   5.548
 8325SOL    HW225875   3.034   3.498   5.410
 8326SOL     OW25876   5.035   3.095   5.529
 8326SOL    HW125877   5.088   3.180   5.524
 8326SOL    HW225878   5.081   3.025   5.475
 8327SOL     OW25879   5.985   1.806   6.064
 8327SOL    HW125880   6.009   1.731   6.002
 8327SOL    HW225881   6.067   1.856   6.089
 8328SOL     OW25882   2.511   4.562   5.589
 8328SOL    HW125883   2.462   4.506   5.655
 8328SOL    HW225884   2.596   4.596   5.630
 8329SOL     OW25885   0.252   3.522   6.242
 8329SOL    HW125886   0.296   3.437   6.215
 8329SOL    HW225887   0.321   3.594   6.251
 8330SOL     OW25888   2.929   6.525   0.326
 8330SOL    HW125889   2.852   6.526   0.390
 8330SOL    HW225890   2.941   6.615   0.286
 8331SOL     OW25891   2.701   1.760   1.484
 8331SOL    HW125892   2.779   1.704   1.510
 8331SOL    HW225893   2.646   1.781   1.565
 8332SOL     OW25894   5.251   5.262   2.443
 8332SOL    HW125895   5.327   5.202   2.467
 8332SOL    HW225896   5.166   5.225   2.481
 8333SOL     OW25897   0.569   6.505   6.526
 8333SOL    HW125898   0.600   6.434   6.588
 8333SOL    HW225899   0.580   6.595   6.570
 8334SOL     OW25900   4.149   1.595   3.707
 8334SOL    HW125901   4.083   1.670   3.698
 8334SOL    HW225902   4.102   1.508   3.693
 8335SOL     OW25903   6.290   5.562   6.555
 8335SOL    HW125904   6.230   5.626   6.603
 8335SOL    HW225905   6.280   5.573   6.457
 8336SOL     OW25906   6.085   0.084   2.972
 8336SOL    HW125907   6.112   7.017   2.995
 8336SOL    HW225908   6.105   0.102   2.875
 8337SOL     OW25909   0.764   5.881   3.052
 8337SOL    HW125910   0.841   5.851   2.995
 8337SOL    HW225911   0.750   5.816   3.126
 8338SOL     OW25912   2.052   5.049   1.664
 8338SOL    HW125913   2.126   4.992   1.698
 8338SOL    HW225914   1.982   5.059   1.735
 8339SOL     OW25915   5.770   0.603   2.035
 8339SOL    HW125916   5.785   0.641   2.126
 8339SOL    HW225917   5.857   0.578   1.994
 8340SOL     OW25918   5.028   3.458   1.640
 8340SOL    HW125919   5.012   3.360   1.630
 8340SOL    HW225920   5.081   3.491   1.562
 8341SOL     OW25921   2.150   6.258   6.469
 8341SOL    HW125922   2.158   6.318   6.549
 8341SOL    HW225923   2.061   6.214   6.469
 8342SOL     OW25924   3.796   0.125   1.590
 8342SOL    HW125925   3.881   0.096   1.636
 8342SOL    HW225926   3.789   0.080   1.501
 8343SOL     OW25927   0.774   5.017   6.146
 8343SOL    HW125928   0.790   5.081   6.071
 8343SOL    HW225929   0.677   4.993   6.150
 8344SOL     OW25930   4.125   0.385   5.185
 8344SOL    HW125931   4.137   0.477   5.221
 8344SOL    HW225932   4.027   0.364   5.179
 8345SOL     OW25933   4.646   1.684   3.484
 8345SOL    HW125934   4.689   1.759   3.535
 8345SOL    HW225935   4.710   1.608   3.477
 8346SOL     OW25936   2.303   4.425   0.801
 8346SOL    HW125937   2.397   4.431   0.835
 8346SOL    HW225938   2.283   4.331   0.774
 8347SOL     OW25939   3.900   5.428   4.784
 8347SOL    HW125940   3.922   5.502   4.848
 8347SOL    HW225941   3.850   5.356   4.832
 8348SOL     OW25942   1.357   6.351   2.375
 8348SOL    HW125943   1.272   6.374   2.329
 8348SOL    HW225944   1.376   6.253   2.365
 8349SOL     OW25945   6.142   6.686   1.672
 8349SOL    HW125946   6.239   6.700   1.653
 8349SOL    HW225947   6.132   6.639   1.759
 8350SOL     OW25948   4.561   0.995   4.566
 8350SOL    HW125949   4.532   0.904   4.538
 8350SOL    HW225950   4.634   0.986   4.634
 8351SOL     OW25951   4.581   4.947   3.905
 8351SOL    HW125952   4.514   4.894   3.853
 8351SOL    HW225953   4.672   4.909   3.891
 8352SOL     OW25954   6.978   5.975   3.216
 8352SOL    HW125955   6.915   5.989   3.139
 8352SOL    HW225956   0.036   5.934   3.182
 8353SOL     OW25957   6.839   3.821   1.183
 8353SOL    HW125958   6.934   3.791   1.174
 8353SOL    HW225959   6.797   3.830   1.093
 8354SOL     OW25960   4.041   6.985   6.839
 8354SOL    HW125961   3.955   6.961   6.883
 8354SOL    HW225962   4.091   6.901   6.816
 8355SOL     OW25963   3.210   0.563   6.890
 8355SOL    HW125964   3.136   0.613   6.845
 8355SOL    HW225965   3.172   0.481   6.934
 8356SOL     OW25966   1.835   6.510   1.058
 8356SOL    HW125967   1.890   6.576   1.008
 8356SOL    HW225968   1.890   6.470   1.132
 8357SOL     OW25969   3.730   0.015   5.608
 8357SOL    HW125970   3.829   0.027   5.613
 8357SOL    HW225971   3.697   7.006   5.695
 8358SOL     OW25972   1.357   3.559   5.420
 8358SOL    HW125973   1.362   3.492   5.493
 8358SOL    HW225974   1.318   3.516   5.338
 8359SOL     OW25975   2.391   6.383   4.906
 8359SOL    HW125976   2.412   6.417   4.814
 8359SOL    HW225977   2.319   6.439   4.947
 8360SOL     OW25978   3.613   6.053   1.043
 8360SOL    HW125979   3.665   6.045   1.128
 8360SOL    HW225980   3.676   6.053   0.966
 8361SOL     OW25981   2.426   0.178   2.885
 8361SOL    HW125982   2.484   0.136   2.954
 8361SOL    HW225983   2.369   0.248   2.927
 8362SOL     OW25984   3.158   1.861   0.987
 8362SOL    HW125985   3.223   1.852   1.063
 8362SOL    HW225986   3.153   1.776   0.936
 8363SOL     OW25987   0.620   2.442   6.920
 8363SOL    HW125988   0.547   2.405   6.976
 8363SOL    HW225989   0.588   2.523   6.872
 8364SOL     OW25990   6.488   3.030   2.453
 8364SOL    HW125991   6.577   3.059   2.489
 8364SOL    HW225992   6.451   3.102   2.394
 8365SOL     OW25993   1.947   3.794   1.676
 8365SOL    HW125994   1.886   3.736   1.731
 8365SOL    HW225995   1.929   3.778   1.579
 8366SOL     OW25996   2.683   5.737   2.196
 8366SOL    HW125997   2.645   5.701   2.281
 8366SOL    HW225998   2.620   5.805   2.158
 8367SOL     OW25999   4.097   5.938   3.762
 8367SOL    HW126000   4.088   6.028   3.804
 8367SOL    HW226001   4.024   5.925   3.695
 8368SOL     OW26002   1.927   6.630   5.846
 8368SOL    HW126003   1.944   6.563   5.774
 8368SOL    HW226004   1.983   6.712   5.829
 8369SOL     OW26005   1.877   6.609   6.671
 8369SOL    HW126006   1.955   6.658   6.709
 8369SOL    HW226007   1.818   6.673   6.621
 8370SOL     OW26008   2.300   2.111   5.704
 8370SOL    HW126009   2.310   2.199   5.750
 8370SOL    HW226010   2.379   2.053   5.725
 8371SOL     OW26011   2.090   4.274   1.280
 8371SOL    HW126012   2.169   4.224   1.316
 8371SOL    HW226013   2.025   4.210   1.240
 8372SOL     OW26014   0.484   5.851   2.495
 8372SOL    HW126015   0.542   5.930   2.478
 8372SOL    HW226016   0.400   5.858   2.442
 8373SOL     OW26017   1.225   0.523   4.322
 8373SOL    HW126018   1.281   0.599   4.288
 8373SOL    HW226019   1.278   0.439   4.321
 8374SOL     OW26020   6.609   0.990   5.871
 8374SOL    HW126021   6.537   0.994   5.941
 8374SOL    HW226022   6.689   0.943   5.908
 8375SOL     OW26023   3.779   0.059   6.454
 8375SOL    HW126024   3.750   0.155   6.456
 8375SOL    HW226025   3.726   0.010   6.385
 8376SOL     OW26026   1.873   0.695   4.211
 8376SOL    HW126027   1.954   0.673   4.265
 8376SOL    HW226028   1.901   0.743   4.128
 8377SOL     OW26029   5.583   5.642   1.282
 8377SOL    HW126030   5.559   5.736   1.305
 8377SOL    HW226031   5.619   5.596   1.364
 8378SOL     OW26032   4.209   4.966   2.803
 8378SOL    HW126033   4.300   4.939   2.771
 8378SOL    HW226034   4.218   5.037   2.873
 8379SOL     OW26035   6.196   2.348   1.127
 8379SOL    HW126036   6.236   2.411   1.059
 8379SOL    HW226037   6.181   2.398   1.212
 8380SOL     OW26038   7.005   1.546   2.482
 8380SOL    HW126039   0.062   1.497   2.457
 8380SOL    HW226040   6.989   1.536   2.580
 8381SOL     OW26041   0.009   3.862   5.133
 8381SOL    HW126042   0.041   3.776   5.095
 8381SOL    HW226043   0.022   3.862   5.232
 8382SOL     OW26044   1.843   0.673   1.666
 8382SOL    HW126045   1.884   0.615   1.737
 8382SOL    HW226046   1.755   0.635   1.639
 8383SOL     OW26047   2.398   0.341   6.203
 8383SOL    HW126048   2.468   0.362   6.270
 8383SOL    HW226049   2.440   0.330   6.113
 8384SOL     OW26050   0.116   0.419   0.431
 8384SOL    HW126051   0.030   0.372   0.412
 8384SOL    HW226052   0.174   0.417   0.350
 8385SOL     OW26053   6.353   2.181   1.453
 8385SOL    HW126054   6.347   2.132   1.366
 8385SOL    HW226055   6.307   2.128   1.524
 8386SOL     OW26056   0.725   4.413   1.503
 8386SOL    HW126057   0.661   4.469   1.555
 8386SOL    HW226058   0.765   4.344   1.562
 8387SOL     OW26059   1.444   1.280   2.005
 8387SOL    HW126060   1.543   1.265   2.006
 8387SOL    HW226061   1.402   1.232   2.082
 8388SOL     OW26062   1.703   6.293   0.362
 8388SOL    HW126063   1.669   6.235   0.289
 8388SOL    HW226064   1.693   6.246   0.450
 8389SOL     OW26065   6.010   4.008   2.767
 8389SOL    HW126066   6.072   3.973   2.837
 8389SOL    HW226067   5.986   4.102   2.788
 8390SOL     OW26068   4.201   0.845   6.236
 8390SOL    HW126069   4.182   0.773   6.302
 8390SOL    HW226070   4.153   0.929   6.263
 8391SOL     OW26071   6.584   5.590   6.948
 8391SOL    HW126072   6.573   5.564   0.017
 8391SOL    HW226073   6.631   5.679   6.943
 8392SOL     OW26074   0.216   3.659   4.113
 8392SOL    HW126075   0.195   3.752   4.084
 8392SOL    HW226076   0.310   3.636   4.085
 8393SOL     OW26077   6.266   0.685   2.095
 8393SOL    HW126078   6.266   0.772   2.145
 8393SOL    HW226079   6.210   0.695   2.013
 8394SOL     OW26080   5.977   2.950   1.423
 8394SOL    HW126081   6.047   2.889   1.460
 8394SOL    HW226082   5.944   3.011   1.495
 8395SOL     OW26083   2.765   6.751   5.807
 8395SOL    HW126084   2.825   6.827   5.781
 8395SOL    HW226085   2.820   6.671   5.831
 8396SOL     OW26086   4.899   4.757   3.339
 8396SOL    HW126087   4.849   4.844   3.338
 8396SOL    HW226088   4.997   4.776   3.346
 8397SOL     OW26089   1.094   0.941   2.917
 8397SOL    HW126090   1.141   0.875   2.858
 8397SOL    HW226091   0.996   0.924   2.914
 8398SOL     OW26092   4.358   2.728   5.971
 8398SOL    HW126093   4.337   2.786   6.050
 8398SOL    HW226094   4.450   2.750   5.938
 8399SOL     OW26095   6.142   0.037   6.485
 8399SOL    HW126096   6.241   0.040   6.498
 8399SOL    HW226097   6.116   0.104   6.415
 8400SOL     OW26098   2.244   2.183   4.249
 8400SOL    HW126099   2.221   2.152   4.157
 8400SOL    HW226100   2.231   2.282   4.255
 8401SOL     OW26101   2.231   1.737   5.285
 8401SOL    HW126102   2.240   1.637   5.285
 8401SOL    HW226103   2.225   1.770   5.379
 8402SOL     OW26104   5.301   1.627   6.592
 8402SOL    HW126105   5.209   1.589   6.595
 8402SOL    HW226106   5.310   1.699   6.661
 8403SOL     OW26107   0.336   3.397   4.245
 8403SOL    HW126108   0.257   3.402   4.184
 8403SOL    HW226109   0.418   3.378   4.192
 8404SOL     OW26110   3.633   7.000   5.892
 8404SOL    HW126111   3.549   6.950   5.911
 8404SOL    HW226112   3.618   0.071   5.908
 8405SOL     OW26113   2.844   1.509   5.508
 8405SOL    HW126114   2.821   1.417   5.540
 8405SOL    HW226115   2.790   1.576   5.560
 8406SOL     OW26116   4.013   0.521   0.480
 8406SOL    HW126117   4.096   0.510   0.425
 8406SOL    HW226118   4.020   0.466   0.563
 8407SOL     OW26119   4.166   6.340   3.663
 8407SOL    HW126120   4.121   6.403   3.726
 8407SOL    HW226121   4.151   6.246   3.695
 8408SOL     OW26122   5.394   4.624   1.037
 8408SOL    HW126123   5.431   4.537   1.068
 8408SOL    HW226124   5.468   4.687   1.016
 8409SOL     OW26125   4.828   2.394   2.945
 8409SOL    HW126126   4.786   2.454   2.877
 8409SOL    HW226127   4.757   2.339   2.989
 8410SOL     OW26128   6.140   1.191   1.717
 8410SOL    HW126129   6.219   1.215   1.660
 8410SOL    HW226130   6.138   1.092   1.731
 8411SOL     OW26131   0.329   6.031   0.922
 8411SOL    HW126132   0.417   6.078   0.916
 8411SOL    HW226133   0.257   6.090   0.886
 8412SOL     OW26134   3.467   2.740   1.267
 8412SOL    HW126135   3.391   2.684   1.300
 8412SOL    HW226136   3.501   2.797   1.342
 8413SOL     OW26137   4.922   5.956   6.368
 8413SOL    HW126138   4.932   6.049   6.402
 8413SOL    HW226139   4.890   5.958   6.273
 8414SOL     OW26140   2.666   0.250   3.618
 8414SOL    HW126141   2.707   0.310   3.688
 8414SOL    HW226142   2.642   0.162   3.660
 8415SOL     OW26143   0.859   6.108   4.495
 8415SOL    HW126144   0.884   6.204   4.482
 8415SOL    HW226145   0.836   6.092   4.591
 8416SOL     OW26146   6.364   1.539   4.197
 8416SOL    HW126147   6.433   1.508   4.131
 8416SOL    HW226148   6.309   1.461   4.228
 8417SOL     OW26149   0.950   3.155   5.190
 8417SOL    HW126150   0.881   3.152   5.262
 8417SOL    HW226151   1.041   3.150   5.230
 8418SOL     OW26152   0.142   5.823   1.756
 8418SOL    HW126153   0.062   5.790   1.706
 8418SOL    HW226154   0.169   5.912   1.720
 8419SOL     OW26155   5.280   0.873   2.468
 8419SOL    HW126156   5.329   0.871   2.381
 8419SOL    HW226157   5.265   0.779   2.500
 8420SOL     OW26158   3.743   6.534   1.309
 8420SOL    HW126159   3.761   6.566   1.217
 8420SOL    HW226160   3.723   6.612   1.369
 8421SOL     OW26161   3.232   4.658   0.075
 8421SOL    HW126162   3.246   4.568   0.035
 8421SOL    HW226163   3.156   4.704   0.030
 8422SOL     OW26164   4.294   1.193   2.264
 8422SOL    HW126165   4.214   1.142   2.298
 8422SOL    HW226166   4.372   1.131   2.255
 8423SOL     OW26167   4.134   4.260   5.845
 8423SOL    HW126168   4.041   4.269   5.882
 8423SOL    HW226169   4.152   4.335   5.782
 8424SOL     OW26170   1.906   2.197   2.652
 8424SOL    HW126171   1.936   2.102   2.642
 8424SOL    HW226172   1.896   2.239   2.562
 8425SOL     OW26173   4.281   3.837   5.222
 8425SOL    HW126174   4.225   3.890   5.158
 8425SOL    HW226175   4.364   3.888   5.244
 8426SOL     OW26176   3.293   3.320   2.966
 8426SOL    HW126177   3.373   3.371   2.934
 8426SOL    HW226178   3.323   3.234   3.008
 8427SOL     OW26179   3.025   3.926   3.597
 8427SOL    HW126180   2.994   4.021   3.599
 8427SOL    HW226181   3.039   3.898   3.502
 8428SOL     OW26182   0.358   6.212   1.580
 8428SOL    HW126183   0.420   6.210   1.502
 8428SOL    HW226184   0.278   6.269   1.558
 8429SOL     OW26185   1.541   5.298   5.756
 8429SOL    HW126186   1.478   5.254   5.692
 8429SOL    HW226187   1.616   5.235   5.778
 8430SOL     OW26188   3.837   4.843   4.072
 8430SOL    HW126189   3.922   4.812   4.029
 8430SOL    HW226190   3.823   4.793   4.158
 8431SOL     OW26191   4.143   3.733   0.229
 8431SOL    HW126192   4.240   3.714   0.243
 8431SOL    HW226193   4.131   3.830   0.207
 8432SOL     OW26194   6.271   5.264   5.672
 8432SOL    HW126195   6.188   5.319   5.685
 8432SOL    HW226196   6.335   5.283   5.747
 8433SOL     OW26197   4.389   2.880   0.548
 8433SOL    HW126198   4.470   2.913   0.596
 8433SOL    HW226199   4.323   2.954   0.539
 8434SOL     OW26200   2.514   6.867   4.378
 8434SOL    HW126201   2.558   6.795   4.324
 8434SOL    HW226202   2.532   6.956   4.337
 8435SOL     OW26203   5.454   0.141   2.370
 8435SOL    HW126204   5.392   0.138   2.448
 8435SOL    HW226205   5.482   0.048   2.345
 8436SOL     OW26206   3.467   6.259   3.975
 8436SOL    HW126207   3.371   6.258   3.945
 8436SOL    HW226208   3.494   6.353   3.996
 8437SOL     OW26209   2.568   2.570   2.522
 8437SOL    HW126210   2.650   2.627   2.510
 8437SOL    HW226211   2.568   2.532   2.615
 8438SOL     OW26212   2.438   4.757   3.091
 8438SOL    HW126213   2.401   4.830   3.149
 8438SOL    HW226214   2.398   4.765   2.999
 8439SOL     OW26215   6.196   4.857   2.389
 8439SOL    HW126216   6.260   4.890   2.458
 8439SOL    HW226217   6.126   4.800   2.433
 8440SOL     OW26218   2.814   2.104   3.030
 8440SOL    HW126219   2.860   2.070   2.948
 8440SOL    HW226220   2.760   2.030   3.071
 8441SOL     OW26221   5.805   6.478   6.584
 8441SOL    HW126222   5.893   6.486   6.632
 8441SOL    HW226223   5.741   6.426   6.641
 8442SOL     OW26224   3.694   1.511   5.003
 8442SOL    HW126225   3.787   1.542   5.024
 8442SOL    HW226226   3.647   1.583   4.951
 8443SOL     OW26227   2.432   5.177   3.597
 8443SOL    HW126228   2.511   5.207   3.544
 8443SOL    HW226229   2.367   5.131   3.537
 8444SOL     OW26230   3.455   0.071   3.682
 8444SOL    HW126231   3.474   0.062   3.585
 8444SOL    HW226232   3.518   0.014   3.735
 8445SOL     OW26233   2.607   0.281   0.765
 8445SOL    HW126234   2.604   0.360   0.704
 8445SOL    HW226235   2.668   0.211   0.727
 8446SOL     OW26236   6.550   5.024   5.304
 8446SOL    HW126237   6.565   5.011   5.402
 8446SOL    HW226238   6.464   4.979   5.278
 8447SOL     OW26239   4.306   1.485   1.420
 8447SOL    HW126240   4.359   1.444   1.494
 8447SOL    HW226241   4.344   1.575   1.397
 8448SOL     OW26242   4.597   6.101   3.474
 8448SOL    HW126243   4.627   6.161   3.549
 8448SOL    HW226244   4.502   6.123   3.451
 8449SOL     OW26245   6.803   3.142   3.377
 8449SOL    HW126246   6.884   3.133   3.320
 8449SOL    HW226247   6.809   3.227   3.430
 8450SOL     OW26248   0.959   0.889   1.388
 8450SOL    HW126249   0.873   0.839   1.400
 8450SOL    HW226250   1.007   0.854   1.308
 8451SOL     OW26251   3.263   1.116   0.207
 8451SOL    HW126252   3.292   1.046   0.273
 8451SOL    HW226253   3.167   1.102   0.184
 8452SOL     OW26254   5.997   3.187   4.637
 8452SOL    HW126255   5.925   3.256   4.639
 8452SOL    HW226256   5.959   3.098   4.661
 8453SOL     OW26257   0.276   5.409   0.350
 8453SOL    HW126258   0.303   5.484   0.410
 8453SOL    HW226259   0.190   5.434   0.304
 8454SOL     OW26260   0.236   4.842   0.585
 8454SOL    HW126261   0.184   4.873   0.505
 8454SOL    HW226262   0.175   4.794   0.648
 8455SOL     OW26263   0.477   1.572   2.741
 8455SOL    HW126264   0.536   1.606   2.814
 8455SOL    HW226265   0.473   1.472   2.744
 8456SOL     OW26266   4.440   6.743   3.540
 8456SOL    HW126267   4.510   6.724   3.470
 8456SOL    HW226268   4.483   6.748   3.630
 8457SOL     OW26269   6.458   5.680   4.315
 8457SOL    HW126270   6.505   5.662   4.229
 8457SOL    HW226271   6.364   5.710   4.297
 8458SOL     OW26272   2.417   0.342   0.140
 8458SOL    HW126273   2.447   0.270   0.203
 8458SOL    HW226274   2.423   0.431   0.185
 8459SOL     OW26275   2.408   5.658   2.855
 8459SOL    HW126276   2.424   5.559   2.862
 8459SOL    HW226277   2.463   5.695   2.781
 8460SOL     OW26278   4.635   4.221   5.221
 8460SOL    HW126279   4.538   4.235   5.241
 8460SOL    HW226280   4.661   4.127   5.246
 8461SOL     OW26281   0.600   2.799   4.774
 8461SOL    HW126282   0.603   2.871   4.843
 8461SOL    HW226283   0.601   2.709   4.819
 8462SOL     OW26284   2.908   1.727   6.777
 8462SOL    HW126285   2.998   1.766   6.799
 8462SOL    HW226286   2.915   1.670   6.695
 8463SOL     OW26287   6.777   6.951   1.829
 8463SOL    HW126288   6.839   6.943   1.907
 8463SOL    HW226289   6.831   6.971   1.746
 8464SOL     OW26290   5.299   4.474   4.167
 8464SOL    HW126291   5.332   4.395   4.116
 8464SOL    HW226292   5.373   4.541   4.176
 8465SOL     OW26293   1.121   2.700   0.531
 8465SOL    HW126294   1.162   2.641   0.461
 8465SOL    HW226295   1.081   2.643   0.603
 8466SOL     OW26296   0.669   6.571   3.940
 8466SOL    HW126297   0.638   6.633   4.013
 8466SOL    HW226298   0.709   6.625   3.866
 8467SOL     OW26299   3.196   5.759   0.604
 8467SOL    HW126300   3.176   5.741   0.701
 8467SOL    HW226301   3.125   5.716   0.547
 8468SOL     OW26302   3.267   1.431   0.230
 8468SOL    HW126303   3.306   1.434   0.322
 8468SOL    HW226304   3.238   1.338   0.209
 8469SOL     OW26305   3.096   2.753   7.011
 8469SOL    HW126306   3.196   2.754   6.999
 8469SOL    HW226307   3.053   2.790   6.928
 8470SOL     OW26308   2.476   3.533   1.140
 8470SOL    HW126309   2.479   3.537   1.240
 8470SOL    HW226310   2.390   3.491   1.110
 8471SOL     OW26311   2.746   1.150   3.184
 8471SOL    HW126312   2.765   1.139   3.282
 8471SOL    HW226313   2.687   1.076   3.154
 8472SOL     OW26314   0.365   0.161   3.978
 8472SOL    HW126315   0.302   0.134   3.905
 8472SOL    HW226316   0.427   0.231   3.945
 8473SOL     OW26317   7.019   5.845   6.730
 8473SOL    HW126318   0.009   5.832   6.828
 8473SOL    HW226319   6.975   5.763   6.693
 8474SOL     OW26320   3.109   2.858   1.819
 8474SOL    HW126321   3.057   2.920   1.878
 8474SOL    HW226322   3.197   2.837   1.861
 8475SOL     OW26323   0.221   1.204   3.156
 8475SOL    HW126324   0.235   1.235   3.062
 8475SOL    HW226325   0.286   1.251   3.217
 8476SOL     OW26326   6.389   0.956   1.639
 8476SOL    HW126327   6.449   0.885   1.677
 8476SOL    HW226328   6.444   1.025   1.592
 8477SOL     OW26329   3.541   6.359   1.356
 8477SOL    HW126330   3.610   6.429   1.337
 8477SOL    HW226331   3.462   6.373   1.296
 8478SOL     OW26332   1.103   0.373   5.887
 8478SOL    HW126333   1.021   0.423   5.915
 8478SOL    HW226334   1.134   0.316   5.963
 8479SOL     OW26335   6.287   1.909   0.683
 8479SOL    HW126336   6.297   1.836   0.750
 8479SOL    HW226337   6.324   1.994   0.721
 8480SOL     OW26338   3.165   0.738   1.069
 8480SOL    HW126339   3.090   0.791   1.108
 8480SOL    HW226340   3.231   0.799   1.025
 8481SOL     OW26341   4.594   1.431   3.764
 8481SOL    HW126342   4.676   1.487   3.774
 8481SOL    HW226343   4.572   1.389   3.852
 8482SOL     OW26344   2.628   0.450   2.180
 8482SOL    HW126345   2.567   0.530   2.179
 8482SOL    HW226346   2.722   0.480   2.195
 8483SOL     OW26347   3.763   5.885   1.869
 8483SOL    HW126348   3.704   5.814   1.908
 8483SOL    HW226349   3.718   5.925   1.789
 8484SOL     OW26350   6.601   4.993   3.138
 8484SOL    HW126351   6.542   5.028   3.065
 8484SOL    HW226352   6.664   5.065   3.167
 8485SOL     OW26353   2.463   3.486   6.685
 8485SOL    HW126354   2.551   3.533   6.672
 8485SOL    HW226355   2.423   3.464   6.596
 8486SOL     OW26356   4.847   1.169   3.170
 8486SOL    HW126357   4.780   1.095   3.178
 8486SOL    HW226358   4.845   1.206   3.077
 8487SOL     OW26359   6.104   0.355   1.003
 8487SOL    HW126360   6.106   0.427   0.933
 8487SOL    HW226361   6.171   0.376   1.074
 8488SOL     OW26362   5.719   5.238   5.024
 8488SOL    HW126363   5.706   5.191   5.111
 8488SOL    HW226364   5.750   5.172   4.955
 8489SOL     OW26365   6.182   6.985   1.524
 8489SOL    HW126366   6.218   6.995   1.617
 8489SOL    HW226367   6.106   6.920   1.525
 8490SOL     OW26368   4.490   6.301   3.881
 8490SOL    HW126369   4.399   6.261   3.864
 8490SOL    HW226370   4.547   6.234   3.929
 8491SOL     OW26371   2.190   0.345   1.484
 8491SOL    HW126372   2.285   0.376   1.482
 8491SOL    HW226373   2.150   0.365   1.573
 8492SOL     OW26374   4.638   3.875   6.314
 8492SOL    HW126375   4.670   3.896   6.407
 8492SOL    HW226376   4.612   3.778   6.309
 8493SOL     OW26377   3.319   1.812   6.622
 8493SOL    HW126378   3.410   1.845   6.647
 8493SOL    HW226379   3.270   1.884   6.574
 8494SOL     OW26380   1.708   4.863   6.937
 8494SOL    HW126381   1.664   4.946   6.902
 8494SOL    HW226382   1.682   4.850   0.006
 8495SOL     OW26383   0.086   3.370   0.486
 8495SOL    HW126384   0.030   3.289   0.469
 8495SOL    HW226385   0.154   3.380   0.414
 8496SOL     OW26386   0.528   2.054   2.560
 8496SOL    HW126387   0.583   2.077   2.480
 8496SOL    HW226388   0.586   2.016   2.632
 8497SOL     OW26389   6.466   0.167   4.106
 8497SOL    HW126390   6.398   0.142   4.175
 8497SOL    HW226391   6.433   0.245   4.054
 8498SOL     OW26392   0.554   6.301   2.242
 8498SOL    HW126393   0.641   6.329   2.203
 8498SOL    HW226394   0.502   6.248   2.175
 8499SOL     OW26395   2.648   5.483   6.555
 8499SOL    HW126396   2.601   5.424   6.488
 8499SOL    HW226397   2.581   5.526   6.614
 8500SOL     OW26398   2.054   0.814   5.750
 8500SOL    HW126399   2.038   0.907   5.783
 8500SOL    HW226400   2.114   0.817   5.670
 8501SOL     OW26401   1.474   2.861   0.547
 8501SOL    HW126402   1.546   2.925   0.573
 8501SOL    HW226403   1.431   2.892   0.462
 8502SOL     OW26404   1.942   4.647   0.681
 8502SOL    HW126405   1.931   4.548   0.689
 8502SOL    HW226406   2.030   4.673   0.721
 8503SOL     OW26407   1.043   5.578   3.145
 8503SOL    HW126408   0.965   5.516   3.153
 8503SOL    HW226409   1.075   5.604   3.236
 8504SOL     OW26410   1.858   6.479   3.784
 8504SOL    HW126411   1.778   6.495   3.843
 8504SOL    HW226412   1.912   6.404   3.823
 8505SOL     OW26413   5.123   3.873   3.756
 8505SOL    HW126414   5.170   3.805   3.701
 8505SOL    HW226415   5.024   3.863   3.744
 8506SOL     OW26416   0.802   0.256   0.835
 8506SOL    HW126417   0.837   0.208   0.915
 8506SOL    HW226418   0.827   0.352   0.839
 8507SOL     OW26419   2.692   0.826   5.630
 8507SOL    HW126420   2.686   0.727   5.645
 8507SOL    HW226421   2.785   0.857   5.651
 8508SOL     OW26422   0.241   2.666   4.880
 8508SOL    HW126423   0.168   2.637   4.942
 8508SOL    HW226424   0.252   2.598   4.808
 8509SOL     OW26425   5.677   1.494   4.111
 8509SOL    HW126426   5.596   1.553   4.111
 8509SOL    HW226427   5.708   1.479   4.205
 8510SOL     OW26428   5.672   4.417   3.197
 8510SOL    HW126429   5.731   4.336   3.191
 8510SOL    HW226430   5.577   4.390   3.190
 8511SOL     OW26431   5.679   3.866   1.705
 8511SOL    HW126432   5.779   3.875   1.700
 8511SOL    HW226433   5.637   3.926   1.637
 8512SOL     OW26434   3.535   1.846   6.851
 8512SOL    HW126435   3.563   1.765   6.800
 8512SOL    HW226436   3.597   1.922   6.831
 8513SOL     OW26437   4.528   3.958   1.439
 8513SOL    HW126438   4.467   3.954   1.519
 8513SOL    HW226439   4.619   3.926   1.465
 8514SOL     OW26440   2.559   2.440   3.458
 8514SOL    HW126441   2.547   2.489   3.545
 8514SOL    HW226442   2.631   2.371   3.468
 8515SOL     OW26443   6.923   0.800   6.967
 8515SOL    HW126444   6.930   0.896   6.995
 8515SOL    HW226445   6.827   0.777   6.949
 8516SOL     OW26446   6.164   2.563   1.760
 8516SOL    HW126447   6.214   2.506   1.695
 8516SOL    HW226448   6.090   2.610   1.713
 8517SOL     OW26449   1.925   2.369   5.900
 8517SOL    HW126450   1.962   2.452   5.859
 8517SOL    HW226451   1.954   2.362   5.995
 8518SOL     OW26452   5.346   4.363   5.888
 8518SOL    HW126453   5.272   4.430   5.891
 8518SOL    HW226454   5.309   4.272   5.907
 8519SOL     OW26455   0.990   5.176   0.801
 8519SOL    HW126456   1.016   5.243   0.870
 8519SOL    HW226457   0.893   5.188   0.777
 8520SOL     OW26458   2.914   2.854   6.825
 8520SOL    HW126459   2.852   2.792   6.777
 8520SOL    HW226460   2.862   2.930   6.864
 8521SOL     OW26461   2.284   4.925   5.692
 8521SOL    HW126462   2.318   4.867   5.766
 8521SOL    HW226463   2.243   4.866   5.621
 8522SOL     OW26464   0.553   6.923   1.497
 8522SOL    HW126465   0.609   6.921   1.413
 8522SOL    HW226466   0.532   6.830   1.525
 8523SOL     OW26467   2.018   6.224   6.836
 8523SOL    HW126468   1.921   6.206   6.821
 8523SOL    HW226469   2.072   6.175   6.768
 8524SOL     OW26470   0.932   3.160   4.878
 8524SOL    HW126471   0.947   3.144   4.976
 8524SOL    HW226472   0.911   3.073   4.833
 8525SOL     OW26473   5.931   4.623   1.919
 8525SOL    HW126474   5.938   4.723   1.920
 8525SOL    HW226475   5.938   4.591   1.825
 8526SOL     OW26476   3.777   6.069   0.833
 8526SOL    HW126477   3.855   6.014   0.862
 8526SOL    HW226478   3.808   6.147   0.779
 8527SOL     OW26479   3.446   0.412   0.133
 8527SOL    HW126480   3.430   0.365   0.046
 8527SOL    HW226481   3.441   0.511   0.120
 8528SOL     OW26482   3.733   1.294   0.414
 8528SOL    HW126483   3.660   1.282   0.481
 8528SOL    HW226484   3.695   1.289   0.322
 8529SOL     OW26485   1.126   0.186   0.733
 8529SOL    HW126486   1.165   0.205   0.823
 8529SOL    HW226487   1.026   0.199   0.736
 8530SOL     OW26488   3.808   3.741   4.794
 8530SOL    HW126489   3.782   3.648   4.821
 8530SOL    HW226490   3.907   3.751   4.803
 8531SOL     OW26491   0.212   5.459   2.593
 8531SOL    HW126492   0.165   5.383   2.638
 8531SOL    HW226493   0.147   5.508   2.535
 8532SOL     OW26494   3.939   5.756   4.811
 8532SOL    HW126495   3.845   5.743   4.780
 8532SOL    HW226496   3.952   5.712   4.900
 8533SOL     OW26497   1.987   5.634   0.147
 8533SOL    HW126498   1.905   5.637   0.205
 8533SOL    HW226499   1.972   5.690   0.066
 8534SOL     OW26500   4.617   2.556   4.025
 8534SOL    HW126501   4.573   2.486   3.968
 8534SOL    HW226502   4.713   2.563   4.001
 8535SOL     OW26503   6.247   1.467   3.652
 8535SOL    HW126504   6.200   1.539   3.601
 8535SOL    HW226505   6.281   1.504   3.738
 8536SOL     OW26506   0.512   1.657   4.804
 8536SOL    HW126507   0.479   1.695   4.717
 8536SOL    HW226508   0.495   1.723   4.877
 8537SOL     OW26509   5.320   1.061   3.494
 8537SOL    HW126510   5.368   1.149   3.497
 8537SOL    HW226511   5.259   1.053   3.573
 8538SOL     OW26512   1.825   0.957   0.205
 8538SOL    HW126513   1.776   1.008   0.276
 8538SOL    HW226514   1.792   0.985   0.115
 8539SOL     OW26515   6.669   1.658   2.748
 8539SOL    HW126516   6.604   1.647   2.824
 8539SOL    HW226517   6.654   1.585   2.682
 8540SOL     OW26518   6.111   0.475   6.089
 8540SOL    HW126519   6.203   0.500   6.120
 8540SOL    HW226520   6.113   0.385   6.045
 8541SOL     OW26521   3.549   2.083   3.961
 8541SOL    HW126522   3.620   2.053   3.897
 8541SOL    HW226523   3.588   2.150   4.024
 8542SOL     OW26524   4.219   4.873   6.413
 8542SOL    HW126525   4.193   4.876   6.510
 8542SOL    HW226526   4.138   4.891   6.357
 8543SOL     OW26527   2.146   2.172   1.447
 8543SOL    HW126528   2.099   2.147   1.531
 8543SOL    HW226529   2.186   2.089   1.405
 8544SOL     OW26530   5.405   3.686   4.215
 8544SOL    HW126531   5.366   3.722   4.300
 8544SOL    HW226532   5.505   3.678   4.225
 8545SOL     OW26533   3.960   0.078   5.774
 8545SOL    HW126534   3.985   0.171   5.746
 8545SOL    HW226535   3.938   0.077   5.872
 8546SOL     OW26536   5.674   1.786   4.256
 8546SOL    HW126537   5.732   1.793   4.176
 8546SOL    HW226538   5.578   1.797   4.229
 8547SOL     OW26539   0.370   6.732   5.581
 8547SOL    HW126540   0.336   6.745   5.674
 8547SOL    HW226541   0.470   6.740   5.580
 8548SOL     OW26542   5.879   2.910   5.371
 8548SOL    HW126543   5.793   2.926   5.420
 8548SOL    HW226544   5.949   2.973   5.405
 8549SOL     OW26545   0.550   3.432   4.089
 8549SOL    HW126546   0.524   3.371   4.014
 8549SOL    HW226547   0.549   3.527   4.057
 8550SOL     OW26548   1.712   4.528   6.540
 8550SOL    HW126549   1.796   4.524   6.487
 8550SOL    HW226550   1.719   4.601   6.608
 8551SOL     OW26551   3.912   3.560   5.975
 8551SOL    HW126552   3.919   3.460   5.971
 8551SOL    HW226553   3.857   3.593   5.898
 8552SOL     OW26554   2.607   6.006   3.941
 8552SOL    HW126555   2.607   5.909   3.967
 8552SOL    HW226556   2.547   6.057   4.002
 8553SOL     OW26557   4.984   5.170   6.201
 8553SOL    HW126558   4.981   5.201   6.106
 8553SOL    HW226559   4.905   5.112   6.220
 8554SOL     OW26560   0.750   4.698   0.040
 8554SOL    HW126561   0.844   4.666   0.051
 8554SOL    HW226562   0.747   4.771   6.997
 8555SOL     OW26563   0.758   7.020   3.176
 8555SOL    HW126564   0.664   0.021   3.157
 8555SOL    HW226565   0.758   6.943   3.240
 8556SOL     OW26566   0.857   6.779   3.779
 8556SOL    HW126567   0.894   6.768   3.871
 8556SOL    HW226568   0.921   6.830   3.723
 8557SOL     OW26569   6.516   1.237   2.341
 8557SOL    HW126570   6.452   1.176   2.389
 8557SOL    HW226571   6.543   1.312   2.401
 8558SOL     OW26572   2.863   6.083   3.171
 8558SOL    HW126573   2.917   6.012   3.218
 8558SOL    HW226574   2.827   6.147   3.238
 8559SOL     OW26575   5.967   0.885   2.034
 8559SOL    HW126576   5.876   0.886   1.993
 8559SOL    HW226577   5.980   0.967   2.090
 8560SOL     OW26578   0.021   0.328   1.374
 8560SOL    HW126579   7.008   0.304   1.463
 8560SOL    HW226580   0.010   0.426   1.357
 8561SOL     OW26581   3.216   6.148   1.681
 8561SOL    HW126582   3.220   6.110   1.589
 8561SOL    HW226583   3.306   6.142   1.724
 8562SOL     OW26584   5.047   6.345   4.762
 8562SOL    HW126585   5.024   6.308   4.852
 8562SOL    HW226586   5.122   6.410   4.770
 8563SOL     OW26587   2.623   3.609   0.236
 8563SOL    HW126588   2.635   3.700   0.196
 8563SOL    HW226589   2.633   3.540   0.164
 8564SOL     OW26590   2.620   0.928   3.770
 8564SOL    HW126591   2.692   0.970   3.715
 8564SOL    HW226592   2.531   0.953   3.733
 8565SOL     OW26593   4.749   6.903   1.926
 8565SOL    HW126594   4.783   6.996   1.941
 8565SOL    HW226595   4.814   6.838   1.966
 8566SOL     OW26596   1.163   0.648   2.117
 8566SOL    HW126597   1.107   0.720   2.076
 8566SOL    HW226598   1.258   0.678   2.122
 8567SOL     OW26599   6.955   1.883   2.248
 8567SOL    HW126600   6.941   1.981   2.233
 8567SOL    HW226601   0.025   1.861   2.235
 8568SOL     OW26602   4.597   0.744   5.993
 8568SOL    HW126603   4.689   0.707   5.984
 8568SOL    HW226604   4.602   0.843   6.010
 8569SOL     OW26605   4.993   1.548   5.691
 8569SOL    HW126606   4.935   1.470   5.715
 8569SOL    HW226607   5.058   1.521   5.620
 8570SOL     OW26608   0.937   2.433   5.958
 8570SOL    HW126609   0.926   2.529   5.983
 8570SOL    HW226610   0.925   2.376   6.039
 8571SOL     OW26611   0.330   5.384   6.055
 8571SOL    HW126612   0.230   5.381   6.061
 8571SOL    HW226613   0.370   5.365   6.144
 8572SOL     OW26614   3.295   5.209   6.659
 8572SOL    HW126615   3.289   5.303   6.692
 8572SOL    HW226616   3.391   5.182   6.651
 8573SOL     OW26617   3.431   6.397   6.359
 8573SOL    HW126618   3.424   6.437   6.451
 8573SOL    HW226619   3.508   6.437   6.311
 8574SOL     OW26620   6.896   5.144   5.964
 8574SOL    HW126621   6.930   5.234   5.938
 8574SOL    HW226622   6.857   5.147   6.056
 8575SOL     OW26623   3.616   2.342   6.524
 8575SOL    HW126624   3.675   2.419   6.546
 8575SOL    HW226625   3.521   2.367   6.540
 8576SOL     OW26626   0.790   6.351   0.914
 8576SOL    HW126627   0.816   6.394   0.827
 8576SOL    HW226628   0.847   6.271   0.930
 8577SOL     OW26629   6.402   5.330   4.264
 8577SOL    HW126630   6.325   5.332   4.201
 8577SOL    HW226631   6.459   5.250   4.245
 8578SOL     OW26632   4.671   0.554   4.584
 8578SOL    HW126633   4.695   0.650   4.568
 8578SOL    HW226634   4.752   0.504   4.614
 8579SOL     OW26635   1.432   6.282   3.936
 8579SOL    HW126636   1.370   6.307   3.861
 8579SOL    HW226637   1.505   6.225   3.900
 8580SOL     OW26638   2.325   6.904   2.159
 8580SOL    HW126639   2.400   6.921   2.224
 8580SOL    HW226640   2.289   6.992   2.126
 8581SOL     OW26641   3.390   2.684   1.717
 8581SOL    HW126642   3.389   2.585   1.707
 8581SOL    HW226643   3.384   2.708   1.814
 8582SOL     OW26644   4.212   4.663   1.859
 8582SOL    HW126645   4.208   4.593   1.787
 8582SOL    HW226646   4.121   4.703   1.871
 8583SOL     OW26647   5.836   0.925   6.280
 8583SOL    HW126648   5.766   0.974   6.227
 8583SOL    HW226649   5.926   0.941   6.239
 8584SOL     OW26650   0.474   3.668   6.200
 8584SOL    HW126651   0.512   3.753   6.238
 8584SOL    HW226652   0.444   3.684   6.106
 8585SOL     OW26653   6.871   6.965   6.798
 8585SOL    HW126654   6.876   0.028   6.754
 8585SOL    HW226655   6.919   6.967   6.885
 8586SOL     OW26656   2.749   6.866   3.764
 8586SOL    HW126657   2.793   6.846   3.676
 8586SOL    HW226658   2.749   6.964   3.780
 8587SOL     OW26659   1.848   0.234   2.959
 8587SOL    HW126660   1.800   0.321   2.943
 8587SOL    HW226661   1.807   0.163   2.903
 8588SOL     OW26662   2.740   0.769   6.618
 8588SOL    HW126663   2.751   0.800   6.712
 8588SOL    HW226664   2.664   0.704   6.612
 8589SOL     OW26665   4.619   2.626   4.462
 8589SOL    HW126666   4.599   2.645   4.558
 8589SOL    HW226667   4.682   2.548   4.456
 8590SOL     OW26668   6.737   6.072   4.483
 8590SOL    HW126669   6.794   6.131   4.425
 8590SOL    HW226670   6.754   6.094   4.579
 8591SOL     OW26671   0.985   5.389   6.262
 8591SOL    HW126672   0.973   5.463   6.195
 8591SOL    HW226673   1.070   5.403   6.313
 8592SOL     OW26674   6.583   4.195   0.073
 8592SOL    HW126675   6.680   4.209   0.091
 8592SOL    HW226676   6.554   4.254   7.025
 8593SOL     OW26677   1.142   6.870   2.928
 8593SOL    HW126678   1.122   6.955   2.977
 8593SOL    HW226679   1.084   6.865   2.847
 8594SOL     OW26680   3.542   3.346   5.116
 8594SOL    HW126681   3.562   3.443   5.108
 8594SOL    HW226682   3.456   3.325   5.069
 8595SOL     OW26683   2.126   1.412   2.846
 8595SOL    HW126684   2.055   1.474   2.812
 8595SOL    HW226685   2.101   1.317   2.824
 8596SOL     OW26686   6.135   5.949   2.510
 8596SOL    HW126687   6.152   5.852   2.496
 8596SOL    HW226688   6.066   5.980   2.445
 8597SOL     OW26689   3.945   2.224   1.258
 8597SOL    HW126690   3.889   2.298   1.294
 8597SOL    HW226691   3.886   2.148   1.231
 8598SOL     OW26692   0.502   5.571   1.248
 8598SOL    HW126693   0.513   5.566   1.149
 8598SOL    HW226694   0.511   5.665   1.279
 8599SOL     OW26695   1.128   2.858   4.083
 8599SOL    HW126696   1.218   2.861   4.040
 8599SOL    HW226697   1.138   2.833   4.179
 8600SOL     OW26698   5.464   5.368   6.551
 8600SOL    HW126699   5.465   5.275   6.513
 8600SOL    HW226700   5.388   5.419   6.511
 8601SOL     OW26701   1.205   0.546   5.064
 8601SOL    HW126702   1.291   0.594   5.078
 8601SOL    HW226703   1.165   0.574   4.978
 8602SOL     OW26704   2.573   6.456   2.690
 8602SOL    HW126705   2.522   6.402   2.757
 8602SOL    HW226706   2.565   6.413   2.600
 8603SOL     OW26707   3.454   4.320   0.168
 8603SOL    HW126708   3.395   4.395   0.138
 8603SOL    HW226709   3.414   4.274   0.247
 8604SOL     OW26710   6.850   2.857   3.284
 8604SOL    HW126711   6.760   2.879   3.247
 8604SOL    HW226712   6.919   2.918   3.243
 8605SOL     OW26713   3.051   4.917   4.430
 8605SOL    HW126714   2.998   4.835   4.409
 8605SOL    HW226715   3.109   4.899   4.509
 8606SOL     OW26716   2.325   4.410   5.772
 8606SOL    HW126717   2.336   4.348   5.694
 8606SOL    HW226718   2.235   4.453   5.768
 8607SOL     OW26719   3.004   4.811   0.999
 8607SOL    HW126720   2.913   4.817   0.958
 8607SOL    HW226721   3.062   4.884   0.963
 8608SOL     OW26722   4.564   5.296   3.038
 8608SOL    HW126723   4.498   5.351   3.088
 8608SOL    HW226724   4.516   5.226   2.986
 8609SOL     OW26725   4.449   0.452   3.898
 8609SOL    HW126726   4.381   0.433   3.969
 8609SOL    HW226727   4.476   0.548   3.901
 8610SOL     OW26728   1.428   0.557   2.502
 8610SOL    HW126729   1.505   0.545   2.564
 8610SOL    HW226730   1.365   0.480   2.512
 8611SOL     OW26731   1.812   2.515   3.700
 8611SOL    HW126732   1.841   2.536   3.794
 8611SOL    HW226733   1.839   2.589   3.639
 8612SOL     OW26734   2.936   3.385   0.199
 8612SOL    HW126735   2.883   3.351   0.277
 8612SOL    HW226736   2.878   3.386   0.118
 8613SOL     OW26737   2.525   2.183   1.653
 8613SOL    HW126738   2.446   2.243   1.641
 8613SOL    HW226739   2.544   2.172   1.751
 8614SOL     OW26740   0.912   3.274   2.961
 8614SOL    HW126741   0.957   3.185   2.957
 8614SOL    HW226742   0.823   3.269   2.915
 8615SOL     OW26743   5.039   1.801   5.082
 8615SOL    HW126744   4.970   1.787   5.153
 8615SOL    HW226745   5.102   1.873   5.110
 8616SOL     OW26746   1.701   5.170   1.380
 8616SOL    HW126747   1.640   5.195   1.455
 8616SOL    HW226748   1.770   5.105   1.414
 8617SOL     OW26749   6.234   1.535   0.307
 8617SOL    HW126750   6.172   1.599   0.262
 8617SOL    HW226751   6.326   1.548   0.270
 8618SOL     OW26752   5.323   6.956   1.076
 8618SOL    HW126753   5.245   7.018   1.067
 8618SOL    HW226754   5.372   6.951   0.989
 8619SOL     OW26755   3.337   4.966   1.245
 8619SOL    HW126756   3.369   5.006   1.331
 8619SOL    HW226757   3.402   4.988   1.171
 8620SOL     OW26758   6.455   6.949   3.199
 8620SOL    HW126759   6.518   7.017   3.234
 8620SOL    HW226760   6.506   6.868   3.168
 8621SOL     OW26761   5.709   2.001   3.380
 8621SOL    HW126762   5.632   1.937   3.375
 8621SOL    HW226763   5.676   2.090   3.410
 8622SOL     OW26764   4.795   4.592   0.510
 8622SOL    HW126765   4.861   4.559   0.442
 8622SOL    HW226766   4.799   4.692   0.514
 8623SOL     OW26767   0.124   4.452   2.951
 8623SOL    HW126768   0.090   4.372   2.903
 8623SOL    HW226769   0.223   4.445   2.963
 8624SOL     OW26770   0.784   4.089   3.577
 8624SOL    HW126771   0.864   4.150   3.582
 8624SOL    HW226772   0.723   4.119   3.504
 8625SOL     OW26773   4.840   0.254   4.948
 8625SOL    HW126774   4.754   0.277   4.903
 8625SOL    HW226775   4.865   0.328   5.010
 8626SOL     OW26776   3.406   2.896   4.507
 8626SOL    HW126777   3.360   2.839   4.439
 8626SOL    HW226778   3.344   2.915   4.583
 8627SOL     OW26779   0.853   0.359   3.232
 8627SOL    HW126780   0.807   0.404   3.308
 8627SOL    HW226781   0.941   0.322   3.264
 8628SOL     OW26782   6.131   6.918   1.979
 8628SOL    HW126783   6.200   6.976   2.022
 8628SOL    HW226784   6.044   6.966   1.974
 8629SOL     OW26785   1.897   5.586   4.532
 8629SOL    HW126786   1.917   5.597   4.629
 8629SOL    HW226787   1.930   5.497   4.501
 8630SOL     OW26788   5.930   4.031   4.332
 8630SOL    HW126789   5.892   3.945   4.299
 8630SOL    HW226790   6.030   4.026   4.333
 8631SOL     OW26791   3.719   5.455   6.602
 8631SOL    HW126792   3.801   5.450   6.546
 8631SOL    HW226793   3.639   5.463   6.543
 8632SOL     OW26794   3.640   6.203   3.728
 8632SOL    HW126795   3.695   6.284   3.709
 8632SOL    HW226796   3.600   6.210   3.820
 8633SOL     OW26797   5.426   1.001   4.696
 8633SOL    HW126798   5.431   0.946   4.613
 8633SOL    HW226799   5.499   0.974   4.759
 8634SOL     OW26800   6.098   3.236   0.876
 8634SOL    HW126801   6.029   3.180   0.829
 8634SOL    HW226802   6.078   3.333   0.863
 8635SOL     OW26803   5.925   4.224   5.806
 8635SOL    HW126804   5.930   4.125   5.810
 8635SOL    HW226805   6.016   4.261   5.787
 8636SOL     OW26806   5.468   5.296   0.090
 8636SOL    HW126807   5.531   5.361   0.047
 8636SOL    HW226808   5.399   5.267   0.024
 8637SOL     OW26809   2.293   0.792   0.401
 8637SOL    HW126810   2.261   0.796   0.496
 8637SOL    HW226811   2.285   0.882   0.359
 8638SOL     OW26812   1.842   3.296   6.931
 8638SOL    HW126813   1.854   3.297   0.003
 8638SOL    HW226814   1.929   3.275   6.886
 8639SOL     OW26815   6.065   2.523   2.050
 8639SOL    HW126816   6.141   2.524   1.985
 8639SOL    HW226817   5.982   2.555   2.005
 8640SOL     OW26818   4.680   4.045   0.484
 8640SOL    HW126819   4.707   4.093   0.401
 8640SOL    HW226820   4.696   3.947   0.472
 8641SOL     OW26821   6.734   4.512   4.399
 8641SOL    HW126822   6.724   4.416   4.425
 8641SOL    HW226823   6.738   4.520   4.300
 8642SOL     OW26824   4.292   0.403   2.513
 8642SOL    HW126825   4.267   0.327   2.453
 8642SOL    HW226826   4.377   0.445   2.480
 8643SOL     OW26827   4.434   0.159   6.835
 8643SOL    HW126828   4.339   0.148   6.805
 8643SOL    HW226829   4.435   0.190   6.930
 8644SOL     OW26830   4.549   2.558   5.717
 8644SOL    HW126831   4.591   2.559   5.626
 8644SOL    HW226832   4.568   2.645   5.764
 8645SOL     OW26833   5.427   4.472   1.363
 8645SOL    HW126834   5.395   4.458   1.456
 8645SOL    HW226835   5.432   4.570   1.343
 8646SOL     OW26836   6.491   1.610   1.308
 8646SOL    HW126837   6.398   1.586   1.336
 8646SOL    HW226838   6.553   1.534   1.328
 8647SOL     OW26839   3.441   4.997   6.385
 8647SOL    HW126840   3.430   4.977   6.483
 8647SOL    HW226841   3.352   5.015   6.345
 8648SOL     OW26842   5.967   1.105   4.550
 8648SOL    HW126843   6.009   1.185   4.594
 8648SOL    HW226844   5.872   1.098   4.578
 8649SOL     OW26845   5.814   5.363   6.042
 8649SOL    HW126846   5.730   5.345   6.092
 8649SOL    HW226847   5.796   5.361   5.944
 8650SOL     OW26848   1.902   4.530   4.959
 8650SOL    HW126849   1.962   4.469   4.908
 8650SOL    HW226850   1.955   4.610   4.989
 8651SOL     OW26851   3.652   0.935   0.655
 8651SOL    HW126852   3.719   0.892   0.715
 8651SOL    HW226853   3.681   0.926   0.560
 8652SOL     OW26854   1.335   3.770   2.676
 8652SOL    HW126855   1.400   3.822   2.621
 8652SOL    HW226856   1.303   3.826   2.753
 8653SOL     OW26857   5.504   1.706   5.889
 8653SOL    HW126858   5.600   1.678   5.896
 8653SOL    HW226859   5.474   1.698   5.794
 8654SOL     OW26860   1.400   6.133   2.017
 8654SOL    HW126861   1.417   6.227   2.046
 8654SOL    HW226862   1.450   6.115   1.933
 8655SOL     OW26863   6.367   0.648   4.052
 8655SOL    HW126864   6.273   0.671   4.077
 8655SOL    HW226865   6.400   0.713   3.983
 8656SOL     OW26866   6.795   1.007   0.676
 8656SOL    HW126867   6.837   0.942   0.739
 8656SOL    HW226868   6.770   0.959   0.591
 8657SOL     OW26869   4.368   4.960   6.975
 8657SOL    HW126870   4.447   4.977   6.915
 8657SOL    HW226871   4.301   5.033   6.962
 8658SOL     OW26872   4.996   6.180   0.090
 8658SOL    HW126873   5.084   6.157   0.048
 8658SOL    HW226874   5.003   6.173   0.189
 8659SOL     OW26875   4.213   0.985   3.191
 8659SOL    HW126876   4.204   0.919   3.116
 8659SOL    HW226877   4.219   1.077   3.153
 8660SOL     OW26878   5.486   3.277   0.666
 8660SOL    HW126879   5.515   3.361   0.710
 8660SOL    HW226880   5.508   3.199   0.725
 8661SOL     OW26881   5.536   4.062   1.009
 8661SOL    HW126882   5.577   4.049   1.099
 8661SOL    HW226883   5.597   4.026   0.938
 8662SOL     OW26884   5.088   6.109   1.562
 8662SOL    HW126885   5.006   6.052   1.556
 8662SOL    HW226886   5.098   6.164   1.479
 8663SOL     OW26887   2.544   6.045   1.095
 8663SOL    HW126888   2.511   6.139   1.105
 8663SOL    HW226889   2.490   5.985   1.154
 8664SOL     OW26890   3.494   5.819   0.932
 8664SOL    HW126891   3.517   5.796   0.837
 8664SOL    HW226892   3.518   5.914   0.949
 8665SOL     OW26893   5.742   5.937   5.516
 8665SOL    HW126894   5.810   5.876   5.475
 8665SOL    HW226895   5.709   5.898   5.602
 8666SOL     OW26896   5.598   1.980   5.224
 8666SOL    HW126897   5.597   2.073   5.259
 8666SOL    HW226898   5.532   1.924   5.274
 8667SOL     OW26899   4.429   2.414   2.836
 8667SOL    HW126900   4.497   2.349   2.870
 8667SOL    HW226901   4.466   2.463   2.757
 8668SOL     OW26902   5.338   3.318   3.284
 8668SOL    HW126903   5.303   3.387   3.221
 8668SOL    HW226904   5.278   3.313   3.364
 8669SOL     OW26905   2.591   6.683   6.724
 8669SOL    HW126906   2.529   6.761   6.733
 8669SOL    HW226907   2.649   6.695   6.644
 8670SOL     OW26908   3.649   4.441   5.927
 8670SOL    HW126909   3.593   4.384   5.989
 8670SOL    HW226910   3.607   4.531   5.919
 8671SOL     OW26911   5.762   1.793   3.161
 8671SOL    HW126912   5.782   1.716   3.222
 8671SOL    HW226913   5.776   1.879   3.211
 8672SOL     OW26914   2.483   5.364   3.344
 8672SOL    HW126915   2.574   5.330   3.368
 8672SOL    HW226916   2.486   5.404   3.252
 8673SOL     OW26917   6.803   1.655   6.641
 8673SOL    HW126918   6.798   1.734   6.580
 8673SOL    HW226919   6.803   1.686   6.736
 8674SOL     OW26920   6.185   5.652   1.684
 8674SOL    HW126921   6.185   5.751   1.701
 8674SOL    HW226922   6.270   5.626   1.639
 8675SOL     OW26923   3.801   1.831   4.951
 8675SOL    HW126924   3.785   1.900   5.022
 8675SOL    HW226925   3.716   1.814   4.901
 8676SOL     OW26926   4.213   6.620   3.000
 8676SOL    HW126927   4.128   6.625   3.052
 8676SOL    HW226928   4.218   6.532   2.953
 8677SOL     OW26929   2.564   6.336   5.564
 8677SOL    HW126930   2.661   6.353   5.550
 8677SOL    HW226931   2.517   6.338   5.476
 8678SOL     OW26932   0.131   0.484   1.037
 8678SOL    HW126933   0.044   0.449   1.002
 8678SOL    HW226934   0.131   0.584   1.034
 8679SOL     OW26935   6.545   3.239   4.607
 8679SOL    HW126936   6.454   3.281   4.600
 8679SOL    HW226937   6.569   3.229   4.703
 8680SOL     OW26938   0.234   4.027   2.008
 8680SOL    HW126939   0.163   4.067   2.066
 8680SOL    HW226940   0.196   3.951   1.956
 8681SOL     OW26941   4.467   5.208   0.106
 8681SOL    HW126942   4.469   5.124   0.160
 8681SOL    HW226943   4.400   5.271   0.145
 8682SOL     OW26944   4.391   6.654   1.877
 8682SOL    HW126945   4.394   6.567   1.828
 8682SOL    HW226946   4.461   6.653   1.949
 8683SOL     OW26947   1.444   2.707   2.233
 8683SOL    HW126948   1.493   2.743   2.154
 8683SOL    HW226949   1.346   2.720   2.221
 8684SOL     OW26950   0.324   2.894   4.968
 8684SOL    HW126951   0.423   2.906   4.978
 8684SOL    HW226952   0.306   2.803   4.929
 8685SOL     OW26953   1.398   2.661   5.747
 8685SOL    HW126954   1.328   2.617   5.803
 8685SOL    HW226955   1.484   2.612   5.755
 8686SOL     OW26956   0.150   1.618   1.663
 8686SOL    HW126957   0.095   1.671   1.599
 8686SOL    HW226958   0.096   1.541   1.697
 8687SOL     OW26959   3.406   5.760   2.717
 8687SOL    HW126960   3.364   5.848   2.737
 8687SOL    HW226961   3.354   5.714   2.645
 8688SOL     OW26962   3.118   6.356   0.235
 8688SOL    HW126963   3.088   6.261   0.224
 8688SOL    HW226964   3.039   6.415   0.253
 8689SOL     OW26965   3.787   4.970   0.373
 8689SOL    HW126966   3.757   5.050   0.321
 8689SOL    HW226967   3.760   4.886   0.325
 8690SOL     OW26968   1.871   2.558   3.364
 8690SOL    HW126969   1.809   2.627   3.402
 8690SOL    HW226970   1.944   2.540   3.430
 8691SOL     OW26971   3.952   2.654   6.499
 8691SOL    HW126972   3.973   2.580   6.563
 8691SOL    HW226973   4.025   2.722   6.501
 8692SOL     OW26974   3.916   2.149   2.809
 8692SOL    HW126975   3.911   2.109   2.717
 8692SOL    HW226976   4.002   2.200   2.819
 8693SOL     OW26977   5.778   1.589   0.954
 8693SOL    HW126978   5.701   1.549   1.005
 8693SOL    HW226979   5.791   1.538   0.869
 8694SOL     OW26980   3.987   1.240   5.338
 8694SOL    HW126981   3.968   1.149   5.372
 8694SOL    HW226982   3.967   1.244   5.240
 8695SOL     OW26983   4.615   3.256   6.157
 8695SOL    HW126984   4.530   3.295   6.123
 8695SOL    HW226985   4.692   3.290   6.102
 8696SOL     OW26986   2.825   5.532   0.487
 8696SOL    HW126987   2.786   5.518   0.396
 8696SOL    HW226988   2.921   5.503   0.487
 8697SOL     OW26989   6.095   3.458   0.254
 8697SOL    HW126990   6.140   3.376   0.217
 8697SOL    HW226991   6.163   3.530   0.269
 8698SOL     OW26992   6.181   5.746   4.270
 8698SOL    HW126993   6.132   5.748   4.183
 8698SOL    HW226994   6.119   5.721   4.344
 8699SOL     OW26995   1.853   2.895   5.720
 8699SOL    HW126996   1.777   2.950   5.687
 8699SOL    HW226997   1.829   2.853   5.807
 8700SOL     OW26998   1.469   1.160   4.518
 8700SOL    HW126999   1.422   1.248   4.511
 8700SOL    HW227000   1.441   1.101   4.442
 8701SOL     OW27001   1.732   0.404   6.494
 8701SOL    HW127002   1.671   0.394   6.573
 8701SOL    HW227003   1.682   0.379   6.410
 8702SOL     OW27004   5.562   4.783   0.351
 8702SOL    HW127005   5.648   4.826   0.323
 8702SOL    HW227006   5.499   4.782   0.273
 8703SOL     OW27007   2.724   5.449   1.353
 8703SOL    HW127008   2.657   5.494   1.293
 8703SOL    HW227009   2.785   5.393   1.298
 8704SOL     OW27010   6.450   3.745   2.712
 8704SOL    HW127011   6.439   3.842   2.732
 8704SOL    HW227012   6.371   3.713   2.659
 8705SOL     OW27013   4.927   0.796   0.951
 8705SOL    HW127014   4.928   0.771   0.854
 8705SOL    HW227015   5.014   0.771   0.993
 8706SOL     OW27016   4.674   1.839   6.427
 8706SOL    HW127017   4.664   1.908   6.499
 8706SOL    HW227018   4.679   1.748   6.469
 8707SOL     OW27019   5.394   1.982   0.097
 8707SOL    HW127020   5.371   1.983   7.026
 8707SOL    HW227021   5.315   1.953   0.150
 8708SOL     OW27022   4.144   2.208   2.263
 8708SOL    HW127023   4.087   2.165   2.193
 8708SOL    HW227024   4.097   2.289   2.299
 8709SOL     OW27025   6.925   6.021   6.260
 8709SOL    HW127026   6.938   6.102   6.203
 8709SOL    HW227027   6.995   6.019   6.332
 8710SOL     OW27028   2.109   3.559   3.145
 8710SOL    HW127029   2.107   3.629   3.074
 8710SOL    HW227030   2.130   3.470   3.104
 8711SOL     OW27031   0.540   5.601   2.643
 8711SOL    HW127032   0.543   5.681   2.583
 8711SOL    HW227033   0.487   5.529   2.600
 8712SOL     OW27034   4.110   2.226   4.464
 8712SOL    HW127035   4.143   2.136   4.436
 8712SOL    HW227036   4.188   2.289   4.467
 8713SOL     OW27037   0.395   4.260   3.460
 8713SOL    HW127038   0.323   4.191   3.469
 8713SOL    HW227039   0.359   4.349   3.486
 8714SOL     OW27040   6.995   1.356   6.252
 8714SOL    HW127041   7.015   1.406   6.337
 8714SOL    HW227042   6.913   1.300   6.266
 8715SOL     OW27043   5.500   0.027   0.457
 8715SOL    HW127044   5.515   6.956   0.473
 8715SOL    HW227045   5.542   0.079   0.531
 8716SOL     OW27046   0.915   0.124   1.501
 8716SOL    HW127047   0.887   0.069   1.580
 8716SOL    HW227048   0.843   0.190   1.479
 8717SOL     OW27049   3.517   3.503   2.895
 8717SOL    HW127050   3.527   3.452   2.810
 8717SOL    HW227051   3.577   3.462   2.965
 8718SOL     OW27052   0.395   3.426   5.168
 8718SOL    HW127053   0.306   3.430   5.213
 8718SOL    HW227054   0.454   3.497   5.206
 8719SOL     OW27055   2.035   6.724   6.083
 8719SOL    HW127056   2.116   6.781   6.071
 8719SOL    HW227057   2.014   6.677   5.998
 8720SOL     OW27058   6.956   4.680   5.557
 8720SOL    HW127059   7.009   4.597   5.541
 8720SOL    HW227060   6.976   4.714   5.649
 8721SOL     OW27061   5.841   2.193   3.901
 8721SOL    HW127062   5.798   2.194   3.991
 8721SOL    HW227063   5.893   2.109   3.889
 8722SOL     OW27064   3.865   0.732   0.591
 8722SOL    HW127065   3.898   0.653   0.539
 8722SOL    HW227066   3.849   0.809   0.530
 8723SOL     OW27067   4.905   5.356   1.206
 8723SOL    HW127068   4.860   5.299   1.275
 8723SOL    HW227069   5.000   5.327   1.196
 8724SOL     OW27070   6.096   6.392   5.578
 8724SOL    HW127071   6.103   6.444   5.492
 8724SOL    HW227072   6.000   6.374   5.598
 8725SOL     OW27073   2.470   0.252   6.574
 8725SOL    HW127074   2.516   0.272   6.661
 8725SOL    HW227075   2.373   0.275   6.582
 8726SOL     OW27076   6.648   0.987   2.001
 8726SOL    HW127077   6.691   0.964   2.088
 8726SOL    HW227078   6.713   0.970   1.927
 8727SOL     OW27079   0.171   6.092   1.753
 8727SOL    HW127080   0.077   6.113   1.726
 8727SOL    HW227081   0.235   6.140   1.694
 8728SOL     OW27082   4.274   0.447   4.483
 8728SOL    HW127083   4.285   0.364   4.538
 8728SOL    HW227084   4.258   0.525   4.544
 8729SOL     OW27085   4.906   6.030   3.380
 8729SOL    HW127086   4.928   6.106   3.318
 8729SOL    HW227087   4.811   6.036   3.409
 8730SOL     OW27088   6.742   4.429   2.168
 8730SOL    HW127089   6.777   4.380   2.248
 8730SOL    HW227090   6.703   4.516   2.196
 8731SOL     OW27091   2.348   2.109   2.706
 8731SOL    HW127092   2.302   2.021   2.717
 8731SOL    HW227093   2.418   2.101   2.635
 8732SOL     OW27094   5.358   4.020   1.463
 8732SOL    HW127095   5.298   4.077   1.519
 8732SOL    HW227096   5.311   3.936   1.437
 8733SOL     OW27097   1.568   5.703   3.042
 8733SOL    HW127098   1.558   5.712   3.141
 8733SOL    HW227099   1.499   5.640   3.007
 8734SOL     OW27100   1.139   4.630   1.673
 8734SOL    HW127101   1.183   4.617   1.584
 8734SOL    HW227102   1.061   4.692   1.663
 8735SOL     OW27103   0.720   1.653   6.958
 8735SOL    HW127104   0.707   1.643   6.859
 8735SOL    HW227105   0.732   1.562   6.999
 8736SOL     OW27106   0.536   6.770   6.647
 8736SOL    HW127107   0.453   6.792   6.596
 8736SOL    HW227108   0.516   6.702   6.716
 8737SOL     OW27109   2.508   6.985   5.756
 8737SOL    HW127110   2.598   7.007   5.718
 8737SOL    HW227111   2.515   6.979   5.856
 8738SOL     OW27112   2.176   4.741   3.704
 8738SOL    HW127113   2.220   4.830   3.694
 8738SOL    HW227114   2.076   4.753   3.703
 8739SOL     OW27115   6.454   5.230   5.984
 8739SOL    HW127116   6.528   5.183   5.935
 8739SOL    HW227117   6.367   5.184   5.967
 8740SOL     OW27118   4.874   0.858   5.196
 8740SOL    HW127119   4.948   0.913   5.159
 8740SOL    HW227120   4.799   0.918   5.225
 8741SOL     OW27121   2.264   0.856   1.635
 8741SOL    HW127122   2.261   0.948   1.673
 8741SOL    HW227123   2.337   0.850   1.567
 8742SOL     OW27124   5.913   6.395   1.320
 8742SOL    HW127125   6.010   6.373   1.310
 8742SOL    HW227126   5.876   6.424   1.232
 8743SOL     OW27127   1.741   6.816   2.776
 8743SOL    HW127128   1.790   6.814   2.688
 8743SOL    HW227129   1.652   6.771   2.765
 8744SOL     OW27130   3.581   2.602   5.627
 8744SOL    HW127131   3.537   2.671   5.684
 8744SOL    HW227132   3.546   2.607   5.534
 8745SOL     OW27133   6.035   2.547   5.548
 8745SOL    HW127134   6.058   2.486   5.624
 8745SOL    HW227135   5.966   2.503   5.490
 8746SOL     OW27136   4.736   4.160   4.902
 8746SOL    HW127137   4.748   4.219   4.981
 8746SOL    HW227138   4.639   4.137   4.891
 8747SOL     OW27139   0.325   3.057   2.847
 8747SOL    HW127140   0.383   3.056   2.929
 8747SOL    HW227141   0.331   2.967   2.802
 8748SOL     OW27142   0.126   1.817   6.195
 8748SOL    HW127143   0.143   1.726   6.158
 8748SOL    HW227144   0.029   1.824   6.221
 8749SOL     OW27145   3.163   0.163   6.212
 8749SOL    HW127146   3.121   0.208   6.134
 8749SOL    HW227147   3.187   0.231   6.281
 8750SOL     OW27148   3.093   3.284   5.235
 8750SOL    HW127149   3.173   3.253   5.182
 8750SOL    HW227150   3.123   3.348   5.306
 8751SOL     OW27151   6.290   0.426   2.716
 8751SOL    HW127152   6.381   0.425   2.675
 8751SOL    HW227153   6.271   0.517   2.754
 8752SOL     OW27154   3.003   4.639   6.421
 8752SOL    HW127155   2.918   4.588   6.436
 8752SOL    HW227156   2.984   4.737   6.426
 8753SOL     OW27157   4.824   1.695   5.223
 8753SOL    HW127158   4.769   1.680   5.305
 8753SOL    HW227159   4.797   1.628   5.153
 8754SOL     OW27160   1.500   1.935   5.607
 8754SOL    HW127161   1.422   1.937   5.669
 8754SOL    HW227162   1.564   2.009   5.630
 8755SOL     OW27163   2.392   1.166   6.301
 8755SOL    HW127164   2.407   1.098   6.229
 8755SOL    HW227165   2.456   1.242   6.290
 8756SOL     OW27166   2.097   3.760   2.936
 8756SOL    HW127167   2.048   3.799   2.858
 8756SOL    HW227168   2.127   3.833   2.998
 8757SOL     OW27169   5.396   6.957   5.639
 8757SOL    HW127170   5.423   6.970   5.543
 8757SOL    HW227171   5.393   6.859   5.660
 8758SOL     OW27172   4.822   6.436   1.943
 8758SOL    HW127173   4.889   6.370   1.909
 8758SOL    HW227174   4.730   6.408   1.914
 8759SOL     OW27175   4.044   2.472   6.715
 8759SOL    HW127176   4.112   2.401   6.730
 8759SOL    HW227177   4.055   2.545   6.784
 8760SOL     OW27178   1.886   2.026   4.939
 8760SOL    HW127179   1.926   2.050   5.028
 8760SOL    HW227180   1.886   1.927   4.929
 8761SOL     OW27181   4.112   0.602   1.451
 8761SOL    HW127182   4.144   0.614   1.544
 8761SOL    HW227183   4.035   0.538   1.451
 8762SOL     OW27184   0.543   3.749   2.842
 8762SOL    HW127185   0.496   3.776   2.758
 8762SOL    HW227186   0.606   3.674   2.823
 8763SOL     OW27187   6.205   5.513   5.388
 8763SOL    HW127188   6.208   5.606   5.350
 8763SOL    HW227189   6.152   5.514   5.473
 8764SOL     OW27190   4.742   0.788   4.420
 8764SOL    HW127191   4.773   0.780   4.325
 8764SOL    HW227192   4.777   0.873   4.459
 8765SOL     OW27193   6.279   6.778   4.976
 8765SOL    HW127194   6.358   6.740   4.927
 8765SOL    HW227195   6.223   6.703   5.011
 8766SOL     OW27196   4.061   5.280   2.888
 8766SOL    HW127197   4.069   5.306   2.792
 8766SOL    HW227198   3.969   5.247   2.906
 8767SOL     OW27199   4.079   0.350   2.925
 8767SOL    HW127200   4.041   0.266   2.886
 8767SOL    HW227201   4.032   0.429   2.887
 8768SOL     OW27202   1.126   2.958   0.426
 8768SOL    HW127203   1.121   2.863   0.457
 8768SOL    HW227204   1.206   2.970   0.367
 8769SOL     OW27205   1.349   6.835   4.083
 8769SOL    HW127206   1.328   6.741   4.057
 8769SOL    HW227207   1.271   6.894   4.062
 8770SOL     OW27208   5.032   4.211   2.184
 8770SOL    HW127209   5.099   4.149   2.143
 8770SOL    HW227210   4.999   4.275   2.115
 8771SOL     OW27211   1.021   0.256   5.646
 8771SOL    HW127212   1.042   0.309   5.729
 8771SOL    HW227213   1.003   0.161   5.671
 8772SOL     OW27214   5.918   6.803   0.176
 8772SOL    HW127215   6.012   6.782   0.149
 8772SOL    HW227216   5.919   6.882   0.238
 8773SOL     OW27217   4.541   1.911   3.310
 8773SOL    HW127218   4.594   1.937   3.391
 8773SOL    HW227219   4.501   1.821   3.325
 8774SOL     OW27220   2.617   1.751   0.255
 8774SOL    HW127221   2.666   1.838   0.259
 8774SOL    HW227222   2.660   1.691   0.187
 8775SOL     OW27223   6.231   0.564   5.159
 8775SOL    HW127224   6.192   0.644   5.113
 8775SOL    HW227225   6.330   0.567   5.152
 8776SOL     OW27226   3.081   3.513   4.655
 8776SOL    HW127227   3.048   3.549   4.743
 8776SOL    HW227228   3.029   3.554   4.581
 8777SOL     OW27229   6.889   4.105   1.121
 8777SOL    HW127230   6.926   4.023   1.165
 8777SOL    HW227231   6.963   4.169   1.102
 8778SOL     OW27232   6.197   2.586   4.283
 8778SOL    HW127233   6.211   2.510   4.347
 8778SOL    HW227234   6.110   2.632   4.304
 8779SOL     OW27235   2.647   5.322   1.993
 8779SOL    HW127236   2.668   5.254   2.063
 8779SOL    HW227237   2.697   5.406   2.012
 8780SOL     OW27238   1.200   5.433   3.677
 8780SOL    HW127239   1.298   5.413   3.674
 8780SOL    HW227240   1.150   5.349   3.701
 8781SOL     OW27241   6.299   2.177   3.915
 8781SOL    HW127242   6.256   2.135   3.994
 8781SOL    HW227243   6.396   2.151   3.911
 8782SOL     OW27244   5.531   0.746   1.912
 8782SOL    HW127245   5.588   0.664   1.921
 8782SOL    HW227246   5.585   0.827   1.930
 8783SOL     OW27247   6.175   3.279   3.802
 8783SOL    HW127248   6.199   3.235   3.889
 8783SOL    HW227249   6.224   3.234   3.727
 8784SOL     OW27250   5.156   3.867   4.986
 8784SOL    HW127251   5.058   3.874   4.973
 8784SOL    HW227252   5.178   3.779   5.029
 8785SOL     OW27253   6.265   3.419   6.804
 8785SOL    HW127254   6.270   3.454   6.711
 8785SOL    HW227255   6.186   3.459   6.850
 8786SOL     OW27256   2.816   6.271   0.158
 8786SOL    HW127257   2.787   6.364   0.184
 8786SOL    HW227258   2.876   6.234   0.229
 8787SOL     OW27259   1.616   2.845   2.030
 8787SOL    HW127260   1.676   2.801   1.964
 8787SOL    HW227261   1.669   2.872   2.111
 8788SOL     OW27262   6.771   2.214   5.790
 8788SOL    HW127263   6.684   2.257   5.816
 8788SOL    HW227264   6.847   2.268   5.827
 8789SOL     OW27265   5.985   6.542   5.932
 8789SOL    HW127266   5.992   6.522   6.030
 8789SOL    HW227267   6.070   6.514   5.886
 8790SOL     OW27268   6.964   1.614   0.320
 8790SOL    HW127269   0.028   1.575   0.307
 8790SOL    HW227270   6.918   1.620   0.231
 8791SOL     OW27271   5.503   6.848   4.596
 8791SOL    HW127272   5.520   6.866   4.499
 8791SOL    HW227273   5.480   6.751   4.609
 8792SOL     OW27274   3.761   6.019   3.111
 8792SOL    HW127275   3.700   6.035   3.034
 8792SOL    HW227276   3.713   6.036   3.197
 8793SOL     OW27277   1.727   5.359   3.748
 8793SOL    HW127278   1.804   5.300   3.774
 8793SOL    HW227279   1.725   5.370   3.649
 8794SOL     OW27280   4.133   6.386   2.044
 8794SOL    HW127281   4.035   6.399   2.061
 8794SOL    HW227282   4.173   6.336   2.120
 8795SOL     OW27283   1.445   6.570   4.921
 8795SOL    HW127284   1.483   6.511   4.850
 8795SOL    HW227285   1.517   6.591   4.988
 8796SOL     OW27286   3.867   0.371   5.201
 8796SOL    HW127287   3.817   0.425   5.269
 8796SOL    HW227288   3.856   0.274   5.222
 8797SOL     OW27289   1.255   6.930   5.311
 8797SOL    HW127290   1.174   6.913   5.255
 8797SOL    HW227291   1.330   6.960   5.253
 8798SOL     OW27292   5.199   4.773   5.031
 8798SOL    HW127293   5.195   4.873   5.026
 8798SOL    HW227294   5.280   4.745   5.083
 8799SOL     OW27295   1.750   4.736   3.442
 8799SOL    HW127296   1.682   4.666   3.418
 8799SOL    HW227297   1.820   4.695   3.500
 8800SOL     OW27298   5.643   3.615   4.949
 8800SOL    HW127299   5.740   3.618   4.971
 8800SOL    HW227300   5.591   3.590   5.031
 8801SOL     OW27301   1.340   1.415   4.687
 8801SOL    HW127302   1.334   1.424   4.588
 8801SOL    HW227303   1.408   1.479   4.722
 8802SOL     OW27304   1.330   0.670   0.372
 8802SOL    HW127305   1.370   0.742   0.316
 8802SOL    HW227306   1.337   0.695   0.469
 8803SOL     OW27307   1.347   5.296   5.950
 8803SOL    HW127308   1.255   5.265   5.927
 8803SOL    HW227309   1.413   5.258   5.885
 8804SOL     OW27310   3.288   0.482   1.757
 8804SOL    HW127311   3.324   0.551   1.820
 8804SOL    HW227312   3.256   0.403   1.810
 8805SOL     OW27313   2.763   0.196   4.317
 8805SOL    HW127314   2.741   0.170   4.411
 8805SOL    HW227315   2.712   0.278   4.292
 8806SOL     OW27316   1.665   4.822   1.858
 8806SOL    HW127317   1.709   4.803   1.946
 8806SOL    HW227318   1.571   4.788   1.859
 8807SOL     OW27319   6.528   6.325   6.305
 8807SOL    HW127320   6.575   6.377   6.233
 8807SOL    HW227321   6.553   6.228   6.297
 8808SOL     OW27322   5.251   2.079   1.181
 8808SOL    HW127323   5.278   2.113   1.271
 8808SOL    HW227324   5.207   2.152   1.129
 8809SOL     OW27325   5.456   4.495   2.883
 8809SOL    HW127326   5.512   4.523   2.961
 8809SOL    HW227327   5.478   4.401   2.858
 8810SOL     OW27328   5.276   1.593   6.029
 8810SOL    HW127329   5.365   1.625   5.994
 8810SOL    HW227330   5.245   1.655   6.100
 8811SOL     OW27331   2.984   1.577   3.536
 8811SOL    HW127332   2.886   1.590   3.550
 8811SOL    HW227333   2.999   1.534   3.446
 8812SOL     OW27334   1.707   0.604   0.649
 8812SOL    HW127335   1.738   0.510   0.634
 8812SOL    HW227336   1.676   0.643   0.562
 8813SOL     OW27337   1.240   4.570   1.430
 8813SOL    HW127338   1.323   4.537   1.384
 8813SOL    HW227339   1.160   4.536   1.381
 8814SOL     OW27340   6.636   0.691   1.004
 8814SOL    HW127341   6.598   0.783   0.993
 8814SOL    HW227342   6.729   0.699   1.042
 8815SOL     OW27343   6.476   6.472   0.564
 8815SOL    HW127344   6.398   6.419   0.597
 8815SOL    HW227345   6.449   6.521   0.481
 8816SOL     OW27346   2.107   0.641   0.255
 8816SOL    HW127347   2.018   0.655   0.299
 8816SOL    HW227348   2.179   0.675   0.315
 8817SOL     OW27349   0.618   5.649   5.820
 8817SOL    HW127350   0.567   5.597   5.889
 8817SOL    HW227351   0.562   5.659   5.738
 8818SOL     OW27352   0.440   3.296   3.874
 8818SOL    HW127353   0.455   3.205   3.835
 8818SOL    HW227354   0.352   3.298   3.922
 8819SOL     OW27355   4.302   5.475   4.180
 8819SOL    HW127356   4.284   5.541   4.107
 8819SOL    HW227357   4.243   5.395   4.167
 8820SOL     OW27358   2.371   1.749   4.205
 8820SOL    HW127359   2.391   1.834   4.253
 8820SOL    HW227360   2.391   1.672   4.264
 8821SOL     OW27361   2.846   5.814   0.385
 8821SOL    HW127362   2.815   5.736   0.440
 8821SOL    HW227363   2.876   5.782   0.296
 8822SOL     OW27364   1.136   0.130   3.528
 8822SOL    HW127365   1.194   0.206   3.557
 8822SOL    HW227366   1.158   0.049   3.581
 8823SOL     OW27367   1.896   0.834   0.585
 8823SOL    HW127368   1.912   0.804   0.491
 8823SOL    HW227369   1.830   0.773   0.629
 8824SOL     OW27370   1.441   3.440   1.270
 8824SOL    HW127371   1.351   3.397   1.275
 8824SOL    HW227372   1.437   3.532   1.311
 8825SOL     OW27373   1.858   0.500   3.835
 8825SOL    HW127374   1.956   0.485   3.830
 8825SOL    HW227375   1.840   0.595   3.860
 8826SOL     OW27376   6.421   2.496   0.406
 8826SOL    HW127377   6.486   2.448   0.464
 8826SOL    HW227378   6.328   2.479   0.438
 8827SOL     OW27379   3.166   1.592   3.176
 8827SOL    HW127380   3.067   1.581   3.188
 8827SOL    HW227381   3.186   1.619   3.082
 8828SOL     OW27382   4.666   5.674   4.770
 8828SOL    HW127383   4.746   5.639   4.721
 8828SOL    HW227384   4.603   5.598   4.788
 8829SOL     OW27385   0.380   2.336   7.027
 8829SOL    HW127386   0.398   2.238   0.001
 8829SOL    HW227387   0.282   2.352   0.009
 8830SOL     OW27388   0.604   1.357   1.245
 8830SOL    HW127389   0.618   1.258   1.252
 8830SOL    HW227390   0.682   1.397   1.196
 8831SOL     OW27391   5.436   1.133   3.824
 8831SOL    HW127392   5.509   1.065   3.828
 8831SOL    HW227393   5.355   1.096   3.871
 8832SOL     OW27394   6.257   6.199   2.574
 8832SOL    HW127395   6.194   6.122   2.565
 8832SOL    HW227396   6.215   6.281   2.535
 8833SOL     OW27397   1.981   6.433   5.655
 8833SOL    HW127398   2.066   6.380   5.658
 8833SOL    HW227399   1.957   6.453   5.560
 8834SOL     OW27400   5.339   3.737   4.487
 8834SOL    HW127401   5.399   3.718   4.565
 8834SOL    HW227402   5.302   3.829   4.495
 8835SOL     OW27403   6.062   1.230   5.888
 8835SOL    HW127404   6.088   1.134   5.883
 8835SOL    HW227405   6.068   1.271   5.797
 8836SOL     OW27406   4.517   1.037   6.934
 8836SOL    HW127407   4.502   0.965   7.002
 8836SOL    HW227408   4.459   1.115   6.956
 8837SOL     OW27409   0.411   6.763   2.602
 8837SOL    HW127410   0.440   6.777   2.507
 8837SOL    HW227411   0.347   6.686   2.607
 8838SOL     OW27412   3.088   5.007   2.976
 8838SOL    HW127413   3.051   4.945   3.046
 8838SOL    HW227414   3.063   5.101   2.999
 8839SOL     OW27415   5.334   5.658   2.263
 8839SOL    HW127416   5.269   5.676   2.337
 8839SOL    HW227417   5.297   5.587   2.203
 8840SOL     OW27418   6.405   2.155   2.215
 8840SOL    HW127419   6.425   2.195   2.126
 8840SOL    HW227420   6.381   2.059   2.203
 8841SOL     OW27421   1.600   0.668   4.540
 8841SOL    HW127422   1.593   0.717   4.628
 8841SOL    HW227423   1.617   0.734   4.467
 8842SOL     OW27424   3.209   3.047   0.835
 8842SOL    HW127425   3.222   2.948   0.835
 8842SOL    HW227426   3.184   3.078   0.926
 8843SOL     OW27427   1.858   3.312   4.724
 8843SOL    HW127428   1.822   3.272   4.809
 8843SOL    HW227429   1.958   3.307   4.724
 8844SOL     OW27430   5.530   1.706   0.344
 8844SOL    HW127431   5.515   1.674   0.251
 8844SOL    HW227432   5.447   1.693   0.398
 8845SOL     OW27433   4.654   3.979   6.748
 8845SOL    HW127434   4.562   3.969   6.711
 8845SOL    HW227435   4.678   4.076   6.754
 8846SOL     OW27436   2.302   5.563   3.499
 8846SOL    HW127437   2.353   5.509   3.432
 8846SOL    HW227438   2.237   5.622   3.451
 8847SOL     OW27439   2.719   0.711   2.627
 8847SOL    HW127440   2.796   0.767   2.595
 8847SOL    HW227441   2.653   0.701   2.552
 8848SOL     OW27442   2.649   0.499   1.676
 8848SOL    HW127443   2.591   0.468   1.601
 8848SOL    HW227444   2.683   0.420   1.727
 8849SOL     OW27445   2.987   6.595   2.740
 8849SOL    HW127446   2.996   6.695   2.737
 8849SOL    HW227447   2.899   6.571   2.780
 8850SOL     OW27448   1.361   1.850   0.143
 8850SOL    HW127449   1.281   1.888   0.188
 8850SOL    HW227450   1.337   1.763   0.100
 8851SOL     OW27451   1.850   4.361   2.249
 8851SOL    HW127452   1.913   4.427   2.289
 8851SOL    HW227453   1.870   4.269   2.283
 8852SOL     OW27454   1.210   1.947   5.118
 8852SOL    HW127455   1.283   1.889   5.153
 8852SOL    HW227456   1.232   2.043   5.134
 8853SOL     OW27457   2.623   0.728   1.868
 8853SOL    HW127458   2.595   0.807   1.814
 8853SOL    HW227459   2.644   0.651   1.807
 8854SOL     OW27460   2.084   3.177   4.311
 8854SOL    HW127461   2.155   3.132   4.366
 8854SOL    HW227462   2.006   3.199   4.369
 8855SOL     OW27463   6.542   5.313   1.310
 8855SOL    HW127464   6.468   5.333   1.246
 8855SOL    HW227465   6.630   5.325   1.264
 8856SOL     OW27466   0.291   6.132   6.629
 8856SOL    HW127467   0.245   6.216   6.600
 8856SOL    HW227468   0.389   6.150   6.642
 8857SOL     OW27469   6.766   1.905   4.910
 8857SOL    HW127470   6.774   1.849   4.827
 8857SOL    HW227471   6.743   1.845   4.987
 8858SOL     OW27472   0.065   4.564   4.631
 8858SOL    HW127473   0.126   4.507   4.576
 8858SOL    HW227474   7.005   4.578   4.582
 8859SOL     OW27475   1.122   0.990   3.841
 8859SOL    HW127476   1.040   1.046   3.840
 8859SOL    HW227477   1.188   1.030   3.906
 8860SOL     OW27478   6.491   2.297   1.713
 8860SOL    HW127479   6.563   2.259   1.655
 8860SOL    HW227480   6.424   2.346   1.656
 8861SOL     OW27481   4.015   1.114   6.845
 8861SOL    HW127482   3.953   1.071   6.911
 8861SOL    HW227483   4.052   1.198   6.884
 8862SOL     OW27484   5.405   6.756   3.576
 8862SOL    HW127485   5.491   6.804   3.559
 8862SOL    HW227486   5.425   6.661   3.603
 8863SOL     OW27487   1.866   5.164   3.145
 8863SOL    HW127488   1.804   5.225   3.094
 8863SOL    HW227489   1.942   5.137   3.086
 8864SOL     OW27490   4.241   4.017   6.456
 8864SOL    HW127491   4.184   3.960   6.515
 8864SOL    HW227492   4.253   3.971   6.368
 8865SOL     OW27493   3.456   0.595   5.362
 8865SOL    HW127494   3.521   0.530   5.401
 8865SOL    HW227495   3.477   0.609   5.266
 8866SOL     OW27496   4.910   6.868   2.841
 8866SOL    HW127497   4.945   6.911   2.758
 8866SOL    HW227498   4.820   6.904   2.862
 8867SOL     OW27499   6.022   3.745   3.835
 8867SOL    HW127500   6.118   3.715   3.834
 8867SOL    HW227501   5.993   3.767   3.742
 8868SOL     OW27502   6.804   3.816   2.350
 8868SOL    HW127503   6.895   3.847   2.377
 8868SOL    HW227504   6.807   3.781   2.256
 8869SOL     OW27505   4.206   5.870   5.245
 8869SOL    HW127506   4.158   5.895   5.161
 8869SOL    HW227507   4.213   5.771   5.251
 8870SOL     OW27508   1.648   6.290   1.809
 8870SOL    HW127509   1.621   6.385   1.825
 8870SOL    HW227510   1.746   6.280   1.825
 8871SOL     OW27511   1.985   0.797   3.455
 8871SOL    HW127512   1.950   0.715   3.500
 8871SOL    HW227513   1.941   0.808   3.366
 8872SOL     OW27514   1.106   4.990   6.152
 8872SOL    HW127515   1.154   4.974   6.066
 8872SOL    HW227516   1.008   4.980   6.139
 8873SOL     OW27517   1.479   6.802   1.744
 8873SOL    HW127518   1.392   6.752   1.740
 8873SOL    HW227519   1.462   6.900   1.732
 8874SOL     OW27520   1.287   5.670   2.189
 8874SOL    HW127521   1.222   5.682   2.114
 8874SOL    HW227522   1.377   5.648   2.151
 8875SOL     OW27523   0.172   2.931   4.154
 8875SOL    HW127524   0.153   2.998   4.226
 8875SOL    HW227525   0.231   2.858   4.191
 8876SOL     OW27526   2.586   0.882   6.389
 8876SOL    HW127527   2.525   0.928   6.453
 8876SOL    HW227528   2.607   0.791   6.423
 8877SOL     OW27529   1.559   3.468   3.009
 8877SOL    HW127530   1.583   3.537   3.077
 8877SOL    HW227531   1.601   3.492   2.921
 8878SOL     OW27532   3.512   5.078   0.703
 8878SOL    HW127533   3.451   5.005   0.735
 8878SOL    HW227534   3.606   5.043   0.699
 8879SOL     OW27535   5.919   4.788   2.219
 8879SOL    HW127536   6.001   4.789   2.276
 8879SOL    HW227537   5.929   4.720   2.147
 8880SOL     OW27538   4.112   6.154   4.658
 8880SOL    HW127539   4.183   6.200   4.604
 8880SOL    HW227540   4.024   6.199   4.643
 8881SOL     OW27541   5.147   5.552   4.326
 8881SOL    HW127542   5.141   5.630   4.388
 8881SOL    HW227543   5.081   5.482   4.354
 8882SOL     OW27544   3.842   0.870   1.025
 8882SOL    HW127545   3.855   0.956   0.974
 8882SOL    HW227546   3.811   0.799   0.962
 8883SOL     OW27547   0.952   6.322   5.909
 8883SOL    HW127548   1.026   6.354   5.849
 8883SOL    HW227549   0.901   6.249   5.863
 8884SOL     OW27550   6.245   3.966   5.082
 8884SOL    HW127551   6.215   4.052   5.041
 8884SOL    HW227552   6.197   3.890   5.039
 8885SOL     OW27553   5.214   5.007   0.926
 8885SOL    HW127554   5.261   4.988   0.840
 8885SOL    HW227555   5.281   5.032   0.996
 8886SOL     OW27556   4.011   5.933   6.178
 8886SOL    HW127557   4.107   5.957   6.159
 8886SOL    HW227558   3.957   6.017   6.183
 8887SOL     OW27559   3.782   1.741   0.897
 8887SOL    HW127560   3.697   1.780   0.861
 8887SOL    HW227561   3.858   1.803   0.879
 8888SOL     OW27562   2.296   2.487   4.489
 8888SOL    HW127563   2.220   2.450   4.543
 8888SOL    HW227564   2.276   2.477   4.392
 8889SOL     OW27565   6.952   6.266   6.145
 8889SOL    HW127566   6.910   6.320   6.072
 8889SOL    HW227567   0.017   6.238   6.117
 8890SOL     OW27568   0.652   6.330   6.715
 8890SOL    HW127569   0.605   6.244   6.694
 8890SOL    HW227570   0.750   6.313   6.726
 8891SOL     OW27571   4.078   4.243   6.900
 8891SOL    HW127572   4.160   4.195   6.931
 8891SOL    HW227573   4.097   4.341   6.896
 8892SOL     OW27574   3.805   4.980   3.764
 8892SOL    HW127575   3.745   4.932   3.829
 8892SOL    HW227576   3.861   5.047   3.814
 8893SOL     OW27577   1.783   5.735   5.369
 8893SOL    HW127578   1.852   5.683   5.318
 8893SOL    HW227579   1.705   5.675   5.389
 8894SOL     OW27580   3.840   1.808   6.922
 8894SOL    HW127581   3.829   1.878   6.993
 8894SOL    HW227582   3.883   1.848   6.842
 8895SOL     OW27583   0.711   2.403   1.044
 8895SOL    HW127584   0.696   2.432   1.138
 8895SOL    HW227585   0.630   2.358   1.008
 8896SOL     OW27586   1.791   2.907   4.782
 8896SOL    HW127587   1.776   2.986   4.842
 8896SOL    HW227588   1.730   2.833   4.808
 8897SOL     OW27589   2.118   3.771   3.361
 8897SOL    HW127590   2.134   3.851   3.303
 8897SOL    HW227591   2.097   3.692   3.303
 8898SOL     OW27592   6.248   3.672   2.054
 8898SOL    HW127593   6.272   3.685   2.150
 8898SOL    HW227594   6.329   3.641   2.004
 8899SOL     OW27595   0.508   4.460   6.685
 8899SOL    HW127596   0.425   4.408   6.665
 8899SOL    HW227597   0.522   4.528   6.613
 8900SOL     OW27598   5.606   2.347   3.281
 8900SOL    HW127599   5.585   2.442   3.307
 8900SOL    HW227600   5.696   2.323   3.317
 8901SOL     OW27601   1.114   1.465   4.081
 8901SOL    HW127602   1.038   1.437   4.140
 8901SOL    HW227603   1.134   1.562   4.095
 8902SOL     OW27604   1.658   5.766   6.765
 8902SOL    HW127605   1.613   5.690   6.811
 8902SOL    HW227606   1.701   5.733   6.681
 8903SOL     OW27607   0.881   2.555   4.738
 8903SOL    HW127608   0.879   2.483   4.670
 8903SOL    HW227609   0.936   2.631   4.705
 8904SOL     OW27610   0.987   1.813   3.639
 8904SOL    HW127611   0.931   1.840   3.561
 8904SOL    HW227612   1.048   1.738   3.612
 8905SOL     OW27613   1.761   3.334   2.622
 8905SOL    HW127614   1.782   3.393   2.545
 8905SOL    HW227615   1.669   3.297   2.612
 8906SOL     OW27616   1.444   6.187   1.131
 8906SOL    HW127617   1.423   6.092   1.153
 8906SOL    HW227618   1.358   6.238   1.118
 8907SOL     OW27619   2.858   2.709   5.400
 8907SOL    HW127620   2.897   2.796   5.370
 8907SOL    HW227621   2.917   2.634   5.370
 8908SOL     OW27622   2.043   5.031   6.712
 8908SOL    HW127623   2.025   5.128   6.729
 8908SOL    HW227624   2.014   5.007   6.619
 8909SOL     OW27625   2.949   1.181   6.461
 8909SOL    HW127626   2.952   1.242   6.382
 8909SOL    HW227627   2.919   1.090   6.432
 8910SOL     OW27628   0.044   2.867   4.962
 8910SOL    HW127629   0.133   2.872   5.006
 8910SOL    HW227630   0.001   2.779   4.983
 8911SOL     OW27631   5.603   2.970   4.991
 8911SOL    HW127632   5.531   2.993   4.925
 8911SOL    HW227633   5.641   3.055   5.028
 8912SOL     OW27634   3.206   3.261   6.187
 8912SOL    HW127635   3.209   3.341   6.248
 8912SOL    HW227636   3.159   3.186   6.232
 8913SOL     OW27637   4.725   5.297   6.651
 8913SOL    HW127638   4.660   5.337   6.716
 8913SOL    HW227639   4.818   5.327   6.674
 8914SOL     OW27640   4.727   6.691   4.525
 8914SOL    HW127641   4.777   6.687   4.438
 8914SOL    HW227642   4.767   6.625   4.589
 8915SOL     OW27643   1.276   2.063   4.544
 8915SOL    HW127644   1.320   2.032   4.628
 8915SOL    HW227645   1.227   2.149   4.561
 8916SOL     OW27646   6.264   2.431   6.750
 8916SOL    HW127647   6.297   2.388   6.666
 8916SOL    HW227648   6.234   2.524   6.731
 8917SOL     OW27649   5.684   2.204   1.023
 8917SOL    HW127650   5.711   2.112   0.995
 8917SOL    HW227651   5.741   2.234   1.100
 8918SOL     OW27652   1.225   5.473   0.794
 8918SOL    HW127653   1.302   5.485   0.856
 8918SOL    HW227654   1.158   5.547   0.809
 8919SOL     OW27655   4.973   4.673   6.478
 8919SOL    HW127656   4.927   4.680   6.390
 8919SOL    HW227657   5.020   4.585   6.485
 8920SOL     OW27658   0.563   2.256   6.732
 8920SOL    HW127659   0.585   2.159   6.731
 8920SOL    HW227660   0.615   2.302   6.804
 8921SOL     OW27661   1.504   2.951   1.748
 8921SOL    HW127662   1.405   2.955   1.764
 8921SOL    HW227663   1.530   2.857   1.726
 8922SOL     OW27664   4.194   6.221   2.254
 8922SOL    HW127665   4.191   6.128   2.218
 8922SOL    HW227666   4.142   6.226   2.339
 8923SOL     OW27667   1.261   1.376   5.134
 8923SOL    HW127668   1.217   1.379   5.223
 8923SOL    HW227669   1.241   1.288   5.090
 8924SOL     OW27670   5.106   5.544   5.225
 8924SOL    HW127671   5.203   5.521   5.216
 8924SOL    HW227672   5.059   5.474   5.277
 8925SOL     OW27673   6.886   0.263   2.421
 8925SOL    HW127674   6.842   0.180   2.388
 8925SOL    HW227675   6.818   0.321   2.466
 8926SOL     OW27676   6.334   3.459   4.844
 8926SOL    HW127677   6.360   3.432   4.752
 8926SOL    HW227678   6.270   3.391   4.882
 8927SOL     OW27679   6.498   1.760   5.016
 8927SOL    HW127680   6.521   1.853   4.990
 8927SOL    HW227681   6.580   1.713   5.049
 8928SOL     OW27682   1.309   6.966   6.006
 8928SOL    HW127683   1.229   7.019   5.977
 8928SOL    HW227684   1.285   6.869   6.006
 8929SOL     OW27685   6.448   2.086   5.031
 8929SOL    HW127686   6.544   2.077   5.005
 8929SOL    HW227687   6.393   2.104   4.949
 8930SOL     OW27688   0.792   3.204   3.356
 8930SOL    HW127689   0.812   3.257   3.274
 8930SOL    HW227690   0.850   3.122   3.357
 8931SOL     OW27691   2.979   3.229   1.766
 8931SOL    HW127692   2.947   3.169   1.692
 8931SOL    HW227693   2.970   3.181   1.854
 8932SOL     OW27694   0.050   2.178   2.799
 8932SOL    HW127695   6.993   2.209   2.754
 8932SOL    HW227696   0.028   2.100   2.858
 8933SOL     OW27697   3.181   2.798   6.438
 8933SOL    HW127698   3.211   2.829   6.529
 8933SOL    HW227699   3.109   2.730   6.449
 8934SOL     OW27700   3.701   4.883   5.214
 8934SOL    HW127701   3.667   4.803   5.262
 8934SOL    HW227702   3.673   4.966   5.262
 8935SOL     OW27703   0.392   4.592   6.920
 8935SOL    HW127704   0.428   4.538   6.844
 8935SOL    HW227705   0.292   4.586   6.920
 8936SOL     OW27706   1.535   4.049   0.321
 8936SOL    HW127707   1.561   4.082   0.230
 8936SOL    HW227708   1.602   3.982   0.352
 8937SOL     OW27709   0.493   0.582   4.898
 8937SOL    HW127710   0.546   0.501   4.924
 8937SOL    HW227711   0.430   0.606   4.972
 8938SOL     OW27712   0.546   5.378   0.522
 8938SOL    HW127713   0.481   5.302   0.525
 8938SOL    HW227714   0.521   5.446   0.590
 8939SOL     OW27715   4.721   2.745   4.226
 8939SOL    HW127716   4.681   2.684   4.159
 8939SOL    HW227717   4.675   2.732   4.314
 8940SOL     OW27718   0.136   1.039   3.728
 8940SOL    HW127719   0.156   1.089   3.812
 8940SOL    HW227720   0.211   1.052   3.663
 8941SOL     OW27721   5.898   2.736   5.171
 8941SOL    HW127722   5.942   2.656   5.211
 8941SOL    HW227723   5.877   2.802   5.243
 8942SOL     OW27724   0.603   4.275   5.247
 8942SOL    HW127725   0.631   4.181   5.267
 8942SOL    HW227726   0.681   4.325   5.209
 8943SOL     OW27727   3.692   3.983   0.069
 8943SOL    HW127728   3.697   3.972   0.168
 8943SOL    HW227729   3.692   4.080   0.046
 8944SOL     OW27730   5.109   4.801   4.723
 8944SOL    HW127731   5.136   4.706   4.740
 8944SOL    HW227732   5.186   4.862   4.744
 8945SOL     OW27733   2.126   0.871   3.828
 8945SOL    HW127734   2.134   0.912   3.737
 8945SOL    HW227735   2.175   0.784   3.830
 8946SOL     OW27736   2.910   1.470   4.927
 8946SOL    HW127737   2.862   1.400   4.979
 8946SOL    HW227738   2.854   1.553   4.924
 8947SOL     OW27739   1.504   3.885   4.817
 8947SOL    HW127740   1.595   3.902   4.778
 8947SOL    HW227741   1.500   3.792   4.852
 8948SOL     OW27742   6.563   6.094   4.254
 8948SOL    HW127743   6.564   6.045   4.341
 8948SOL    HW227744   6.603   6.185   4.265
 8949SOL     OW27745   2.398   0.214   0.406
 8949SOL    HW127746   2.378   0.138   0.468
 8949SOL    HW227747   2.319   0.274   0.400
 8950SOL     OW27748   4.912   3.094   5.768
 8950SOL    HW127749   4.816   3.100   5.741
 8950SOL    HW227750   4.969   3.077   5.688
 8951SOL     OW27751   0.861   2.290   5.114
 8951SOL    HW127752   0.773   2.337   5.106
 8951SOL    HW227753   0.845   2.191   5.123
 8952SOL     OW27754   1.333   0.095   2.430
 8952SOL    HW127755   1.383   0.015   2.464
 8952SOL    HW227756   1.236   0.071   2.420
 8953SOL     OW27757   1.024   3.794   6.466
 8953SOL    HW127758   0.977   3.879   6.441
 8953SOL    HW227759   1.045   3.742   6.383
 8954SOL     OW27760   0.488   6.422   6.270
 8954SOL    HW127761   0.500   6.471   6.356
 8954SOL    HW227762   0.563   6.443   6.208
 8955SOL     OW27763   0.392   4.511   2.486
 8955SOL    HW127764   0.410   4.566   2.567
 8955SOL    HW227765   0.474   4.461   2.460
 8956SOL     OW27766   7.007   1.969   6.911
 8956SOL    HW127767   6.998   2.069   6.913
 8956SOL    HW227768   0.073   1.944   6.942
 8957SOL     OW27769   2.961   4.315   1.619
 8957SOL    HW127770   2.951   4.366   1.705
 8957SOL    HW227771   2.881   4.257   1.605
 8958SOL     OW27772   1.013   0.197   4.571
 8958SOL    HW127773   1.023   0.296   4.579
 8958SOL    HW227774   0.973   0.160   4.655
 8959SOL     OW27775   1.487   4.461   1.344
 8959SOL    HW127776   1.539   4.377   1.325
 8959SOL    HW227777   1.546   4.540   1.334
 8960SOL     OW27778   4.841   5.914   2.274
 8960SOL    HW127779   4.831   6.009   2.244
 8960SOL    HW227780   4.782   5.898   2.354
 8961SOL     OW27781   2.468   2.444   4.780
 8961SOL    HW127782   2.385   2.490   4.748
 8961SOL    HW227783   2.514   2.401   4.703
 8962SOL     OW27784   6.333   6.569   2.895
 8962SOL    HW127785   6.290   6.479   2.888
 8962SOL    HW227786   6.295   6.630   2.826
 8963SOL     OW27787   4.997   6.595   3.932
 8963SOL    HW127788   4.906   6.625   3.958
 8963SOL    HW227789   5.064   6.665   3.956
 8964SOL     OW27790   5.916   3.758   3.583
 8964SOL    HW127791   5.916   3.818   3.503
 8964SOL    HW227792   5.860   3.678   3.565
 8965SOL     OW27793   1.860   5.053   0.267
 8965SOL    HW127794   1.946   5.075   0.314
 8965SOL    HW227795   1.783   5.076   0.325
 8966SOL     OW27796   1.501   4.001   5.353
 8966SOL    HW127797   1.504   4.009   5.254
 8966SOL    HW227798   1.417   3.954   5.380
 8967SOL     OW27799   3.564   6.314   2.050
 8967SOL    HW127800   3.487   6.308   2.113
 8967SOL    HW227801   3.564   6.404   2.007
 8968SOL     OW27802   5.215   4.609   2.494
 8968SOL    HW127803   5.246   4.704   2.491
 8968SOL    HW227804   5.178   4.589   2.585
 8969SOL     OW27805   6.796   0.193   4.119
 8969SOL    HW127806   6.697   0.199   4.104
 8969SOL    HW227807   6.827   0.101   4.094
 8970SOL     OW27808   2.993   2.816   0.242
 8970SOL    HW127809   3.016   2.800   0.146
 8970SOL    HW227810   3.031   2.904   0.271
 8971SOL     OW27811   4.376   5.264   2.150
 8971SOL    HW127812   4.327   5.283   2.235
 8971SOL    HW227813   4.323   5.299   2.073
 8972SOL     OW27814   4.731   5.066   6.249
 8972SOL    HW127815   4.675   5.114   6.182
 8972SOL    HW227816   4.723   5.111   6.338
 8973SOL     OW27817   0.684   3.314   2.197
 8973SOL    HW127818   0.677   3.225   2.242
 8973SOL    HW227819   0.646   3.308   2.105
 8974SOL     OW27820   1.547   4.495   5.714
 8974SOL    HW127821   1.565   4.451   5.802
 8974SOL    HW227822   1.608   4.457   5.644
 8975SOL     OW27823   2.499   7.010   6.516
 8975SOL    HW127824   2.412   6.968   6.540
 8975SOL    HW227825   2.494   0.082   6.527
 8976SOL     OW27826   0.951   5.132   5.158
 8976SOL    HW127827   0.894   5.201   5.203
 8976SOL    HW227828   0.909   5.042   5.169
 8977SOL     OW27829   5.759   1.577   6.971
 8977SOL    HW127830   5.776   1.593   6.874
 8977SOL    HW227831   5.811   1.498   7.002
 8978SOL     OW27832   5.752   6.703   6.438
 8978SOL    HW127833   5.761   6.622   6.496
 8978SOL    HW227834   5.695   6.771   6.483
 8979SOL     OW27835   1.307   3.039   4.313
 8979SOL    HW127836   1.236   3.091   4.360
 8979SOL    HW227837   1.331   2.958   4.366
 8980SOL     OW27838   2.418   3.297   5.328
 8980SOL    HW127839   2.322   3.311   5.305
 8980SOL    HW227840   2.456   3.225   5.270
 8981SOL     OW27841   3.510   1.321   4.913
 8981SOL    HW127842   3.602   1.354   4.933
 8981SOL    HW227843   3.510   1.221   4.912
 8982SOL     OW27844   1.627   2.408   0.648
 8982SOL    HW127845   1.638   2.484   0.584
 8982SOL    HW227846   1.619   2.322   0.597
 8983SOL     OW27847   2.391   6.491   6.344
 8983SOL    HW127848   2.338   6.412   6.314
 8983SOL    HW227849   2.455   6.517   6.271
 8984SOL     OW27850   0.829   6.951   4.152
 8984SOL    HW127851   0.884   7.020   4.199
 8984SOL    HW227852   0.795   6.988   4.066
 8985SOL     OW27853   3.156   3.002   0.431
 8985SOL    HW127854   3.146   3.054   0.347
 8985SOL    HW227855   3.069   3.000   0.480
 8986SOL     OW27856   4.409   5.335   2.726
 8986SOL    HW127857   4.319   5.374   2.706
 8986SOL    HW227858   4.470   5.407   2.759
 8987SOL     OW27859   4.144   6.760   1.926
 8987SOL    HW127860   4.123   6.735   2.021
 8987SOL    HW227861   4.226   6.710   1.897
 8988SOL     OW27862   1.583   4.450   4.771
 8988SOL    HW127863   1.577   4.519   4.700
 8988SOL    HW227864   1.638   4.484   4.847
 8989SOL     OW27865   5.156   3.551   0.083
 8989SOL    HW127866   5.250   3.578   0.062
 8989SOL    HW227867   5.094   3.590   0.015
 8990SOL     OW27868   1.977   5.879   4.498
 8990SOL    HW127869   1.930   5.914   4.580
 8990SOL    HW227870   1.954   5.782   4.486
 8991SOL     OW27871   1.426   2.463   4.767
 8991SOL    HW127872   1.518   2.492   4.791
 8991SOL    HW227873   1.398   2.386   4.824
 8992SOL     OW27874   4.551   1.102   0.828
 8992SOL    HW127875   4.503   1.051   0.900
 8992SOL    HW227876   4.493   1.177   0.797
 8993SOL     OW27877   4.937   2.593   1.463
 8993SOL    HW127878   4.873   2.569   1.390
 8993SOL    HW227879   4.942   2.693   1.471
 8994SOL     OW27880   1.011   3.757   5.139
 8994SOL    HW127881   1.022   3.803   5.227
 8994SOL    HW227882   0.916   3.763   5.109
 8995SOL     OW27883   1.182   2.564   0.061
 8995SOL    HW127884   1.091   2.553   0.102
 8995SOL    HW227885   1.194   2.659   0.033
 8996SOL     OW27886   5.018   4.406   6.807
 8996SOL    HW127887   4.981   4.478   6.865
 8996SOL    HW227888   5.102   4.370   6.848
 8997SOL     OW27889   5.020   2.178   6.158
 8997SOL    HW127890   4.988   2.115   6.228
 8997SOL    HW227891   4.948   2.192   6.090
 8998SOL     OW27892   6.504   3.817   3.902
 8998SOL    HW127893   6.601   3.816   3.927
 8998SOL    HW227894   6.469   3.723   3.900
 8999SOL     OW27895   5.213   6.856   6.027
 8999SOL    HW127896   5.187   6.942   5.985
 8999SOL    HW227897   5.135   6.817   6.077
 9000SOL     OW27898   1.495   3.285   1.741
 9000SOL    HW127899   1.428   3.256   1.672
 9000SOL    HW227900   1.565   3.214   1.751
 9001SOL     OW27901   1.047   4.663   2.133
 9001SOL    HW127902   1.018   4.750   2.095
 9001SOL    HW227903   1.063   4.598   2.059
 9002SOL     OW27904   1.693   5.291   5.293
 9002SOL    HW127905   1.643   5.208   5.272
 9002SOL    HW227906   1.674   5.360   5.223
 9003SOL     OW27907   5.940   3.908   1.702
 9003SOL    HW127908   5.950   4.005   1.725
 9003SOL    HW227909   6.009   3.883   1.634
 9004SOL     OW27910   4.314   6.096   0.898
 9004SOL    HW127911   4.400   6.125   0.941
 9004SOL    HW227912   4.292   6.157   0.822
 9005SOL     OW27913   6.472   2.613   4.860
 9005SOL    HW127914   6.463   2.516   4.882
 9005SOL    HW227915   6.488   2.665   4.944
 9006SOL     OW27916   2.120   5.477   1.158
 9006SOL    HW127917   2.040   5.425   1.188
 9006SOL    HW227918   2.133   5.465   1.060
 9007SOL     OW27919   3.537   0.623   3.470
 9007SOL    HW127920   3.628   0.612   3.428
 9007SOL    HW227921   3.522   0.720   3.491
 9008SOL     OW27922   0.927   5.084   3.242
 9008SOL    HW127923   1.014   5.120   3.274
 9008SOL    HW227924   0.887   5.025   3.312
 9009SOL     OW27925   2.631   5.806   0.729
 9009SOL    HW127926   2.580   5.756   0.799
 9009SOL    HW227927   2.639   5.749   0.647
 9010SOL     OW27928   1.425   6.517   4.299
 9010SOL    HW127929   1.328   6.520   4.326
 9010SOL    HW227930   1.432   6.522   4.200
 9011SOL     OW27931   4.886   1.361   1.485
 9011SOL    HW127932   4.883   1.460   1.494
 9011SOL    HW227933   4.805   1.330   1.434
 9012SOL     OW27934   1.878   4.628   0.154
 9012SOL    HW127935   1.966   4.670   0.133
 9012SOL    HW227936   1.844   4.579   0.074
 9013SOL     OW27937   0.040   6.790   6.429
 9013SOL    HW127938   0.065   6.788   6.332
 9013SOL    HW227939   0.122   6.808   6.484
 9014SOL     OW27940   7.021   2.139   0.999
 9014SOL    HW127941   6.970   2.223   0.985
 9014SOL    HW227942   0.005   2.121   1.097
 9015SOL     OW27943   4.447   2.225   1.832
 9015SOL    HW127944   4.369   2.162   1.842
 9015SOL    HW227945   4.450   2.286   1.911
 9016SOL     OW27946   6.968   6.370   6.463
 9016SOL    HW127947   6.917   6.444   6.420
 9016SOL    HW227948   6.962   6.288   6.407
 9017SOL     OW27949   4.855   1.520   3.838
 9017SOL    HW127950   4.936   1.558   3.883
 9017SOL    HW227951   4.884   1.465   3.760
 9018SOL     OW27952   2.986   3.146   6.717
 9018SOL    HW127953   2.925   3.082   6.764
 9018SOL    HW227954   2.933   3.204   6.655
 9019SOL     OW27955   1.394   5.011   2.187
 9019SOL    HW127956   1.326   5.054   2.246
 9019SOL    HW227957   1.384   4.912   2.191
 9020SOL     OW27958   0.061   4.010   0.342
 9020SOL    HW127959   0.102   3.994   0.432
 9020SOL    HW227960   7.008   3.951   0.331
 9021SOL     OW27961   0.227   0.494   3.806
 9021SOL    HW127962   0.254   0.590   3.801
 9021SOL    HW227963   0.232   0.453   3.715
 9022SOL     OW27964   3.008   0.930   0.141
 9022SOL    HW127965   3.000   0.995   0.065
 9022SOL    HW227966   3.083   0.867   0.123
 9023SOL     OW27967   3.434   2.861   2.471
 9023SOL    HW127968   3.411   2.780   2.419
 9023SOL    HW227969   3.501   2.916   2.420
 9024SOL     OW27970   1.315   3.844   5.448
 9024SOL    HW127971   1.224   3.865   5.412
 9024SOL    HW227972   1.333   3.746   5.438
 9025SOL     OW27973   0.754   5.179   0.634
 9025SOL    HW127974   0.771   5.127   0.550
 9025SOL    HW227975   0.702   5.262   0.612
 9026SOL     OW27976   3.513   3.396   1.134
 9026SOL    HW127977   3.467   3.387   1.045
 9026SOL    HW227978   3.574   3.318   1.148
 9027SOL     OW27979   1.349   2.907   2.919
 9027SOL    HW127980   1.278   2.920   2.988
 9027SOL    HW227981   1.412   2.984   2.920
 9028SOL     OW27982   2.937   2.952   5.306
 9028SOL    HW127983   2.968   2.974   5.213
 9028SOL    HW227984   3.012   2.968   5.370
 9029SOL     OW27985   3.803   6.830   4.537
 9029SOL    HW127986   3.755   6.900   4.589
 9029SOL    HW227987   3.858   6.873   4.465
 9030SOL     OW27988   2.503   1.994   3.401
 9030SOL    HW127989   2.483   2.010   3.304
 9030SOL    HW227990   2.469   2.071   3.455
 9031SOL     OW27991   3.976   5.905   4.589
 9031SOL    HW127992   3.958   5.861   4.678
 9031SOL    HW227993   3.991   6.003   4.603
 9032SOL     OW27994   4.231   3.839   0.857
 9032SOL    HW127995   4.163   3.910   0.874
 9032SOL    HW227996   4.236   3.820   0.759
 9033SOL     OW27997   0.228   4.108   2.556
 9033SOL    HW127998   0.248   4.188   2.612
 9033SOL    HW227999   0.270   4.120   2.466
 9034SOL     OW28000   2.934   6.281   4.611
 9034SOL    HW128001   2.846   6.307   4.649
 9034SOL    HW228002   2.957   6.343   4.536
 9035SOL     OW28003   2.590   4.445   0.089
 9035SOL    HW128004   2.563   4.434   7.020
 9035SOL    HW228005   2.511   4.474   0.143
 9036SOL     OW28006   1.850   3.139   5.451
 9036SOL    HW128007   1.790   3.147   5.372
 9036SOL    HW228008   1.911   3.061   5.440
 9037SOL     OW28009   1.394   4.295   4.640
 9037SOL    HW128010   1.464   4.335   4.700
 9037SOL    HW228011   1.422   4.203   4.613
 9038SOL     OW28012   4.466   1.165   6.544
 9038SOL    HW128013   4.379   1.131   6.580
 9038SOL    HW228014   4.535   1.093   6.551
 9039SOL     OW28015   2.294   5.121   6.087
 9039SOL    HW128016   2.339   5.068   6.159
 9039SOL    HW228017   2.358   5.137   6.012
 9040SOL     OW28018   2.764   2.210   2.556
 9040SOL    HW128019   2.747   2.250   2.647
 9040SOL    HW228020   2.714   2.263   2.487
 9041SOL     OW28021   1.038   1.918   1.424
 9041SOL    HW128022   1.133   1.912   1.455
 9041SOL    HW228023   0.982   1.854   1.475
 9042SOL     OW28024   4.214   6.991   4.644
 9042SOL    HW128025   4.125   0.007   4.630
 9042SOL    HW228026   4.215   6.944   4.733
 9043SOL     OW28027   1.824   0.845   6.381
 9043SOL    HW128028   1.799   0.813   6.290
 9043SOL    HW228029   1.851   0.767   6.438
 9044SOL     OW28030   6.720   0.285   1.068
 9044SOL    HW128031   6.644   0.283   1.133
 9044SOL    HW228032   6.705   0.216   0.997
 9045SOL     OW28033   3.286   1.297   2.846
 9045SOL    HW128034   3.203   1.349   2.826
 9045SOL    HW228035   3.325   1.328   2.932
 9046SOL     OW28036   3.365   4.168   3.077
 9046SOL    HW128037   3.429   4.206   3.143
 9046SOL    HW228038   3.279   4.146   3.123
 9047SOL     OW28039   1.783   3.588   4.730
 9047SOL    HW128040   1.822   3.498   4.750
 9047SOL    HW228041   1.810   3.616   4.637
 9048SOL     OW28042   6.195   3.051   6.244
 9048SOL    HW128043   6.263   3.067   6.172
 9048SOL    HW228044   6.233   3.080   6.332
 9049SOL     OW28045   4.187   6.554   5.763
 9049SOL    HW128046   4.129   6.473   5.771
 9049SOL    HW228047   4.282   6.529   5.786
 9050SOL     OW28048   0.773   3.393   0.833
 9050SOL    HW128049   0.758   3.296   0.848
 9050SOL    HW228050   0.749   3.417   0.739
 9051SOL     OW28051   3.395   6.901   1.429
 9051SOL    HW128052   3.457   6.824   1.413
 9051SOL    HW228053   3.437   6.986   1.396
 9052SOL     OW28054   2.354   2.307   4.014
 9052SOL    HW128055   2.371   2.225   3.960
 9052SOL    HW228056   2.437   2.331   4.065
 9053SOL     OW28057   1.604   1.223   2.343
 9053SOL    HW128058   1.643   1.166   2.271
 9053SOL    HW228059   1.513   1.188   2.368
 9054SOL     OW28060   3.355   5.905   4.049
 9054SOL    HW128061   3.309   5.992   4.034
 9054SOL    HW228062   3.298   5.847   4.108
 9055SOL     OW28063   5.599   2.617   4.481
 9055SOL    HW128064   5.589   2.653   4.574
 9055SOL    HW228065   5.516   2.637   4.428
 9056SOL     OW28066   1.100   2.653   1.653
 9056SOL    HW128067   1.173   2.595   1.619
 9056SOL    HW228068   1.033   2.670   1.580
 9057SOL     OW28069   4.836   2.795   5.385
 9057SOL    HW128070   4.867   2.708   5.349
 9057SOL    HW228071   4.771   2.837   5.321
 9058SOL     OW28072   1.627   0.569   1.572
 9058SOL    HW128073   1.584   0.526   1.493
 9058SOL    HW228074   1.559   0.577   1.646
 9059SOL     OW28075   1.452   2.110   2.826
 9059SOL    HW128076   1.551   2.107   2.841
 9059SOL    HW228077   1.431   2.180   2.758
 9060SOL     OW28078   6.178   3.034   4.279
 9060SOL    HW128079   6.217   3.038   4.371
 9060SOL    HW228080   6.101   3.097   4.272
 9061SOL     OW28081   2.552   5.654   2.453
 9061SOL    HW128082   2.540   5.555   2.455
 9061SOL    HW228083   2.594   5.685   2.538
 9062SOL     OW28084   1.217   6.388   2.627
 9062SOL    HW128085   1.226   6.360   2.722
 9062SOL    HW228086   1.285   6.342   2.571
 9063SOL     OW28087   3.054   0.454   4.151
 9063SOL    HW128088   2.965   0.495   4.134
 9063SOL    HW228089   3.098   0.502   4.227
 9064SOL     OW28090   6.248   2.544   6.028
 9064SOL    HW128091   6.162   2.494   6.033
 9064SOL    HW228092   6.243   2.626   6.084
 9065SOL     OW28093   3.941   0.498   6.859
 9065SOL    HW128094   4.036   0.473   6.841
 9065SOL    HW228095   3.917   0.469   6.952
 9066SOL     OW28096   5.438   6.511   0.755
 9066SOL    HW128097   5.521   6.516   0.811
 9066SOL    HW228098   5.384   6.594   0.768
 9067SOL     OW28099   1.241   0.606   4.023
 9067SOL    HW128100   1.320   0.628   4.080
 9067SOL    HW228101   1.167   0.670   4.042
 9068SOL     OW28102   1.655   6.314   4.345
 9068SOL    HW128103   1.557   6.324   4.362
 9068SOL    HW228104   1.674   6.219   4.320
 9069SOL     OW28105   1.746   2.657   1.252
 9069SOL    HW128106   1.785   2.660   1.344
 9069SOL    HW228107   1.687   2.576   1.243
 9070SOL     OW28108   1.508   3.380   5.114
 9070SOL    HW128109   1.495   3.355   5.210
 9070SOL    HW228110   1.452   3.320   5.057
 9071SOL     OW28111   6.575   6.408   1.550
 9071SOL    HW128112   6.500   6.402   1.615
 9071SOL    HW228113   6.622   6.320   1.545
 9072SOL     OW28114   0.482   2.278   0.955
 9072SOL    HW128115   0.418   2.353   0.943
 9072SOL    HW228116   0.433   2.197   0.987
 9073SOL     OW28117   2.410   6.911   2.556
 9073SOL    HW128118   2.449   6.859   2.632
 9073SOL    HW228119   2.384   7.003   2.588
 9074SOL     OW28120   1.267   0.339   2.538
 9074SOL    HW128121   1.222   0.323   2.626
 9074SOL    HW228122   1.292   0.251   2.496
 9075SOL     OW28123   0.312   1.619   2.530
 9075SOL    HW128124   0.370   1.613   2.611
 9075SOL    HW228125   0.284   1.714   2.516
 9076SOL     OW28126   6.802   1.214   6.352
 9076SOL    HW128127   6.703   1.201   6.365
 9076SOL    HW228128   6.846   1.125   6.343
 9077SOL     OW28129   4.230   0.207   1.348
 9077SOL    HW128130   4.322   0.225   1.313
 9077SOL    HW228131   4.233   0.202   1.448
 9078SOL     OW28132   3.659   3.566   4.967
 9078SOL    HW128133   3.620   3.500   4.902
 9078SOL    HW228134   3.611   3.653   4.958
 9079SOL     OW28135   2.658   0.885   4.763
 9079SOL    HW128136   2.616   0.808   4.810
 9079SOL    HW228137   2.713   0.938   4.827
 9080SOL     OW28138   5.020   2.796   6.557
 9080SOL    HW128139   5.087   2.788   6.483
 9080SOL    HW228140   4.930   2.767   6.524
 9081SOL     OW28141   4.764   7.006   2.218
 9081SOL    HW128142   4.796   0.028   2.137
 9081SOL    HW228143   4.778   0.037   2.299
 9082SOL     OW28144   1.851   0.386   5.028
 9082SOL    HW128145   1.878   0.369   5.123
 9082SOL    HW228146   1.919   0.445   4.984
 9083SOL     OW28147   4.197   4.871   5.727
 9083SOL    HW128148   4.223   4.963   5.756
 9083SOL    HW228149   4.209   4.807   5.803
 9084SOL     OW28150   3.228   3.927   2.991
 9084SOL    HW128151   3.144   3.885   3.028
 9084SOL    HW228152   3.242   4.017   3.033
 9085SOL     OW28153   2.348   0.161   0.838
 9085SOL    HW128154   2.436   0.189   0.799
 9085SOL    HW228155   2.295   0.242   0.861
 9086SOL     OW28156   0.774   4.089   0.307
 9086SOL    HW128157   0.675   4.082   0.309
 9086SOL    HW228158   0.812   4.011   0.257
 9087SOL     OW28159   4.666   2.951   1.577
 9087SOL    HW128160   4.579   2.904   1.559
 9087SOL    HW228161   4.676   2.966   1.675
 9088SOL     OW28162   6.669   6.912   1.008
 9088SOL    HW128163   6.676   6.894   0.910
 9088SOL    HW228164   6.590   6.864   1.046
 9089SOL     OW28165   5.310   6.532   5.340
 9089SOL    HW128166   5.387   6.489   5.293
 9089SOL    HW228167   5.301   6.626   5.309
 9090SOL     OW28168   5.837   1.221   5.590
 9090SOL    HW128169   5.844   1.174   5.678
 9090SOL    HW228170   5.742   1.223   5.561
 9091SOL     OW28171   2.823   3.615   6.904
 9091SOL    HW128172   2.745   3.566   6.945
 9091SOL    HW228173   2.820   3.711   6.932
 9092SOL     OW28174   6.788   0.870   0.307
 9092SOL    HW128175   6.771   0.928   0.227
 9092SOL    HW228176   6.875   0.822   0.296
 9093SOL     OW28177   1.907   6.233   5.222
 9093SOL    HW128178   1.891   6.146   5.267
 9093SOL    HW228179   2.001   6.264   5.241
 9094SOL     OW28180   6.376   4.651   2.386
 9094SOL    HW128181   6.341   4.562   2.356
 9094SOL    HW228182   6.306   4.720   2.373
 9095SOL     OW28183   4.847   4.552   5.977
 9095SOL    HW128184   4.761   4.516   5.941
 9095SOL    HW228185   4.865   4.642   5.937
 9096SOL     OW28186   6.464   5.439   3.007
 9096SOL    HW128187   6.426   5.478   3.091
 9096SOL    HW228188   6.496   5.512   2.947
 9097SOL     OW28189   2.441   1.887   7.016
 9097SOL    HW128190   2.503   1.916   0.063
 9097SOL    HW228191   2.442   1.787   7.009
 9098SOL     OW28192   2.683   2.069   5.344
 9098SOL    HW128193   2.620   2.090   5.269
 9098SOL    HW228194   2.648   2.109   5.429
 9099SOL     OW28195   2.632   3.123   6.724
 9099SOL    HW128196   2.590   3.059   6.660
 9099SOL    HW228197   2.685   3.191   6.673
 9100SOL     OW28198   0.971   3.623   2.439
 9100SOL    HW128199   1.016   3.707   2.469
 9100SOL    HW228200   0.941   3.571   2.520
 9101SOL     OW28201   2.465   1.353   2.164
 9101SOL    HW128202   2.448   1.380   2.259
 9101SOL    HW228203   2.510   1.429   2.116
 9102SOL     OW28204   3.638   6.392   1.612
 9102SOL    HW128205   3.718   6.340   1.582
 9102SOL    HW228206   3.565   6.382   1.543
 9103SOL     OW28207   5.235   1.620   0.064
 9103SOL    HW128208   5.212   1.523   0.061
 9103SOL    HW228209   5.332   1.632   0.046
 9104SOL     OW28210   6.743   6.360   1.850
 9104SOL    HW128211   6.644   6.345   1.854
 9104SOL    HW228212   6.785   6.326   1.934
 9105SOL     OW28213   1.349   0.080   5.110
 9105SOL    HW128214   1.357   0.059   5.013
 9105SOL    HW228215   1.255   0.108   5.130
 9106SOL     OW28216   0.656   3.547   0.081
 9106SOL    HW128217   0.619   3.635   0.054
 9106SOL    HW228218   0.646   3.481   0.007
 9107SOL     OW28219   2.093   1.066   6.746
 9107SOL    HW128220   2.022   1.114   6.797
 9107SOL    HW228221   2.062   1.048   6.653
 9108SOL     OW28222   4.513   4.284   5.593
 9108SOL    HW128223   4.509   4.291   5.693
 9108SOL    HW228224   4.580   4.350   5.558
 9109SOL     OW28225   4.990   2.767   3.036
 9109SOL    HW128226   5.053   2.701   2.995
 9109SOL    HW228227   5.033   2.809   3.116
 9110SOL     OW28228   1.133   5.593   4.667
 9110SOL    HW128229   1.217   5.552   4.704
 9110SOL    HW228230   1.129   5.577   4.569
 9111SOL     OW28231   4.447   2.995   6.455
 9111SOL    HW128232   4.535   3.030   6.424
 9111SOL    HW228233   4.447   2.990   6.555
 9112SOL     OW28234   1.306   4.816   2.795
 9112SOL    HW128235   1.209   4.818   2.770
 9112SOL    HW228236   1.362   4.805   2.713
 9113SOL     OW28237   5.322   2.246   3.892
 9113SOL    HW128238   5.340   2.289   3.803
 9113SOL    HW228239   5.323   2.316   3.963
 9114SOL     OW28240   0.932   6.037   4.050
 9114SOL    HW128241   0.942   5.988   3.963
 9114SOL    HW228242   0.932   6.136   4.032
 9115SOL     OW28243   6.197   5.487   3.746
 9115SOL    HW128244   6.217   5.554   3.819
 9115SOL    HW228245   6.273   5.485   3.681
 9116SOL     OW28246   0.227   0.064   3.112
 9116SOL    HW128247   0.145   0.010   3.130
 9116SOL    HW228248   0.202   0.157   3.085
 9117SOL     OW28249   4.101   1.918   6.184
 9117SOL    HW128250   4.017   1.865   6.186
 9117SOL    HW228251   4.080   2.014   6.204
 9118SOL     OW28252   6.217   3.712   0.304
 9118SOL    HW128253   6.184   3.772   0.231
 9118SOL    HW228254   6.317   3.714   0.306
 9119SOL     OW28255   4.249   6.766   1.487
 9119SOL    HW128256   4.346   6.749   1.504
 9119SOL    HW228257   4.238   6.829   1.410
 9120SOL     OW28258   6.329   2.955   6.021
 9120SOL    HW128259   6.322   2.969   5.922
 9120SOL    HW228260   6.268   2.880   6.048
 9121SOL     OW28261   4.107   6.882   5.669
 9121SOL    HW128262   4.066   6.964   5.709
 9121SOL    HW228263   4.049   6.803   5.689
 9122SOL     OW28264   2.191   3.892   2.066
 9122SOL    HW128265   2.238   3.862   1.982
 9122SOL    HW228266   2.148   3.813   2.110
 9123SOL     OW28267   1.510   0.684   3.543
 9123SOL    HW128268   1.579   0.733   3.596
 9123SOL    HW228269   1.445   0.640   3.605
 9124SOL     OW28270   3.721   5.345   2.167
 9124SOL    HW128271   3.677   5.260   2.193
 9124SOL    HW228272   3.686   5.376   2.078
 9125SOL     OW28273   3.794   5.096   0.629
 9125SOL    HW128274   3.888   5.072   0.654
 9125SOL    HW228275   3.781   5.080   0.531
 9126SOL     OW28276   4.761   4.300   0.641
 9126SOL    HW128277   4.739   4.203   0.632
 9126SOL    HW228278   4.855   4.310   0.675
 9127SOL     OW28279   6.537   2.815   5.053
 9127SOL    HW128280   6.503   2.848   5.142
 9127SOL    HW228281   6.608   2.878   5.020
 9128SOL     OW28282   6.471   3.188   4.867
 9128SOL    HW128283   6.451   3.231   4.955
 9128SOL    HW228284   6.398   3.125   4.843
 9129SOL     OW28285   1.644   2.432   0.916
 9129SOL    HW128286   1.630   2.444   0.817
 9129SOL    HW228287   1.600   2.347   0.945
 9130SOL     OW28288   0.948   4.059   5.610
 9130SOL    HW128289   0.998   4.140   5.579
 9130SOL    HW228290   0.998   4.014   5.684
 9131SOL     OW28291   5.485   2.784   0.033
 9131SOL    HW128292   5.408   2.721   0.025
 9131SOL    HW228293   5.494   2.813   0.128
 9132SOL     OW28294   1.097   4.570   4.049
 9132SOL    HW128295   1.175   4.628   4.072
 9132SOL    HW228296   1.070   4.517   4.129
 9133SOL     OW28297   2.955   0.221   1.132
 9133SOL    HW128298   3.008   0.276   1.067
 9133SOL    HW228299   2.961   0.263   1.223
 9134SOL     OW28300   4.208   5.521   0.489
 9134SOL    HW128301   4.216   5.618   0.512
 9134SOL    HW228302   4.114   5.491   0.504
 9135SOL     OW28303   1.102   6.265   1.848
 9135SOL    HW128304   1.106   6.166   1.838
 9135SOL    HW228305   1.181   6.306   1.801
 9136SOL     OW28306   4.733   5.006   5.950
 9136SOL    HW128307   4.751   4.975   6.043
 9136SOL    HW228308   4.789   5.087   5.930
 9137SOL     OW28309   4.775   6.433   5.941
 9137SOL    HW128310   4.873   6.411   5.935
 9137SOL    HW228311   4.745   6.473   5.855
 9138SOL     OW28312   2.110   2.919   0.794
 9138SOL    HW128313   2.110   3.018   0.809
 9138SOL    HW228314   2.091   2.899   0.698
 9139SOL     OW28315   0.386   0.968   1.141
 9139SOL    HW128316   0.424   0.957   1.233
 9139SOL    HW228317   0.425   0.899   1.080
 9140SOL     OW28318   0.158   4.566   1.474
 9140SOL    HW128319   0.182   4.607   1.563
 9140SOL    HW228320   0.234   4.577   1.411
 9141SOL     OW28321   0.124   5.737   6.026
 9141SOL    HW128322   0.140   5.728   5.928
 9141SOL    HW228323   0.094   5.649   6.063
 9142SOL     OW28324   0.653   3.269   2.882
 9142SOL    HW128325   0.570   3.238   2.927
 9142SOL    HW228326   0.651   3.241   2.786
 9143SOL     OW28327   6.931   3.653   1.532
 9143SOL    HW128328   6.841   3.609   1.533
 9143SOL    HW228329   6.920   3.752   1.525
 9144SOL     OW28330   3.056   5.261   4.637
 9144SOL    HW128331   3.009   5.250   4.549
 9144SOL    HW228332   3.130   5.329   4.626
 9145SOL     OW28333   1.764   6.809   6.510
 9145SOL    HW128334   1.826   6.775   6.438
 9145SOL    HW228335   1.744   6.905   6.494
 9146SOL     OW28336   6.195   3.075   3.549
 9146SOL    HW128337   6.149   3.022   3.621
 9146SOL    HW228338   6.137   3.078   3.468
 9147SOL     OW28339   5.769   0.219   4.436
 9147SOL    HW128340   5.728   0.222   4.344
 9147SOL    HW228341   5.853   0.165   4.433
 9148SOL     OW28342   6.304   0.418   1.707
 9148SOL    HW128343   6.381   0.453   1.760
 9148SOL    HW228344   6.329   0.417   1.610
 9149SOL     OW28345   5.594   2.877   1.200
 9149SOL    HW128346   5.528   2.903   1.130
 9149SOL    HW228347   5.579   2.933   1.282
 9150SOL     OW28348   2.635   4.336   0.413
 9150SOL    HW128349   2.705   4.286   0.361
 9150SOL    HW228350   2.546   4.322   0.369
 9151SOL     OW28351   2.153   3.850   3.641
 9151SOL    HW128352   2.168   3.821   3.547
 9151SOL    HW228353   2.087   3.925   3.644
 9152SOL     OW28354   2.049   3.761   4.032
 9152SOL    HW128355   2.086   3.735   3.943
 9152SOL    HW228356   1.961   3.716   4.046
 9153SOL     OW28357   0.590   2.761   6.526
 9153SOL    HW128358   0.622   2.826   6.457
 9153SOL    HW228359   0.660   2.750   6.596
 9154SOL     OW28360   5.571   5.337   3.152
 9154SOL    HW128361   5.628   5.283   3.090
 9154SOL    HW228362   5.583   5.435   3.132
 9155SOL     OW28363   1.803   5.172   2.100
 9155SOL    HW128364   1.842   5.259   2.070
 9155SOL    HW228365   1.703   5.175   2.089
 9156SOL     OW28366   6.662   2.805   0.947
 9156SOL    HW128367   6.662   2.799   1.047
 9156SOL    HW228368   6.739   2.753   0.911
 9157SOL     OW28369   3.778   4.166   6.511
 9157SOL    HW128370   3.846   4.226   6.469
 9157SOL    HW228371   3.749   4.204   6.599
 9158SOL     OW28372   6.824   4.077   3.736
 9158SOL    HW128373   6.860   4.061   3.644
 9158SOL    HW228374   6.727   4.101   3.730
 9159SOL     OW28375   2.832   0.299   3.208
 9159SOL    HW128376   2.882   0.364   3.151
 9159SOL    HW228377   2.897   0.250   3.266
 9160SOL     OW28378   0.614   4.892   6.612
 9160SOL    HW128379   0.588   4.980   6.573
 9160SOL    HW228380   0.541   4.826   6.598
 9161SOL     OW28381   5.838   4.201   1.911
 9161SOL    HW128382   5.858   4.122   1.968
 9161SOL    HW228383   5.805   4.276   1.968
 9162SOL     OW28384   4.119   1.774   2.426
 9162SOL    HW128385   4.171   1.792   2.342
 9162SOL    HW228386   4.169   1.708   2.482
 9163SOL     OW28387   0.623   2.041   2.088
 9163SOL    HW128388   0.527   2.034   2.117
 9163SOL    HW228389   0.627   2.067   1.991
 9164SOL     OW28390   2.551   0.376   6.798
 9164SOL    HW128391   2.461   0.393   6.837
 9164SOL    HW228392   2.612   0.341   6.869
 9165SOL     OW28393   4.670   2.532   5.477
 9165SOL    HW128394   4.764   2.510   5.452
 9165SOL    HW228395   4.609   2.459   5.447
 9166SOL     OW28396   4.334   5.697   1.438
 9166SOL    HW128397   4.389   5.775   1.469
 9166SOL    HW228398   4.328   5.700   1.338
 9167SOL     OW28399   0.755   2.046   6.398
 9167SOL    HW128400   0.789   1.952   6.402
 9167SOL    HW228401   0.696   2.056   6.318
 9168SOL     OW28402   6.277   5.146   4.977
 9168SOL    HW128403   6.275   5.084   5.056
 9168SOL    HW228404   6.192   5.139   4.926
 9169SOL     OW28405   6.558   6.244   6.814
 9169SOL    HW128406   6.613   6.261   6.732
 9169SOL    HW228407   6.496   6.321   6.830
 9170SOL     OW28408   1.293   2.025   6.219
 9170SOL    HW128409   1.352   1.991   6.146
 9170SOL    HW228410   1.349   2.063   6.293
 9171SOL     OW28411   2.770   4.813   0.825
 9171SOL    HW128412   2.852   4.769   0.788
 9171SOL    HW228413   2.689   4.773   0.783
 9172SOL     OW28414   5.078   1.299   4.564
 9172SOL    HW128415   5.049   1.213   4.604
 9172SOL    HW228416   5.134   1.350   4.630
 9173SOL     OW28417   6.715   2.713   3.774
 9173SOL    HW128418   6.704   2.711   3.675
 9173SOL    HW228419   6.625   2.709   3.817
 9174SOL     OW28420   0.808   6.107   0.182
 9174SOL    HW128421   0.901   6.129   0.212
 9174SOL    HW228422   0.790   6.153   0.095
 9175SOL     OW28423   1.975   6.894   6.979
 9175SOL    HW128424   1.895   6.940   6.941
 9175SOL    HW228425   2.006   6.943   0.034
 9176SOL     OW28426   2.103   1.133   2.818
 9176SOL    HW128427   2.145   1.069   2.882
 9176SOL    HW228428   2.140   1.119   2.726
 9177SOL     OW28429   0.891   3.970   3.780
 9177SOL    HW128430   0.856   4.017   3.699
 9177SOL    HW228431   0.981   3.931   3.759
 9178SOL     OW28432   2.449   6.138   6.847
 9178SOL    HW128433   2.419   6.200   6.776
 9178SOL    HW228434   2.463   6.188   6.932
 9179SOL     OW28435   3.736   6.281   5.463
 9179SOL    HW128436   3.768   6.299   5.370
 9179SOL    HW228437   3.676   6.356   5.492
 9180SOL     OW28438   6.963   1.916   4.266
 9180SOL    HW128439   6.911   1.855   4.207
 9180SOL    HW228440   6.912   2.001   4.281
 9181SOL     OW28441   4.271   1.994   3.658
 9181SOL    HW128442   4.303   1.903   3.631
 9181SOL    HW228443   4.285   2.058   3.582
 9182SOL     OW28444   1.715   0.906   2.969
 9182SOL    HW128445   1.621   0.928   2.943
 9182SOL    HW228446   1.777   0.976   2.934
 9183SOL     OW28447   5.124   2.617   6.883
 9183SOL    HW128448   5.162   2.600   6.974
 9183SOL    HW228449   5.107   2.715   6.873
 9184SOL     OW28450   3.536   3.201   0.862
 9184SOL    HW128451   3.469   3.138   0.901
 9184SOL    HW228452   3.624   3.155   0.854
 9185SOL     OW28453   0.692   0.550   6.789
 9185SOL    HW128454   0.659   0.456   6.785
 9185SOL    HW228455   0.759   0.560   6.863
 9186SOL     OW28456   4.877   0.141   6.198
 9186SOL    HW128457   4.965   0.153   6.245
 9186SOL    HW228458   4.813   0.211   6.230
 9187SOL     OW28459   4.941   1.744   6.718
 9187SOL    HW128460   4.904   1.674   6.658
 9187SOL    HW228461   4.992   1.811   6.664
 9188SOL     OW28462   1.084   0.158   1.051
 9188SOL    HW128463   1.162   0.113   1.008
 9188SOL    HW228464   1.052   0.103   1.128
 9189SOL     OW28465   2.755   1.437   3.220
 9189SOL    HW128466   2.678   1.495   3.248
 9189SOL    HW228467   2.731   1.341   3.236
 9190SOL     OW28468   6.044   3.400   5.094
 9190SOL    HW128469   6.020   3.305   5.075
 9190SOL    HW228470   5.992   3.432   5.174
 9191SOL     OW28471   5.497   6.527   6.583
 9191SOL    HW128472   5.582   6.568   6.617
 9191SOL    HW228473   5.485   6.550   6.486
 9192SOL     OW28474   0.011   4.317   5.951
 9192SOL    HW128475   0.048   4.409   5.939
 9192SOL    HW228476   0.060   4.253   5.891
 9193SOL     OW28477   3.750   3.471   4.013
 9193SOL    HW128478   3.718   3.489   3.920
 9193SOL    HW228479   3.727   3.549   4.072
 9194SOL     OW28480   3.378   5.658   2.459
 9194SOL    HW128481   3.381   5.625   2.364
 9194SOL    HW228482   3.397   5.756   2.460
 9195SOL     OW28483   0.509   3.278   3.430
 9195SOL    HW128484   0.514   3.362   3.484
 9195SOL    HW228485   0.593   3.224   3.443
 9196SOL     OW28486   3.312   0.807   3.792
 9196SOL    HW128487   3.346   0.846   3.707
 9196SOL    HW228488   3.276   0.715   3.775
 9197SOL     OW28489   2.550   3.446   0.015
 9197SOL    HW128490   2.484   3.513   7.008
 9197SOL    HW228491   2.512   3.354   0.009
 9198SOL     OW28492   5.494   4.086   5.586
 9198SOL    HW128493   5.540   4.031   5.517
 9198SOL    HW228494   5.409   4.122   5.549
 9199SOL     OW28495   1.500   3.802   6.225
 9199SOL    HW128496   1.553   3.758   6.152
 9199SOL    HW228497   1.405   3.812   6.196
 9200SOL     OW28498   0.112   6.857   1.029
 9200SOL    HW128499   0.097   6.955   1.018
 9200SOL    HW228500   0.147   6.819   0.944
 9201SOL     OW28501   6.966   4.228   1.882
 9201SOL    HW128502   0.008   4.211   1.811
 9201SOL    HW228503   6.914   4.144   1.899
 9202SOL     OW28504   1.951   5.106   4.214
 9202SOL    HW128505   1.935   5.088   4.117
 9202SOL    HW228506   1.942   5.021   4.265
 9203SOL     OW28507   5.501   1.292   6.487
 9203SOL    HW128508   5.530   1.369   6.429
 9203SOL    HW228509   5.483   1.213   6.429
 9204SOL     OW28510   5.867   3.973   3.436
 9204SOL    HW128511   5.894   4.068   3.422
 9204SOL    HW228512   5.768   3.968   3.449
 9205SOL     OW28513   5.644   3.154   2.953
 9205SOL    HW128514   5.718   3.176   2.889
 9205SOL    HW228515   5.564   3.211   2.934
 9206SOL     OW28516   2.358   6.262   3.651
 9206SOL    HW128517   2.269   6.215   3.649
 9206SOL    HW228518   2.398   6.260   3.560
 9207SOL     OW28519   4.412   6.417   6.209
 9207SOL    HW128520   4.377   6.477   6.137
 9207SOL    HW228521   4.368   6.438   6.296
 9208SOL     OW28522   4.965   3.463   2.312
 9208SOL    HW128523   4.925   3.376   2.282
 9208SOL    HW228524   4.920   3.493   2.396
 9209SOL     OW28525   4.099   1.255   2.709
 9209SOL    HW128526   4.067   1.341   2.669
 9209SOL    HW228527   4.022   1.191   2.716
 9210SOL     OW28528   2.082   6.811   1.466
 9210SOL    HW128529   2.074   6.712   1.457
 9210SOL    HW228530   2.052   6.855   1.381
 9211SOL     OW28531   4.952   1.980   6.329
 9211SOL    HW128532   4.866   1.930   6.336
 9211SOL    HW228533   5.019   1.941   6.392
 9212SOL     OW28534   4.730   4.540   4.466
 9212SOL    HW128535   4.719   4.468   4.397
 9212SOL    HW228536   4.645   4.591   4.475
 9213SOL     OW28537   5.680   0.586   4.351
 9213SOL    HW128538   5.716   0.518   4.287
 9213SOL    HW228539   5.583   0.601   4.333
 9214SOL     OW28540   1.985   2.811   4.596
 9214SOL    HW128541   2.037   2.888   4.560
 9214SOL    HW228542   1.904   2.845   4.645
 9215SOL     OW28543   0.455   3.548   3.023
 9215SOL    HW128544   0.483   3.602   2.944
 9215SOL    HW228545   0.534   3.501   3.062
 9216SOL     OW28546   2.503   6.006   5.012
 9216SOL    HW128547   2.544   6.096   5.024
 9216SOL    HW228548   2.433   6.011   4.940
 9217SOL     OW28549   5.310   1.375   6.182
 9217SOL    HW128550   5.292   1.455   6.126
 9217SOL    HW228551   5.240   1.369   6.254
 9218SOL     OW28552   6.007   6.535   6.770
 9218SOL    HW128553   6.101   6.552   6.741
 9218SOL    HW228554   6.008   6.494   6.861
 9219SOL     OW28555   3.423   2.714   5.413
 9219SOL    HW128556   3.486   2.788   5.439
 9219SOL    HW228557   3.378   2.738   5.327
 9220SOL     OW28558   2.012   6.194   2.891
 9220SOL    HW128559   1.989   6.097   2.894
 9220SOL    HW228560   2.036   6.220   2.798
 9221SOL     OW28561   2.693   0.549   6.269
 9221SOL    HW128562   2.677   0.460   6.310
 9221SOL    HW228563   2.607   0.589   6.239
 9222SOL     OW28564   1.847   4.446   3.624
 9222SOL    HW128565   1.869   4.433   3.527
 9222SOL    HW228566   1.839   4.358   3.669
 9223SOL     OW28567   1.734   4.019   4.694
 9223SOL    HW128568   1.818   4.044   4.645
 9223SOL    HW228569   1.656   4.064   4.651
 9224SOL     OW28570   1.578   4.334   3.961
 9224SOL    HW128571   1.495   4.360   4.011
 9224SOL    HW228572   1.572   4.366   3.867
 9225SOL     OW28573   3.923   6.799   6.269
 9225SOL    HW128574   3.890   6.850   6.190
 9225SOL    HW228575   3.874   6.712   6.276
 9226SOL     OW28576   1.364   6.516   0.677
 9226SOL    HW128577   1.396   6.425   0.650
 9226SOL    HW228578   1.343   6.570   0.596
 9227SOL     OW28579   2.075   5.152   0.794
 9227SOL    HW128580   2.164   5.134   0.751
 9227SOL    HW228581   2.035   5.065   0.824
 9228SOL     OW28582   1.895   2.564   5.533
 9228SOL    HW128583   1.800   2.570   5.563
 9228SOL    HW228584   1.898   2.532   5.438
 9229SOL     OW28585   0.349   4.173   0.026
 9229SOL    HW128586   0.311   4.118   0.100
 9229SOL    HW228587   0.443   4.143   0.008
 9230SOL     OW28588   4.922   2.579   4.029
 9230SOL    HW128589   4.965   2.622   3.949
 9230SOL    HW228590   4.935   2.638   4.109
 9231SOL     OW28591   0.999   5.095   5.632
 9231SOL    HW128592   0.948   5.179   5.652
 9231SOL    HW228593   1.048   5.106   5.546
 9232SOL     OW28594   1.668   5.301   1.822
 9232SOL    HW128595   1.729   5.353   1.881
 9232SOL    HW228596   1.586   5.274   1.873
 9233SOL     OW28597   0.854   6.577   1.030
 9233SOL    HW128598   0.822   6.483   1.018
 9233SOL    HW228599   0.829   6.631   0.949
 9234SOL     OW28600   2.234   4.769   1.206
 9234SOL    HW128601   2.192   4.851   1.246
 9234SOL    HW228602   2.162   4.703   1.185
 9235SOL     OW28603   2.475   2.525   3.195
 9235SOL    HW128604   2.523   2.463   3.133
 9235SOL    HW228605   2.496   2.501   3.290
 9236SOL     OW28606   1.757   3.363   6.690
 9236SOL    HW128607   1.766   3.315   6.778
 9236SOL    HW228608   1.802   3.451   6.695
 9237SOL     OW28609   6.061   5.393   3.514
 9237SOL    HW128610   6.088   5.430   3.603
 9237SOL    HW228611   6.142   5.363   3.464
 9238SOL     OW28612   1.749   3.366   5.044
 9238SOL    HW128613   1.815   3.438   5.066
 9238SOL    HW228614   1.657   3.395   5.071
 9239SOL     OW28615   0.210   4.659   0.148
 9239SOL    HW128616   0.283   4.658   0.080
 9239SOL    HW228617   0.199   4.567   0.186
 9240SOL     OW28618   4.948   3.119   3.199
 9240SOL    HW128619   5.044   3.090   3.204
 9240SOL    HW228620   4.944   3.219   3.198
 9241SOL     OW28621   6.865   6.343   0.372
 9241SOL    HW128622   6.788   6.311   0.427
 9241SOL    HW228623   6.951   6.322   0.418
 9242SOL     OW28624   1.468   2.456   1.896
 9242SOL    HW128625   1.549   2.508   1.868
 9242SOL    HW228626   1.460   2.458   1.996
 9243SOL     OW28627   0.257   0.220   1.762
 9243SOL    HW128628   0.314   0.275   1.824
 9243SOL    HW228629   0.296   0.222   1.670
 9244SOL     OW28630   3.458   6.367   5.115
 9244SOL    HW128631   3.467   6.460   5.080
 9244SOL    HW228632   3.459   6.303   5.039
 9245SOL     OW28633   1.069   4.091   3.101
 9245SOL    HW128634   1.070   4.002   3.146
 9245SOL    HW228635   1.160   4.132   3.105
 9246SOL     OW28636   6.250   0.130   4.312
 9246SOL    HW128637   6.196   0.210   4.284
 9246SOL    HW228638   6.236   0.055   4.248
 9247SOL     OW28639   3.811   5.703   2.938
 9247SOL    HW128640   3.787   5.754   2.855
 9247SOL    HW228641   3.868   5.761   2.997
 9248SOL     OW28642   2.750   1.669   4.935
 9248SOL    HW128643   2.768   1.739   4.865
 9248SOL    HW228644   2.756   1.711   5.026
 9249SOL     OW28645   3.856   4.531   1.710
 9249SOL    HW128646   3.757   4.539   1.709
 9249SOL    HW228647   3.897   4.614   1.748
 9250SOL     OW28648   6.531   4.249   4.394
 9250SOL    HW128649   6.469   4.260   4.316
 9250SOL    HW228650   6.502   4.309   4.468
 9251SOL     OW28651   4.325   2.826   1.043
 9251SOL    HW128652   4.238   2.821   0.993
 9251SOL    HW228653   4.400   2.841   0.978
 9252SOL     OW28654   4.067   0.524   4.866
 9252SOL    HW128655   4.043   0.597   4.930
 9252SOL    HW228656   4.122   0.455   4.913
 9253SOL     OW28657   0.141   4.789   5.256
 9253SOL    HW128658   0.055   4.816   5.300
 9253SOL    HW228659   0.128   4.783   5.157
 9254SOL     OW28660   5.745   4.483   2.447
 9254SOL    HW128661   5.717   4.441   2.360
 9254SOL    HW228662   5.667   4.533   2.486
 9255SOL     OW28663   6.562   3.624   6.857
 9255SOL    HW128664   6.472   3.656   6.824
 9255SOL    HW228665   6.558   3.610   6.955
 9256SOL     OW28666   1.743   6.845   1.697
 9256SOL    HW128667   1.646   6.842   1.720
 9256SOL    HW228668   1.754   6.873   1.602
 9257SOL     OW28669   6.493   5.625   3.409
 9257SOL    HW128670   6.438   5.702   3.440
 9257SOL    HW228671   6.442   5.572   3.341
 9258SOL     OW28672   3.388   3.512   0.280
 9258SOL    HW128673   3.401   3.601   0.323
 9258SOL    HW228674   3.476   3.467   0.269
 9259SOL     OW28675   1.776   1.642   6.341
 9259SOL    HW128676   1.846   1.571   6.330
 9259SOL    HW228677   1.774   1.673   6.436
 9260SOL     OW28678   5.872   3.244   5.771
 9260SOL    HW128679   5.846   3.148   5.755
 9260SOL    HW228680   5.925   3.251   5.855
 9261SOL     OW28681   4.265   1.355   0.982
 9261SOL    HW128682   4.228   1.274   0.936
 9261SOL    HW228683   4.301   1.418   0.914
 9262SOL     OW28684   6.922   6.766   4.906
 9262SOL    HW128685   6.985   6.843   4.903
 9262SOL    HW228686   6.878   6.756   4.817
 9263SOL     OW28687   2.798   5.144   2.771
 9263SOL    HW128688   2.750   5.173   2.689
 9263SOL    HW228689   2.892   5.176   2.769
 9264SOL     OW28690   5.595   3.468   6.526
 9264SOL    HW128691   5.555   3.533   6.461
 9264SOL    HW228692   5.635   3.391   6.476
 9265SOL     OW28693   4.069   2.010   6.603
 9265SOL    HW128694   4.045   2.020   6.699
 9265SOL    HW228695   4.062   2.099   6.557
 9266SOL     OW28696   0.522   4.931   1.712
 9266SOL    HW128697   0.460   5.009   1.721
 9266SOL    HW228698   0.519   4.876   1.795
 9267SOL     OW28699   0.736   1.301   3.758
 9267SOL    HW128700   0.691   1.386   3.730
 9267SOL    HW228701   0.696   1.225   3.708
 9268SOL     OW28702   0.542   6.677   1.603
 9268SOL    HW128703   0.492   6.661   1.688
 9268SOL    HW228704   0.508   6.615   1.532
 9269SOL     OW28705   5.182   0.344   0.058
 9269SOL    HW128706   5.159   0.294   7.001
 9269SOL    HW228707   5.261   0.402   0.042
 9270SOL     OW28708   3.531   1.211   6.202
 9270SOL    HW128709   3.505   1.123   6.162
 9270SOL    HW228710   3.602   1.253   6.146
 9271SOL     OW28711   1.255   0.580   6.812
 9271SOL    HW128712   1.253   0.494   6.863
 9271SOL    HW228713   1.258   0.561   6.714
 9272SOL     OW28714   6.397   6.556   6.183
 9272SOL    HW128715   6.405   6.548   6.083
 9272SOL    HW228716   6.409   6.466   6.224
 9273SOL     OW28717   5.569   5.730   3.989
 9273SOL    HW128718   5.484   5.701   3.945
 9273SOL    HW228719   5.581   5.680   4.074
 9274SOL     OW28720   0.494   3.124   0.392
 9274SOL    HW128721   0.532   3.209   0.354
 9274SOL    HW228722   0.409   3.144   0.440
 9275SOL     OW28723   1.103   6.600   1.186
 9275SOL    HW128724   1.026   6.601   1.121
 9275SOL    HW228725   1.071   6.567   1.275
 9276SOL     OW28726   3.454   4.752   0.268
 9276SOL    HW128727   3.391   4.729   0.194
 9276SOL    HW228728   3.421   4.833   0.316
 9277SOL     OW28729   4.507   4.889   2.677
 9277SOL    HW128730   4.559   4.848   2.602
 9277SOL    HW228731   4.447   4.961   2.641
 9278SOL     OW28732   0.427   0.587   4.256
 9278SOL    HW128733   0.337   0.625   4.237
 9278SOL    HW228734   0.426   0.488   4.240
 9279SOL     OW28735   3.508   5.687   1.625
 9279SOL    HW128736   3.604   5.666   1.606
 9279SOL    HW228737   3.456   5.686   1.540
 9280SOL     OW28738   1.285   1.425   2.556
 9280SOL    HW128739   1.212   1.478   2.514
 9280SOL    HW228740   1.299   1.340   2.504
 9281SOL     OW28741   3.605   3.470   6.107
 9281SOL    HW128742   3.599   3.531   6.028
 9281SOL    HW228743   3.700   3.464   6.137
 9282SOL     OW28744   3.240   0.275   4.425
 9282SOL    HW128745   3.154   0.290   4.475
 9282SOL    HW228746   3.268   0.361   4.381
 9283SOL     OW28747   5.746   0.078   6.307
 9283SOL    HW128748   5.807   7.025   6.301
 9283SOL    HW228749   5.694   0.086   6.222
 9284SOL     OW28750   3.322   3.699   5.299
 9284SOL    HW128751   3.232   3.681   5.262
 9284SOL    HW228752   3.328   3.664   5.393
 9285SOL     OW28753   5.625   3.066   2.346
 9285SOL    HW128754   5.596   3.130   2.274
 9285SOL    HW228755   5.611   2.972   2.315
 9286SOL     OW28756   5.284   6.338   0.606
 9286SOL    HW128757   5.198   6.307   0.648
 9286SOL    HW228758   5.312   6.425   0.648
 9287SOL     OW28759   2.711   4.580   5.813
 9287SOL    HW128760   2.708   4.486   5.779
 9287SOL    HW228761   2.650   4.589   5.891
 9288SOL     OW28762   4.464   2.517   4.255
 9288SOL    HW128763   4.501   2.510   4.162
 9288SOL    HW228764   4.521   2.578   4.310
 9289SOL     OW28765   4.599   6.849   5.856
 9289SOL    HW128766   4.673   6.915   5.860
 9289SOL    HW228767   4.626   6.765   5.903
 9290SOL     OW28768   5.308   0.704   5.053
 9290SOL    HW128769   5.330   0.637   4.982
 9290SOL    HW228770   5.293   0.657   5.140
 9291SOL     OW28771   1.272   6.420   5.298
 9291SOL    HW128772   1.217   6.338   5.314
 9291SOL    HW228773   1.213   6.500   5.292
 9292SOL     OW28774   1.131   1.294   5.752
 9292SOL    HW128775   1.225   1.301   5.720
 9292SOL    HW228776   1.124   1.222   5.821
 9293SOL     OW28777   4.807   2.830   5.659
 9293SOL    HW128778   4.861   2.901   5.704
 9293SOL    HW228779   4.821   2.835   5.560
 9294SOL     OW28780   5.024   0.896   0.332
 9294SOL    HW128781   5.000   0.940   0.419
 9294SOL    HW228782   5.123   0.880   0.328
 9295SOL     OW28783   0.462   0.659   5.375
 9295SOL    HW128784   0.424   0.751   5.385
 9295SOL    HW228785   0.449   0.608   5.460
 9296SOL     OW28786   3.013   3.952   0.895
 9296SOL    HW128787   3.054   3.891   0.963
 9296SOL    HW228788   3.026   3.912   0.804
 9297SOL     OW28789   7.002   5.586   3.549
 9297SOL    HW128790   7.024   5.680   3.523
 9297SOL    HW228791   0.000   5.524   3.474
 9298SOL     OW28792   1.223   6.724   6.030
 9298SOL    HW128793   1.127   6.714   6.054
 9298SOL    HW228794   1.265   6.633   6.023
 9299SOL     OW28795   1.622   2.152   3.777
 9299SOL    HW128796   1.592   2.218   3.846
 9299SOL    HW228797   1.699   2.189   3.725
 9300SOL     OW28798   1.691   6.174   5.048
 9300SOL    HW128799   1.602   6.187   5.092
 9300SOL    HW228800   1.763   6.183   5.116
 9301SOL     OW28801   0.522   4.053   4.300
 9301SOL    HW128802   0.592   4.012   4.358
 9301SOL    HW228803   0.518   4.151   4.316
 9302SOL     OW28804   2.315   2.881   4.762
 9302SOL    HW128805   2.343   2.918   4.850
 9302SOL    HW228806   2.330   2.782   4.761
 9303SOL     OW28807   3.100   4.158   7.011
 9303SOL    HW128808   3.058   4.123   0.068
 9303SOL    HW228809   3.157   4.087   6.970
 9304SOL     OW28810   4.768   4.909   0.778
 9304SOL    HW128811   4.673   4.887   0.799
 9304SOL    HW228812   4.822   4.824   0.775
 9305SOL     OW28813   2.543   1.596   0.620
 9305SOL    HW128814   2.484   1.613   0.541
 9305SOL    HW228815   2.570   1.682   0.662
 9306SOL     OW28816   7.001   4.181   4.344
 9306SOL    HW128817   7.001   4.082   4.330
 9306SOL    HW228818   0.044   4.223   4.286
 9307SOL     OW28819   2.163   3.569   0.731
 9307SOL    HW128820   2.124   3.486   0.690
 9307SOL    HW228821   2.228   3.610   0.667
 9308SOL     OW28822   1.719   4.265   1.380
 9308SOL    HW128823   1.673   4.229   1.461
 9308SOL    HW228824   1.773   4.346   1.405
 9309SOL     OW28825   5.271   5.898   5.585
 9309SOL    HW128826   5.317   5.963   5.525
 9309SOL    HW228827   5.183   5.872   5.544
 9310SOL     OW28828   4.352   5.959   5.847
 9310SOL    HW128829   4.425   5.967   5.780
 9310SOL    HW228830   4.362   5.872   5.896
 9311SOL     OW28831   4.608   3.495   1.433
 9311SOL    HW128832   4.536   3.431   1.407
 9311SOL    HW228833   4.616   3.498   1.533
 9312SOL     OW28834   1.436   2.027   0.832
 9312SOL    HW128835   1.453   2.050   0.736
 9312SOL    HW228836   1.354   1.970   0.838
 9313SOL     OW28837   1.437   0.637   1.756
 9313SOL    HW128838   1.366   0.691   1.710
 9313SOL    HW228839   1.394   0.565   1.810
 9314SOL     OW28840   5.158   2.740   1.001
 9314SOL    HW128841   5.109   2.690   0.930
 9314SOL    HW228842   5.256   2.729   0.988
 9315SOL     OW28843   5.758   0.865   6.672
 9315SOL    HW128844   5.751   0.792   6.604
 9315SOL    HW228845   5.676   0.922   6.670
 9316SOL     OW28846   5.458   0.358   5.939
 9316SOL    HW128847   5.416   0.297   5.872
 9316SOL    HW228848   5.527   0.415   5.895
 9317SOL     OW28849   3.222   5.524   3.954
 9317SOL    HW128850   3.130   5.485   3.949
 9317SOL    HW228851   3.289   5.450   3.965
 9318SOL     OW28852   5.452   5.805   0.275
 9318SOL    HW128853   5.494   5.729   0.325
 9318SOL    HW228854   5.357   5.784   0.255
 9319SOL     OW28855   2.902   4.137   1.128
 9319SOL    HW128856   2.865   4.088   1.050
 9319SOL    HW228857   2.917   4.073   1.203
 9320SOL     OW28858   5.398   0.218   6.164
 9320SOL    HW128859   5.431   0.287   6.099
 9320SOL    HW228860   5.418   0.127   6.128
 9321SOL     OW28861   0.094   2.887   5.569
 9321SOL    HW128862   0.057   2.908   5.660
 9321SOL    HW228863   0.181   2.935   5.557
 9322SOL     OW28864   6.519   4.271   5.629
 9322SOL    HW128865   6.488   4.177   5.616
 9322SOL    HW228866   6.613   4.269   5.666
 9323SOL     OW28867   1.517   3.387   3.695
 9323SOL    HW128868   1.428   3.347   3.713
 9323SOL    HW228869   1.588   3.335   3.743
 9324SOL     OW28870   0.986   3.697   0.810
 9324SOL    HW128871   1.078   3.683   0.847
 9324SOL    HW228872   0.918   3.675   0.880
 9325SOL     OW28873   2.145   5.294   1.807
 9325SOL    HW128874   2.224   5.343   1.843
 9325SOL    HW228875   2.176   5.221   1.746
 9326SOL     OW28876   4.135   4.145   0.298
 9326SOL    HW128877   4.135   4.245   0.294
 9326SOL    HW228878   4.078   4.108   0.226
 9327SOL     OW28879   4.495   0.382   3.366
 9327SOL    HW128880   4.396   0.384   3.349
 9327SOL    HW228881   4.513   0.333   3.451
 9328SOL     OW28882   2.960   6.858   4.874
 9328SOL    HW128883   2.994   6.777   4.920
 9328SOL    HW228884   3.010   6.871   4.789
 9329SOL     OW28885   0.167   6.131   6.066
 9329SOL    HW128886   0.224   6.212   6.081
 9329SOL    HW228887   0.221   6.049   6.080
 9330SOL     OW28888   6.889   0.180   6.661
 9330SOL    HW128889   6.956   0.183   6.587
 9330SOL    HW228890   6.913   0.248   6.730
 9331SOL     OW28891   1.357   3.168   4.845
 9331SOL    HW128892   1.281   3.104   4.854
 9331SOL    HW228893   1.321   3.262   4.845
 9332SOL     OW28894   3.814   5.830   0.635
 9332SOL    HW128895   3.859   5.919   0.638
 9332SOL    HW228896   3.797   5.805   0.540
 9333SOL     OW28897   3.461   5.220   0.475
 9333SOL    HW128898   3.523   5.162   0.528
 9333SOL    HW228899   3.514   5.291   0.429
 9334SOL     OW28900   4.777   6.288   4.385
 9334SOL    HW128901   4.727   6.219   4.438
 9334SOL    HW228902   4.873   6.288   4.413
 9335SOL     OW28903   2.297   1.975   1.274
 9335SOL    HW128904   2.246   1.945   1.194
 9335SOL    HW228905   2.381   2.021   1.244
 9336SOL     OW28906   6.160   1.004   5.342
 9336SOL    HW128907   6.230   1.003   5.270
 9336SOL    HW228908   6.111   0.916   5.342
 9337SOL     OW28909   4.418   6.728   6.617
 9337SOL    HW128910   4.467   6.669   6.552
 9337SOL    HW228911   4.420   6.822   6.585
 9338SOL     OW28912   0.108   6.448   0.701
 9338SOL    HW128913   0.077   6.525   0.758
 9338SOL    HW228914   0.139   6.482   0.613
 9339SOL     OW28915   5.405   5.025   6.838
 9339SOL    HW128916   5.505   5.026   6.832
 9339SOL    HW228917   5.370   4.954   6.777
 9340SOL     OW28918   3.630   6.219   2.534
 9340SOL    HW128919   3.537   6.256   2.533
 9340SOL    HW228920   3.634   6.138   2.476
 9341SOL     OW28921   5.672   4.449   6.696
 9341SOL    HW128922   5.683   4.480   6.602
 9341SOL    HW228923   5.640   4.354   6.696
 9342SOL     OW28924   3.018   0.304   4.619
 9342SOL    HW128925   3.007   0.401   4.599
 9342SOL    HW228926   2.930   0.257   4.609
 9343SOL     OW28927   4.680   4.215   1.742
 9343SOL    HW128928   4.584   4.233   1.763
 9343SOL    HW228929   4.696   4.117   1.737
 9344SOL     OW28930   5.671   5.088   5.921
 9344SOL    HW128931   5.571   5.094   5.930
 9344SOL    HW228932   5.709   5.041   6.000
 9345SOL     OW28933   6.736   5.977   0.171
 9345SOL    HW128934   6.809   6.011   0.229
 9345SOL    HW228935   6.695   6.053   0.120
 9346SOL     OW28936   5.177   6.549   2.508
 9346SOL    HW128937   5.210   6.455   2.514
 9346SOL    HW228938   5.088   6.555   2.554
 9347SOL     OW28939   3.715   5.755   1.291
 9347SOL    HW128940   3.625   5.725   1.259
 9347SOL    HW228941   3.785   5.722   1.229
 9348SOL     OW28942   2.323   6.492   3.004
 9348SOL    HW128943   2.394   6.545   3.049
 9348SOL    HW228944   2.286   6.544   2.926
 9349SOL     OW28945   6.479   5.824   2.481
 9349SOL    HW128946   6.388   5.796   2.511
 9349SOL    HW228947   6.514   5.758   2.416
 9350SOL     OW28948   6.786   1.764   4.687
 9350SOL    HW128949   6.742   1.760   4.598
 9350SOL    HW228950   6.883   1.742   4.678
 9351SOL     OW28951   2.013   1.438   5.484
 9351SOL    HW128952   2.024   1.343   5.456
 9351SOL    HW228953   2.096   1.470   5.530
 9352SOL     OW28954   1.485   2.452   5.370
 9352SOL    HW128955   1.413   2.446   5.438
 9352SOL    HW228956   1.448   2.490   5.285
 9353SOL     OW28957   1.454   4.159   1.867
 9353SOL    HW128958   1.503   4.239   1.902
 9353SOL    HW228959   1.363   4.154   1.909
 9354SOL     OW28960   6.360   2.004   1.235
 9354SOL    HW128961   6.279   2.028   1.181
 9354SOL    HW228962   6.401   1.920   1.199
 9355SOL     OW28963   6.409   1.158   4.855
 9355SOL    HW128964   6.429   1.110   4.770
 9355SOL    HW228965   6.347   1.234   4.836
 9356SOL     OW28966   4.297   4.978   2.137
 9356SOL    HW128967   4.341   5.068   2.134
 9356SOL    HW228968   4.200   4.988   2.159
 9357SOL     OW28969   2.450   3.537   0.449
 9357SOL    HW128970   2.368   3.501   0.403
 9357SOL    HW228971   2.515   3.569   0.381
 9358SOL     OW28972   6.173   3.973   2.018
 9358SOL    HW128973   6.208   3.882   2.040
 9358SOL    HW228974   6.078   3.980   2.047
 9359SOL     OW28975   7.022   3.899   5.926
 9359SOL    HW128976   7.025   3.999   5.924
 9359SOL    HW228977   0.019   3.867   6.017
 9360SOL     OW28978   1.724   0.259   5.593
 9360SOL    HW128979   1.715   0.312   5.509
 9360SOL    HW228980   1.722   0.161   5.572
 9361SOL     OW28981   3.245   6.554   2.911
 9361SOL    HW128982   3.239   6.455   2.902
 9361SOL    HW228983   3.172   6.598   2.858
 9362SOL     OW28984   2.219   1.040   2.038
 9362SOL    HW128985   2.210   1.047   1.939
 9362SOL    HW228986   2.316   1.040   2.063
 9363SOL     OW28987   3.630   5.371   1.913
 9363SOL    HW128988   3.548   5.423   1.892
 9363SOL    HW228989   3.623   5.280   1.872
 9364SOL     OW28990   4.211   2.631   6.363
 9364SOL    HW128991   4.229   2.534   6.349
 9364SOL    HW228992   4.182   2.673   6.277
 9365SOL     OW28993   2.796   2.377   5.312
 9365SOL    HW128994   2.719   2.437   5.292
 9365SOL    HW228995   2.809   2.313   5.236
 9366SOL     OW28996   3.167   1.795   0.087
 9366SOL    HW128997   3.212   1.817   0.174
 9366SOL    HW228998   3.118   1.709   0.096
 9367SOL     OW28999   0.576   5.710   4.069
 9367SOL    HW129000   0.570   5.707   4.169
 9367SOL    HW229001   0.553   5.801   4.037
 9368SOL     OW29002   3.644   2.010   2.465
 9368SOL    HW129003   3.596   2.017   2.377
 9368SOL    HW229004   3.733   2.057   2.458
 9369SOL     OW29005   6.651   1.617   6.183
 9369SOL    HW129006   6.609   1.527   6.187
 9369SOL    HW229007   6.723   1.618   6.113
 9370SOL     OW29008   5.397   1.107   3.041
 9370SOL    HW129009   5.397   1.191   2.988
 9370SOL    HW229010   5.455   1.039   2.997
 9371SOL     OW29011   1.614   5.433   0.213
 9371SOL    HW129012   1.520   5.467   0.222
 9371SOL    HW229013   1.619   5.368   0.138
 9372SOL     OW29014   5.607   6.742   3.166
 9372SOL    HW129015   5.694   6.721   3.121
 9372SOL    HW229016   5.540   6.769   3.097
 9373SOL     OW29017   4.318   2.026   2.774
 9373SOL    HW129018   4.384   2.000   2.845
 9373SOL    HW229019   4.349   1.991   2.685
 9374SOL     OW29020   5.683   2.629   6.912
 9374SOL    HW129021   5.769   2.605   6.866
 9374SOL    HW229022   5.699   2.705   6.975
 9375SOL     OW29023   6.777   1.257   3.399
 9375SOL    HW129024   6.785   1.165   3.437
 9375SOL    HW229025   6.717   1.312   3.457
 9376SOL     OW29026   3.101   4.011   0.565
 9376SOL    HW129027   3.090   4.089   0.626
 9376SOL    HW229028   3.012   3.985   0.527
 9377SOL     OW29029   0.303   5.022   3.688
 9377SOL    HW129030   0.250   4.990   3.609
 9377SOL    HW229031   0.376   5.083   3.656
 9378SOL     OW29032   1.937   0.259   5.773
 9378SOL    HW129033   1.968   0.166   5.757
 9378SOL    HW229034   1.861   0.281   5.711
 9379SOL     OW29035   4.854   4.844   4.807
 9379SOL    HW129036   4.950   4.847   4.777
 9379SOL    HW229037   4.829   4.749   4.826
 9380SOL     OW29038   6.195   5.806   5.319
 9380SOL    HW129039   6.172   5.867   5.243
 9380SOL    HW229040   6.288   5.824   5.350
 9381SOL     OW29041   2.725   3.023   5.709
 9381SOL    HW129042   2.656   3.085   5.748
 9381SOL    HW229043   2.800   3.076   5.672
 9382SOL     OW29044   3.491   1.639   2.798
 9382SOL    HW129045   3.543   1.690   2.867
 9382SOL    HW229046   3.483   1.694   2.715
 9383SOL     OW29047   3.814   6.004   4.925
 9383SOL    HW129048   3.802   5.918   4.975
 9383SOL    HW229049   3.781   5.993   4.831
 9384SOL     OW29050   4.586   6.326   1.839
 9384SOL    HW129051   4.489   6.320   1.864
 9384SOL    HW229052   4.608   6.251   1.776
 9385SOL     OW29053   3.838   1.750   2.388
 9385SOL    HW129054   3.936   1.730   2.398
 9385SOL    HW229055   3.809   1.814   2.460
 9386SOL     OW29056   3.059   6.053   4.499
 9386SOL    HW129057   3.017   6.135   4.537
 9386SOL    HW229058   3.137   6.079   4.442
 9387SOL     OW29059   4.373   0.238   0.848
 9387SOL    HW129060   4.443   0.175   0.880
 9387SOL    HW229061   4.331   0.202   0.765
 9388SOL     OW29062   1.662   6.028   2.657
 9388SOL    HW129063   1.574   6.076   2.657
 9388SOL    HW229064   1.671   5.974   2.741
 9389SOL     OW29065   2.570   0.366   5.171
 9389SOL    HW129066   2.473   0.391   5.180
 9389SOL    HW229067   2.627   0.438   5.211
 9390SOL     OW29068   3.800   5.995   3.825
 9390SOL    HW129069   3.728   6.036   3.769
 9390SOL    HW229070   3.869   6.064   3.847
 9391SOL     OW29071   2.128   1.208   5.453
 9391SOL    HW129072   2.178   1.234   5.370
 9391SOL    HW229073   2.187   1.151   5.511
 9392SOL     OW29074   0.105   0.213   4.788
 9392SOL    HW129075   0.188   0.262   4.816
 9392SOL    HW229076   0.032   0.279   4.770
 9393SOL     OW29077   3.748   1.773   4.490
 9393SOL    HW129078   3.760   1.872   4.485
 9393SOL    HW229079   3.811   1.728   4.426
 9394SOL     OW29080   6.135   2.409   3.298
 9394SOL    HW129081   6.187   2.376   3.219
 9394SOL    HW229082   6.189   2.476   3.348
 9395SOL     OW29083   2.373   2.077   0.377
 9395SOL    HW129084   2.348   2.154   0.317
 9395SOL    HW229085   2.307   2.003   0.366
 9396SOL     OW29086   0.572   6.517   4.809
 9396SOL    HW129087   0.667   6.486   4.805
 9396SOL    HW229088   0.566   6.613   4.781
 9397SOL     OW29089   2.556   6.805   0.150
 9397SOL    HW129090   2.512   6.858   0.222
 9397SOL    HW229091   2.655   6.816   0.157
 9398SOL     OW29092   1.716   0.445   5.999
 9398SOL    HW129093   1.681   0.360   5.959
 9398SOL    HW229094   1.774   0.492   5.933
 9399SOL     OW29095   0.256   1.956   6.898
 9399SOL    HW129096   0.327   1.973   6.966
 9399SOL    HW229097   0.241   1.857   6.891
 9400SOL     OW29098   5.332   3.510   1.766
 9400SOL    HW129099   5.247   3.485   1.811
 9400SOL    HW229100   5.343   3.610   1.768
 9401SOL     OW29101   3.058   6.208   3.556
 9401SOL    HW129102   3.118   6.129   3.571
 9401SOL    HW229103   3.104   6.272   3.494
 9402SOL     OW29104   1.422   4.727   5.640
 9402SOL    HW129105   1.477   4.644   5.648
 9402SOL    HW229106   1.339   4.707   5.587
 9403SOL     OW29107   4.951   1.768   2.835
 9403SOL    HW129108   5.043   1.789   2.803
 9403SOL    HW229109   4.955   1.701   2.909
 9404SOL     OW29110   1.061   4.127   6.253
 9404SOL    HW129111   1.034   4.222   6.267
 9404SOL    HW229112   1.153   4.112   6.288
 9405SOL     OW29113   6.641   6.955   2.672
 9405SOL    HW129114   6.611   6.908   2.589
 9405SOL    HW229115   6.741   6.950   2.679
 9406SOL     OW29116   6.897   1.926   6.201
 9406SOL    HW129117   6.868   1.860   6.270
 9406SOL    HW229118   6.846   1.911   6.116
 9407SOL     OW29119   2.674   6.032   2.596
 9407SOL    HW129120   2.733   5.993   2.526
 9407SOL    HW229121   2.725   6.101   2.648
 9408SOL     OW29122   3.984   1.571   5.867
 9408SOL    HW129123   3.910   1.569   5.934
 9408SOL    HW229124   4.053   1.637   5.896
 9409SOL     OW29125   5.068   4.748   5.622
 9409SOL    HW129126   5.159   4.715   5.647
 9409SOL    HW229127   5.034   4.696   5.544
 9410SOL     OW29128   3.877   5.475   1.772
 9410SOL    HW129129   3.812   5.427   1.832
 9410SOL    HW229130   3.829   5.546   1.721
 9411SOL     OW29131   3.717   4.361   0.814
 9411SOL    HW129132   3.691   4.436   0.754
 9411SOL    HW229133   3.709   4.389   0.910
 9412SOL     OW29134   0.073   3.279   1.539
 9412SOL    HW129135   0.125   3.353   1.583
 9412SOL    HW229136   0.048   3.306   1.446
 9413SOL     OW29137   4.516   5.457   4.902
 9413SOL    HW129138   4.540   5.418   4.991
 9413SOL    HW229139   4.441   5.404   4.861
 9414SOL     OW29140   3.223   1.669   3.585
 9414SOL    HW129141   3.259   1.646   3.675
 9414SOL    HW229142   3.128   1.639   3.579
 9415SOL     OW29143   2.216   6.667   2.516
 9415SOL    HW129144   2.316   6.667   2.515
 9415SOL    HW229145   2.182   6.686   2.424
 9416SOL     OW29146   0.626   1.641   1.816
 9416SOL    HW129147   0.576   1.564   1.855
 9416SOL    HW229148   0.584   1.727   1.846
 9417SOL     OW29149   3.576   0.567   5.843
 9417SOL    HW129150   3.567   0.568   5.942
 9417SOL    HW229151   3.639   0.640   5.815
 9418SOL     OW29152   3.270   6.489   0.698
 9418SOL    HW129153   3.175   6.474   0.728
 9418SOL    HW229154   3.291   6.586   0.705
 9419SOL     OW29155   3.481   6.055   5.343
 9419SOL    HW129156   3.552   6.097   5.398
 9419SOL    HW229157   3.391   6.076   5.382
 9420SOL     OW29158   0.259   2.053   4.499
 9420SOL    HW129159   0.194   1.982   4.526
 9420SOL    HW229160   0.320   2.017   4.428
 9421SOL     OW29161   2.174   6.286   5.303
 9421SOL    HW129162   2.182   6.266   5.401
 9421SOL    HW229163   2.265   6.286   5.262
 9422SOL     OW29164   5.047   6.953   2.592
 9422SOL    HW129165   5.120   7.022   2.587
 9422SOL    HW229166   5.071   6.875   2.535
 9423SOL     OW29167   3.568   0.625   3.095
 9423SOL    HW129168   3.626   0.699   3.129
 9423SOL    HW229169   3.472   0.651   3.104
 9424SOL     OW29170   4.410   0.658   5.006
 9424SOL    HW129171   4.452   0.603   4.934
 9424SOL    HW229172   4.391   0.600   5.086
 9425SOL     OW29173   6.841   3.706   6.160
 9425SOL    HW129174   6.783   3.661   6.093
 9425SOL    HW229175   6.791   3.782   6.202
 9426SOL     OW29176   3.045   1.565   0.142
 9426SOL    HW129177   2.990   1.621   0.204
 9426SOL    HW229178   3.119   1.522   0.194
 9427SOL     OW29179   2.842   5.074   4.963
 9427SOL    HW129180   2.746   5.099   4.957
 9427SOL    HW229181   2.852   4.992   5.019
 9428SOL     OW29182   4.915   0.877   1.688
 9428SOL    HW129183   4.959   0.820   1.618
 9428SOL    HW229184   4.842   0.931   1.646
 9429SOL     OW29185   1.604   4.511   1.721
 9429SOL    HW129186   1.567   4.468   1.638
 9429SOL    HW229187   1.667   4.447   1.765
 9430SOL     OW29188   7.025   6.146   2.486
 9430SOL    HW129189   0.010   6.088   2.406
 9430SOL    HW229190   0.071   6.126   2.553
 9431SOL     OW29191   6.157   4.860   0.644
 9431SOL    HW129192   6.224   4.817   0.583
 9431SOL    HW229193   6.094   4.791   0.679
 9432SOL     OW29194   0.043   0.675   3.480
 9432SOL    HW129195   0.010   0.756   3.529
 9432SOL    HW229196   7.022   0.668   3.392
 9433SOL     OW29197   3.411   4.913   4.134
 9433SOL    HW129198   3.354   4.953   4.207
 9433SOL    HW229199   3.360   4.913   4.048
 9434SOL     OW29200   5.929   4.639   3.617
 9434SOL    HW129201   5.987   4.589   3.682
 9434SOL    HW229202   5.929   4.736   3.641
 9435SOL     OW29203   0.777   1.772   3.868
 9435SOL    HW129204   0.786   1.868   3.841
 9435SOL    HW229205   0.829   1.715   3.805
 9436SOL     OW29206   0.681   4.410   1.860
 9436SOL    HW129207   0.638   4.447   1.943
 9436SOL    HW229208   0.611   4.383   1.795
 9437SOL     OW29209   0.970   6.481   3.699
 9437SOL    HW129210   0.876   6.461   3.672
 9437SOL    HW229211   1.000   6.566   3.654
 9438SOL     OW29212   1.439   6.544   1.561
 9438SOL    HW129213   1.404   6.621   1.508
 9438SOL    HW229214   1.496   6.486   1.502
 9439SOL     OW29215   0.242   2.830   1.870
 9439SOL    HW129216   0.322   2.773   1.888
 9439SOL    HW229217   0.272   2.923   1.848
 9440SOL     OW29218   4.651   6.062   4.059
 9440SOL    HW129219   4.558   6.041   4.090
 9440SOL    HW229220   4.696   5.978   4.027
 9441SOL     OW29221   1.530   5.001   4.946
 9441SOL    HW129222   1.615   5.050   4.966
 9441SOL    HW229223   1.526   4.979   4.849
 9442SOL     OW29224   5.967   2.725   0.057
 9442SOL    HW129225   5.927   2.634   0.052
 9442SOL    HW229226   6.029   2.738   7.006
 9443SOL     OW29227   2.484   4.670   1.327
 9443SOL    HW129228   2.400   4.722   1.312
 9443SOL    HW229229   2.519   4.689   1.418
 9444SOL     OW29230   0.883   3.941   6.236
 9444SOL    HW129231   0.926   3.861   6.194
 9444SOL    HW229232   0.936   4.023   6.213
 9445SOL     OW29233   5.249   3.447   2.091
 9445SOL    HW129234   5.261   3.413   2.185
 9445SOL    HW229235   5.158   3.423   2.058
 9446SOL     OW29236   6.788   6.932   3.796
 9446SOL    HW129237   6.768   6.836   3.774
 9446SOL    HW229238   6.798   6.983   3.711
 9447SOL     OW29239   6.043   3.211   3.332
 9447SOL    HW129240   6.044   3.248   3.239
 9447SOL    HW229241   6.065   3.283   3.397
 9448SOL     OW29242   5.785   6.140   5.875
 9448SOL    HW129243   5.769   6.239   5.869
 9448SOL    HW229244   5.839   6.111   5.796
 9449SOL     OW29245   0.089   5.972   6.469
 9449SOL    HW129246   0.184   5.973   6.501
 9449SOL    HW229247   0.030   5.930   6.538
 9450SOL     OW29248   3.257   4.910   4.653
 9450SOL    HW129249   3.348   4.920   4.693
 9450SOL    HW229250   3.189   4.948   4.716
 9451SOL     OW29251   4.156   6.111   6.650
 9451SOL    HW129252   4.094   6.045   6.693
 9451SOL    HW229253   4.105   6.169   6.587
 9452SOL     OW29254   1.237   2.985   0.966
 9452SOL    HW129255   1.291   2.935   0.898
 9452SOL    HW229256   1.230   2.930   1.050
 9453SOL     OW29257   2.239   4.583   3.484
 9453SOL    HW129258   2.227   4.645   3.562
 9453SOL    HW229259   2.320   4.526   3.499
 9454SOL     OW29260   1.807   3.441   5.799
 9454SOL    HW129261   1.772   3.467   5.709
 9454SOL    HW229262   1.874   3.366   5.789
 9455SOL     OW29263   3.732   1.451   2.700
 9455SOL    HW129264   3.643   1.497   2.704
 9455SOL    HW229265   3.729   1.368   2.757
 9456SOL     OW29266   0.246   4.370   6.688
 9456SOL    HW129267   0.265   4.275   6.711
 9456SOL    HW229268   0.155   4.395   6.721
 9457SOL     OW29269   1.914   3.668   5.964
 9457SOL    HW129270   1.903   3.596   5.896
 9457SOL    HW229271   1.985   3.732   5.933
 9458SOL     OW29272   1.179   3.793   5.745
 9458SOL    HW129273   1.222   3.752   5.664
 9458SOL    HW229274   1.085   3.759   5.752
 9459SOL     OW29275   5.784   4.243   2.806
 9459SOL    HW129276   5.732   4.159   2.795
 9459SOL    HW229277   5.858   4.246   2.738
 9460SOL     OW29278   0.229   1.663   4.217
 9460SOL    HW129279   0.325   1.641   4.198
 9460SOL    HW229280   0.176   1.579   4.225
 9461SOL     OW29281   6.565   1.795   3.794
 9461SOL    HW129282   6.651   1.818   3.841
 9461SOL    HW229283   6.524   1.879   3.759
 9462SOL     OW29284   2.231   4.146   2.940
 9462SOL    HW129285   2.217   4.241   2.910
 9462SOL    HW229286   2.263   4.091   2.863
 9463SOL     OW29287   0.268   0.964   1.690
 9463SOL    HW129288   0.236   1.034   1.627
 9463SOL    HW229289   0.365   0.977   1.709
 9464SOL     OW29290   5.886   6.591   0.459
 9464SOL    HW129291   5.877   6.569   0.362
 9464SOL    HW229292   5.871   6.689   0.473
 9465SOL     OW29293   0.250   6.605   3.345
 9465SOL    HW129294   0.155   6.613   3.314
 9465SOL    HW229295   0.252   6.603   3.445
 9466SOL     OW29296   3.786   3.799   5.269
 9466SOL    HW129297   3.766   3.853   5.187
 9466SOL    HW229298   3.837   3.855   5.335
 9467SOL     OW29299   1.026   2.861   1.922
 9467SOL    HW129300   0.982   2.804   1.992
 9467SOL    HW229301   1.124   2.841   1.920
 9468SOL     OW29302   5.701   2.195   6.386
 9468SOL    HW129303   5.740   2.224   6.298
 9468SOL    HW229304   5.660   2.105   6.376
 9469SOL     OW29305   5.873   5.509   1.451
 9469SOL    HW129306   5.851   5.427   1.398
 9469SOL    HW229307   5.852   5.493   1.547
 9470SOL     OW29308   5.528   2.915   6.074
 9470SOL    HW129309   5.506   2.996   6.020
 9470SOL    HW229310   5.610   2.932   6.129
 9471SOL     OW29311   6.027   2.178   4.788
 9471SOL    HW129312   5.975   2.255   4.823
 9471SOL    HW229313   6.011   2.169   4.689
 9472SOL     OW29314   6.938   4.070   3.969
 9472SOL    HW129315   6.986   4.157   3.975
 9472SOL    HW229316   6.889   4.064   3.883
 9473SOL     OW29317   3.604   6.048   5.798
 9473SOL    HW129318   3.672   6.029   5.868
 9473SOL    HW229319   3.646   6.041   5.707
 9474SOL     OW29320   6.317   3.666   0.796
 9474SOL    HW129321   6.406   3.710   0.785
 9474SOL    HW229322   6.317   3.578   0.749
 9475SOL     OW29323   2.833   3.214   0.420
 9475SOL    HW129324   2.855   3.275   0.496
 9475SOL    HW229325   2.890   3.132   0.425
 9476SOL     OW29326   3.635   3.921   5.057
 9476SOL    HW129327   3.603   4.004   5.102
 9476SOL    HW229328   3.567   3.849   5.068
 9477SOL     OW29329   6.958   3.195   2.403
 9477SOL    HW129330   0.014   3.182   2.348
 9477SOL    HW229331   6.879   3.156   2.356
 9478SOL     OW29332   5.968   3.216   6.196
 9478SOL    HW129333   5.902   3.224   6.271
 9478SOL    HW229334   6.048   3.165   6.227
 9479SOL     OW29335   5.646   6.523   6.142
 9479SOL    HW129336   5.638   6.440   6.196
 9479SOL    HW229337   5.666   6.500   6.047
 9480SOL     OW29338   4.188   4.488   6.929
 9480SOL    HW129339   4.273   4.481   6.980
 9480SOL    HW229340   4.157   4.583   6.929
 9481SOL     OW29341   5.973   3.734   1.228
 9481SOL    HW129342   5.907   3.764   1.298
 9481SOL    HW229343   5.986   3.635   1.236
 9482SOL     OW29344   6.039   1.557   3.480
 9482SOL    HW129345   6.022   1.473   3.429
 9482SOL    HW229346   6.021   1.636   3.421
 9483SOL     OW29347   1.293   1.796   0.941
 9483SOL    HW129348   1.224   1.851   0.989
 9483SOL    HW229349   1.349   1.747   1.007
 9484SOL     OW29350   4.483   1.128   3.354
 9484SOL    HW129351   4.388   1.117   3.325
 9484SOL    HW229352   4.490   1.202   3.420
 9485SOL     OW29353   0.950   0.045   2.155
 9485SOL    HW129354   1.045   0.052   2.123
 9485SOL    HW229355   0.931   0.120   2.218
 9486SOL     OW29356   2.312   4.976   1.455
 9486SOL    HW129357   2.318   5.006   1.550
 9486SOL    HW229358   2.218   4.987   1.422
 9487SOL     OW29359   3.077   3.574   3.103
 9487SOL    HW129360   3.032   3.535   3.023
 9487SOL    HW229361   3.163   3.525   3.120
 9488SOL     OW29362   2.731   6.311   1.006
 9488SOL    HW129363   2.726   6.333   0.909
 9488SOL    HW229364   2.800   6.240   1.021
 9489SOL     OW29365   3.645   4.116   1.540
 9489SOL    HW129366   3.653   4.214   1.558
 9489SOL    HW229367   3.690   4.065   1.613
 9490SOL     OW29368   6.622   6.147   0.017
 9490SOL    HW129369   6.596   6.182   6.954
 9490SOL    HW229370   6.693   6.206   0.057
 9491SOL     OW29371   0.517   4.731   3.662
 9491SOL    HW129372   0.548   4.820   3.628
 9491SOL    HW229373   0.417   4.730   3.666
 9492SOL     OW29374   3.314   3.782   2.714
 9492SOL    HW129375   3.331   3.825   2.625
 9492SOL    HW229376   3.292   3.853   2.781
 9493SOL     OW29377   3.962   5.126   3.934
 9493SOL    HW129378   3.958   5.072   4.018
 9493SOL    HW229379   4.055   5.124   3.897
 9494SOL     OW29380   4.314   4.175   0.997
 9494SOL    HW129381   4.250   4.145   0.927
 9494SOL    HW229382   4.336   4.271   0.984
 9495SOL     OW29383   6.141   2.092   4.127
 9495SOL    HW129384   6.195   2.100   4.211
 9495SOL    HW229385   6.089   2.007   4.128
 9496SOL     OW29386   5.683   4.587   0.652
 9496SOL    HW129387   5.740   4.569   0.573
 9496SOL    HW229388   5.709   4.675   0.692
 9497SOL     OW29389   5.064   4.613   0.078
 9497SOL    HW129390   5.093   4.701   0.039
 9497SOL    HW229391   4.968   4.597   0.055
 9498SOL     OW29392   5.740   0.719   6.453
 9498SOL    HW129393   5.781   0.792   6.399
 9498SOL    HW229394   5.730   0.637   6.396
 9499SOL     OW29395   2.266   3.374   5.962
 9499SOL    HW129396   2.340   3.345   5.901
 9499SOL    HW229397   2.184   3.320   5.943
 9500SOL     OW29398   3.727   6.762   1.451
 9500SOL    HW129399   3.782   6.833   1.406
 9500SOL    HW229400   3.709   6.788   1.546
 9501SOL     OW29401   3.065   1.377   4.313
 9501SOL    HW129402   2.984   1.379   4.254
 9501SOL    HW229403   3.128   1.449   4.286
 9502SOL     OW29404   0.507   1.744   4.546
 9502SOL    HW129405   0.602   1.725   4.573
 9502SOL    HW229406   0.506   1.816   4.476
 9503SOL     OW29407   0.641   1.175   1.563
 9503SOL    HW129408   0.637   1.146   1.467
 9503SOL    HW229409   0.728   1.222   1.580
 9504SOL     OW29410   0.933   2.168   1.166
 9504SOL    HW129411   0.903   2.203   1.077
 9504SOL    HW229412   0.909   2.071   1.173
 9505SOL     OW29413   5.482   4.058   3.382
 9505SOL    HW129414   5.471   4.083   3.478
 9505SOL    HW229415   5.397   4.081   3.333
 9506SOL     OW29416   0.062   3.229   6.515
 9506SOL    HW129417   0.150   3.182   6.516
 9506SOL    HW229418   0.048   3.271   6.425
 9507SOL     OW29419   1.629   1.214   3.688
 9507SOL    HW129420   1.720   1.176   3.707
 9507SOL    HW229421   1.605   1.196   3.593
 9508SOL     OW29422   6.340   3.064   0.661
 9508SOL    HW129423   6.435   3.057   0.689
 9508SOL    HW229424   6.283   3.006   0.720
 9509SOL     OW29425   1.137   6.861   5.538
 9509SOL    HW129426   1.170   6.770   5.565
 9509SOL    HW229427   1.196   6.897   5.466
 9510SOL     OW29428   0.878   4.119   1.574
 9510SOL    HW129429   0.868   4.043   1.511
 9510SOL    HW229430   0.906   4.084   1.664
 9511SOL     OW29431   1.057   1.519   6.974
 9511SOL    HW129432   1.149   1.556   6.987
 9511SOL    HW229433   1.063   1.421   6.953
 9512SOL     OW29434   5.653   1.794   2.914
 9512SOL    HW129435   5.706   1.770   2.995
 9512SOL    HW229436   5.611   1.884   2.927
 9513SOL     OW29437   1.225   2.856   5.314
 9513SOL    HW129438   1.322   2.863   5.338
 9513SOL    HW229439   1.186   2.774   5.356
 9514SOL     OW29440   1.517   3.776   6.720
 9514SOL    HW129441   1.449   3.846   6.744
 9514SOL    HW229442   1.576   3.812   6.647
 9515SOL     OW29443   1.727   5.846   0.542
 9515SOL    HW129444   1.727   5.851   0.442
 9515SOL    HW229445   1.814   5.806   0.573
 9516SOL     OW29446   5.040   3.353   4.833
 9516SOL    HW129447   5.038   3.425   4.902
 9516SOL    HW229448   5.016   3.392   4.744
 9517SOL     OW29449   1.226   5.220   0.078
 9517SOL    HW129450   1.198   5.183   7.016
 9517SOL    HW229451   1.252   5.145   0.138
 9518SOL     OW29452   0.897   2.123   6.952
 9518SOL    HW129453   0.891   2.036   6.903
 9518SOL    HW229454   0.839   2.119   0.007
 9519SOL     OW29455   3.822   3.469   3.471
 9519SOL    HW129456   3.882   3.428   3.402
 9519SOL    HW229457   3.815   3.408   3.550
 9520SOL     OW29458   6.931   1.503   3.386
 9520SOL    HW129459   6.872   1.538   3.313
 9520SOL    HW229460   6.922   1.403   3.391
 9521SOL     OW29461   3.564   3.673   1.403
 9521SOL    HW129462   3.562   3.573   1.402
 9521SOL    HW229463   3.616   3.705   1.482
 9522SOL     OW29464   4.098   5.684   2.838
 9522SOL    HW129465   4.067   5.635   2.920
 9522SOL    HW229466   4.029   5.751   2.812
 9523SOL     OW29467   2.564   5.136   4.919
 9523SOL    HW129468   2.553   5.195   4.999
 9523SOL    HW229469   2.606   5.188   4.844
 9524SOL     OW29470   1.630   2.966   0.916
 9524SOL    HW129471   1.590   3.012   0.996
 9524SOL    HW229472   1.671   2.879   0.945
 9525SOL     OW29473   1.254   2.336   4.948
 9525SOL    HW129474   1.175   2.295   4.902
 9525SOL    HW229475   1.281   2.280   5.026
 9526SOL     OW29476   6.003   4.536   1.668
 9526SOL    HW129477   5.967   4.494   1.585
 9526SOL    HW229478   6.100   4.558   1.655
 9527SOL     OW29479   2.812   0.762   5.120
 9527SOL    HW129480   2.728   0.738   5.169
 9527SOL    HW229481   2.794   0.839   5.058
 9528SOL     OW29482   6.016   1.252   0.973
 9528SOL    HW129483   6.000   1.341   0.931
 9528SOL    HW229484   5.930   1.215   1.008
 9529SOL     OW29485   5.905   3.845   6.983
 9529SOL    HW129486   5.855   3.892   6.911
 9529SOL    HW229487   5.899   3.897   0.042
 9530SOL     OW29488   0.693   4.391   4.072
 9530SOL    HW129489   0.766   4.323   4.074
 9530SOL    HW229490   0.634   4.376   3.993
 9531SOL     OW29491   4.649   4.287   2.678
 9531SOL    HW129492   4.654   4.214   2.609
 9531SOL    HW229493   4.594   4.362   2.643
 9532SOL     OW29494   0.199   5.257   1.024
 9532SOL    HW129495   0.287   5.233   0.983
 9532SOL    HW229496   0.214   5.300   1.113
 9533SOL     OW29497   1.060   5.294   3.880
 9533SOL    HW129498   1.094   5.384   3.906
 9533SOL    HW229499   0.962   5.300   3.859
 9534SOL     OW29500   5.819   4.199   4.899
 9534SOL    HW129501   5.750   4.196   4.827
 9534SOL    HW229502   5.906   4.162   4.864
 9535SOL     OW29503   1.880   1.014   6.030
 9535SOL    HW129504   1.881   1.036   5.933
 9535SOL    HW229505   1.864   1.097   6.083
 9536SOL     OW29506   3.119   3.871   5.588
 9536SOL    HW129507   3.202   3.882   5.643
 9536SOL    HW229508   3.120   3.937   5.513
 9537SOL     OW29509   2.601   1.248   4.901
 9537SOL    HW129510   2.615   1.296   4.987
 9537SOL    HW229511   2.638   1.302   4.826
 9538SOL     OW29512   4.876   0.411   4.669
 9538SOL    HW129513   4.890   0.401   4.767
 9538SOL    HW229514   4.885   0.322   4.624
 9539SOL     OW29515   2.956   3.708   4.477
 9539SOL    HW129516   2.973   3.777   4.547
 9539SOL    HW229517   2.916   3.751   4.397
 9540SOL     OW29518   5.593   4.921   4.165
 9540SOL    HW129519   5.673   4.875   4.126
 9540SOL    HW229520   5.606   4.931   4.264
 9541SOL     OW29521   2.451   0.981   6.101
 9541SOL    HW129522   2.496   0.914   6.161
 9541SOL    HW229523   2.373   0.938   6.056
 9542SOL     OW29524   5.261   4.870   4.465
 9542SOL    HW129525   5.208   4.917   4.535
 9542SOL    HW229526   5.246   4.771   4.472
 9543SOL     OW29527   3.875   0.816   6.472
 9543SOL    HW129528   3.813   0.853   6.541
 9543SOL    HW229529   3.958   0.783   6.517
 9544SOL     OW29530   5.704   3.104   4.383
 9544SOL    HW129531   5.744   3.152   4.305
 9544SOL    HW229532   5.661   3.019   4.351
 9545SOL     OW29533   5.907   5.501   2.694
 9545SOL    HW129534   5.889   5.474   2.600
 9545SOL    HW229535   5.832   5.470   2.752
 9546SOL     OW29536   4.206   1.012   5.899
 9546SOL    HW129537   4.252   1.088   5.852
 9546SOL    HW229538   4.224   1.018   5.997
 9547SOL     OW29539   2.295   5.363   3.806
 9547SOL    HW129540   2.337   5.333   3.720
 9547SOL    HW229541   2.311   5.294   3.877
 9548SOL     OW29542   6.972   5.123   4.475
 9548SOL    HW129543   6.948   5.132   4.572
 9548SOL    HW229544   7.002   5.029   4.458
 9549SOL     OW29545   2.941   1.250   1.711
 9549SOL    HW129546   2.910   1.187   1.640
 9549SOL    HW229547   2.952   1.200   1.797
 9550SOL     OW29548   0.043   1.083   0.027
 9550SOL    HW129549   0.130   1.079   7.005
 9550SOL    HW229550   0.037   1.005   0.090
 9551SOL     OW29551   5.424   3.148   5.952
 9551SOL    HW129552   5.362   3.217   5.918
 9551SOL    HW229553   5.431   3.073   5.886
 9552SOL     OW29554   2.286   5.755   5.622
 9552SOL    HW129555   2.362   5.713   5.572
 9552SOL    HW229556   2.237   5.818   5.562
 9553SOL     OW29557   5.589   2.386   0.275
 9553SOL    HW129558   5.548   2.470   0.309
 9553SOL    HW229559   5.666   2.361   0.334
 9554SOL     OW29560   1.553   6.386   3.521
 9554SOL    HW129561   1.575   6.478   3.553
 9554SOL    HW229562   1.582   6.319   3.589
 9555SOL     OW29563   0.088   1.039   3.335
 9555SOL    HW129564   0.155   0.967   3.352
 9555SOL    HW229565   0.132   1.114   3.286
 9556SOL     OW29566   1.223   3.774   1.162
 9556SOL    HW129567   1.251   3.737   1.250
 9556SOL    HW229568   1.147   3.838   1.175
 9557SOL     OW29569   5.890   6.909   1.497
 9557SOL    HW129570   5.793   6.935   1.492
 9557SOL    HW229571   5.897   6.810   1.486
 9558SOL     OW29572   5.643   5.809   5.722
 9558SOL    HW129573   5.689   5.730   5.762
 9558SOL    HW229574   5.613   5.871   5.794
 9559SOL     OW29575   0.550   4.747   0.527
 9559SOL    HW129576   0.502   4.835   0.533
 9559SOL    HW229577   0.527   4.702   0.441
 9560SOL     OW29578   2.349   1.062   2.671
 9560SOL    HW129579   2.384   1.069   2.764
 9560SOL    HW229580   2.309   1.150   2.644
 9561SOL     OW29581   0.570   0.911   1.343
 9561SOL    HW129582   0.634   0.961   1.284
 9561SOL    HW229583   0.619   0.837   1.390
 9562SOL     OW29584   2.693   0.430   4.933
 9562SOL    HW129585   2.775   0.374   4.950
 9562SOL    HW229586   2.615   0.390   4.980
 9563SOL     OW29587   6.950   0.097   0.232
 9563SOL    HW129588   6.860   0.056   0.219
 9563SOL    HW229589   6.940   0.188   0.273
 9564SOL     OW29590   2.719   0.721   0.258
 9564SOL    HW129591   2.776   0.716   0.340
 9564SOL    HW229592   2.678   0.811   0.253
 9565SOL     OW29593   3.768   0.795   5.135
 9565SOL    HW129594   3.747   0.883   5.177
 9565SOL    HW229595   3.686   0.757   5.093
 9566SOL     OW29596   3.013   5.556   6.831
 9566SOL    HW129597   3.091   5.514   6.786
 9566SOL    HW229598   2.998   5.647   6.792
 9567SOL     OW29599   5.144   4.659   0.939
 9567SOL    HW129600   5.236   4.662   0.979
 9567SOL    HW229601   5.077   4.686   1.007
 9568SOL     OW29602   4.389   1.878   6.710
 9568SOL    HW129603   4.383   1.804   6.642
 9568SOL    HW229604   4.459   1.943   6.682
 9569SOL     OW29605   6.786   1.740   2.415
 9569SOL    HW129606   6.815   1.790   2.334
 9569SOL    HW229607   6.867   1.702   2.461
 9570SOL     OW29608   0.432   3.210   1.570
 9570SOL    HW129609   0.398   3.303   1.559
 9570SOL    HW229610   0.517   3.199   1.518
 9571SOL     OW29611   3.413   3.041   5.663
 9571SOL    HW129612   3.440   2.980   5.589
 9571SOL    HW229613   3.487   3.107   5.680
 9572SOL     OW29614   2.062   5.066   2.171
 9572SOL    HW129615   1.967   5.084   2.149
 9572SOL    HW229616   2.119   5.079   2.090
 9573SOL     OW29617   0.871   2.579   6.991
 9573SOL    HW129618   0.887   2.529   0.049
 9573SOL    HW229619   0.799   2.534   6.938
 9574SOL     OW29620   3.944   3.048   2.874
 9574SOL    HW129621   3.944   3.141   2.839
 9574SOL    HW229622   3.858   3.002   2.850
 9575SOL     OW29623   0.850   0.911   1.656
 9575SOL    HW129624   0.813   0.824   1.624
 9575SOL    HW229625   0.806   0.987   1.607
 9576SOL     OW29626   2.160   1.623   0.185
 9576SOL    HW129627   2.227   1.689   0.221
 9576SOL    HW229628   2.122   1.570   0.261
 9577SOL     OW29629   0.596   0.679   5.961
 9577SOL    HW129630   0.653   0.633   5.893
 9577SOL    HW229631   0.557   0.612   6.023
 9578SOL     OW29632   1.107   3.834   2.541
 9578SOL    HW129633   1.126   3.870   2.450
 9578SOL    HW229634   1.190   3.793   2.579
 9579SOL     OW29635   0.442   5.158   3.992
 9579SOL    HW129636   0.471   5.064   3.975
 9579SOL    HW229637   0.508   5.221   3.951
 9580SOL     OW29638   4.174   3.474   0.866
 9580SOL    HW129639   4.192   3.398   0.804
 9580SOL    HW229640   4.189   3.561   0.819
 9581SOL     OW29641   0.394   0.006   6.233
 9581SOL    HW129642   0.298   7.015   6.212
 9581SOL    HW229643   0.428   0.081   6.176
 9582SOL     OW29644   4.725   5.196   5.291
 9582SOL    HW129645   4.650   5.161   5.346
 9582SOL    HW229646   4.726   5.150   5.202
 9583SOL     OW29647   3.162   3.830   1.747
 9583SOL    HW129648   3.250   3.877   1.734
 9583SOL    HW229649   3.174   3.733   1.728
 9584SOL     OW29650   0.164   5.123   6.226
 9584SOL    HW129651   0.093   5.155   6.289
 9584SOL    HW229652   0.126   5.117   6.134
 9585SOL     OW29653   6.351   6.561   3.655
 9585SOL    HW129654   6.286   6.615   3.708
 9585SOL    HW229655   6.399   6.620   3.590
 9586SOL     OW29656   5.096   4.916   2.311
 9586SOL    HW129657   5.028   4.845   2.292
 9586SOL    HW229658   5.049   5.002   2.331
 9587SOL     OW29659   0.993   0.022   1.258
 9587SOL    HW129660   0.962   6.954   1.262
 9587SOL    HW229661   1.009   0.056   1.351
 9588SOL     OW29662   6.583   6.786   1.917
 9588SOL    HW129663   6.609   6.882   1.902
 9588SOL    HW229664   6.652   6.726   1.875
 9589SOL     OW29665   2.182   5.141   6.964
 9589SOL    HW129666   2.201   5.134   6.866
 9589SOL    HW229667   2.087   5.169   6.978
 9590SOL     OW29668   5.955   2.977   1.844
 9590SOL    HW129669   6.052   2.962   1.828
 9590SOL    HW229670   5.934   2.962   1.941
 9591SOL     OW29671   2.773   5.406   5.742
 9591SOL    HW129672   2.871   5.401   5.763
 9591SOL    HW229673   2.723   5.429   5.825
 9592SOL     OW29674   2.921   4.582   0.378
 9592SOL    HW129675   2.886   4.540   0.294
 9592SOL    HW229676   2.848   4.588   0.446
 9593SOL     OW29677   0.112   1.177   6.049
 9593SOL    HW129678   0.207   1.198   6.070
 9593SOL    HW229679   0.062   1.158   6.134
 9594SOL     OW29680   1.491   5.360   3.265
 9594SOL    HW129681   1.465   5.441   3.212
 9594SOL    HW229682   1.446   5.280   3.227
 9595SOL     OW29683   0.479   2.656   4.585
 9595SOL    HW129684   0.467   2.560   4.611
 9595SOL    HW229685   0.530   2.704   4.657
 9596SOL     OW29686   0.782   5.263   6.361
 9596SOL    HW129687   0.835   5.185   6.394
 9596SOL    HW229688   0.840   5.322   6.306
 9597SOL     OW29689   0.137   4.177   0.810
 9597SOL    HW129690   0.159   4.235   0.733
 9597SOL    HW229691   0.080   4.227   0.875
 9598SOL     OW29692   1.568   4.511   3.344
 9598SOL    HW129693   1.507   4.433   3.360
 9598SOL    HW229694   1.524   4.575   3.282
 9599SOL     OW29695   2.931   0.546   4.600
 9599SOL    HW129696   2.928   0.575   4.696
 9599SOL    HW229697   2.882   0.612   4.543
 9600SOL     OW29698   2.981   6.682   6.909
 9600SOL    HW129699   2.981   6.763   6.967
 9600SOL    HW229700   2.906   6.622   6.937
 9601SOL     OW29701   4.459   3.729   0.950
 9601SOL    HW129702   4.546   3.779   0.946
 9601SOL    HW229703   4.389   3.780   0.900
 9602SOL     OW29704   6.187   4.277   5.799
 9602SOL    HW129705   6.226   4.298   5.889
 9602SOL    HW229706   6.260   4.248   5.737
 9603SOL     OW29707   4.572   1.341   4.817
 9603SOL    HW129708   4.667   1.312   4.831
 9603SOL    HW229709   4.571   1.433   4.779
 9604SOL     OW29710   4.793   0.487   0.277
 9604SOL    HW129711   4.708   0.450   0.315
 9604SOL    HW229712   4.805   0.454   0.183
 9605SOL     OW29713   1.085   5.928   3.479
 9605SOL    HW129714   1.007   5.871   3.506
 9605SOL    HW229715   1.136   5.882   3.407
 9606SOL     OW29716   1.905   5.882   7.024
 9606SOL    HW129717   1.960   5.936   0.060
 9606SOL    HW229718   1.961   5.853   6.946
 9607SOL     OW29719   1.771   1.598   6.824
 9607SOL    HW129720   1.834   1.653   6.769
 9607SOL    HW229721   1.806   1.590   6.917
 9608SOL     OW29722   6.818   5.392   2.249
 9608SOL    HW129723   6.762   5.343   2.183
 9608SOL    HW229724   6.899   5.428   2.203
 9609SOL     OW29725   2.006   3.793   6.985
 9609SOL    HW129726   2.018   3.823   6.890
 9609SOL    HW229727   2.085   3.820   0.012
 9610SOL     OW29728   1.686   5.007   3.527
 9610SOL    HW129729   1.745   5.083   3.499
 9610SOL    HW229730   1.714   4.924   3.479
 9611SOL     OW29731   1.115   6.567   6.696
 9611SOL    HW129732   1.208   6.593   6.669
 9611SOL    HW229733   1.095   6.603   6.787
 9612SOL     OW29734   0.016   4.318   1.276
 9612SOL    HW129735   0.113   4.344   1.280
 9612SOL    HW229736   6.993   4.384   1.219
 9613SOL     OW29737   5.126   0.319   3.701
 9613SOL    HW129738   5.142   0.295   3.605
 9613SOL    HW229739   5.052   0.263   3.737
 9614SOL     OW29740   3.399   2.273   1.509
 9614SOL    HW129741   3.308   2.305   1.483
 9614SOL    HW229742   3.449   2.245   1.428
 9615SOL     OW29743   2.531   6.535   0.076
 9615SOL    HW129744   2.560   6.502   0.166
 9615SOL    HW229745   2.502   6.630   0.083
 9616SOL     OW29746   3.915   3.927   0.798
 9616SOL    HW129747   3.925   4.019   0.837
 9616SOL    HW229748   3.935   3.930   0.700
 9617SOL     OW29749   1.280   3.132   3.213
 9617SOL    HW129750   1.368   3.167   3.180
 9617SOL    HW229751   1.261   3.168   3.304
 9618SOL     OW29752   3.977   6.929   6.523
 9618SOL    HW129753   3.995   6.882   6.436
 9618SOL    HW229754   3.904   6.996   6.509
 9619SOL     OW29755   1.305   7.005   6.764
 9619SOL    HW129756   1.380   0.026   6.717
 9619SOL    HW229757   1.334   6.981   6.857
 9620SOL     OW29758   4.485   1.194   6.243
 9620SOL    HW129759   4.473   1.193   6.342
 9620SOL    HW229760   4.581   1.172   6.221
 9621SOL     OW29761   1.009   1.196   2.045
 9621SOL    HW129762   0.915   1.226   2.060
 9621SOL    HW229763   1.068   1.276   2.035
 9622SOL     OW29764   0.240   0.962   0.535
 9622SOL    HW129765   0.271   1.020   0.460
 9622SOL    HW229766   0.239   1.014   0.620
 9623SOL     OW29767   2.837   3.908   5.544
 9623SOL    HW129768   2.824   4.004   5.520
 9623SOL    HW229769   2.925   3.897   5.589
 9624SOL     OW29770   0.072   4.091   2.235
 9624SOL    HW129771   0.020   4.082   2.319
 9624SOL    HW229772   0.101   4.001   2.203
 9625SOL     OW29773   4.943   5.424   6.757
 9625SOL    HW129774   4.958   5.522   6.769
 9625SOL    HW229775   4.941   5.379   6.847
 9626SOL     OW29776   3.738   4.530   6.808
 9626SOL    HW129777   3.707   4.435   6.810
 9626SOL    HW229778   3.659   4.591   6.820
 9627SOL     OW29779   7.004   5.880   4.435
 9627SOL    HW129780   7.011   5.936   4.518
 9627SOL    HW229781   0.068   5.868   4.395
 9628SOL     OW29782   4.812   4.503   0.010
 9628SOL    HW129783   4.800   4.436   0.083
 9628SOL    HW229784   4.745   4.486   6.964
 9629SOL     OW29785   0.154   6.842   1.995
 9629SOL    HW129786   0.248   6.872   2.013
 9629SOL    HW229787   0.148   6.743   2.007
 9630SOL     OW29788   6.508   0.211   5.116
 9630SOL    HW129789   6.484   0.127   5.164
 9630SOL    HW229790   6.471   0.209   5.023
 9631SOL     OW29791   6.908   6.731   6.655
 9631SOL    HW129792   6.866   6.810   6.700
 9631SOL    HW229793   7.005   6.749   6.639
 9632SOL     OW29794   1.018   6.896   3.332
 9632SOL    HW129795   0.977   6.919   3.244
 9632SOL    HW229796   1.114   6.870   3.319
 9633SOL     OW29797   5.336   4.782   5.774
 9633SOL    HW129798   5.294   4.844   5.841
 9633SOL    HW229799   5.402   4.833   5.719
 9634SOL     OW29800   1.327   5.441   4.134
 9634SOL    HW129801   1.247   5.475   4.085
 9634SOL    HW229802   1.342   5.345   4.112
 9635SOL     OW29803   1.961   4.652   5.479
 9635SOL    HW129804   1.935   4.574   5.422
 9635SOL    HW229805   1.878   4.695   5.517
 9636SOL     OW29806   4.158   1.786   5.841
 9636SOL    HW129807   4.089   1.855   5.819
 9636SOL    HW229808   4.245   1.812   5.798
 9637SOL     OW29809   2.363   2.081   6.151
 9637SOL    HW129810   2.311   2.105   6.069
 9637SOL    HW229811   2.446   2.136   6.155
 9638SOL     OW29812   6.625   3.428   6.680
 9638SOL    HW129813   6.609   3.507   6.739
 9638SOL    HW229814   6.585   3.445   6.590
 9639SOL     OW29815   3.333   1.466   2.155
 9639SOL    HW129816   3.406   1.502   2.097
 9639SOL    HW229817   3.371   1.433   2.241
 9640SOL     OW29818   2.363   2.816   3.506
 9640SOL    HW129819   2.457   2.791   3.480
 9640SOL    HW229820   2.320   2.864   3.430
 9641SOL     OW29821   4.138   6.509   1.057
 9641SOL    HW129822   4.173   6.475   1.145
 9641SOL    HW229823   4.049   6.466   1.039
 9642SOL     OW29824   3.545   6.635   4.985
 9642SOL    HW129825   3.538   6.705   5.056
 9642SOL    HW229826   3.516   6.673   4.897
 9643SOL     OW29827   5.015   5.139   4.059
 9643SOL    HW129828   5.041   5.080   4.135
 9643SOL    HW229829   5.097   5.174   4.014
 9644SOL     OW29830   1.463   4.291   5.406
 9644SOL    HW129831   1.541   4.315   5.463
 9644SOL    HW229832   1.455   4.192   5.400
 9645SOL     OW29833   3.575   5.429   3.496
 9645SOL    HW129834   3.519   5.470   3.567
 9645SOL    HW229835   3.628   5.353   3.534
 9646SOL     OW29836   2.957   4.800   2.133
 9646SOL    HW129837   2.928   4.718   2.082
 9646SOL    HW229838   2.946   4.783   2.231
 9647SOL     OW29839   5.708   5.305   1.329
 9647SOL    HW129840   5.716   5.206   1.340
 9647SOL    HW229841   5.630   5.338   1.383
 9648SOL     OW29842   4.131   1.628   0.066
 9648SOL    HW129843   4.175   1.686   7.024
 9648SOL    HW229844   4.084   1.686   0.133
 9649SOL     OW29845   2.719   6.548   6.910
 9649SOL    HW129846   2.670   6.508   6.987
 9649SOL    HW229847   2.655   6.598   6.852
 9650SOL     OW29848   5.674   5.039   2.569
 9650SOL    HW129849   5.697   4.954   2.522
 9650SOL    HW229850   5.751   5.068   2.626
 9651SOL     OW29851   6.849   0.835   6.315
 9651SOL    HW129852   6.943   0.865   6.330
 9651SOL    HW229853   6.822   0.854   6.221
 9652SOL     OW29854   2.302   4.853   0.841
 9652SOL    HW129855   2.344   4.897   0.920
 9652SOL    HW229856   2.250   4.773   0.872
 9653SOL     OW29857   4.094   5.410   4.611
 9653SOL    HW129858   4.073   5.445   4.520
 9653SOL    HW229859   4.012   5.415   4.668
 9654SOL     OW29860   3.305   3.460   1.463
 9654SOL    HW129861   3.401   3.435   1.476
 9654SOL    HW229862   3.262   3.475   1.551
 9655SOL     OW29863   6.809   1.803   6.860
 9655SOL    HW129864   6.867   1.878   6.893
 9655SOL    HW229865   6.719   1.809   6.902
 9656SOL     OW29866   2.817   2.125   0.899
 9656SOL    HW129867   2.817   2.223   0.877
 9656SOL    HW229868   2.725   2.089   0.890
 9657SOL     OW29869   6.402   0.627   4.350
 9657SOL    HW129870   6.497   0.606   4.371
 9657SOL    HW229871   6.390   0.632   4.251
 9658SOL     OW29872   6.047   2.283   2.824
 9658SOL    HW129873   5.948   2.294   2.837
 9658SOL    HW229874   6.068   2.186   2.811
 9659SOL     OW29875   6.397   4.366   0.266
 9659SOL    HW129876   6.336   4.292   0.292
 9659SOL    HW229877   6.458   4.335   0.193
 9660SOL     OW29878   0.662   5.723   0.575
 9660SOL    HW129879   0.621   5.791   0.513
 9660SOL    HW229880   0.590   5.678   0.627
 9661SOL     OW29881   3.483   6.572   2.352
 9661SOL    HW129882   3.427   6.655   2.342
 9661SOL    HW229883   3.560   6.576   2.289
 9662SOL     OW29884   5.805   2.361   5.176
 9662SOL    HW129885   5.859   2.282   5.146
 9662SOL    HW229886   5.744   2.389   5.102
 9663SOL     OW29887   0.884   5.540   4.179
 9663SOL    HW129888   0.857   5.444   4.179
 9663SOL    HW229889   0.804   5.598   4.170
 9664SOL     OW29890   6.397   6.789   3.466
 9664SOL    HW129891   6.409   6.887   3.482
 9664SOL    HW229892   6.483   6.750   3.433
 9665SOL     OW29893   5.310   5.667   5.706
 9665SOL    HW129894   5.267   5.757   5.702
 9665SOL    HW229895   5.353   5.647   5.618
 9666SOL     OW29896   5.487   4.235   2.408
 9666SOL    HW129897   5.394   4.245   2.445
 9666SOL    HW229898   5.532   4.156   2.450
 9667SOL     OW29899   3.183   3.042   4.307
 9667SOL    HW129900   3.124   3.113   4.346
 9667SOL    HW229901   3.143   3.011   4.221
 9668SOL     OW29902   6.054   0.947   6.971
 9668SOL    HW129903   6.015   1.034   7.002
 9668SOL    HW229904   6.153   0.956   6.965
 9669SOL     OW29905   1.045   0.367   1.909
 9669SOL    HW129906   1.043   0.355   1.810
 9669SOL    HW229907   0.951   0.375   1.944
 9670SOL     OW29908   5.115   4.768   6.211
 9670SOL    HW129909   5.017   4.753   6.199
 9670SOL    HW229910   5.159   4.683   6.239
 9671SOL     OW29911   0.647   5.770   6.278
 9671SOL    HW129912   0.652   5.728   6.188
 9671SOL    HW229913   0.558   5.748   6.320
 9672SOL     OW29914   1.154   6.215   4.813
 9672SOL    HW129915   1.149   6.264   4.725
 9672SOL    HW229916   1.243   6.172   4.821
 9673SOL     OW29917   5.065   4.201   7.020
 9673SOL    HW129918   5.114   4.278   0.034
 9673SOL    HW229919   5.129   4.146   6.966
 9674SOL     OW29920   2.744   6.539   3.496
 9674SOL    HW129921   2.656   6.546   3.543
 9674SOL    HW229922   2.794   6.625   3.504
 9675SOL     OW29923   5.621   1.573   1.259
 9675SOL    HW129924   5.596   1.523   1.342
 9675SOL    HW229925   5.717   1.601   1.264
 9676SOL     OW29926   1.418   3.411   5.698
 9676SOL    HW129927   1.419   3.408   5.798
 9676SOL    HW229928   1.467   3.332   5.661
 9677SOL     OW29929   2.457   5.084   5.880
 9677SOL    HW129930   2.465   5.086   5.780
 9677SOL    HW229931   2.524   5.021   5.918
 9678SOL     OW29932   3.257   3.762   2.401
 9678SOL    HW129933   3.317   3.781   2.323
 9678SOL    HW229934   3.162   3.770   2.372
 9679SOL     OW29935   1.664   1.542   2.432
 9679SOL    HW129936   1.621   1.485   2.361
 9679SOL    HW229937   1.755   1.570   2.401
 9680SOL     OW29938   6.349   0.387   3.989
 9680SOL    HW129939   6.260   0.402   3.947
 9680SOL    HW229940   6.394   0.476   4.003
 9681SOL     OW29941   2.778   1.202   0.684
 9681SOL    HW129942   2.693   1.252   0.701
 9681SOL    HW229943   2.775   1.160   0.593
 9682SOL     OW29944   4.829   4.909   3.820
 9682SOL    HW129945   4.879   4.822   3.813
 9682SOL    HW229946   4.827   4.954   3.731
 9683SOL     OW29947   3.182   4.892   0.583
 9683SOL    HW129948   3.241   4.927   0.511
 9683SOL    HW229949   3.088   4.886   0.549
 9684SOL     OW29950   0.012   2.371   5.011
 9684SOL    HW129951   0.010   2.330   4.919
 9684SOL    HW229952   6.964   2.332   5.066
 9685SOL     OW29953   2.182   3.246   0.789
 9685SOL    HW129954   2.114   3.296   0.843
 9685SOL    HW229955   2.250   3.206   0.850
 9686SOL     OW29956   5.737   1.945   0.917
 9686SOL    HW129957   5.693   1.873   0.863
 9686SOL    HW229958   5.824   1.912   0.953
 9687SOL     OW29959   2.212   0.674   4.160
 9687SOL    HW129960   2.299   0.708   4.124
 9687SOL    HW229961   2.165   0.620   4.090
 9688SOL     OW29962   0.083   2.314   3.578
 9688SOL    HW129963   0.106   2.344   3.486
 9688SOL    HW229964   0.106   2.385   3.644
 9689SOL     OW29965   2.166   6.208   1.033
 9689SOL    HW129966   2.115   6.232   0.950
 9689SOL    HW229967   2.253   6.167   1.008
 9690SOL     OW29968   5.669   5.538   6.472
 9690SOL    HW129969   5.579   5.512   6.508
 9690SOL    HW229970   5.713   5.458   6.431
 9691SOL     OW29971   2.587   4.462   1.546
 9691SOL    HW129972   2.603   4.560   1.558
 9691SOL    HW229973   2.672   4.418   1.518
 9692SOL     OW29974   2.811   4.883   2.855
 9692SOL    HW129975   2.795   4.980   2.838
 9692SOL    HW229976   2.850   4.871   2.946
 9693SOL     OW29977   6.149   5.202   1.566
 9693SOL    HW129978   6.221   5.182   1.499
 9693SOL    HW229979   6.060   5.181   1.526
 9694SOL     OW29980   2.381   1.409   5.972
 9694SOL    HW129981   2.283   1.396   5.955
 9694SOL    HW229982   2.433   1.362   5.901
 9695SOL     OW29983   6.881   3.919   1.434
 9695SOL    HW129984   6.874   3.899   1.337
 9695SOL    HW229985   6.810   3.984   1.460
 9696SOL     OW29986   5.162   2.262   0.997
 9696SOL    HW129987   5.206   2.347   0.968
 9696SOL    HW229988   5.066   2.264   0.970
 9697SOL     OW29989   6.919   5.589   6.678
 9697SOL    HW129990   6.929   5.491   6.663
 9697SOL    HW229991   6.847   5.625   6.617
 9698SOL     OW29992   5.504   1.206   6.206
 9698SOL    HW129993   5.424   1.264   6.189
 9698SOL    HW229994   5.587   1.262   6.202
 9699SOL     OW29995   0.222   4.564   6.488
 9699SOL    HW129996   0.242   4.499   6.562
 9699SOL    HW229997   0.155   4.524   6.425
 9700SOL     OW29998   4.172   5.603   5.283
 9700SOL    HW129999   4.208   5.525   5.232
 9700SOL    HW230000   4.141   5.573   5.373
 9701SOL     OW30001   3.583   5.353   4.504
 9701SOL    HW130002   3.651   5.284   4.531
 9701SOL    HW230003   3.624   5.444   4.511
 9702SOL     OW30004   5.645   0.471   0.342
 9702SOL    HW130005   5.624   0.375   0.322
 9702SOL    HW230006   5.664   0.481   0.440
 9703SOL     OW30007   3.950   5.684   3.568
 9703SOL    HW130008   3.914   5.750   3.501
 9703SOL    HW230009   3.883   5.671   3.641
 9704SOL     OW30010   3.109   1.258   2.091
 9704SOL    HW130011   3.196   1.289   2.055
 9704SOL    HW230012   3.060   1.335   2.131
 9705SOL     OW30013   5.125   5.959   0.629
 9705SOL    HW130014   5.214   5.943   0.671
 9705SOL    HW230015   5.133   5.950   0.529
 9706SOL     OW30016   1.017   2.585   0.764
 9706SOL    HW130017   0.921   2.570   0.783
 9706SOL    HW230018   1.073   2.537   0.832
 9707SOL     OW30019   6.684   4.099   1.486
 9707SOL    HW130020   6.674   4.124   1.582
 9707SOL    HW230021   6.715   4.178   1.433
 9708SOL     OW30022   1.395   2.133   3.127
 9708SOL    HW130023   1.386   2.189   3.209
 9708SOL    HW230024   1.424   2.190   3.050
 9709SOL     OW30025   6.218   5.717   2.839
 9709SOL    HW130026   6.134   5.669   2.864
 9709SOL    HW230027   6.284   5.709   2.914
 9710SOL     OW30028   0.797   1.659   2.450
 9710SOL    HW130029   0.774   1.704   2.536
 9710SOL    HW230030   0.730   1.685   2.380
 9711SOL     OW30031   1.627   3.050   5.687
 9711SOL    HW130032   1.627   3.114   5.610
 9711SOL    HW230033   1.544   3.062   5.741
 9712SOL     OW30034   5.525   3.737   5.412
 9712SOL    HW130035   5.604   3.790   5.444
 9712SOL    HW230036   5.447   3.754   5.472
 9713SOL     OW30037   1.196   4.358   3.611
 9713SOL    HW130038   1.156   4.426   3.550
 9713SOL    HW230039   1.141   4.351   3.694
 9714SOL     OW30040   2.331   1.778   1.451
 9714SOL    HW130041   2.373   1.715   1.385
 9714SOL    HW230042   2.303   1.862   1.405
 9715SOL     OW30043   6.068   4.741   5.388
 9715SOL    HW130044   6.027   4.650   5.378
 9715SOL    HW230045   6.022   4.805   5.326
 9716SOL     OW30046   4.053   2.649   6.921
 9716SOL    HW130047   4.126   2.622   6.982
 9716SOL    HW230048   4.040   2.748   6.926
 9717SOL     OW30049   6.108   5.555   5.901
 9717SOL    HW130050   6.155   5.636   5.865
 9717SOL    HW230051   6.064   5.579   5.988
 9718SOL     OW30052   4.957   3.018   1.844
 9718SOL    HW130053   4.864   3.019   1.883
 9718SOL    HW230054   5.022   3.047   1.914
 9719SOL     OW30055   0.461   2.074   0.048
 9719SOL    HW130056   0.442   2.042   0.141
 9719SOL    HW230057   0.544   2.029   0.014
 9720SOL     OW30058   0.410   5.693   1.722
 9720SOL    HW130059   0.479   5.708   1.793
 9720SOL    HW230060   0.320   5.720   1.756
 9721SOL     OW30061   0.770   2.850   1.378
 9721SOL    HW130062   0.733   2.875   1.288
 9721SOL    HW230063   0.791   2.753   1.379
 9722SOL     OW30064   0.469   0.118   3.657
 9722SOL    HW130065   0.448   0.074   3.570
 9722SOL    HW230066   0.476   0.049   3.729
 9723SOL     OW30067   2.128   6.006   3.580
 9723SOL    HW130068   2.115   6.086   3.522
 9723SOL    HW230069   2.222   5.973   3.571
 9724SOL     OW30070   2.760   3.148   0.768
 9724SOL    HW130071   2.690   3.174   0.835
 9724SOL    HW230072   2.788   3.228   0.715
 9725SOL     OW30073   4.046   3.470   6.654
 9725SOL    HW130074   4.134   3.505   6.686
 9725SOL    HW230075   4.059   3.421   6.568
 9726SOL     OW30076   4.389   6.705   4.157
 9726SOL    HW130077   4.303   6.678   4.200
 9726SOL    HW230078   4.459   6.637   4.179
 9727SOL     OW30079   0.725   3.797   5.059
 9727SOL    HW130080   0.714   3.894   5.081
 9727SOL    HW230081   0.661   3.743   5.114
 9728SOL     OW30082   0.729   0.149   6.470
 9728SOL    HW130083   0.727   0.049   6.467
 9728SOL    HW230084   0.728   0.185   6.377
 9729SOL     OW30085   0.763   4.579   2.277
 9729SOL    HW130086   0.787   4.583   2.374
 9729SOL    HW230087   0.810   4.651   2.228
 9730SOL     OW30088   0.300   3.366   2.773
 9730SOL    HW130089   0.342   3.366   2.863
 9730SOL    HW230090   0.268   3.274   2.750
 9731SOL     OW30091   4.416   4.323   0.697
 9731SOL    HW130092   4.316   4.323   0.705
 9731SOL    HW230093   4.447   4.232   0.671
 9732SOL     OW30094   5.184   5.804   3.026
 9732SOL    HW130095   5.132   5.836   2.947
 9732SOL    HW230096   5.203   5.882   3.087
 9733SOL     OW30097   5.276   5.197   6.197
 9733SOL    HW130098   5.309   5.215   6.104
 9733SOL    HW230099   5.177   5.191   6.197
 9734SOL     OW30100   5.006   2.150   3.600
 9734SOL    HW130101   5.006   2.083   3.525
 9734SOL    HW230102   4.912   2.168   3.629
 9735SOL     OW30103   1.848   4.467   2.590
 9735SOL    HW130104   1.903   4.481   2.508
 9735SOL    HW230105   1.830   4.369   2.601
 9736SOL     OW30106   6.287   1.488   6.078
 9736SOL    HW130107   6.342   1.571   6.068
 9736SOL    HW230108   6.203   1.497   6.025
 9737SOL     OW30109   6.389   3.148   5.162
 9737SOL    HW130110   6.357   3.079   5.227
 9737SOL    HW230111   6.488   3.145   5.157
 9738SOL     OW30112   1.609   0.297   3.183
 9738SOL    HW130113   1.692   0.254   3.220
 9738SOL    HW230114   1.529   0.244   3.209
 9739SOL     OW30115   6.731   5.099   1.748
 9739SOL    HW130116   6.808   5.101   1.812
 9739SOL    HW230117   6.657   5.157   1.783
 9740SOL     OW30118   6.881   3.347   3.574
 9740SOL    HW130119   6.876   3.433   3.523
 9740SOL    HW230120   6.930   3.362   3.660
 9741SOL     OW30121   4.356   1.428   2.416
 9741SOL    HW130122   4.307   1.367   2.354
 9741SOL    HW230123   4.401   1.500   2.363
 9742SOL     OW30124   4.240   6.922   2.699
 9742SOL    HW130125   4.288   6.970   2.772
 9742SOL    HW230126   4.300   6.912   2.620
 9743SOL     OW30127   1.646   2.026   4.606
 9743SOL    HW130128   1.724   1.964   4.614
 9743SOL    HW230129   1.580   2.005   4.677
 9744SOL     OW30130   0.002   6.682   2.475
 9744SOL    HW130131   6.990   6.624   2.403
 9744SOL    HW230132   0.089   6.642   2.506
 9745SOL     OW30133   6.901   2.551   6.015
 9745SOL    HW130134   6.890   2.591   5.924
 9745SOL    HW230135   6.886   2.621   6.085
 9746SOL     OW30136   5.920   1.755   6.355
 9746SOL    HW130137   5.828   1.761   6.393
 9746SOL    HW230138   5.916   1.767   6.256
 9747SOL     OW30139   1.715   0.833   1.453
 9747SOL    HW130140   1.685   0.880   1.536
 9747SOL    HW230141   1.745   0.740   1.477
 9748SOL     OW30142   1.384   0.999   4.301
 9748SOL    HW130143   1.377   0.949   4.215
 9748SOL    HW230144   1.419   0.939   4.373
 9749SOL     OW30145   2.275   1.995   5.169
 9749SOL    HW130146   2.281   1.899   5.196
 9749SOL    HW230147   2.183   2.015   5.134
 9750SOL     OW30148   4.771   5.030   3.525
 9750SOL    HW130149   4.857   5.049   3.476
 9750SOL    HW230150   4.715   5.112   3.528
 9751SOL     OW30151   1.922   1.639   0.349
 9751SOL    HW130152   1.862   1.680   0.418
 9751SOL    HW230153   1.983   1.709   0.312
 9752SOL     OW30154   4.565   0.955   0.256
 9752SOL    HW130155   4.521   0.916   0.337
 9752SOL    HW230156   4.549   0.895   0.177
 9753SOL     OW30157   5.844   5.734   4.912
 9753SOL    HW130158   5.851   5.646   4.960
 9753SOL    HW230159   5.846   5.718   4.813
 9754SOL     OW30160   1.012   1.693   0.149
 9754SOL    HW130161   1.009   1.636   0.067
 9754SOL    HW230162   0.921   1.695   0.191
 9755SOL     OW30163   4.273   3.349   5.370
 9755SOL    HW130164   4.227   3.432   5.342
 9755SOL    HW230165   4.372   3.362   5.366
 9756SOL     OW30166   6.285   3.227   0.210
 9756SOL    HW130167   6.297   3.290   0.133
 9756SOL    HW230168   6.375   3.192   0.239
 9757SOL     OW30169   5.415   3.083   3.204
 9757SOL    HW130170   5.382   3.053   3.114
 9757SOL    HW230171   5.383   3.176   3.221
 9758SOL     OW30172   1.956   6.732   6.342
 9758SOL    HW130173   1.983   6.748   6.247
 9758SOL    HW230174   2.035   6.702   6.395
 9759SOL     OW30175   2.346   6.597   0.306
 9759SOL    HW130176   2.337   6.675   0.245
 9759SOL    HW230177   2.258   6.550   0.313
 9760SOL     OW30178   4.904   3.550   5.274
 9760SOL    HW130179   4.833   3.574   5.208
 9760SOL    HW230180   4.862   3.524   5.361
 9761SOL     OW30181   6.146   6.361   2.135
 9761SOL    HW130182   6.136   6.446   2.084
 9761SOL    HW230183   6.069   6.300   2.114
 9762SOL     OW30184   2.573   2.336   5.031
 9762SOL    HW130185   2.596   2.426   5.068
 9762SOL    HW230186   2.518   2.348   4.948
 9763SOL     OW30187   4.126   2.330   1.633
 9763SOL    HW130188   4.151   2.259   1.567
 9763SOL    HW230189   4.038   2.307   1.674
 9764SOL     OW30190   0.872   2.375   3.015
 9764SOL    HW130191   0.843   2.425   3.097
 9764SOL    HW230192   0.968   2.397   2.995
 9765SOL     OW30193   6.422   2.199   4.340
 9765SOL    HW130194   6.457   2.286   4.305
 9765SOL    HW230195   6.485   2.126   4.314
 9766SOL     OW30196   2.486   0.725   2.896
 9766SOL    HW130197   2.482   0.639   2.844
 9766SOL    HW230198   2.559   0.783   2.860
 9767SOL     OW30199   5.070   1.759   5.363
 9767SOL    HW130200   4.980   1.738   5.324
 9767SOL    HW230201   5.117   1.826   5.306
 9768SOL     OW30202   4.711   1.861   1.977
 9768SOL    HW130203   4.780   1.917   2.023
 9768SOL    HW230204   4.726   1.866   1.878
 9769SOL     OW30205   1.773   1.565   1.906
 9769SOL    HW130206   1.802   1.492   1.844
 9769SOL    HW230207   1.706   1.623   1.860
 9770SOL     OW30208   5.927   6.976   6.907
 9770SOL    HW130209   5.864   6.992   6.984
 9770SOL    HW230210   5.922   6.880   6.880
 9771SOL     OW30211   3.976   4.575   1.465
 9771SOL    HW130212   3.937   4.526   1.543
 9771SOL    HW230213   3.993   4.670   1.491
 9772SOL     OW30214   0.824   6.246   1.832
 9772SOL    HW130215   0.745   6.303   1.852
 9772SOL    HW230216   0.907   6.291   1.865
 9773SOL     OW30217   5.265   6.672   4.233
 9773SOL    HW130218   5.328   6.623   4.173
 9773SOL    HW230219   5.223   6.748   4.183
 9774SOL     OW30220   6.166   5.069   2.186
 9774SOL    HW130221   6.070   5.093   2.200
 9774SOL    HW230222   6.198   5.014   2.263
 9775SOL     OW30223   2.906   1.383   4.092
 9775SOL    HW130224   2.861   1.310   4.040
 9775SOL    HW230225   2.910   1.466   4.037
 9776SOL     OW30226   6.760   5.753   4.496
 9776SOL    HW130227   6.839   5.815   4.491
 9776SOL    HW230228   6.775   5.687   4.570
 9777SOL     OW30229   5.474   5.158   6.391
 9777SOL    HW130230   5.531   5.090   6.344
 9777SOL    HW230231   5.384   5.161   6.348
 9778SOL     OW30232   6.510   0.336   3.772
 9778SOL    HW130233   6.434   0.351   3.836
 9778SOL    HW230234   6.548   0.424   3.744
 9779SOL     OW30235   2.750   1.938   4.747
 9779SOL    HW130236   2.671   1.999   4.741
 9779SOL    HW230237   2.753   1.880   4.665
 9780SOL     OW30238   2.060   2.010   0.852
 9780SOL    HW130239   2.060   2.102   0.813
 9780SOL    HW230240   1.994   2.006   0.927
 9781SOL     OW30241   1.992   4.083   3.581
 9781SOL    HW130242   2.006   4.143   3.503
 9781SOL    HW230243   1.967   4.138   3.661
 9782SOL     OW30244   6.990   0.751   1.707
 9782SOL    HW130245   6.976   0.831   1.648
 9782SOL    HW230246   7.023   0.675   1.651
 9783SOL     OW30247   4.749   1.500   1.818
 9783SOL    HW130248   4.677   1.489   1.885
 9783SOL    HW230249   4.720   1.461   1.730
 9784SOL     OW30250   4.981   1.192   4.019
 9784SOL    HW130251   5.035   1.111   3.995
 9784SOL    HW230252   4.884   1.172   4.006
 9785SOL     OW30253   0.215   4.156   4.560
 9785SOL    HW130254   0.179   4.138   4.469
 9785SOL    HW230255   0.181   4.086   4.623
 9786SOL     OW30256   1.953   5.024   6.227
 9786SOL    HW130257   1.876   5.029   6.290
 9786SOL    HW230258   1.931   5.075   6.144
 9787SOL     OW30259   5.203   3.803   0.997
 9787SOL    HW130260   5.254   3.815   1.082
 9787SOL    HW230261   5.176   3.892   0.961
 9788SOL     OW30262   0.654   0.595   3.756
 9788SOL    HW130263   0.706   0.680   3.743
 9788SOL    HW230264   0.718   0.518   3.755
 9789SOL     OW30265   2.228   6.054   6.682
 9789SOL    HW130266   2.310   6.059   6.740
 9789SOL    HW230267   2.255   6.061   6.586
 9790SOL     OW30268   5.581   3.558   5.217
 9790SOL    HW130269   5.571   3.625   5.290
 9790SOL    HW230270   5.523   3.479   5.236
 9791SOL     OW30271   0.807   0.693   2.857
 9791SOL    HW130272   0.860   0.644   2.926
 9791SOL    HW230273   0.710   0.678   2.873
 9792SOL     OW30274   5.065   5.271   1.820
 9792SOL    HW130275   5.101   5.220   1.898
 9792SOL    HW230276   4.965   5.272   1.824
 9793SOL     OW30277   5.807   5.860   3.025
 9793SOL    HW130278   5.841   5.951   3.001
 9793SOL    HW230279   5.817   5.799   2.946
 9794SOL     OW30280   6.169   3.484   6.493
 9794SOL    HW130281   6.087   3.537   6.516
 9794SOL    HW230282   6.147   3.387   6.494
 9795SOL     OW30283   1.197   2.569   4.087
 9795SOL    HW130284   1.182   2.653   4.035
 9795SOL    HW230285   1.294   2.559   4.107
 9796SOL     OW30286   3.339   3.927   0.769
 9796SOL    HW130287   3.269   3.997   0.751
 9796SOL    HW230288   3.295   3.843   0.799
 9797SOL     OW30289   3.862   3.841   6.921
 9797SOL    HW130290   3.897   3.918   6.867
 9797SOL    HW230291   3.780   3.870   6.970
 9798SOL     OW30292   2.289   0.502   0.639
 9798SOL    HW130293   2.229   0.471   0.566
 9798SOL    HW230294   2.243   0.490   0.727
 9799SOL     OW30295   3.185   3.359   2.709
 9799SOL    HW130296   3.246   3.419   2.658
 9799SOL    HW230297   3.213   3.356   2.805
 9800SOL     OW30298   3.943   5.830   5.734
 9800SOL    HW130299   3.852   5.804   5.767
 9800SOL    HW230300   3.944   5.928   5.714
 9801SOL     OW30301   3.970   5.059   0.051
 9801SOL    HW130302   4.044   5.087   7.017
 9801SOL    HW230303   4.001   4.984   0.109
 9802SOL     OW30304   6.904   2.803   2.137
 9802SOL    HW130305   6.888   2.902   2.141
 9802SOL    HW230306   6.819   2.754   2.156
 9803SOL     OW30307   6.294   0.786   6.841
 9803SOL    HW130308   6.202   0.788   6.800
 9803SOL    HW230309   6.328   0.692   6.839
 9804SOL     OW30310   0.208   5.390   3.716
 9804SOL    HW130311   0.208   5.314   3.781
 9804SOL    HW230312   0.124   5.443   3.727
 9805SOL     OW30313   1.319   5.586   6.997
 9805SOL    HW130314   1.297   5.673   6.953
 9805SOL    HW230315   1.307   5.594   0.069
 9806SOL     OW30316   0.841   1.926   1.232
 9806SOL    HW130317   0.919   1.929   1.295
 9806SOL    HW230318   0.756   1.929   1.285
 9807SOL     OW30319   2.871   2.610   6.999
 9807SOL    HW130320   2.940   2.682   7.004
 9807SOL    HW230321   2.812   2.626   6.920
 9808SOL     OW30322   5.617   0.710   5.855
 9808SOL    HW130323   5.592   0.701   5.952
 9808SOL    HW230324   5.664   0.627   5.825
 9809SOL     OW30325   0.545   1.925   6.208
 9809SOL    HW130326   0.473   1.914   6.140
 9809SOL    HW230327   0.568   1.837   6.248
 9810SOL     OW30328   2.661   2.324   3.134
 9810SOL    HW130329   2.689   2.306   3.228
 9810SOL    HW230330   2.681   2.244   3.077
 9811SOL     OW30331   6.054   5.786   3.968
 9811SOL    HW130332   6.068   5.881   3.939
 9811SOL    HW230333   5.982   5.744   3.912
 9812SOL     OW30334   3.784   2.243   6.353
 9812SOL    HW130335   3.758   2.288   6.267
 9812SOL    HW230336   3.711   2.256   6.420
 9813SOL     OW30337   5.950   5.709   6.946
 9813SOL    HW130338   5.894   5.649   6.888
 9813SOL    HW230339   5.988   5.783   6.891
 9814SOL     OW30340   0.282   0.704   6.095
 9814SOL    HW130341   0.328   0.787   6.128
 9814SOL    HW230342   0.207   0.729   6.034
 9815SOL     OW30343   6.817   1.834   1.355
 9815SOL    HW130344   6.765   1.912   1.323
 9815SOL    HW230345   6.832   1.771   1.279
 9816SOL     OW30346   6.515   1.187   6.860
 9816SOL    HW130347   6.509   1.110   6.797
 9816SOL    HW230348   6.510   1.273   6.809
 9817SOL     OW30349   2.974   5.895   1.822
 9817SOL    HW130350   2.972   5.985   1.865
 9817SOL    HW230351   3.042   5.894   1.748
 9818SOL     OW30352   1.913   1.216   3.773
 9818SOL    HW130353   1.950   1.306   3.796
 9818SOL    HW230354   1.949   1.187   3.684
 9819SOL     OW30355   5.360   3.911   4.794
 9819SOL    HW130356   5.325   3.894   4.886
 9819SOL    HW230357   5.406   3.829   4.761
 9820SOL     OW30358   2.879   2.455   6.578
 9820SOL    HW130359   2.888   2.357   6.557
 9820SOL    HW230360   2.952   2.482   6.641
 9821SOL     OW30361   4.153   2.198   1.065
 9821SOL    HW130362   4.076   2.229   1.121
 9821SOL    HW230363   4.126   2.117   1.013
 9822SOL     OW30364   3.820   6.345   4.349
 9822SOL    HW130365   3.828   6.272   4.418
 9822SOL    HW230366   3.874   6.424   4.378
 9823SOL     OW30367   1.438   0.685   2.087
 9823SOL    HW130368   1.480   0.724   2.005
 9823SOL    HW230369   1.491   0.606   2.117
 9824SOL     OW30370   2.710   5.828   5.678
 9824SOL    HW130371   2.672   5.916   5.649
 9824SOL    HW230372   2.647   5.755   5.652
 9825SOL     OW30373   5.593   5.894   4.816
 9825SOL    HW130374   5.690   5.892   4.842
 9825SOL    HW230375   5.536   5.902   4.897
 9826SOL     OW30376   3.560   6.481   5.550
 9826SOL    HW130377   3.546   6.399   5.605
 9826SOL    HW230378   3.497   6.480   5.473
 9827SOL     OW30379   2.182   5.338   2.803
 9827SOL    HW130380   2.125   5.278   2.860
 9827SOL    HW230381   2.206   5.290   2.718
 9828SOL     OW30382   3.633   2.087   4.877
 9828SOL    HW130383   3.545   2.098   4.831
 9828SOL    HW230384   3.696   2.158   4.845
 9829SOL     OW30385   5.307   6.575   5.967
 9829SOL    HW130386   5.272   6.663   5.999
 9829SOL    HW230387   5.231   6.512   5.952
 9830SOL     OW30388   5.524   1.319   2.535
 9830SOL    HW130389   5.509   1.254   2.610
 9830SOL    HW230390   5.583   1.277   2.466
 9831SOL     OW30391   0.276   4.247   1.859
 9831SOL    HW130392   0.212   4.257   1.783
 9831SOL    HW230393   0.249   4.168   1.915
 9832SOL     OW30394   4.944   4.669   4.307
 9832SOL    HW130395   4.877   4.669   4.381
 9832SOL    HW230396   5.035   4.650   4.344
 9833SOL     OW30397   3.303   4.095   3.461
 9833SOL    HW130398   3.288   4.031   3.536
 9833SOL    HW230399   3.388   4.071   3.413
 9834SOL     OW30400   2.409   5.143   5.620
 9834SOL    HW130401   2.358   5.060   5.644
 9834SOL    HW230402   2.454   5.130   5.532
 9835SOL     OW30403   3.907   4.034   4.159
 9835SOL    HW130404   3.958   3.958   4.199
 9835SOL    HW230405   3.814   4.035   4.197
 9836SOL     OW30406   0.940   4.516   5.492
 9836SOL    HW130407   1.011   4.500   5.422
 9836SOL    HW230408   0.976   4.577   5.562
 9837SOL     OW30409   5.542   2.003   2.266
 9837SOL    HW130410   5.616   2.069   2.278
 9837SOL    HW230411   5.480   2.035   2.194
 9838SOL     OW30412   1.453   6.505   0.949
 9838SOL    HW130413   1.531   6.444   0.940
 9838SOL    HW230414   1.414   6.523   0.859
 9839SOL     OW30415   4.776   1.052   3.943
 9839SOL    HW130416   4.731   1.089   3.861
 9839SOL    HW230417   4.833   0.974   3.917
 9840SOL     OW30418   4.926   1.460   0.040
 9840SOL    HW130419   4.989   1.449   0.116
 9840SOL    HW230420   4.838   1.495   0.074
 9841SOL     OW30421   0.147   5.214   3.428
 9841SOL    HW130422   0.138   5.256   3.518
 9841SOL    HW230423   0.226   5.153   3.427
 9842SOL     OW30424   3.824   3.207   0.395
 9842SOL    HW130425   3.872   3.257   0.467
 9842SOL    HW230426   3.731   3.242   0.386
 9843SOL     OW30427   6.252   0.183   1.836
 9843SOL    HW130428   6.326   0.117   1.844
 9843SOL    HW230429   6.286   0.266   1.790
 9844SOL     OW30430   5.795   0.450   4.571
 9844SOL    HW130431   5.792   0.363   4.521
 9844SOL    HW230432   5.748   0.521   4.519
 9845SOL     OW30433   1.275   2.249   2.275
 9845SOL    HW130434   1.306   2.257   2.370
 9845SOL    HW230435   1.190   2.196   2.272
 9846SOL     OW30436   4.924   1.683   0.936
 9846SOL    HW130437   4.983   1.608   0.967
 9846SOL    HW230438   4.955   1.768   0.978
 9847SOL     OW30439   3.890   2.986   2.130
 9847SOL    HW130440   3.969   3.042   2.156
 9847SOL    HW230441   3.869   3.000   2.033
 9848SOL     OW30442   3.373   4.047   5.473
 9848SOL    HW130443   3.290   4.061   5.420
 9848SOL    HW230444   3.440   3.996   5.419
 9849SOL     OW30445   1.079   0.426   6.497
 9849SOL    HW130446   1.025   0.392   6.575
 9849SOL    HW230447   1.028   0.499   6.451
 9850SOL     OW30448   0.386   0.311   4.225
 9850SOL    HW130449   0.456   0.255   4.181
 9850SOL    HW230450   0.295   0.280   4.196
 9851SOL     OW30451   2.824   5.473   4.752
 9851SOL    HW130452   2.851   5.568   4.737
 9851SOL    HW230453   2.886   5.413   4.702
 9852SOL     OW30454   1.218   2.293   6.141
 9852SOL    HW130455   1.156   2.343   6.201
 9852SOL    HW230456   1.244   2.206   6.184
 9853SOL     OW30457   0.039   4.117   5.081
 9853SOL    HW130458   0.047   4.017   5.086
 9853SOL    HW230459   6.969   4.143   5.087
 9854SOL     OW30460   0.976   5.579   5.579
 9854SOL    HW130461   1.009   5.600   5.487
 9854SOL    HW230462   1.050   5.592   5.644
 9855SOL     OW30463   1.045   3.377   0.907
 9855SOL    HW130464   1.026   3.373   1.005
 9855SOL    HW230465   0.961   3.396   0.857
 9856SOL     OW30466   5.616   5.199   3.922
 9856SOL    HW130467   5.549   5.164   3.987
 9856SOL    HW230468   5.706   5.159   3.941
 9857SOL     OW30469   5.552   2.838   3.188
 9857SOL    HW130470   5.628   2.867   3.131
 9857SOL    HW230471   5.503   2.918   3.223
 9858SOL     OW30472   1.248   6.668   2.299
 9858SOL    HW130473   1.237   6.668   2.398
 9858SOL    HW230474   1.182   6.606   2.258
 9859SOL     OW30475   6.906   5.046   4.765
 9859SOL    HW130476   6.965   4.966   4.773
 9859SOL    HW230477   6.810   5.017   4.769
 9860SOL     OW30478   2.022   2.421   5.238
 9860SOL    HW130479   1.932   2.442   5.198
 9860SOL    HW230480   2.012   2.351   5.308
 9861SOL     OW30481   3.486   1.387   3.648
 9861SOL    HW130482   3.542   1.330   3.707
 9861SOL    HW230483   3.391   1.357   3.653
 9862SOL     OW30484   2.575   4.155   1.280
 9862SOL    HW130485   2.504   4.098   1.240
 9862SOL    HW230486   2.603   4.116   1.368
 9863SOL     OW30487   3.216   5.771   0.952
 9863SOL    HW130488   3.314   5.784   0.945
 9863SOL    HW230489   3.196   5.697   1.017
 9864SOL     OW30490   2.873   6.667   5.452
 9864SOL    HW130491   2.965   6.679   5.490
 9864SOL    HW230492   2.843   6.573   5.466
 9865SOL     OW30493   0.332   0.038   5.168
 9865SOL    HW130494   0.383   0.114   5.127
 9865SOL    HW230495   0.251   0.074   5.214
 9866SOL     OW30496   6.060   4.486   4.842
 9866SOL    HW130497   5.966   4.461   4.864
 9866SOL    HW230498   6.118   4.476   4.924
 9867SOL     OW30499   4.761   2.267   2.419
 9867SOL    HW130500   4.819   2.298   2.494
 9867SOL    HW230501   4.698   2.340   2.393
 9868SOL     OW30502   1.081   4.090   3.548
 9868SOL    HW130503   1.045   4.122   3.460
 9868SOL    HW230504   1.140   4.161   3.587
 9869SOL     OW30505   0.668   2.503   1.295
 9869SOL    HW130506   0.604   2.519   1.370
 9869SOL    HW230507   0.733   2.432   1.322
 9870SOL     OW30508   3.955   1.488   1.911
 9870SOL    HW130509   3.916   1.459   1.998
 9870SOL    HW230510   3.921   1.430   1.837
 9871SOL     OW30511   6.595   2.873   5.526
 9871SOL    HW130512   6.574   2.795   5.583
 9871SOL    HW230513   6.681   2.915   5.557
 9872SOL     OW30514   2.315   5.550   5.129
 9872SOL    HW130515   2.273   5.461   5.117
 9872SOL    HW230516   2.266   5.601   5.200
 9873SOL     OW30517   1.704   2.353   5.729
 9873SOL    HW130518   1.665   2.428   5.676
 9873SOL    HW230519   1.791   2.381   5.768
 9874SOL     OW30520   0.959   2.767   4.360
 9874SOL    HW130521   0.863   2.748   4.384
 9874SOL    HW230522   0.968   2.864   4.337
 9875SOL     OW30523   0.482   6.245   1.041
 9875SOL    HW130524   0.395   6.294   1.039
 9875SOL    HW230525   0.555   6.305   1.008
 9876SOL     OW30526   3.237   0.213   3.602
 9876SOL    HW130527   3.280   0.257   3.523
 9876SOL    HW230528   3.306   0.163   3.655
 9877SOL     OW30529   6.832   4.390   4.119
 9877SOL    HW130530   6.903   4.366   4.186
 9877SOL    HW230531   6.873   4.398   4.029
 9878SOL     OW30532   1.835   2.994   6.975
 9878SOL    HW130533   1.916   3.011   0.004
 9878SOL    HW230534   1.822   3.069   6.910
 9879SOL     OW30535   1.319   4.433   5.857
 9879SOL    HW130536   1.379   4.484   5.795
 9879SOL    HW230537   1.303   4.488   5.940
 9880SOL     OW30538   2.649   1.170   0.017
 9880SOL    HW130539   2.586   1.238   0.054
 9880SOL    HW230540   2.743   1.197   0.038
 9881SOL     OW30541   5.279   0.663   4.678
 9881SOL    HW130542   5.201   0.622   4.630
 9881SOL    HW230543   5.308   0.603   4.752
 9882SOL     OW30544   4.114   3.243   4.535
 9882SOL    HW130545   4.050   3.231   4.460
 9882SOL    HW230546   4.113   3.161   4.593
 9883SOL     OW30547   1.794   5.755   1.900
 9883SOL    HW130548   1.857   5.678   1.912
 9883SOL    HW230549   1.715   5.743   1.961
 9884SOL     OW30550   1.450   3.144   0.135
 9884SOL    HW130551   1.364   3.190   0.115
 9884SOL    HW230552   1.513   3.208   0.179
 9885SOL     OW30553   0.030   2.885   3.660
 9885SOL    HW130554   6.977   2.945   3.668
 9885SOL    HW230555   0.114   2.938   3.666
 9886SOL     OW30556   5.644   6.129   1.681
 9886SOL    HW130557   5.704   6.198   1.641
 9886SOL    HW230558   5.600   6.077   1.607
 9887SOL     OW30559   4.358   6.784   0.358
 9887SOL    HW130560   4.388   6.866   0.407
 9887SOL    HW230561   4.337   6.712   0.424
 9888SOL     OW30562   5.865   5.785   2.750
 9888SOL    HW130563   5.885   5.707   2.691
 9888SOL    HW230564   5.946   5.843   2.757
 9889SOL     OW30565   6.688   4.757   2.893
 9889SOL    HW130566   6.691   4.684   2.960
 9889SOL    HW230567   6.594   4.789   2.882
 9890SOL     OW30568   6.617   2.576   0.611
 9890SOL    HW130569   6.670   2.541   0.688
 9890SOL    HW230570   6.675   2.578   0.529
 9891SOL     OW30571   5.028   4.994   1.196
 9891SOL    HW130572   4.956   5.026   1.134
 9891SOL    HW230573   5.113   4.983   1.145
 9892SOL     OW30574   2.336   4.972   3.794
 9892SOL    HW130575   2.417   4.915   3.793
 9892SOL    HW230576   2.354   5.056   3.743
 9893SOL     OW30577   5.766   6.132   2.675
 9893SOL    HW130578   5.808   6.193   2.608
 9893SOL    HW230579   5.720   6.057   2.628
 9894SOL     OW30580   3.755   1.586   6.021
 9894SOL    HW130581   3.807   1.646   6.082
 9894SOL    HW230582   3.683   1.637   5.976
 9895SOL     OW30583   5.397   2.011   6.597
 9895SOL    HW130584   5.382   2.110   6.606
 9895SOL    HW230585   5.492   1.990   6.617
 9896SOL     OW30586   3.855   3.391   0.795
 9896SOL    HW130587   3.894   3.474   0.834
 9896SOL    HW230588   3.856   3.318   0.864
 9897SOL     OW30589   5.016   1.546   3.030
 9897SOL    HW130590   4.950   1.476   3.004
 9897SOL    HW230591   5.104   1.503   3.052
 9898SOL     OW30592   1.218   4.780   5.472
 9898SOL    HW130593   1.178   4.756   5.384
 9898SOL    HW230594   1.157   4.752   5.546
 9899SOL     OW30595   5.549   4.488   2.226
 9899SOL    HW130596   5.492   4.567   2.205
 9899SOL    HW230597   5.496   4.421   2.278
 9900SOL     OW30598   1.374   2.090   3.663
 9900SOL    HW130599   1.391   1.992   3.676
 9900SOL    HW230600   1.456   2.141   3.689
 9901SOL     OW30601   1.916   2.080   6.379
 9901SOL    HW130602   1.910   2.180   6.389
 9901SOL    HW230603   1.984   2.058   6.310
 9902SOL     OW30604   3.701   3.581   0.617
 9902SOL    HW130605   3.639   3.631   0.676
 9902SOL    HW230606   3.742   3.505   0.667
 9903SOL     OW30607   4.777   1.046   2.379
 9903SOL    HW130608   4.795   1.038   2.477
 9903SOL    HW230609   4.679   1.037   2.363
 9904SOL     OW30610   6.554   3.211   0.003
 9904SOL    HW130611   6.580   3.199   6.934
 9904SOL    HW230612   6.477   3.275   0.008
 9905SOL     OW30613   1.323   6.209   6.856
 9905SOL    HW130614   1.344   6.295   6.810
 9905SOL    HW230615   1.329   6.134   6.791
 9906SOL     OW30616   1.646   2.875   6.245
 9906SOL    HW130617   1.612   2.910   6.332
 9906SOL    HW230618   1.568   2.855   6.185
 9907SOL     OW30619   2.972   5.882   3.302
 9907SOL    HW130620   2.884   5.844   3.332
 9907SOL    HW230621   3.030   5.899   3.382
 9908SOL     OW30622   0.744   3.526   6.154
 9908SOL    HW130623   0.808   3.562   6.087
 9908SOL    HW230624   0.653   3.563   6.138
 9909SOL     OW30625   2.262   1.656   2.877
 9909SOL    HW130626   2.355   1.657   2.841
 9909SOL    HW230627   2.234   1.561   2.893
 9910SOL     OW30628   0.233   4.828   0.977
 9910SOL    HW130629   0.155   4.879   1.011
 9910SOL    HW230630   0.281   4.881   0.907
 9911SOL     OW30631   4.945   5.108   2.483
 9911SOL    HW130632   4.933   5.024   2.535
 9911SOL    HW230633   4.855   5.151   2.469
 9912SOL     OW30634   4.218   0.782   2.366
 9912SOL    HW130635   4.184   0.824   2.282
 9912SOL    HW230636   4.148   0.720   2.402
 9913SOL     OW30637   5.650   2.773   2.334
 9913SOL    HW130638   5.712   2.737   2.405
 9913SOL    HW230639   5.555   2.759   2.362
 9914SOL     OW30640   1.740   0.821   5.529
 9914SOL    HW130641   1.755   0.748   5.462
 9914SOL    HW230642   1.813   0.889   5.520
 9915SOL     OW30643   5.493   3.340   3.820
 9915SOL    HW130644   5.567   3.272   3.825
 9915SOL    HW230645   5.532   3.430   3.803
 9916SOL     OW30646   2.133   3.266   2.665
 9916SOL    HW130647   2.040   3.261   2.701
 9916SOL    HW230648   2.193   3.308   2.733
 9917SOL     OW30649   3.439   3.752   5.055
 9917SOL    HW130650   3.389   3.733   4.970
 9917SOL    HW230651   3.392   3.708   5.131
 9918SOL     OW30652   2.265   1.463   6.385
 9918SOL    HW130653   2.242   1.519   6.464
 9918SOL    HW230654   2.224   1.373   6.395
 9919SOL     OW30655   1.466   5.670   2.519
 9919SOL    HW130656   1.370   5.686   2.493
 9919SOL    HW230657   1.520   5.751   2.495
 9920SOL     OW30658   3.862   6.673   1.919
 9920SOL    HW130659   3.958   6.696   1.934
 9920SOL    HW230660   3.853   6.623   1.833
 9921SOL     OW30661   5.883   0.095   3.197
 9921SOL    HW130662   5.967   0.073   3.148
 9921SOL    HW230663   5.890   0.187   3.236
 9922SOL     OW30664   4.691   4.673   1.071
 9922SOL    HW130665   4.640   4.613   1.133
 9922SOL    HW230666   4.672   4.647   0.976
 9923SOL     OW30667   6.305   2.337   6.496
 9923SOL    HW130668   6.342   2.344   6.403
 9923SOL    HW230669   6.206   2.323   6.491
 9924SOL     OW30670   5.811   1.449   2.479
 9924SOL    HW130671   5.729   1.501   2.456
 9924SOL    HW230672   5.790   1.351   2.477
 9925SOL     OW30673   2.263   3.522   5.641
 9925SOL    HW130674   2.325   3.590   5.681
 9925SOL    HW230675   2.169   3.553   5.651
 9926SOL     OW30676   2.243   1.849   1.008
 9926SOL    HW130677   2.333   1.854   0.965
 9926SOL    HW230678   2.179   1.909   0.959
 9927SOL     OW30679   1.020   1.882   2.356
 9927SOL    HW130680   1.086   1.853   2.425
 9927SOL    HW230681   0.934   1.831   2.369
 9928SOL     OW30682   7.007   4.888   1.614
 9928SOL    HW130683   0.047   4.886   1.539
 9928SOL    HW230684   7.025   4.967   1.673
 9929SOL     OW30685   3.407   4.209   5.216
 9929SOL    HW130686   3.354   4.124   5.218
 9929SOL    HW230687   3.344   4.287   5.215
 9930SOL     OW30688   0.072   0.556   5.774
 9930SOL    HW130689   7.004   0.528   5.758
 9930SOL    HW230690   0.073   0.647   5.816
 9931SOL     OW30691   1.035   6.492   4.676
 9931SOL    HW130692   1.022   6.584   4.715
 9931SOL    HW230693   1.132   6.478   4.657
 9932SOL     OW30694   1.533   2.092   0.554
 9932SOL    HW130695   1.543   2.170   0.493
 9932SOL    HW230696   1.507   2.011   0.501
 9933SOL     OW30697   2.444   0.370   3.952
 9933SOL    HW130698   2.417   0.352   3.857
 9933SOL    HW230699   2.375   0.429   3.995
 9934SOL     OW30700   6.248   1.139   6.701
 9934SOL    HW130701   6.256   1.144   6.801
 9934SOL    HW230702   6.151   1.132   6.677
 9935SOL     OW30703   2.874   2.342   0.472
 9935SOL    HW130704   2.914   2.432   0.455
 9935SOL    HW230705   2.871   2.325   0.571
 9936SOL     OW30706   5.249   4.956   5.998
 9936SOL    HW130707   5.196   4.895   6.057
 9936SOL    HW230708   5.297   5.023   6.054
 9937SOL     OW30709   6.917   6.982   2.628
 9937SOL    HW130710   6.987   6.911   2.634
 9937SOL    HW230711   6.939   0.019   2.555
 9938SOL     OW30712   6.131   1.293   4.706
 9938SOL    HW130713   6.193   1.369   4.685
 9938SOL    HW230714   6.089   1.308   4.795
 9939SOL     OW30715   1.989   3.383   1.244
 9939SOL    HW130716   1.892   3.371   1.267
 9939SOL    HW230717   2.028   3.454   1.303
 9940SOL     OW30718   6.969   0.175   2.909
 9940SOL    HW130719   6.948   0.080   2.930
 9940SOL    HW230720   6.985   0.225   2.995
 9941SOL     OW30721   3.880   5.447   5.910
 9941SOL    HW130722   3.956   5.391   5.877
 9941SOL    HW230723   3.799   5.389   5.923
 9942SOL     OW30724   5.067   5.263   2.698
 9942SOL    HW130725   5.003   5.242   2.623
 9942SOL    HW230726   5.026   5.235   2.784
 9943SOL     OW30727   1.631   3.809   6.455
 9943SOL    HW130728   1.701   3.738   6.443
 9943SOL    HW230729   1.583   3.822   6.368
 9944SOL     OW30730   1.686   5.382   6.468
 9944SOL    HW130731   1.622   5.451   6.502
 9944SOL    HW230732   1.637   5.299   6.445
 9945SOL     OW30733   6.343   3.733   6.729
 9945SOL    HW130734   6.375   3.793   6.656
 9945SOL    HW230735   6.244   3.721   6.722
 9946SOL     OW30736   5.948   0.885   3.307
 9946SOL    HW130737   5.858   0.850   3.333
 9946SOL    HW230738   5.957   0.979   3.340
 9947SOL     OW30739   1.006   2.180   4.314
 9947SOL    HW130740   1.073   2.171   4.388
 9947SOL    HW230741   1.049   2.224   4.235
 9948SOL     OW30742   6.785   6.766   4.671
 9948SOL    HW130743   6.795   6.765   4.572
 9948SOL    HW230744   6.688   6.757   4.695
 9949SOL     OW30745   6.926   4.327   4.927
 9949SOL    HW130746   6.850   4.328   4.991
 9949SOL    HW230747   6.915   4.251   4.864
 9950SOL     OW30748   6.373   4.499   6.438
 9950SOL    HW130749   6.472   4.514   6.449
 9950SOL    HW230750   6.339   4.557   6.364
 9951SOL     OW30751   1.430   2.972   2.587
 9951SOL    HW130752   1.334   2.946   2.573
 9951SOL    HW230753   1.465   2.923   2.667
 9952SOL     OW30754   0.688   3.732   1.465
 9952SOL    HW130755   0.730   3.651   1.505
 9952SOL    HW230756   0.612   3.762   1.522
 9953SOL     OW30757   6.392   2.848   3.555
 9953SOL    HW130758   6.342   2.934   3.563
 9953SOL    HW230759   6.490   2.866   3.559
 9954SOL     OW30760   2.885   1.522   5.240
 9954SOL    HW130761   2.940   1.597   5.203
 9954SOL    HW230762   2.877   1.532   5.340
 9955SOL     OW30763   4.390   3.360   0.689
 9955SOL    HW130764   4.441   3.295   0.746
 9955SOL    HW230765   4.398   3.333   0.593
 9956SOL     OW30766   0.939   4.238   2.590
 9956SOL    HW130767   0.961   4.232   2.687
 9956SOL    HW230768   0.841   4.253   2.579
 9957SOL     OW30769   5.636   0.316   1.487
 9957SOL    HW130770   5.671   0.246   1.550
 9957SOL    HW230771   5.690   0.315   1.403
 9958SOL     OW30772   3.943   4.921   6.305
 9958SOL    HW130773   3.940   5.020   6.292
 9958SOL    HW230774   3.853   4.882   6.284
 9959SOL     OW30775   4.761   3.802   1.441
 9959SOL    HW130776   4.785   3.743   1.518
 9959SOL    HW230777   4.809   3.772   1.359
 9960SOL     OW30778   6.367   6.500   1.400
 9960SOL    HW130779   6.378   6.599   1.399
 9960SOL    HW230780   6.445   6.458   1.446
 9961SOL     OW30781   1.274   4.256   1.563
 9961SOL    HW130782   1.201   4.322   1.544
 9961SOL    HW230783   1.279   4.189   1.489
 9962SOL     OW30784   3.554   6.524   1.880
 9962SOL    HW130785   3.508   6.613   1.877
 9962SOL    HW230786   3.616   6.516   1.803
 9963SOL     OW30787   2.666   2.316   0.300
 9963SOL    HW130788   2.728   2.259   0.247
 9963SOL    HW230789   2.700   2.324   0.394
 9964SOL     OW30790   4.522   4.505   5.375
 9964SOL    HW130791   4.501   4.412   5.405
 9964SOL    HW230792   4.618   4.525   5.392
 9965SOL     OW30793   3.449   5.957   5.103
 9965SOL    HW130794   3.388   5.882   5.076
 9965SOL    HW230795   3.452   5.963   5.203
 9966SOL     OW30796   2.944   4.801   2.414
 9966SOL    HW130797   2.854   4.766   2.438
 9966SOL    HW230798   2.992   4.829   2.497
 9967SOL     OW30799   6.153   6.385   2.417
 9967SOL    HW130800   6.199   6.360   2.331
 9967SOL    HW230801   6.061   6.418   2.396
 9968SOL     OW30802   4.647   5.616   6.799
 9968SOL    HW130803   4.725   5.612   6.861
 9968SOL    HW230804   4.679   5.634   6.706
 9969SOL     OW30805   1.203   4.246   4.407
 9969SOL    HW130806   1.279   4.255   4.471
 9969SOL    HW230807   1.186   4.149   4.388
 9970SOL     OW30808   5.255   5.242   1.601
 9970SOL    HW130809   5.207   5.237   1.688
 9970SOL    HW230810   5.243   5.156   1.552
 9971SOL     OW30811   1.444   2.800   1.360
 9971SOL    HW130812   1.473   2.727   1.422
 9971SOL    HW230813   1.523   2.834   1.308
 9972SOL     OW30814   3.028   3.955   1.268
 9972SOL    HW130815   3.037   3.859   1.244
 9972SOL    HW230816   3.022   3.964   1.368
 9973SOL     OW30817   4.600   2.599   4.734
 9973SOL    HW130818   4.519   2.544   4.754
 9973SOL    HW230819   4.681   2.540   4.736
 9974SOL     OW30820   6.760   2.445   3.273
 9974SOL    HW130821   6.669   2.418   3.305
 9974SOL    HW230822   6.824   2.370   3.287
 9975SOL     OW30823   0.957   5.294   6.691
 9975SOL    HW130824   0.869   5.335   6.666
 9975SOL    HW230825   1.013   5.362   6.738
 9976SOL     OW30826   1.157   5.121   5.862
 9976SOL    HW130827   1.217   5.046   5.890
 9976SOL    HW230828   1.100   5.093   5.785
 9977SOL     OW30829   5.389   5.436   5.214
 9977SOL    HW130830   5.386   5.353   5.158
 9977SOL    HW230831   5.470   5.490   5.189
 9978SOL     OW30832   0.342   2.125   5.922
 9978SOL    HW130833   0.442   2.125   5.919
 9978SOL    HW230834   0.306   2.117   5.829
 9979SOL     OW30835   5.421   3.967   5.916
 9979SOL    HW130836   5.420   3.993   6.012
 9979SOL    HW230837   5.465   3.877   5.907
 9980SOL     OW30838   1.482   0.912   0.317
 9980SOL    HW130839   1.549   0.982   0.343
 9980SOL    HW230840   1.481   0.903   0.218
 9981SOL     OW30841   1.477   2.217   1.007
 9981SOL    HW130842   1.426   2.209   1.092
 9981SOL    HW230843   1.456   2.139   0.948
 9982SOL     OW30844   2.057   1.348   4.473
 9982SOL    HW130845   1.985   1.329   4.539
 9982SOL    HW230846   2.071   1.447   4.468
 9983SOL     OW30847   6.290   2.883   2.606
 9983SOL    HW130848   6.216   2.850   2.548
 9983SOL    HW230849   6.357   2.932   2.551
 9984SOL     OW30850   0.205   5.648   0.884
 9984SOL    HW130851   0.205   5.721   0.815
 9984SOL    HW230852   0.247   5.682   0.968
 9985SOL     OW30853   3.370   5.146   0.984
 9985SOL    HW130854   3.308   5.081   0.940
 9985SOL    HW230855   3.370   5.232   0.933
 9986SOL     OW30856   6.075   4.588   0.703
 9986SOL    HW130857   6.063   4.516   0.635
 9986SOL    HW230858   5.988   4.634   0.719
 9987SOL     OW30859   5.385   3.233   1.923
 9987SOL    HW130860   5.358   3.298   1.993
 9987SOL    HW230861   5.457   3.272   1.866
 9988SOL     OW30862   0.080   5.594   4.598
 9988SOL    HW130863   0.154   5.642   4.645
 9988SOL    HW230864   0.007   5.572   4.663
 9989SOL     OW30865   6.424   3.450   2.176
 9989SOL    HW130866   6.397   3.367   2.225
 9989SOL    HW230867   6.507   3.488   2.217
 9990SOL     OW30868   0.888   6.092   3.270
 9990SOL    HW130869   0.964   6.035   3.302
 9990SOL    HW230870   0.912   6.131   3.181
 9991SOL     OW30871   1.832   3.674   3.762
 9991SOL    HW130872   1.809   3.660   3.858
 9991SOL    HW230873   1.928   3.653   3.747
 9992SOL     OW30874   3.479   3.975   1.091
 9992SOL    HW130875   3.433   3.887   1.106
 9992SOL    HW230876   3.556   3.962   1.028
 9993SOL     OW30877   3.113   6.174   4.026
 9993SOL    HW130878   3.088   6.267   4.054
 9993SOL    HW230879   3.032   6.125   3.997
 9994SOL     OW30880   6.805   4.182   3.332
 9994SOL    HW130881   6.846   4.110   3.388
 9994SOL    HW230882   6.712   4.200   3.363
 9995SOL     OW30883   3.328   1.074   3.597
 9995SOL    HW130884   3.297   1.138   3.667
 9995SOL    HW230885   3.426   1.056   3.609
 9996SOL     OW30886   3.221   3.692   0.842
 9996SOL    HW130887   3.172   3.665   0.924
 9996SOL    HW230888   3.316   3.665   0.849
 9997SOL     OW30889   4.848   1.491   3.400
 9997SOL    HW130890   4.909   1.570   3.403
 9997SOL    HW230891   4.887   1.421   3.339
 9998SOL     OW30892   4.882   3.908   2.651
 9998SOL    HW130893   4.930   3.984   2.694
 9998SOL    HW230894   4.940   3.866   2.582
 9999SOL     OW30895   0.580   6.797   4.117
 9999SOL    HW130896   0.501   6.854   4.136
 9999SOL    HW230897   0.659   6.830   4.169
10000SOL     OW30898   5.777   1.459   1.518
10000SOL    HW130899   5.771   1.555   1.492
10000SOL    HW230900   5.684   1.423   1.533
10001SOL     OW30901   3.396   6.330   2.492
10001SOL    HW130902   3.312   6.370   2.530
10001SOL    HW230903   3.452   6.402   2.453
10002SOL     OW30904   2.501   1.461   1.331
10002SOL    HW130905   2.591   1.494   1.302
10002SOL    HW230906   2.431   1.496   1.270
10003SOL     OW30907   2.915   1.933   2.365
10003SOL    HW130908   2.905   2.031   2.379
10003SOL    HW230909   2.993   1.915   2.305
10004SOL     OW30910   5.414   4.779   4.777
10004SOL    HW130911   5.514   4.766   4.776
10004SOL    HW230912   5.369   4.690   4.772
10005SOL     OW30913   3.272   5.219   2.726
10005SOL    HW130914   3.303   5.125   2.710
10005SOL    HW230915   3.351   5.278   2.744
10006SOL     OW30916   5.274   0.634   5.337
10006SOL    HW130917   5.363   0.590   5.343
10006SOL    HW230918   5.251   0.676   5.425
10007SOL     OW30919   0.395   3.384   4.500
10007SOL    HW130920   0.458   3.460   4.516
10007SOL    HW230921   0.361   3.388   4.406
10008SOL     OW30922   4.853   1.851   3.599
10008SOL    HW130923   4.892   1.806   3.679
10008SOL    HW230924   4.925   1.871   3.534
10009SOL     OW30925   1.867   4.119   1.205
10009SOL    HW130926   1.820   4.118   1.117
10009SOL    HW230927   1.811   4.170   1.271
10010SOL     OW30928   2.654   5.709   6.779
10010SOL    HW130929   2.593   5.631   6.796
10010SOL    HW230930   2.733   5.677   6.726
10011SOL     OW30931   0.077   4.098   6.782
10011SOL    HW130932   0.157   4.049   6.746
10011SOL    HW230933   0.000   4.034   6.792
10012SOL     OW30934   4.673   0.495   2.462
10012SOL    HW130935   4.632   0.431   2.527
10012SOL    HW230936   4.646   0.589   2.486
10013SOL     OW30937   0.853   4.172   3.972
10013SOL    HW130938   0.836   4.096   3.910
10013SOL    HW230939   0.899   4.139   4.055
10014SOL     OW30940   1.607   6.780   2.377
10014SOL    HW130941   1.697   6.810   2.409
10014SOL    HW230942   1.608   6.774   2.277
10015SOL     OW30943   4.106   5.257   0.279
10015SOL    HW130944   4.055   5.239   0.195
10015SOL    HW230945   4.184   5.316   0.259
10016SOL     OW30946   2.493   1.585   4.953
10016SOL    HW130947   2.592   1.603   4.951
10016SOL    HW230948   2.466   1.560   5.046
10017SOL     OW30949   1.822   1.081   3.420
10017SOL    HW130950   1.736   1.131   3.405
10017SOL    HW230951   1.843   1.026   3.339
10018SOL     OW30952   6.421   4.027   5.588
10018SOL    HW130953   6.321   4.035   5.582
10018SOL    HW230954   6.445   3.974   5.669
10019SOL     OW30955   0.445   0.982   3.361
10019SOL    HW130956   0.375   0.911   3.352
10019SOL    HW230957   0.469   1.017   3.270
10020SOL     OW30958   0.611   1.011   2.379
10020SOL    HW130959   0.703   1.025   2.343
10020SOL    HW230960   0.564   0.940   2.326
10021SOL     OW30961   0.365   2.974   2.202
10021SOL    HW130962   0.381   2.987   2.300
10021SOL    HW230963   0.316   2.888   2.187
10022SOL     OW30964   2.414   5.537   0.079
10022SOL    HW130965   2.335   5.476   0.071
10022SOL    HW230966   2.456   5.525   0.169
10023SOL     OW30967   2.869   5.548   5.543
10023SOL    HW130968   2.806   5.535   5.466
10023SOL    HW230969   2.823   5.523   5.628
10024SOL     OW30970   0.772   5.160   3.023
10024SOL    HW130971   0.831   5.143   3.102
10024SOL    HW230972   0.681   5.184   3.054
10025SOL     OW30973   1.395   2.648   2.571
10025SOL    HW130974   1.395   2.662   2.670
10025SOL    HW230975   1.488   2.659   2.535
10026SOL     OW30976   4.885   0.149   3.706
10026SOL    HW130977   4.806   0.205   3.731
10026SOL    HW230978   4.877   0.122   3.610
10027SOL     OW30979   0.738   2.650   5.242
10027SOL    HW130980   0.659   2.624   5.186
10027SOL    HW230981   0.816   2.592   5.219
10028SOL     OW30982   2.472   1.276   1.003
10028SOL    HW130983   2.524   1.191   0.997
10028SOL    HW230984   2.471   1.309   1.097
10029SOL     OW30985   1.276   3.272   3.719
10029SOL    HW130986   1.245   3.330   3.795
10029SOL    HW230987   1.251   3.177   3.737
10030SOL     OW30988   3.431   0.373   5.053
10030SOL    HW130989   3.341   0.390   5.010
10030SOL    HW230990   3.478   0.460   5.065
10031SOL     OW30991   4.614   5.156   4.766
10031SOL    HW130992   4.560   5.092   4.821
10031SOL    HW230993   4.707   5.160   4.803
10032SOL     OW30994   3.993   0.100   6.044
10032SOL    HW130995   4.093   0.092   6.046
10032SOL    HW230996   3.952   0.012   6.066
10033SOL     OW30997   4.753   2.093   4.743
10033SOL    HW130998   4.693   2.163   4.781
10033SOL    HW230999   4.754   2.014   4.804
10034SOL     OW31000   2.271   1.081   3.985
10034SOL    HW131001   2.266   1.181   3.975
10034SOL    HW231002   2.203   1.038   3.926
10035SOL     OW31003   5.815   4.227   0.368
10035SOL    HW131004   5.792   4.161   0.297
10035SOL    HW231005   5.780   4.195   0.456
10036SOL     OW31006   6.628   0.960   0.895
10036SOL    HW131007   6.638   1.051   0.935
10036SOL    HW231008   6.658   0.962   0.800
10037SOL     OW31009   6.228   6.912   6.707
10037SOL    HW131010   6.220   6.928   6.806
10037SOL    HW231011   6.160   6.966   6.659
10038SOL     OW31012   4.445   0.056   5.866
10038SOL    HW131013   4.500   6.999   5.858
10038SOL    HW231014   4.444   0.104   5.778
10039SOL     OW31015   5.652   6.636   5.251
10039SOL    HW131016   5.566   6.658   5.207
10039SOL    HW231017   5.692   6.720   5.289
10040SOL     OW31018   4.460   6.275   5.730
10040SOL    HW131019   4.369   6.234   5.736
10040SOL    HW231020   4.454   6.371   5.758
10041SOL     OW31021   5.613   5.347   6.227
10041SOL    HW131022   5.564   5.291   6.293
10041SOL    HW231023   5.566   5.434   6.215
10042SOL     OW31024   0.202   1.128   5.346
10042SOL    HW131025   0.126   1.193   5.356
10042SOL    HW231026   0.234   1.129   5.251
10043SOL     OW31027   0.786   0.889   3.899
10043SOL    HW131028   0.823   0.874   3.807
10043SOL    HW231029   0.698   0.937   3.892
10044SOL     OW31030   2.888   2.326   3.695
10044SOL    HW131031   2.961   2.337   3.628
10044SOL    HW231032   2.819   2.397   3.680
10045SOL     OW31033   5.238   0.499   4.045
10045SOL    HW131034   5.154   0.473   4.093
10045SOL    HW231035   5.293   0.417   4.028
10046SOL     OW31036   1.483   2.432   1.189
10046SOL    HW131037   1.496   2.387   1.100
10046SOL    HW231038   1.547   2.394   1.255
10047SOL     OW31039   5.907   3.572   4.936
10047SOL    HW131040   5.953   3.502   4.990
10047SOL    HW231041   5.974   3.640   4.906
10048SOL     OW31042   3.603   2.076   2.738
10048SOL    HW131043   3.693   2.096   2.776
10048SOL    HW231044   3.611   2.057   2.641
10049SOL     OW31045   0.323   1.085   6.912
10049SOL    HW131046   0.321   1.182   6.938
10049SOL    HW231047   0.395   1.038   6.964
10050SOL     OW31048   6.154   2.737   5.342
10050SOL    HW131049   6.109   2.822   5.316
10050SOL    HW231050   6.151   2.726   5.441
10051SOL     OW31051   6.080   2.328   5.147
10051SOL    HW131052   6.147   2.398   5.171
10051SOL    HW231053   6.018   2.364   5.077
10052SOL     OW31054   1.821   2.431   2.381
10052SOL    HW131055   1.921   2.434   2.380
10052SOL    HW231056   1.787   2.506   2.438
10053SOL     OW31057   3.261   5.359   1.848
10053SOL    HW131058   3.342   5.414   1.869
10053SOL    HW231059   3.206   5.407   1.779
10054SOL     OW31060   4.192   6.199   5.798
10054SOL    HW131061   4.227   6.108   5.821
10054SOL    HW231062   4.189   6.255   5.881
10055SOL     OW31063   5.460   1.972   5.857
10055SOL    HW131064   5.445   1.873   5.860
10055SOL    HW231065   5.502   1.997   5.770
10056SOL     OW31066   6.777   5.291   0.480
10056SOL    HW131067   6.752   5.383   0.449
10056SOL    HW231068   6.871   5.292   0.514
10057SOL     OW31069   4.049   1.278   4.235
10057SOL    HW131070   4.119   1.348   4.253
10057SOL    HW231071   4.053   1.251   4.139
10058SOL     OW31072   0.281   3.815   4.747
10058SOL    HW131073   0.347   3.865   4.692
10058SOL    HW231074   0.189   3.850   4.730
10059SOL     OW31075   5.705   6.412   0.270
10059SOL    HW131076   5.640   6.346   0.233
10059SOL    HW231077   5.677   6.505   0.245
10060SOL     OW31078   2.235   1.577   2.006
10060SOL    HW131079   2.325   1.567   1.965
10060SOL    HW231080   2.204   1.488   2.041
10061SOL     OW31081   5.508   0.808   4.498
10061SOL    HW131082   5.418   0.771   4.473
10061SOL    HW231083   5.542   0.865   4.423
10062SOL     OW31084   6.345   6.678   4.563
10062SOL    HW131085   6.349   6.579   4.549
10062SOL    HW231086   6.391   6.702   4.648
10063SOL     OW31087   1.630   1.719   3.335
10063SOL    HW131088   1.662   1.635   3.293
10063SOL    HW231089   1.584   1.776   3.266
10064SOL     OW31090   5.629   6.330   6.707
10064SOL    HW131091   5.581   6.274   6.775
10064SOL    HW231092   5.563   6.368   6.642
10065SOL     OW31093   1.935   0.969   1.741
10065SOL    HW131094   1.929   0.870   1.727
10065SOL    HW231095   2.031   0.998   1.742
10066SOL     OW31096   1.880   1.138   4.050
10066SOL    HW131097   1.910   1.210   4.111
10066SOL    HW231098   1.882   1.170   3.956
10067SOL     OW31099   6.417   4.060   5.291
10067SOL    HW131100   6.410   4.019   5.382
10067SOL    HW231101   6.345   4.022   5.232
10068SOL     OW31102   5.942   3.377   3.864
10068SOL    HW131103   6.037   3.349   3.846
10068SOL    HW231104   5.941   3.451   3.931
10069SOL     OW31105   2.140   5.118   3.519
10069SOL    HW131106   2.044   5.096   3.501
10069SOL    HW231107   2.183   5.152   3.436
10070SOL     OW31108   6.776   0.188   5.451
10070SOL    HW131109   6.776   0.194   5.351
10070SOL    HW231110   6.866   0.214   5.486
10071SOL     OW31111   5.080   5.625   3.798
10071SOL    HW131112   5.063   5.614   3.895
10071SOL    HW231113   5.059   5.719   3.770
10072SOL     OW31114   0.500   5.982   4.005
10072SOL    HW131115   0.527   6.057   3.943
10072SOL    HW231116   0.470   6.020   4.092
10073SOL     OW31117   6.133   4.406   4.574
10073SOL    HW131118   6.210   4.364   4.623
10073SOL    HW231119   6.057   4.419   4.637
10074SOL     OW31120   1.409   0.933   5.148
10074SOL    HW131121   1.421   0.901   5.241
10074SOL    HW231122   1.487   0.990   5.121
10075SOL     OW31123   1.420   2.413   2.832
10075SOL    HW131124   1.449   2.507   2.813
10075SOL    HW231125   1.368   2.411   2.917
10076SOL     OW31126   6.158   0.040   3.850
10076SOL    HW131127   6.252   0.052   3.819
10076SOL    HW231128   6.102   0.007   3.774
10077SOL     OW31129   3.459   2.480   6.139
10077SOL    HW131130   3.439   2.572   6.173
10077SOL    HW231131   3.556   2.460   6.149
10078SOL     OW31132   0.162   6.223   4.122
10078SOL    HW131133   0.233   6.234   4.192
10078SOL    HW231134   0.120   6.132   4.130
10079SOL     OW31135   0.507   3.535   2.222
10079SOL    HW131136   0.427   3.550   2.280
10079SOL    HW231137   0.551   3.449   2.247
10080SOL     OW31138   3.499   1.101   5.826
10080SOL    HW131139   3.589   1.131   5.794
10080SOL    HW231140   3.431   1.171   5.805
10081SOL     OW31141   0.766   0.735   0.719
10081SOL    HW131142   0.807   0.821   0.748
10081SOL    HW231143   0.685   0.754   0.662
10082SOL     OW31144   6.926   4.322   2.354
10082SOL    HW131145   7.002   4.377   2.388
10082SOL    HW231146   6.945   4.226   2.369
10083SOL     OW31147   4.979   0.570   3.022
10083SOL    HW131148   4.957   0.562   3.119
10083SOL    HW231149   4.895   0.584   2.970
10084SOL     OW31150   3.211   1.277   6.090
10084SOL    HW131151   3.266   1.248   6.169
10084SOL    HW231152   3.244   1.230   6.008
10085SOL     OW31153   0.895   6.277   2.400
10085SOL    HW131154   0.880   6.364   2.446
10085SOL    HW231155   0.848   6.204   2.450
10086SOL     OW31156   5.648   5.028   1.504
10086SOL    HW131157   5.612   5.106   1.556
10086SOL    HW231158   5.598   4.945   1.528
10087SOL     OW31159   0.063   6.840   4.111
10087SOL    HW131160   0.089   6.886   4.196
10087SOL    HW231161   0.127   6.865   4.039
10088SOL     OW31162   6.807   0.477   0.171
10088SOL    HW131163   6.721   0.483   0.222
10088SOL    HW231164   6.813   0.551   0.104
10089SOL     OW31165   2.733   2.333   2.819
10089SOL    HW131166   2.768   2.363   2.907
10089SOL    HW231167   2.648   2.382   2.798
10090SOL     OW31168   1.212   4.551   0.771
10090SOL    HW131169   1.258   4.469   0.736
10090SOL    HW231170   1.243   4.568   0.864
10091SOL     OW31171   1.485   3.125   5.277
10091SOL    HW131172   1.464   3.056   5.347
10091SOL    HW231173   1.485   3.081   5.187
10092SOL     OW31174   2.153   3.451   4.979
10092SOL    HW131175   2.154   3.352   4.976
10092SOL    HW231176   2.240   3.484   5.018
10093SOL     OW31177   0.494   4.510   4.515
10093SOL    HW131178   0.449   4.592   4.479
10093SOL    HW231179   0.537   4.460   4.440
10094SOL     OW31180   1.837   6.156   2.066
10094SOL    HW131181   1.881   6.096   2.133
10094SOL    HW231182   1.907   6.195   2.006
10095SOL     OW31183   6.184   1.879   5.560
10095SOL    HW131184   6.210   1.859   5.465
10095SOL    HW231185   6.190   1.978   5.576
10096SOL     OW31186   5.417   5.273   2.119
10096SOL    HW131187   5.436   5.271   2.217
10096SOL    HW231188   5.375   5.186   2.091
10097SOL     OW31189   1.171   1.156   6.924
10097SOL    HW131190   1.150   1.194   7.014
10097SOL    HW231191   1.251   1.096   6.931
10098SOL     OW31192   2.637   0.843   5.341
10098SOL    HW131193   2.656   0.851   5.439
10098SOL    HW231194   2.539   0.853   5.325
10099SOL     OW31195   0.004   4.940   0.179
10099SOL    HW131196   7.020   4.864   0.115
10099SOL    HW231197   6.942   4.984   0.194
10100SOL     OW31198   4.961   0.179   4.574
10100SOL    HW131199   5.041   0.121   4.584
10100SOL    HW231200   4.917   0.160   4.485
10101SOL     OW31201   5.788   3.778   1.426
10101SOL    HW131202   5.700   3.739   1.455
10101SOL    HW231203   5.832   3.822   1.504
10102SOL     OW31204   1.441   0.845   2.478
10102SOL    HW131205   1.425   0.747   2.478
10102SOL    HW231206   1.537   0.863   2.497
10103SOL     OW31207   2.279   1.851   5.942
10103SOL    HW131208   2.355   1.865   5.879
10103SOL    HW231209   2.315   1.836   6.035
10104SOL     OW31210   1.036   2.516   4.328
10104SOL    HW131211   1.089   2.518   4.243
10104SOL    HW231212   0.990   2.603   4.340
10105SOL     OW31213   0.894   0.850   0.166
10105SOL    HW131214   0.961   0.817   0.232
10105SOL    HW231215   0.899   0.794   0.083
10106SOL     OW31216   4.560   6.444   0.713
10106SOL    HW131217   4.524   6.389   0.788
10106SOL    HW231218   4.640   6.495   0.745
10107SOL     OW31219   0.368   1.599   6.789
10107SOL    HW131220   0.449   1.636   6.742
10107SOL    HW231221   0.376   1.616   6.887
10108SOL     OW31222   6.778   6.347   0.098
10108SOL    HW131223   6.815   6.355   0.191
10108SOL    HW231224   6.745   6.436   0.067
10109SOL     OW31225   4.188   6.957   1.281
10109SOL    HW131226   4.204   6.946   1.183
10109SOL    HW231227   4.170   0.026   1.302
10110SOL     OW31228   4.608   6.312   4.671
10110SOL    HW131229   4.653   6.231   4.634
10110SOL    HW231230   4.587   6.297   4.768
10111SOL     OW31231   5.828   3.507   3.514
10111SOL    HW131232   5.913   3.458   3.530
10111SOL    HW231233   5.750   3.445   3.527
10112SOL     OW31234   5.697   3.866   4.237
10112SOL    HW131235   5.682   3.818   4.150
10112SOL    HW231236   5.705   3.964   4.220
10113SOL     OW31237   4.301   7.007   5.021
10113SOL    HW131238   4.220   6.957   5.054
10113SOL    HW231239   4.341   6.957   4.944
10114SOL     OW31240   5.622   0.935   0.877
10114SOL    HW131241   5.552   0.955   0.946
10114SOL    HW231242   5.698   0.885   0.920
10115SOL     OW31243   3.444   1.716   4.117
10115SOL    HW131244   3.373   1.784   4.133
10115SOL    HW231245   3.514   1.755   4.058
10116SOL     OW31246   6.934   5.994   0.348
10116SOL    HW131247   0.005   5.993   0.325
10116SOL    HW231248   6.916   5.924   0.417
10117SOL     OW31249   0.028   6.970   5.160
10117SOL    HW131250   0.048   0.019   5.222
10117SOL    HW231251   0.089   6.974   5.081
10118SOL     OW31252   1.315   5.542   3.077
10118SOL    HW131253   1.304   5.555   2.978
10118SOL    HW231254   1.227   5.519   3.118
10119SOL     OW31255   0.382   6.269   4.313
10119SOL    HW131256   0.476   6.303   4.322
10119SOL    HW231257   0.347   6.244   4.403
10120SOL     OW31258   1.910   3.896   4.885
10120SOL    HW131259   1.831   3.945   4.849
10120SOL    HW231260   1.931   3.818   4.826
10121SOL     OW31261   6.015   4.313   6.238
10121SOL    HW131262   6.074   4.245   6.194
10121SOL    HW231263   6.039   4.320   6.335
10122SOL     OW31264   5.873   3.127   0.747
10122SOL    HW131265   5.848   3.159   0.656
10122SOL    HW231266   5.806   3.161   0.813
10123SOL     OW31267   6.365   0.206   6.916
10123SOL    HW131268   6.265   0.197   6.908
10123SOL    HW231269   6.407   0.177   6.830
10124SOL     OW31270   2.066   3.520   6.878
10124SOL    HW131271   2.022   3.605   6.905
10124SOL    HW231272   2.026   3.487   6.792
10125SOL     OW31273   1.990   0.908   2.413
10125SOL    HW131274   2.034   0.875   2.330
10125SOL    HW231275   1.943   0.994   2.394
10126SOL     OW31276   0.583   6.877   6.105
10126SOL    HW131277   0.502   6.916   6.148
10126SOL    HW231278   0.587   6.906   6.009
10127SOL     OW31279   2.379   4.340   6.327
10127SOL    HW131280   2.389   4.327   6.229
10127SOL    HW231281   2.468   4.363   6.367
10128SOL     OW31282   1.521   0.859   1.219
10128SOL    HW131283   1.437   0.913   1.230
10128SOL    HW231284   1.571   0.858   1.305
10129SOL     OW31285   5.802   2.777   3.538
10129SOL    HW131286   5.805   2.735   3.628
10129SOL    HW231287   5.756   2.866   3.544
10130SOL     OW31288   1.692   4.274   1.962
10130SOL    HW131289   1.752   4.195   1.953
10130SOL    HW231290   1.714   4.323   2.046
10131SOL     OW31291   0.729   0.023   3.890
10131SOL    HW131292   0.696   6.968   3.844
10131SOL    HW231293   0.786   0.077   3.827
10132SOL     OW31294   3.171   6.934   4.634
10132SOL    HW131295   3.211   6.945   4.543
10132SOL    HW231296   3.237   6.962   4.704
10133SOL     OW31297   4.829   6.554   1.248
10133SOL    HW131298   4.752   6.544   1.185
10133SOL    HW231299   4.820   6.486   1.321
10134SOL     OW31300   0.011   5.986   4.124
10134SOL    HW131301   6.954   5.946   4.161
10134SOL    HW231302   0.090   5.949   4.171
10135SOL     OW31303   4.908   3.357   3.461
10135SOL    HW131304   4.908   3.443   3.512
10135SOL    HW231305   4.915   3.376   3.363
10136SOL     OW31306   5.200   1.020   3.233
10136SOL    HW131307   5.189   1.100   3.292
10136SOL    HW231308   5.238   1.049   3.145
10137SOL     OW31309   5.724   4.540   4.366
10137SOL    HW131310   5.773   4.454   4.382
10137SOL    HW231311   5.780   4.617   4.397
10138SOL     OW31312   5.224   2.349   0.633
10138SOL    HW131313   5.313   2.307   0.648
10138SOL    HW231314   5.202   2.410   0.709
10139SOL     OW31315   3.761   3.994   3.563
10139SOL    HW131316   3.796   4.041   3.644
10139SOL    HW231317   3.729   3.903   3.589
10140SOL     OW31318   6.650   6.210   6.017
10140SOL    HW131319   6.664   6.161   6.103
10140SOL    HW231320   6.678   6.305   6.028
10141SOL     OW31321   4.027   1.890   4.815
10141SOL    HW131322   4.022   1.976   4.764
10141SOL    HW231323   3.935   1.860   4.839
10142SOL     OW31324   6.188   6.877   4.438
10142SOL    HW131325   6.255   6.819   4.484
10142SOL    HW231326   6.233   6.933   4.369
10143SOL     OW31327   4.088   0.603   0.125
10143SOL    HW131328   3.996   0.586   0.089
10143SOL    HW231329   4.152   0.613   0.049
10144SOL     OW31330   3.915   0.153   6.688
10144SOL    HW131331   3.892   0.146   6.591
10144SOL    HW231332   3.976   0.078   6.714
10145SOL     OW31333   3.165   5.531   5.501
10145SOL    HW131334   3.181   5.459   5.434
10145SOL    HW231335   3.072   5.524   5.536
10146SOL     OW31336   4.007   5.526   4.385
10146SOL    HW131337   4.018   5.610   4.332
10146SOL    HW231338   4.001   5.448   4.323
10147SOL     OW31339   5.529   3.855   5.096
10147SOL    HW131340   5.574   3.777   5.052
10147SOL    HW231341   5.557   3.861   5.192
10148SOL     OW31342   4.778   5.506   0.042
10148SOL    HW131343   4.853   5.449   0.009
10148SOL    HW231344   4.814   5.580   0.099
10149SOL     OW31345   6.100   2.820   0.285
10149SOL    HW131346   6.190   2.781   0.264
10149SOL    HW231347   6.035   2.794   0.215
10150SOL     OW31348   4.270   3.869   0.555
10150SOL    HW131349   4.277   3.772   0.535
10150SOL    HW231350   4.188   3.906   0.511
10151SOL     OW31351   1.038   6.656   6.949
10151SOL    HW131352   0.958   6.597   6.951
10151SOL    HW231353   1.078   6.662   0.014
10152SOL     OW31354   0.470   6.247   4.809
10152SOL    HW131355   0.534   6.196   4.866
10152SOL    HW231356   0.511   6.336   4.785
10153SOL     OW31357   4.542   6.544   3.980
10153SOL    HW131358   4.513   6.470   3.919
10153SOL    HW231359   4.580   6.505   4.064
10154SOL     OW31360   5.622   6.939   5.094
10154SOL    HW131361   5.714   6.947   5.056
10154SOL    HW231362   5.604   7.019   5.153
10155SOL     OW31363   3.716   2.030   5.629
10155SOL    HW131364   3.635   2.030   5.689
10155SOL    HW231365   3.744   2.124   5.611
10156SOL     OW31366   6.209   1.348   3.057
10156SOL    HW131367   6.159   1.352   3.144
10156SOL    HW231368   6.185   1.428   3.002
10157SOL     OW31369   6.394   2.332   0.156
10157SOL    HW131370   6.407   2.409   0.094
10157SOL    HW231371   6.426   2.357   0.248
10158SOL     OW31372   6.216   3.598   1.330
10158SOL    HW131373   6.169   3.547   1.258
10158SOL    HW231374   6.148   3.639   1.391
10159SOL     OW31375   2.749   3.014   6.955
10159SOL    HW131376   2.684   3.035   6.881
10159SOL    HW231377   2.710   2.944   7.015
10160SOL     OW31378   1.980   2.887   2.121
10160SOL    HW131379   2.039   2.968   2.127
10160SOL    HW231380   1.996   2.828   2.200
10161SOL     OW31381   3.169   2.942   6.676
10161SOL    HW131382   3.127   2.867   6.727
10161SOL    HW231383   3.107   3.020   6.676
10162SOL     OW31384   3.789   4.631   0.784
10162SOL    HW131385   3.875   4.662   0.744
10162SOL    HW231386   3.717   4.697   0.762
10163SOL     OW31387   5.912   4.698   5.873
10163SOL    HW131388   5.982   4.628   5.861
10163SOL    HW231389   5.856   4.676   5.953
10164SOL     OW31390   5.832   3.736   4.621
10164SOL    HW131391   5.818   3.724   4.719
10164SOL    HW231392   5.821   3.832   4.597
10165SOL     OW31393   0.422   2.266   3.318
10165SOL    HW131394   0.344   2.248   3.259
10165SOL    HW231395   0.488   2.323   3.269
10166SOL     OW31396   3.371   1.993   1.588
10166SOL    HW131397   3.365   2.046   1.673
10166SOL    HW231398   3.347   2.051   1.511
10167SOL     OW31399   2.346   3.596   6.929
10167SOL    HW131400   2.366   3.542   6.847
10167SOL    HW231401   2.247   3.599   6.942
10168SOL     OW31402   5.981   3.618   5.596
10168SOL    HW131403   6.027   3.543   5.549
10168SOL    HW231404   5.897   3.584   5.639
10169SOL     OW31405   6.903   4.498   3.608
10169SOL    HW131406   6.978   4.519   3.671
10169SOL    HW231407   6.929   4.421   3.549
10170SOL     OW31408   1.132   5.139   5.370
10170SOL    HW131409   1.086   5.142   5.281
10170SOL    HW231410   1.223   5.100   5.360
10171SOL     OW31411   6.680   2.522   5.267
10171SOL    HW131412   6.705   2.615   5.240
10171SOL    HW231413   6.581   2.516   5.278
10172SOL     OW31414   6.843   6.752   5.176
10172SOL    HW131415   6.831   6.667   5.124
10172SOL    HW231416   6.927   6.798   5.147
10173SOL     OW31417   0.830   3.165   1.543
10173SOL    HW131418   0.891   3.186   1.620
10173SOL    HW231419   0.750   3.114   1.576
10174SOL     OW31420   5.599   5.394   2.584
10174SOL    HW131421   5.544   5.310   2.592
10174SOL    HW231422   5.631   5.421   2.675
10175SOL     OW31423   4.889   1.955   4.016
10175SOL    HW131424   4.839   2.041   4.005
10175SOL    HW231425   4.981   1.973   4.050
10176SOL     OW31426   0.926   3.721   5.601
10176SOL    HW131427   0.938   3.625   5.575
10176SOL    HW231428   0.836   3.753   5.572
10177SOL     OW31429   2.540   0.620   0.660
10177SOL    HW131430   2.573   0.579   0.575
10177SOL    HW231431   2.452   0.579   0.685
10178SOL     OW31432   6.847   0.641   6.078
10178SOL    HW131433   6.761   0.607   6.041
10178SOL    HW231434   6.875   0.585   6.155
10179SOL     OW31435   0.905   1.886   6.860
10179SOL    HW131436   0.885   1.788   6.869
10179SOL    HW231437   1.000   1.903   6.885
10180SOL     OW31438   4.414   0.391   6.123
10180SOL    HW131439   4.471   0.375   6.042
10180SOL    HW231440   4.401   0.489   6.136
10181SOL     OW31441   5.901   2.668   1.705
10181SOL    HW131442   5.871   2.634   1.794
10181SOL    HW231443   5.892   2.768   1.702
10182SOL     OW31444   4.419   1.006   1.474
10182SOL    HW131445   4.424   0.995   1.375
10182SOL    HW231446   4.333   0.967   1.507
10183SOL     OW31447   6.919   2.324   6.798
10183SOL    HW131448   7.006   2.276   6.815
10183SOL    HW231449   6.937   2.418   6.769
10184SOL     OW31450   4.672   0.949   6.545
10184SOL    HW131451   4.698   0.911   6.633
10184SOL    HW231452   4.603   0.890   6.502
10185SOL     OW31453   5.937   6.211   2.090
10185SOL    HW131454   5.914   6.153   2.168
10185SOL    HW231455   5.899   6.302   2.103
10186SOL     OW31456   5.650   3.700   4.013
10186SOL    HW131457   5.668   3.771   3.945
10186SOL    HW231458   5.593   3.629   3.973
10187SOL     OW31459   0.476   3.452   0.632
10187SOL    HW131460   0.563   3.486   0.598
10187SOL    HW231461   0.455   3.365   0.587
10188SOL     OW31462   3.409   5.547   0.553
10188SOL    HW131463   3.447   5.631   0.592
10188SOL    HW231464   3.349   5.570   0.476
10189SOL     OW31465   0.743   1.229   6.175
10189SOL    HW131466   0.785   1.139   6.172
10189SOL    HW231467   0.755   1.268   6.267
10190SOL     OW31468   4.897   3.258   2.169
10190SOL    HW131469   4.833   3.192   2.130
10190SOL    HW231470   4.928   3.321   2.098
10191SOL     OW31471   5.810   5.330   5.456
10191SOL    HW131472   5.874   5.297   5.524
10191SOL    HW231473   5.809   5.268   5.377
10192SOL     OW31474   4.221   0.956   5.446
10192SOL    HW131475   4.142   0.965   5.384
10192SOL    HW231476   4.290   1.024   5.422
10193SOL     OW31477   4.042   3.315   1.984
10193SOL    HW131478   4.075   3.243   1.923
10193SOL    HW231479   4.071   3.296   2.078
10194SOL     OW31480   5.440   6.098   5.447
10194SOL    HW131481   5.534   6.070   5.465
10194SOL    HW231482   5.413   6.168   5.514
10195SOL     OW31483   6.423   5.554   0.561
10195SOL    HW131484   6.382   5.598   0.481
10195SOL    HW231485   6.351   5.524   0.623
10196SOL     OW31486   4.866   1.283   3.658
10196SOL    HW131487   4.792   1.217   3.672
10196SOL    HW231488   4.861   1.321   3.566
10197SOL     OW31489   5.462   1.637   5.634
10197SOL    HW131490   5.543   1.679   5.592
10197SOL    HW231491   5.388   1.634   5.566
10198SOL     OW31492   2.551   6.911   2.324
10198SOL    HW131493   2.484   6.882   2.392
10198SOL    HW231494   2.586   6.831   2.276
10199SOL     OW31495   2.393   2.642   0.107
10199SOL    HW131496   2.490   2.619   0.113
10199SOL    HW231497   2.358   2.661   0.199
10200SOL     OW31498   4.795   2.074   6.858
10200SOL    HW131499   4.877   2.018   6.847
10200SOL    HW231500   4.737   2.034   6.929
10201SOL     OW31501   1.504   4.568   0.721
10201SOL    HW131502   1.490   4.622   0.638
10201SOL    HW231503   1.482   4.472   0.702
10202SOL     OW31504   3.656   3.569   0.360
10202SOL    HW131505   3.662   3.560   0.460
10202SOL    HW231506   3.618   3.659   0.338
10203SOL     OW31507   6.148   3.086   2.750
10203SOL    HW131508   6.092   3.028   2.809
10203SOL    HW231509   6.197   3.028   2.685
10204SOL     OW31510   5.552   5.985   0.011
10204SOL    HW131511   5.649   5.971   7.019
10204SOL    HW231512   5.509   5.897   0.033
10205SOL     OW31513   1.529   0.256   1.224
10205SOL    HW131514   1.458   0.249   1.154
10205SOL    HW231515   1.512   0.338   1.280
10206SOL     OW31516   0.111   0.881   0.189
10206SOL    HW131517   0.064   0.809   0.241
10206SOL    HW231518   0.146   0.950   0.251
10207SOL     OW31519   1.183   2.146   0.002
10207SOL    HW131520   1.098   2.141   6.976
10207SOL    HW231521   1.204   2.241   0.024
10208SOL     OW31522   6.164   4.491   4.290
10208SOL    HW131523   6.138   4.465   4.383
10208SOL    HW231524   6.262   4.512   4.287
10209SOL     OW31525   0.397   0.151   0.323
10209SOL    HW131526   0.346   0.204   0.256
10209SOL    HW231527   0.495   0.154   0.301
10210SOL     OW31528   4.567   6.809   2.181
10210SOL    HW131529   4.575   6.727   2.125
10210SOL    HW231530   4.655   6.858   2.181
10211SOL     OW31531   3.754   6.458   4.898
10211SOL    HW131532   3.726   6.439   4.804
10211SOL    HW231533   3.685   6.515   4.943
10212SOL     OW31534   0.938   0.136   5.239
10212SOL    HW131535   0.859   0.180   5.283
10212SOL    HW231536   0.929   0.037   5.247
10213SOL     OW31537   5.567   2.997   1.448
10213SOL    HW131538   5.652   3.019   1.496
10213SOL    HW231539   5.514   2.931   1.502
10214SOL     OW31540   1.734   1.435   2.144
10214SOL    HW131541   1.741   1.470   2.051
10214SOL    HW231542   1.710   1.338   2.142
10215SOL     OW31543   3.918   3.723   3.146
10215SOL    HW131544   3.851   3.704   3.074
10215SOL    HW231545   3.880   3.791   3.209
10216SOL     OW31546   0.328   1.393   1.778
10216SOL    HW131547   0.274   1.312   1.756
10216SOL    HW231548   0.346   1.445   1.695
10217SOL     OW31549   3.026   2.094   3.225
10217SOL    HW131550   3.096   2.074   3.156
10217SOL    HW231551   2.945   2.131   3.181
10218SOL     OW31552   1.889   1.361   1.239
10218SOL    HW131553   1.812   1.352   1.176
10218SOL    HW231554   1.968   1.398   1.190
10219SOL     OW31555   0.200   1.869   2.531
10219SOL    HW131556   0.104   1.861   2.502
10219SOL    HW231557   0.225   1.966   2.536
10220SOL     OW31558   4.971   1.934   1.062
10220SOL    HW131559   4.887   1.987   1.071
10220SOL    HW231560   5.009   1.915   1.153
10221SOL     OW31561   0.693   4.964   3.668
10221SOL    HW131562   0.718   4.993   3.761
10221SOL    HW231563   0.774   4.930   3.621
10222SOL     OW31564   2.681   3.586   6.050
10222SOL    HW131565   2.639   3.595   5.960
10222SOL    HW231566   2.611   3.567   6.118
10223SOL     OW31567   1.112   5.029   1.205
10223SOL    HW131568   1.113   4.968   1.125
10223SOL    HW231569   1.017   5.052   1.227
10224SOL     OW31570   6.934   3.093   4.083
10224SOL    HW131571   6.884   3.037   4.017
10224SOL    HW231572   6.987   3.034   4.144
10225SOL     OW31573   1.466   4.993   5.680
10225SOL    HW131574   1.435   4.900   5.661
10225SOL    HW231575   1.546   4.989   5.740
10226SOL     OW31576   2.698   1.195   6.121
10226SOL    HW131577   2.676   1.104   6.157
10226SOL    HW231578   2.648   1.264   6.173
10227SOL     OW31579   5.874   4.788   0.736
10227SOL    HW131580   5.851   4.843   0.656
10227SOL    HW231581   5.882   4.847   0.816
10228SOL     OW31582   0.396   6.697   1.820
10228SOL    HW131583   0.340   6.631   1.870
10228SOL    HW231584   0.373   6.789   1.849
10229SOL     OW31585   0.903   3.379   4.688
10229SOL    HW131586   0.910   3.459   4.748
10229SOL    HW231587   0.938   3.298   4.734
10230SOL     OW31588   5.722   6.285   3.021
10230SOL    HW131589   5.684   6.271   3.112
10230SOL    HW231590   5.773   6.204   2.993
10231SOL     OW31591   6.754   5.622   5.460
10231SOL    HW131592   6.801   5.537   5.434
10231SOL    HW231593   6.816   5.679   5.514
10232SOL     OW31594   2.870   1.302   3.533
10232SOL    HW131595   2.934   1.344   3.468
10232SOL    HW231596   2.839   1.215   3.496
10233SOL     OW31597   3.651   4.207   4.782
10233SOL    HW131598   3.681   4.286   4.729
10233SOL    HW231599   3.725   4.180   4.845
10234SOL     OW31600   6.068   1.385   1.915
10234SOL    HW131601   6.119   1.459   1.958
10234SOL    HW231602   6.129   1.332   1.855
10235SOL     OW31603   2.279   2.887   1.834
10235SOL    HW131604   2.237   2.797   1.841
10235SOL    HW231605   2.361   2.882   1.777
10236SOL     OW31606   3.040   6.923   0.019
10236SOL    HW131607   3.136   6.941   0.039
10236SOL    HW231608   2.994   7.009   7.022
10237SOL     OW31609   0.054   3.539   6.889
10237SOL    HW131610   7.021   3.589   6.952
10237SOL    HW231611   0.001   3.510   6.809
10238SOL     OW31612   3.799   3.980   1.757
10238SOL    HW131613   3.754   3.950   1.841
10238SOL    HW231614   3.894   4.003   1.777
10239SOL     OW31615   1.400   2.783   4.448
10239SOL    HW131616   1.390   2.687   4.475
10239SOL    HW231617   1.466   2.827   4.509
10240SOL     OW31618   2.538   5.038   2.454
10240SOL    HW131619   2.599   5.111   2.421
10240SOL    HW231620   2.469   5.019   2.384
10241SOL     OW31621   5.880   0.323   2.175
10241SOL    HW131622   5.811   0.365   2.234
10241SOL    HW231623   5.969   0.365   2.193
10242SOL     OW31624   0.221   1.537   0.807
10242SOL    HW131625   0.207   1.624   0.759
10242SOL    HW231626   0.140   1.480   0.796
10243SOL     OW31627   2.393   4.436   2.128
10243SOL    HW131628   2.436   4.485   2.052
10243SOL    HW231629   2.399   4.338   2.112
10244SOL     OW31630   1.739   4.200   0.508
10244SOL    HW131631   1.794   4.252   0.442
10244SOL    HW231632   1.668   4.150   0.459
10245SOL     OW31633   3.706   3.931   0.981
10245SOL    HW131634   3.740   4.007   0.925
10245SOL    HW231635   3.779   3.900   1.042
10246SOL     OW31636   3.081   3.960   4.130
10246SOL    HW131637   3.071   3.980   4.033
10246SOL    HW231638   3.165   4.002   4.165
10247SOL     OW31639   6.296   4.014   5.965
10247SOL    HW131640   6.213   3.998   6.017
10247SOL    HW231641   6.360   4.068   6.019
10248SOL     OW31642   1.273   6.387   2.958
10248SOL    HW131643   1.278   6.487   2.964
10248SOL    HW231644   1.353   6.347   3.002
10249SOL     OW31645   3.314   5.859   6.404
10249SOL    HW131646   3.236   5.799   6.420
10249SOL    HW231647   3.282   5.954   6.398
10250SOL     OW31648   6.375   2.966   1.205
10250SOL    HW131649   6.350   3.027   1.130
10250SOL    HW231650   6.332   2.877   1.192
10251SOL     OW31651   2.085   1.607   4.536
10251SOL    HW131652   2.095   1.675   4.464
10251SOL    HW231653   2.089   1.652   4.625
10252SOL     OW31654   4.230   3.849   6.254
10252SOL    HW131655   4.140   3.846   6.210
10252SOL    HW231656   4.251   3.760   6.293
10253SOL     OW31657   3.066   5.319   0.824
10253SOL    HW131658   3.070   5.222   0.849
10253SOL    HW231659   3.007   5.332   0.745
10254SOL     OW31660   5.071   1.337   5.262
10254SOL    HW131661   5.169   1.335   5.243
10254SOL    HW231662   5.023   1.278   5.197
10255SOL     OW31663   2.551   6.647   0.990
10255SOL    HW131664   2.601   6.723   0.947
10255SOL    HW231665   2.554   6.657   1.089
10256SOL     OW31666   3.877   1.890   2.149
10256SOL    HW131667   3.860   1.829   2.226
10256SOL    HW231668   3.882   1.836   2.065
10257SOL     OW31669   2.068   5.485   3.700
10257SOL    HW131670   2.120   5.524   3.624
10257SOL    HW231671   2.129   5.431   3.757
10258SOL     OW31672   3.915   2.136   3.289
10258SOL    HW131673   3.922   2.177   3.380
10258SOL    HW231674   4.002   2.148   3.241
10259SOL     OW31675   0.604   4.196   2.744
10259SOL    HW131676   0.642   4.119   2.795
10259SOL    HW231677   0.504   4.191   2.746
10260SOL     OW31678   1.104   1.299   3.349
10260SOL    HW131679   1.102   1.201   3.329
10260SOL    HW231680   1.182   1.320   3.407
10261SOL     OW31681   6.798   5.221   1.158
10261SOL    HW131682   6.891   5.214   1.123
10261SOL    HW231683   6.736   5.167   1.101
10262SOL     OW31684   2.949   6.973   5.893
10262SOL    HW131685   3.017   0.019   5.886
10262SOL    HW231686   2.910   6.973   5.985
10263SOL     OW31687   5.940   0.142   1.047
10263SOL    HW131688   5.992   0.057   1.043
10263SOL    HW231689   6.003   0.220   1.040
10264SOL     OW31690   0.193   6.438   6.591
10264SOL    HW131691   0.105   6.436   6.544
10264SOL    HW231692   0.210   6.530   6.626
10265SOL     OW31693   3.026   2.447   0.873
10265SOL    HW131694   3.063   2.440   0.965
10265SOL    HW231695   3.098   2.475   0.810
10266SOL     OW31696   3.894   3.020   3.624
10266SOL    HW131697   3.827   2.976   3.683
10266SOL    HW231698   3.850   3.051   3.540
10267SOL     OW31699   5.291   1.713   0.511
10267SOL    HW131700   5.295   1.721   0.611
10267SOL    HW231701   5.238   1.790   0.475
10268SOL     OW31702   6.209   6.641   1.968
10268SOL    HW131703   6.299   6.611   1.999
10268SOL    HW231704   6.203   6.741   1.976
10269SOL     OW31705   0.837   3.587   5.904
10269SOL    HW131706   0.867   3.523   5.834
10269SOL    HW231707   0.805   3.671   5.860
10270SOL     OW31708   3.243   5.261   2.454
10270SOL    HW131709   3.260   5.255   2.552
10270SOL    HW231710   3.152   5.224   2.433
10271SOL     OW31711   3.942   2.708   0.188
10271SOL    HW131712   3.843   2.705   0.198
10271SOL    HW231713   3.973   2.803   0.186
10272SOL     OW31714   1.326   1.038   5.503
10272SOL    HW131715   1.378   0.980   5.440
10272SOL    HW231716   1.297   0.983   5.582
10273SOL     OW31717   3.043   5.800   2.813
10273SOL    HW131718   3.056   5.892   2.775
10273SOL    HW231719   3.063   5.801   2.911
10274SOL     OW31720   0.382   4.621   6.123
10274SOL    HW131721   0.477   4.591   6.132
10274SOL    HW231722   0.364   4.694   6.188
10275SOL     OW31723   0.531   0.214   2.099
10275SOL    HW131724   0.486   0.303   2.089
10275SOL    HW231725   0.466   0.148   2.136
10276SOL     OW31726   5.286   6.089   5.072
10276SOL    HW131727   5.343   6.007   5.064
10276SOL    HW231728   5.234   6.084   5.157
10277SOL     OW31729   1.972   6.098   4.723
10277SOL    HW131730   1.889   6.148   4.701
10277SOL    HW231731   2.023   6.147   4.794
10278SOL     OW31732   1.714   1.499   3.204
10278SOL    HW131733   1.633   1.440   3.212
10278SOL    HW231734   1.796   1.445   3.219
10279SOL     OW31735   1.404   4.524   4.300
10279SOL    HW131736   1.373   4.502   4.392
10279SOL    HW231737   1.503   4.535   4.300
10280SOL     OW31738   6.403   2.422   6.236
10280SOL    HW131739   6.492   2.411   6.193
10280SOL    HW231740   6.335   2.444   6.167
10281SOL     OW31741   5.986   1.913   3.383
10281SOL    HW131742   6.066   1.965   3.414
10281SOL    HW231743   5.903   1.966   3.400
10282SOL     OW31744   5.233   3.665   3.975
10282SOL    HW131745   5.165   3.726   4.017
10282SOL    HW231746   5.313   3.658   4.035
10283SOL     OW31747   1.530   3.037   1.184
10283SOL    HW131748   1.558   3.110   1.247
10283SOL    HW231749   1.435   3.053   1.155
10284SOL     OW31750   5.263   1.574   5.476
10284SOL    HW131751   5.267   1.488   5.424
10284SOL    HW231752   5.222   1.645   5.418
10285SOL     OW31753   5.388   6.346   3.237
10285SOL    HW131754   5.404   6.444   3.249
10285SOL    HW231755   5.302   6.332   3.187
10286SOL     OW31756   3.864   1.036   3.821
10286SOL    HW131757   3.892   0.978   3.745
10286SOL    HW231758   3.804   1.108   3.786
10287SOL     OW31759   3.127   5.527   1.676
10287SOL    HW131760   3.036   5.515   1.637
10287SOL    HW231761   3.158   5.621   1.660
10288SOL     OW31762   4.512   6.061   2.957
10288SOL    HW131763   4.442   6.020   3.016
10288SOL    HW231764   4.505   6.160   2.960
10289SOL     OW31765   2.812   6.285   6.786
10289SOL    HW131766   2.881   6.357   6.783
10289SOL    HW231767   2.730   6.319   6.832
10290SOL     OW31768   2.936   3.391   2.912
10290SOL    HW131769   2.933   3.437   2.824
10290SOL    HW231770   2.954   3.294   2.898
10291SOL     OW31771   3.764   1.797   2.686
10291SOL    HW131772   3.784   1.839   2.774
10291SOL    HW231773   3.709   1.715   2.700
10292SOL     OW31774   1.613   2.049   5.031
10292SOL    HW131775   1.669   2.010   4.958
10292SOL    HW231776   1.671   2.096   5.097
10293SOL     OW31777   1.503   3.604   2.210
10293SOL    HW131778   1.599   3.587   2.186
10293SOL    HW231779   1.444   3.562   2.141
10294SOL     OW31780   4.346   1.751   3.538
10294SOL    HW131781   4.430   1.699   3.523
10294SOL    HW231782   4.270   1.687   3.552
10295SOL     OW31783   0.517   3.243   5.998
10295SOL    HW131784   0.471   3.171   5.947
10295SOL    HW231785   0.506   3.330   5.949
10296SOL     OW31786   5.223   1.135   0.080
10296SOL    HW131787   5.292   1.063   0.082
10296SOL    HW231788   5.262   1.219   0.042
10297SOL     OW31789   1.978   1.093   5.763
10297SOL    HW131790   2.032   1.164   5.808
10297SOL    HW231791   1.895   1.133   5.724
10298SOL     OW31792   3.099   4.288   1.016
10298SOL    HW131793   3.038   4.364   0.995
10298SOL    HW231794   3.046   4.211   1.052
10299SOL     OW31795   3.791   4.957   3.176
10299SOL    HW131796   3.872   4.923   3.129
10299SOL    HW231797   3.724   4.988   3.108
10300SOL     OW31798   1.398   4.421   1.995
10300SOL    HW131799   1.471   4.463   1.941
10300SOL    HW231800   1.418   4.433   2.092
10301SOL     OW31801   4.986   2.205   5.122
10301SOL    HW131802   5.042   2.225   5.202
10301SOL    HW231803   4.912   2.142   5.147
10302SOL     OW31804   2.455   6.480   4.658
10302SOL    HW131805   2.422   6.407   4.598
10302SOL    HW231806   2.433   6.569   4.617
10303SOL     OW31807   1.567   5.799   3.291
10303SOL    HW131808   1.591   5.894   3.314
10303SOL    HW231809   1.620   5.737   3.348
10304SOL     OW31810   5.738   0.137   1.644
10304SOL    HW131811   5.672   0.065   1.663
10304SOL    HW231812   5.810   0.136   1.714
10305SOL     OW31813   1.548   4.098   5.867
10305SOL    HW131814   1.612   4.021   5.867
10305SOL    HW231815   1.489   4.093   5.787
10306SOL     OW31816   5.163   5.902   6.824
10306SOL    HW131817   5.195   5.955   6.746
10306SOL    HW231818   5.169   5.958   6.907
10307SOL     OW31819   3.035   2.165   5.286
10307SOL    HW131820   3.079   2.242   5.240
10307SOL    HW231821   2.982   2.113   5.219
10308SOL     OW31822   1.939   3.858   2.750
10308SOL    HW131823   1.875   3.783   2.765
10308SOL    HW231824   1.949   3.874   2.652
10309SOL     OW31825   6.953   2.239   0.205
10309SOL    HW131826   6.945   2.316   0.269
10309SOL    HW231827   6.970   2.274   0.113
10310SOL     OW31828   3.609   3.809   0.738
10310SOL    HW131829   3.514   3.839   0.743
10310SOL    HW231830   3.655   3.831   0.824
10311SOL     OW31831   6.977   5.543   0.610
10311SOL    HW131832   7.003   5.446   0.605
10311SOL    HW231833   6.933   5.561   0.698
10312SOL     OW31834   3.816   6.260   2.323
10312SOL    HW131835   3.794   6.198   2.248
10312SOL    HW231836   3.755   6.241   2.401
10313SOL     OW31837   4.081   5.622   1.965
10313SOL    HW131838   4.137   5.577   2.034
10313SOL    HW231839   4.008   5.560   1.935
10314SOL     OW31840   6.654   0.340   1.461
10314SOL    HW131841   6.734   0.304   1.508
10314SOL    HW231842   6.572   0.293   1.495
10315SOL     OW31843   5.568   5.586   4.698
10315SOL    HW131844   5.555   5.684   4.714
10315SOL    HW231845   5.558   5.536   4.784
10316SOL     OW31846   6.235   2.150   5.563
10316SOL    HW131847   6.258   2.139   5.466
10316SOL    HW231848   6.144   2.191   5.571
10317SOL     OW31849   5.097   6.270   6.242
10317SOL    HW131850   5.168   6.339   6.257
10317SOL    HW231851   5.014   6.297   6.291
10318SOL     OW31852   4.952   0.441   6.788
10318SOL    HW131853   4.972   0.530   6.748
10318SOL    HW231854   5.037   0.392   6.807
10319SOL     OW31855   0.374   3.214   5.446
10319SOL    HW131856   0.340   3.263   5.527
10319SOL    HW231857   0.468   3.245   5.427
10320SOL     OW31858   1.032   6.843   2.690
10320SOL    HW131859   0.938   6.818   2.668
10320SOL    HW231860   1.061   6.919   2.632
10321SOL     OW31861   4.233   2.021   1.912
10321SOL    HW131862   4.151   2.052   1.960
10321SOL    HW231863   4.294   1.974   1.976
10322SOL     OW31864   5.420   5.864   5.310
10322SOL    HW131865   5.418   5.805   5.391
10322SOL    HW231866   5.415   5.960   5.338
10323SOL     OW31867   5.897   4.165   5.159
10323SOL    HW131868   5.807   4.177   5.200
10323SOL    HW231869   5.891   4.178   5.060
10324SOL     OW31870   3.198   2.940   2.239
10324SOL    HW131871   3.224   2.948   2.335
10324SOL    HW231872   3.217   3.027   2.192
10325SOL     OW31873   6.800   4.079   2.173
10325SOL    HW131874   6.776   4.042   2.084
10325SOL    HW231875   6.885   4.132   2.165
10326SOL     OW31876   3.903   4.606   0.022
10326SOL    HW131877   3.970   4.668   7.009
10326SOL    HW231878   3.840   4.574   6.977
10327SOL     OW31879   2.081   1.823   0.640
10327SOL    HW131880   2.034   1.901   0.681
10327SOL    HW231881   2.064   1.742   0.696
10328SOL     OW31882   6.420   2.256   0.999
10328SOL    HW131883   6.335   2.266   1.051
10328SOL    HW231884   6.496   2.240   1.062
10329SOL     OW31885   3.215   1.279   3.762
10329SOL    HW131886   3.195   1.284   3.860
10329SOL    HW231887   3.130   1.276   3.710
10330SOL     OW31888   4.018   1.100   2.392
10330SOL    HW131889   3.988   1.195   2.397
10330SOL    HW231890   4.061   1.074   2.479
10331SOL     OW31891   6.449   0.962   6.127
10331SOL    HW131892   6.377   1.030   6.115
10331SOL    HW231893   6.409   0.870   6.123
10332SOL     OW31894   0.314   0.612   1.281
10332SOL    HW131895   0.235   0.583   1.226
10332SOL    HW231896   0.296   0.702   1.321
10333SOL     OW31897   0.489   4.595   4.802
10333SOL    HW131898   0.426   4.517   4.799
10333SOL    HW231899   0.531   4.607   4.712
10334SOL     OW31900   3.353   0.788   4.136
10334SOL    HW131901   3.307   0.790   4.047
10334SOL    HW231902   3.412   0.868   4.145
10335SOL     OW31903   3.134   4.328   6.267
10335SOL    HW131904   3.166   4.408   6.216
10335SOL    HW231905   3.131   4.249   6.206
10336SOL     OW31906   6.959   6.968   1.585
10336SOL    HW131907   6.934   6.888   1.531
10336SOL    HW231908   7.026   6.942   1.654
10337SOL     OW31909   0.313   6.361   6.076
10337SOL    HW131910   0.338   6.398   6.165
10337SOL    HW231911   0.393   6.320   6.033
10338SOL     OW31912   1.978   5.996   2.322
10338SOL    HW131913   2.070   6.003   2.283
10338SOL    HW231914   1.976   6.042   2.411
10339SOL     OW31915   4.533   3.608   6.376
10339SOL    HW131916   4.435   3.589   6.370
10339SOL    HW231917   4.560   3.611   6.473
10340SOL     OW31918   1.089   3.907   1.382
10340SOL    HW131919   0.993   3.881   1.380
10340SOL    HW231920   1.133   3.870   1.464
10341SOL     OW31921   2.089   3.293   2.380
10341SOL    HW131922   2.079   3.393   2.381
10341SOL    HW231923   2.130   3.263   2.466
10342SOL     OW31924   1.848   0.117   4.950
10342SOL    HW131925   1.843   0.109   4.850
10342SOL    HW231926   1.839   0.213   4.976
10343SOL     OW31927   3.782   5.310   6.834
10343SOL    HW131928   3.765   5.335   6.739
10343SOL    HW231929   3.796   5.393   6.889
10344SOL     OW31930   4.279   3.213   1.024
10344SOL    HW131931   4.278   3.307   1.058
10344SOL    HW231932   4.258   3.150   1.099
10345SOL     OW31933   1.479   1.636   6.310
10345SOL    HW131934   1.449   1.731   6.319
10345SOL    HW231935   1.570   1.627   6.349
10346SOL     OW31936   0.481   5.465   1.504
10346SOL    HW131937   0.501   5.529   1.579
10346SOL    HW231938   0.501   5.510   1.417
10347SOL     OW31939   4.030   1.840   3.641
10347SOL    HW131940   3.979   1.896   3.575
10347SOL    HW231941   4.120   1.881   3.656
10348SOL     OW31942   6.588   1.918   0.429
10348SOL    HW131943   6.681   1.948   0.407
10348SOL    HW231944   6.522   1.973   0.377
10349SOL     OW31945   1.062   0.782   0.393
10349SOL    HW131946   1.153   0.742   0.377
10349SOL    HW231947   1.004   0.714   0.438
10350SOL     OW31948   2.521   6.588   5.312
10350SOL    HW131949   2.606   6.614   5.265
10350SOL    HW231950   2.528   6.614   5.408
10351SOL     OW31951   4.417   4.520   5.724
10351SOL    HW131952   4.474   4.596   5.694
10351SOL    HW231953   4.362   4.487   5.648
10352SOL     OW31954   3.714   1.309   5.973
10352SOL    HW131955   3.713   1.288   5.875
10352SOL    HW231956   3.716   1.408   5.985
10353SOL     OW31957   6.376   2.922   5.316
10353SOL    HW131958   6.457   2.931   5.373
10353SOL    HW231959   6.326   2.840   5.341
10354SOL     OW31960   5.745   2.635   2.556
10354SOL    HW131961   5.785   2.609   2.644
10354SOL    HW231962   5.660   2.586   2.543
10355SOL     OW31963   1.967   6.939   1.797
10355SOL    HW131964   2.020   6.922   1.713
10355SOL    HW231965   1.873   6.908   1.783
10356SOL     OW31966   1.104   4.727   5.218
10356SOL    HW131967   1.026   4.789   5.218
10356SOL    HW231968   1.184   4.773   5.180
10357SOL     OW31969   1.695   2.846   6.551
10357SOL    HW131970   1.661   2.940   6.561
10357SOL    HW231971   1.657   2.789   6.624
10358SOL     OW31972   6.599   3.368   3.157
10358SOL    HW131973   6.620   3.281   3.113
10358SOL    HW231974   6.501   3.375   3.171
10359SOL     OW31975   1.007   1.609   1.476
10359SOL    HW131976   1.085   1.618   1.538
10359SOL    HW231977   0.923   1.596   1.529
10360SOL     OW31978   5.305   4.745   2.969
10360SOL    HW131979   5.397   4.706   2.971
10360SOL    HW231980   5.309   4.844   2.977
10361SOL     OW31981   2.870   6.796   3.539
10361SOL    HW131982   2.866   6.880   3.484
10361SOL    HW231983   2.958   6.751   3.523
10362SOL     OW31984   0.887   5.000   4.787
10362SOL    HW131985   0.855   4.916   4.830
10362SOL    HW231986   0.972   4.982   4.737
10363SOL     OW31987   4.677   0.965   1.535
10363SOL    HW131988   4.599   1.022   1.512
10363SOL    HW231989   4.646   0.871   1.552
10364SOL     OW31990   2.991   3.425   1.493
10364SOL    HW131991   3.070   3.369   1.518
10364SOL    HW231992   2.953   3.392   1.407
10365SOL     OW31993   4.176   4.379   6.169
10365SOL    HW131994   4.210   4.418   6.254
10365SOL    HW231995   4.199   4.281   6.166
10366SOL     OW31996   3.203   0.974   3.967
10366SOL    HW131997   3.264   0.931   3.900
10366SOL    HW231998   3.257   1.030   4.030
10367SOL     OW31999   6.562   2.263   2.876
10367SOL    HW132000   6.521   2.337   2.823
10367SOL    HW232001   6.617   2.205   2.815
10368SOL     OW32002   1.985   1.161   1.357
10368SOL    HW132003   1.945   1.237   1.305
10368SOL    HW232004   1.913   1.111   1.404
10369SOL     OW32005   4.020   0.364   5.611
10369SOL    HW132006   3.974   0.414   5.685
10369SOL    HW232007   4.108   0.407   5.592
10370SOL     OW32008   5.492   1.232   5.024
10370SOL    HW132009   5.498   1.274   4.933
10370SOL    HW232010   5.465   1.136   5.014
10371SOL     OW32011   2.843   6.121   4.901
10371SOL    HW132012   2.875   6.178   4.826
10371SOL    HW232013   2.853   6.024   4.875
10372SOL     OW32014   1.241   1.474   6.258
10372SOL    HW132015   1.234   1.483   6.159
10372SOL    HW232016   1.311   1.537   6.292
10373SOL     OW32017   2.317   6.030   4.811
10373SOL    HW132018   2.279   5.992   4.727
10373SOL    HW232019   2.250   6.090   4.854
10374SOL     OW32020   3.935   1.345   2.444
10374SOL    HW132021   3.990   1.417   2.486
10374SOL    HW232022   3.843   1.345   2.485
10375SOL     OW32023   3.893   1.736   6.210
10375SOL    HW132024   3.822   1.751   6.279
10375SOL    HW232025   3.938   1.649   6.228
10376SOL     OW32026   0.952   6.287   3.892
10376SOL    HW132027   0.918   6.375   3.860
10376SOL    HW232028   0.947   6.220   3.819
10377SOL     OW32029   6.803   0.523   3.963
10377SOL    HW132030   6.753   0.574   3.893
10377SOL    HW232031   6.738   0.486   4.030
10378SOL     OW32032   6.856   0.903   5.645
10378SOL    HW132033   6.868   0.973   5.715
10378SOL    HW232034   6.759   0.896   5.621
10379SOL     OW32035   3.680   0.127   4.924
10379SOL    HW132036   3.631   0.190   4.864
10379SOL    HW232037   3.631   0.119   5.011
10380SOL     OW32038   6.648   1.203   3.164
10380SOL    HW132039   6.680   1.242   3.251
10380SOL    HW232040   6.551   1.182   3.170
10381SOL     OW32041   4.500   5.635   6.113
10381SOL    HW132042   4.501   5.732   6.136
10381SOL    HW232043   4.490   5.623   6.014
10382SOL     OW32044   2.250   4.479   6.680
10382SOL    HW132045   2.336   4.529   6.679
10382SOL    HW232046   2.212   4.475   6.588
10383SOL     OW32047   0.441   3.272   0.845
10383SOL    HW132048   0.529   3.229   0.869
10383SOL    HW232049   0.456   3.340   0.773
10384SOL     OW32050   0.583   0.141   0.738
10384SOL    HW132051   0.652   0.191   0.790
10384SOL    HW232052   0.556   0.059   0.789
10385SOL     OW32053   4.736   0.081   6.463
10385SOL    HW132054   4.789   0.161   6.491
10385SOL    HW232055   4.704   0.032   6.544
10386SOL     OW32056   0.036   3.626   4.860
10386SOL    HW132057   0.075   3.614   4.951
10386SOL    HW232058   0.098   3.590   4.792
10387SOL     OW32059   3.898   2.128   2.515
10387SOL    HW132060   3.968   2.062   2.542
10387SOL    HW232061   3.943   2.209   2.477
10388SOL     OW32062   0.873   5.776   3.563
10388SOL    HW132063   0.784   5.809   3.531
10388SOL    HW232064   0.877   5.676   3.551
10389SOL     OW32065   0.449   6.069   2.093
10389SOL    HW132066   0.468   6.112   2.005
10389SOL    HW232067   0.531   6.024   2.128
10390SOL     OW32068   1.563   3.919   1.787
10390SOL    HW132069   1.489   3.852   1.780
10390SOL    HW232070   1.529   3.999   1.836
10391SOL     OW32071   1.322   5.673   5.363
10391SOL    HW132072   1.240   5.615   5.366
10391SOL    HW232073   1.402   5.620   5.390
10392SOL     OW32074   6.484   3.789   0.347
10392SOL    HW132075   6.545   3.774   0.424
10392SOL    HW232076   6.508   3.874   0.301
10393SOL     OW32077   1.401   1.499   2.802
10393SOL    HW132078   1.424   1.596   2.788
10393SOL    HW232079   1.362   1.462   2.718
10394SOL     OW32080   2.411   6.867   6.255
10394SOL    HW132081   2.329   6.878   6.198
10394SOL    HW232082   2.406   6.931   6.332
10395SOL     OW32083   6.227   0.848   4.810
10395SOL    HW132084   6.206   0.895   4.724
10395SOL    HW232085   6.315   0.881   4.846
10396SOL     OW32086   1.403   0.374   3.952
10396SOL    HW132087   1.393   0.474   3.949
10396SOL    HW232088   1.455   0.344   3.872
10397SOL     OW32089   3.831   1.648   3.763
10397SOL    HW132090   3.786   1.596   3.691
10397SOL    HW232091   3.905   1.703   3.724
10398SOL     OW32092   6.181   2.318   0.367
10398SOL    HW132093   6.147   2.253   0.435
10398SOL    HW232094   6.142   2.297   0.278
10399SOL     OW32095   4.386   1.416   5.377
10399SOL    HW132096   4.308   1.447   5.431
10399SOL    HW232097   4.393   1.472   5.294
10400SOL     OW32098   3.437   5.566   1.861
10400SOL    HW132099   3.477   5.648   1.903
10400SOL    HW232100   3.430   5.579   1.762
10401SOL     OW32101   6.747   0.043   2.338
10401SOL    HW132102   6.717   6.977   2.361
10401SOL    HW232103   6.697   0.075   2.258
10402SOL     OW32104   0.396   3.038   5.852
10402SOL    HW132105   0.406   2.991   5.764
10402SOL    HW232106   0.364   2.974   5.921
10403SOL     OW32107   5.542   1.556   2.426
10403SOL    HW132108   5.458   1.607   2.443
10403SOL    HW232109   5.539   1.469   2.474
10404SOL     OW32110   0.711   6.396   3.664
10404SOL    HW132111   0.640   6.334   3.629
10404SOL    HW232112   0.684   6.432   3.753
10405SOL     OW32113   1.810   5.416   5.491
10405SOL    HW132114   1.885   5.373   5.540
10405SOL    HW232115   1.788   5.362   5.410
10406SOL     OW32116   2.049   4.373   4.816
10406SOL    HW132117   2.121   4.324   4.865
10406SOL    HW232118   1.987   4.308   4.773
10407SOL     OW32119   1.564   0.924   6.427
10407SOL    HW132120   1.521   0.889   6.343
10407SOL    HW232121   1.663   0.914   6.420
10408SOL     OW32122   4.123   6.062   2.863
10408SOL    HW132123   4.149   6.146   2.815
10408SOL    HW232124   4.074   6.085   2.947
10409SOL     OW32125   0.292   4.868   1.256
10409SOL    HW132126   0.301   4.884   1.157
10409SOL    HW232127   0.310   4.771   1.275
10410SOL     OW32128   5.353   1.009   1.380
10410SOL    HW132129   5.320   0.916   1.364
10410SOL    HW232130   5.441   1.006   1.427
10411SOL     OW32131   2.316   4.733   4.111
10411SOL    HW132132   2.370   4.693   4.037
10411SOL    HW232133   2.245   4.792   4.072
10412SOL     OW32134   0.496   1.561   0.765
10412SOL    HW132135   0.400   1.549   0.793
10412SOL    HW232136   0.504   1.548   0.666
10413SOL     OW32137   1.162   2.442   0.929
10413SOL    HW132138   1.177   2.346   0.952
10413SOL    HW232139   1.220   2.499   0.986
10414SOL     OW32140   4.999   6.593   6.342
10414SOL    HW132141   4.911   6.583   6.390
10414SOL    HW232142   5.063   6.642   6.400
10415SOL     OW32143   1.629   4.811   3.729
10415SOL    HW132144   1.659   4.871   3.655
10415SOL    HW232145   1.556   4.752   3.696
10416SOL     OW32146   6.419   1.713   6.005
10416SOL    HW132147   6.469   1.749   5.927
10416SOL    HW232148   6.479   1.706   6.084
10417SOL     OW32149   4.385   4.566   3.210
10417SOL    HW132150   4.426   4.649   3.248
10417SOL    HW232151   4.453   4.492   3.212
10418SOL     OW32152   6.575   4.293   5.276
10418SOL    HW132153   6.547   4.371   5.333
10418SOL    HW232154   6.505   4.221   5.283
10419SOL     OW32155   2.733   1.332   5.119
10419SOL    HW132156   2.790   1.399   5.167
10419SOL    HW232157   2.726   1.250   5.175
10420SOL     OW32158   6.783   3.702   2.621
10420SOL    HW132159   6.811   3.690   2.526
10420SOL    HW232160   6.802   3.796   2.650
10421SOL     OW32161   1.491   3.842   3.924
10421SOL    HW132162   1.551   3.844   3.844
10421SOL    HW232163   1.442   3.928   3.932
10422SOL     OW32164   6.795   4.103   5.182
10422SOL    HW132165   6.708   4.142   5.214
10422SOL    HW232166   6.778   4.011   5.146
10423SOL     OW32167   3.846   4.868   4.415
10423SOL    HW132168   3.768   4.805   4.421
10423SOL    HW232169   3.897   4.865   4.501
10424SOL     OW32170   4.385   1.174   0.121
10424SOL    HW132171   4.461   1.138   0.176
10424SOL    HW232172   4.386   1.274   0.125
10425SOL     OW32173   1.113   6.711   1.630
10425SOL    HW132174   1.136   6.739   1.723
10425SOL    HW232175   1.193   6.719   1.572
10426SOL     OW32176   4.655   3.126   5.365
10426SOL    HW132177   4.639   3.043   5.311
10426SOL    HW232178   4.753   3.141   5.375
10427SOL     OW32179   5.515   5.670   5.502
10427SOL    HW132180   5.548   5.715   5.585
10427SOL    HW232181   5.586   5.673   5.432
10428SOL     OW32182   1.454   1.816   3.572
10428SOL    HW132183   1.415   1.754   3.641
10428SOL    HW232184   1.505   1.763   3.505
10429SOL     OW32185   1.210   3.584   2.237
10429SOL    HW132186   1.165   3.672   2.251
10429SOL    HW232187   1.256   3.556   2.321
10430SOL     OW32188   3.562   6.022   4.384
10430SOL    HW132189   3.624   5.946   4.398
10430SOL    HW232190   3.548   6.037   4.286
10431SOL     OW32191   2.730   1.758   4.525
10431SOL    HW132192   2.660   1.692   4.554
10431SOL    HW232193   2.819   1.713   4.520
10432SOL     OW32194   0.716   0.690   5.319
10432SOL    HW132195   0.782   0.633   5.368
10432SOL    HW232196   0.623   0.664   5.346
10433SOL     OW32197   1.589   6.587   1.865
10433SOL    HW132198   1.666   6.621   1.920
10433SOL    HW232199   1.549   6.664   1.814
10434SOL     OW32200   5.200   6.713   5.066
10434SOL    HW132201   5.139   6.638   5.039
10434SOL    HW232202   5.146   6.797   5.078
10435SOL     OW32203   1.035   2.428   6.315
10435SOL    HW132204   0.936   2.415   6.325
10435SOL    HW232205   1.054   2.525   6.302
10436SOL     OW32206   6.730   3.573   4.716
10436SOL    HW132207   6.787   3.498   4.750
10436SOL    HW232208   6.723   3.567   4.617
10437SOL     OW32209   5.148   4.778   5.339
10437SOL    HW132210   5.136   4.780   5.240
10437SOL    HW232211   5.127   4.869   5.376
10438SOL     OW32212   6.992   6.636   5.560
10438SOL    HW132213   7.022   6.667   5.650
10438SOL    HW232214   0.042   6.644   5.495
10439SOL     OW32215   6.628   0.994   4.959
10439SOL    HW132216   6.566   1.071   4.947
10439SOL    HW232217   6.656   0.959   4.870
10440SOL     OW32218   6.722   1.394   6.952
10440SOL    HW132219   6.665   1.413   6.871
10440SOL    HW232220   6.676   1.326   7.009
10441SOL     OW32221   3.550   1.599   1.216
10441SOL    HW132222   3.597   1.537   1.154
10441SOL    HW232223   3.479   1.649   1.165
10442SOL     OW32224   3.182   0.674   5.410
10442SOL    HW132225   3.273   0.638   5.389
10442SOL    HW232226   3.166   0.670   5.508
10443SOL     OW32227   0.260   2.009   2.989
10443SOL    HW132228   0.314   1.991   2.906
10443SOL    HW232229   0.209   1.927   3.014
10444SOL     OW32230   3.633   5.013   3.989
10444SOL    HW132231   3.548   4.981   4.029
10444SOL    HW232232   3.710   4.962   4.028
10445SOL     OW32233   0.197   3.643   2.278
10445SOL    HW132234   0.254   3.725   2.284
10445SOL    HW232235   0.138   3.637   2.359
10446SOL     OW32236   2.102   4.218   5.457
10446SOL    HW132237   2.151   4.286   5.402
10446SOL    HW232238   2.091   4.134   5.404
10447SOL     OW32239   6.141   2.004   2.811
10447SOL    HW132240   6.207   1.950   2.758
10447SOL    HW232241   6.051   1.961   2.806
10448SOL     OW32242   2.894   1.004   3.662
10448SOL    HW132243   2.935   1.092   3.641
10448SOL    HW232244   2.899   0.987   3.760
10449SOL     OW32245   3.517   5.026   6.661
10449SOL    HW132246   3.524   4.955   6.731
10449SOL    HW232247   3.581   5.006   6.587
10450SOL     OW32248   6.374   0.662   6.417
10450SOL    HW132249   6.300   0.698   6.473
10450SOL    HW232250   6.406   0.575   6.456
10451SOL     OW32251   2.720   0.781   3.969
10451SOL    HW132252   2.817   0.808   3.970
10451SOL    HW232253   2.671   0.834   3.900
10452SOL     OW32254   0.077   2.679   2.918
10452SOL    HW132255   0.143   2.610   2.887
10452SOL    HW232256   0.103   2.711   3.009
10453SOL     OW32257   4.450   6.264   2.466
10453SOL    HW132258   4.420   6.226   2.554
10453SOL    HW232259   4.370   6.285   2.410
10454SOL     OW32260   6.265   1.215   6.971
10454SOL    HW132261   6.249   1.241   0.040
10454SOL    HW232262   6.364   1.207   6.956
10455SOL     OW32263   6.054   6.110   4.286
10455SOL    HW132264   6.077   6.170   4.363
10455SOL    HW232265   6.125   6.118   4.216
10456SOL     OW32266   0.159   5.698   0.127
10456SOL    HW132267   0.109   5.626   0.175
10456SOL    HW232268   0.217   5.656   0.056
10457SOL     OW32269   4.764   3.604   6.862
10457SOL    HW132270   4.861   3.616   6.882
10457SOL    HW232271   4.741   3.506   6.863
10458SOL     OW32272   6.666   0.200   5.901
10458SOL    HW132273   6.650   0.204   5.803
10458SOL    HW232274   6.585   0.164   5.947
10459SOL     OW32275   6.565   5.263   0.799
10459SOL    HW132276   6.481   5.268   0.745
10459SOL    HW232277   6.586   5.168   0.820
10460SOL     OW32278   6.691   4.187   1.744
10460SOL    HW132279   6.763   4.256   1.731
10460SOL    HW232280   6.620   4.223   1.804
10461SOL     OW32281   6.280   4.639   5.237
10461SOL    HW132282   6.206   4.687   5.284
10461SOL    HW232283   6.354   4.618   5.301
10462SOL     OW32284   4.462   1.609   1.734
10462SOL    HW132285   4.390   1.588   1.800
10462SOL    HW232286   4.502   1.698   1.755
10463SOL     OW32287   4.662   1.477   6.167
10463SOL    HW132288   4.601   1.440   6.237
10463SOL    HW232289   4.611   1.541   6.109
10464SOL     OW32290   5.629   5.602   2.208
10464SOL    HW132291   5.626   5.602   2.108
10464SOL    HW232292   5.539   5.623   2.245
10465SOL     OW32293   5.287   4.124   3.206
10465SOL    HW132294   5.195   4.126   3.246
10465SOL    HW232295   5.288   4.062   3.128
10466SOL     OW32296   5.319   4.525   6.212
10466SOL    HW132297   5.330   4.545   6.115
10466SOL    HW232298   5.268   4.439   6.222
10467SOL     OW32299   1.897   2.758   6.794
10467SOL    HW132300   1.805   2.740   6.758
10467SOL    HW232301   1.890   2.824   6.870
10468SOL     OW32302   3.566   5.244   3.867
10468SOL    HW132303   3.579   5.230   3.769
10468SOL    HW232304   3.584   5.158   3.915
10469SOL     OW32305   5.196   4.148   5.915
10469SOL    HW132306   5.129   4.107   5.978
10469SOL    HW232307   5.263   4.079   5.888
10470SOL     OW32308   2.369   1.796   3.547
10470SOL    HW132309   2.284   1.774   3.498
10470SOL    HW232310   2.422   1.861   3.493
10471SOL     OW32311   2.721   0.683   7.016
10471SOL    HW132312   2.726   0.718   0.083
10471SOL    HW232313   2.653   0.735   6.965
10472SOL     OW32314   2.877   5.052   0.823
10472SOL    HW132315   2.837   4.961   0.830
10472SOL    HW232316   2.858   5.090   0.733
10473SOL     OW32317   5.496   5.918   6.293
10473SOL    HW132318   5.435   5.912   6.214
10473SOL    HW232319   5.452   5.877   6.372
10474SOL     OW32320   5.217   1.012   3.935
10474SOL    HW132321   5.235   0.971   4.025
10474SOL    HW232322   5.201   0.939   3.868
10475SOL     OW32323   2.501   6.108   1.751
10475SOL    HW132324   2.544   6.113   1.841
10475SOL    HW232325   2.555   6.047   1.692
10476SOL     OW32326   5.093   6.398   5.954
10476SOL    HW132327   5.069   6.365   5.863
10476SOL    HW232328   5.133   6.324   6.007
10477SOL     OW32329   7.000   6.635   4.259
10477SOL    HW132330   0.012   6.720   4.224
10477SOL    HW232331   0.048   6.570   4.276
10478SOL     OW32332   6.564   6.786   0.181
10478SOL    HW132333   6.494   6.848   0.216
10478SOL    HW232334   6.618   6.750   0.257
10479SOL     OW32335   6.967   2.146   2.240
10479SOL    HW132336   6.899   2.208   2.278
10479SOL    HW232337   0.032   2.176   2.268
10480SOL     OW32338   1.960   0.474   2.189
10480SOL    HW132339   1.894   0.540   2.225
10480SOL    HW232340   1.912   0.407   2.131
10481SOL     OW32341   0.825   6.267   2.981
10481SOL    HW132342   0.740   6.314   3.005
10481SOL    HW232343   0.893   6.280   3.053
10482SOL     OW32344   5.845   4.737   4.494
10482SOL    HW132345   5.906   4.782   4.428
10482SOL    HW232346   5.891   4.729   4.582
10483SOL     OW32347   5.526   5.603   0.478
10483SOL    HW132348   5.431   5.617   0.449
10483SOL    HW232349   5.557   5.513   0.447
10484SOL     OW32350   4.824   1.081   1.272
10484SOL    HW132351   4.743   1.040   1.314
10484SOL    HW232352   4.796   1.144   1.199
10485SOL     OW32353   3.551   4.002   6.778
10485SOL    HW132354   3.546   3.906   6.753
10485SOL    HW232355   3.490   4.020   6.855
10486SOL     OW32356   6.824   1.395   0.947
10486SOL    HW132357   6.850   1.487   0.919
10486SOL    HW232358   6.824   1.390   1.047
10487SOL     OW32359   5.079   6.585   2.224
10487SOL    HW132360   5.176   6.577   2.201
10487SOL    HW232361   5.063   6.548   2.315
10488SOL     OW32362   3.068   3.035   6.291
10488SOL    HW132363   3.136   2.987   6.347
10488SOL    HW232364   2.976   3.006   6.318
10489SOL     OW32365   0.650   0.143   5.664
10489SOL    HW132366   0.590   0.087   5.722
10489SOL    HW232367   0.626   0.129   5.568
10490SOL     OW32368   6.328   1.936   2.629
10490SOL    HW132369   6.415   1.928   2.581
10490SOL    HW232370   6.269   2.001   2.581
10491SOL     OW32371   1.601   3.602   6.927
10491SOL    HW132372   1.556   3.662   6.861
10491SOL    HW232373   1.675   3.552   6.882
10492SOL     OW32374   5.877   3.372   5.316
10492SOL    HW132375   5.820   3.337   5.390
10492SOL    HW232376   5.910   3.296   5.260
10493SOL     OW32377   3.193   0.999   1.634
10493SOL    HW132378   3.153   1.066   1.571
10493SOL    HW232379   3.142   0.913   1.628
10494SOL     OW32380   5.161   2.557   5.321
10494SOL    HW132381   5.210   2.609   5.251
10494SOL    HW232382   5.213   2.560   5.406
10495SOL     OW32383   2.386   6.909   0.331
10495SOL    HW132384   2.323   6.893   0.255
10495SOL    HW232385   2.334   6.932   0.413
10496SOL     OW32386   0.600   6.632   1.130
10496SOL    HW132387   0.689   6.595   1.103
10496SOL    HW232388   0.529   6.598   1.067
10497SOL     OW32389   2.106   6.739   2.268
10497SOL    HW132390   2.198   6.757   2.234
10497SOL    HW232391   2.041   6.801   2.224
10498SOL     OW32392   2.788   6.257   1.679
10498SOL    HW132393   2.708   6.311   1.701
10498SOL    HW232394   2.790   6.238   1.581
10499SOL     OW32395   2.991   6.220   2.444
10499SOL    HW132396   2.903   6.267   2.437
10499SOL    HW232397   3.061   6.284   2.475
10500SOL     OW32398   0.313   1.321   5.793
10500SOL    HW132399   0.368   1.270   5.859
10500SOL    HW232400   0.311   1.272   5.706
10501SOL     OW32401   1.692   5.696   3.503
10501SOL    HW132402   1.632   5.726   3.577
10501SOL    HW232403   1.771   5.756   3.497
10502SOL     OW32404   3.557   0.515   0.542
10502SOL    HW132405   3.506   0.516   0.628
10502SOL    HW232406   3.654   0.505   0.561
10503SOL     OW32407   4.308   2.638   0.528
10503SOL    HW132408   4.342   2.727   0.561
10503SOL    HW232409   4.329   2.568   0.597
10504SOL     OW32410   1.638   2.242   0.367
10504SOL    HW132411   1.615   2.176   0.295
10504SOL    HW232412   1.731   2.275   0.353
10505SOL     OW32413   6.155   5.437   0.362
10505SOL    HW132414   6.055   5.446   0.364
10505SOL    HW232415   6.194   5.518   0.318
10506SOL     OW32416   0.645   5.525   6.094
10506SOL    HW132417   0.628   5.446   6.152
10506SOL    HW232418   0.715   5.503   6.027
10507SOL     OW32419   2.415   6.269   0.069
10507SOL    HW132420   2.444   6.363   0.054
10507SOL    HW232421   2.445   6.239   0.160
10508SOL     OW32422   5.675   5.869   4.406
10508SOL    HW132423   5.617   5.854   4.326
10508SOL    HW232424   5.702   5.965   4.410
10509SOL     OW32425   0.488   6.949   5.785
10509SOL    HW132426   0.537   6.871   5.745
10509SOL    HW232427   0.396   6.921   5.810
10510SOL     OW32428   5.531   5.315   5.558
10510SOL    HW132429   5.613   5.350   5.513
10510SOL    HW232430   5.464   5.388   5.565
10511SOL     OW32431   4.678   2.809   1.195
10511SOL    HW132432   4.613   2.884   1.204
10511SOL    HW232433   4.742   2.811   1.272
10512SOL     OW32434   3.805   0.681   6.264
10512SOL    HW132435   3.724   0.727   6.228
10512SOL    HW232436   3.839   0.730   6.344
10513SOL     OW32437   6.831   3.081   5.454
10513SOL    HW132438   6.892   3.055   5.380
10513SOL    HW232439   6.859   3.170   5.490
10514SOL     OW32440   0.105   3.868   6.995
10514SOL    HW132441   0.085   3.852   6.899
10514SOL    HW232442   0.041   3.815   0.025
10515SOL     OW32443   5.972   3.005   2.931
10515SOL    HW132444   6.024   2.927   2.968
10515SOL    HW232445   5.874   2.988   2.944
10516SOL     OW32446   4.789   1.070   6.847
10516SOL    HW132447   4.702   1.032   6.877
10516SOL    HW232448   4.844   1.095   6.927
10517SOL     OW32449   0.682   1.953   2.763
10517SOL    HW132450   0.589   1.921   2.784
10517SOL    HW232451   0.715   2.009   2.839
10518SOL     OW32452   0.780   4.872   6.864
10518SOL    HW132453   0.800   4.964   6.898
10518SOL    HW232454   0.751   4.878   6.768
10519SOL     OW32455   2.940   2.674   6.421
10519SOL    HW132456   2.843   2.700   6.427
10519SOL    HW232457   2.952   2.583   6.463
10520SOL     OW32458   1.984   2.886   6.555
10520SOL    HW132459   1.892   2.888   6.517
10520SOL    HW232460   1.983   2.838   6.643
10521SOL     OW32461   5.914   5.053   1.425
10521SOL    HW132462   5.819   5.026   1.440
10521SOL    HW232463   5.948   5.010   1.342
10522SOL     OW32464   6.435   0.523   0.923
10522SOL    HW132465   6.529   0.534   0.955
10522SOL    HW232466   6.407   0.606   0.875
10523SOL     OW32467   0.315   6.681   4.866
10523SOL    HW132468   0.305   6.582   4.865
10523SOL    HW232469   0.377   6.709   4.792
10524SOL     OW32470   1.988   1.987   5.177
10524SOL    HW132471   1.924   2.037   5.236
10524SOL    HW232472   1.972   1.889   5.186
10525SOL     OW32473   3.173   6.810   5.987
10525SOL    HW132474   3.160   6.818   6.085
10525SOL    HW232475   3.090   6.843   5.940
10526SOL     OW32476   7.008   7.021   3.329
10526SOL    HW132477   0.036   0.070   3.365
10526SOL    HW232478   6.912   0.009   3.353
10527SOL     OW32479   0.205   2.466   4.161
10527SOL    HW132480   0.292   2.513   4.144
10527SOL    HW232481   0.133   2.534   4.172
10528SOL     OW32482   0.455   4.043   5.097
10528SOL    HW132483   0.445   4.127   5.044
10528SOL    HW232484   0.400   4.049   5.180
10529SOL     OW32485   1.404   6.136   3.466
10529SOL    HW132486   1.436   6.227   3.492
10529SOL    HW232487   1.352   6.096   3.542
10530SOL     OW32488   1.947   1.396   6.246
10530SOL    HW132489   2.010   1.336   6.295
10530SOL    HW232490   1.873   1.342   6.206
10531SOL     OW32491   1.147   2.989   4.773
10531SOL    HW132492   1.064   2.953   4.730
10531SOL    HW232493   1.146   2.966   4.870
10532SOL     OW32494   2.253   3.654   0.205
10532SOL    HW132495   2.294   3.564   0.190
10532SOL    HW232496   2.158   3.643   0.234
10533SOL     OW32497   3.264   1.903   4.153
10533SOL    HW132498   3.250   1.883   4.056
10533SOL    HW232499   3.175   1.908   4.199
10534SOL     OW32500   6.581   5.704   0.911
10534SOL    HW132501   6.527   5.749   0.981
10534SOL    HW232502   6.565   5.605   0.915
10535SOL     OW32503   0.057   2.643   1.777
10535SOL    HW132504   0.042   2.636   1.678
10535SOL    HW232505   0.109   2.726   1.797
10536SOL     OW32506   3.794   0.726   2.764
10536SOL    HW132507   3.719   0.671   2.727
10536SOL    HW232508   3.791   0.818   2.724
10537SOL     OW32509   3.392   5.969   3.135
10537SOL    HW132510   3.474   5.913   3.119
10537SOL    HW232511   3.316   5.932   3.082
10538SOL     OW32512   4.737   3.010   6.684
10538SOL    HW132513   4.810   2.954   6.725
10538SOL    HW232514   4.652   2.995   6.735
10539SOL     OW32515   0.521   4.093   6.422
10539SOL    HW132516   0.421   4.097   6.424
10539SOL    HW232517   0.557   4.185   6.404
10540SOL     OW32518   1.653   1.483   5.802
10540SOL    HW132519   1.699   1.558   5.753
10540SOL    HW232520   1.556   1.483   5.779
10541SOL     OW32521   3.673   3.530   1.821
10541SOL    HW132522   3.744   3.592   1.787
10541SOL    HW232523   3.595   3.583   1.854
10542SOL     OW32524   6.755   2.027   0.208
10542SOL    HW132525   6.759   1.982   0.119
10542SOL    HW232526   6.827   2.096   0.215
10543SOL     OW32527   0.812   1.309   4.809
10543SOL    HW132528   0.792   1.401   4.842
10543SOL    HW232529   0.905   1.307   4.772
10544SOL     OW32530   1.405   7.013   2.785
10544SOL    HW132531   1.322   6.971   2.820
10544SOL    HW232532   1.410   6.999   2.686
10545SOL     OW32533   6.184   1.023   2.746
10545SOL    HW132534   6.140   0.989   2.662
10545SOL    HW232535   6.255   0.959   2.774
10546SOL     OW32536   0.476   0.882   6.151
10546SOL    HW132537   0.480   0.981   6.147
10546SOL    HW232538   0.527   0.843   6.074
10547SOL     OW32539   4.727   2.061   1.092
10547SOL    HW132540   4.699   2.054   1.188
10547SOL    HW232541   4.660   2.014   1.034
10548SOL     OW32542   5.053   3.566   5.004
10548SOL    HW132543   4.965   3.610   4.987
10548SOL    HW232544   5.079   3.581   5.100
10549SOL     OW32545   6.466   0.559   1.916
10549SOL    HW132546   6.493   0.644   1.870
10549SOL    HW232547   6.415   0.581   1.999
10550SOL     OW32548   4.240   6.771   4.832
10550SOL    HW132549   4.164   6.721   4.874
10550SOL    HW232550   4.311   6.706   4.806
10551SOL     OW32551   1.628   2.610   5.607
10551SOL    HW132552   1.565   2.597   5.530
10551SOL    HW232553   1.623   2.705   5.638
10552SOL     OW32554   3.953   1.942   5.766
10552SOL    HW132555   3.870   1.969   5.718
10552SOL    HW232556   3.931   1.921   5.862
10553SOL     OW32557   1.424   4.697   1.807
10553SOL    HW132558   1.501   4.645   1.769
10553SOL    HW232559   1.344   4.685   1.749
10554SOL     OW32560   4.940   5.231   6.454
10554SOL    HW132561   4.975   5.171   6.526
10554SOL    HW232562   4.983   5.209   6.367
10555SOL     OW32563   2.678   2.804   1.054
10555SOL    HW132564   2.764   2.825   1.099
10555SOL    HW232565   2.683   2.833   0.958
10556SOL     OW32566   1.785   3.115   4.985
10556SOL    HW132567   1.768   3.207   5.020
10556SOL    HW232568   1.868   3.078   5.028
10557SOL     OW32569   1.173   2.677   3.121
10557SOL    HW132570   1.250   2.721   3.167
10557SOL    HW232571   1.088   2.703   3.166
10558SOL     OW32572   3.935   7.002   4.350
10558SOL    HW132573   4.031   7.005   4.324
10558SOL    HW232574   3.879   0.013   4.277
10559SOL     OW32575   3.824   1.115   0.915
10559SOL    HW132576   3.777   1.172   0.982
10559SOL    HW232577   3.814   1.155   0.824
10560SOL     OW32578   2.284   5.823   4.341
10560SOL    HW132579   2.347   5.750   4.313
10560SOL    HW232580   2.223   5.845   4.265
10561SOL     OW32581   2.555   4.775   0.342
10561SOL    HW132582   2.561   4.757   0.244
10561SOL    HW232583   2.601   4.702   0.392
10562SOL     OW32584   5.538   6.202   0.194
10562SOL    HW132585   5.447   6.221   0.231
10562SOL    HW232586   5.529   6.144   0.113
10563SOL     OW32587   1.443   0.680   4.212
10563SOL    HW132588   1.518   0.642   4.158
10563SOL    HW232589   1.478   0.717   4.298
10564SOL     OW32590   5.858   6.466   2.133
10564SOL    HW132591   5.878   6.510   2.220
10564SOL    HW232592   5.875   6.530   2.058
10565SOL     OW32593   0.371   0.867   5.681
10565SOL    HW132594   0.425   0.951   5.690
10565SOL    HW232595   0.309   0.876   5.603
10566SOL     OW32596   4.324   2.992   0.016
10566SOL    HW132597   4.264   2.982   0.096
10566SOL    HW232598   4.348   3.088   0.004
10567SOL     OW32599   2.442   2.755   3.808
10567SOL    HW132600   2.362   2.719   3.759
10567SOL    HW232601   2.483   2.829   3.755
10568SOL     OW32602   5.496   1.368   1.508
10568SOL    HW132603   5.440   1.322   1.439
10568SOL    HW232604   5.518   1.304   1.582
10569SOL     OW32605   6.415   2.744   1.439
10569SOL    HW132606   6.507   2.744   1.479
10569SOL    HW232607   6.419   2.778   1.345
10570SOL     OW32608   1.991   4.983   2.589
10570SOL    HW132609   1.994   4.918   2.665
10570SOL    HW232610   2.023   4.938   2.505
10571SOL     OW32611   0.376   4.993   4.431
10571SOL    HW132612   0.301   4.982   4.496
10571SOL    HW232613   0.356   5.068   4.368
10572SOL     OW32614   6.512   3.294   3.717
10572SOL    HW132615   6.587   3.347   3.756
10572SOL    HW232616   6.519   3.295   3.617
10573SOL     OW32617   5.496   6.072   4.089
10573SOL    HW132618   5.453   5.984   4.109
10573SOL    HW232619   5.589   6.073   4.127
10574SOL     OW32620   1.876   2.182   4.412
10574SOL    HW132621   1.786   2.223   4.426
10574SOL    HW232622   1.872   2.119   4.334
10575SOL     OW32623   0.334   0.748   3.696
10575SOL    HW132624   0.406   0.788   3.753
10575SOL    HW232625   0.277   0.821   3.659
10576SOL     OW32626   0.271   6.363   5.623
10576SOL    HW132627   0.218   6.284   5.651
10576SOL    HW232628   0.257   6.438   5.689
10577SOL     OW32629   1.232   2.615   6.606
10577SOL    HW132630   1.307   2.658   6.556
10577SOL    HW232631   1.203   2.532   6.558
10578SOL     OW32632   6.677   0.335   3.397
10578SOL    HW132633   6.655   0.409   3.334
10578SOL    HW232634   6.726   0.371   3.476
10579SOL     OW32635   3.630   2.395   0.310
10579SOL    HW132636   3.575   2.447   0.245
10579SOL    HW232637   3.589   2.401   0.401
10580SOL     OW32638   6.582   0.439   0.308
10580SOL    HW132639   6.512   0.511   0.304
10580SOL    HW232640   6.545   0.356   0.266
10581SOL     OW32641   5.737   0.210   2.625
10581SOL    HW132642   5.761   0.281   2.692
10581SOL    HW232643   5.797   0.131   2.638
10582SOL     OW32644   4.217   4.914   6.715
10582SOL    HW132645   4.165   4.993   6.750
10582SOL    HW232646   4.308   4.945   6.687
10583SOL     OW32647   4.110   0.704   5.690
10583SOL    HW132648   4.109   0.727   5.592
10583SOL    HW232649   4.198   0.730   5.729
10584SOL     OW32650   6.258   6.689   0.981
10584SOL    HW132651   6.212   6.729   0.901
10584SOL    HW232652   6.190   6.644   1.039
10585SOL     OW32653   1.528   3.243   5.510
10585SOL    HW132654   1.593   3.319   5.511
10585SOL    HW232655   1.492   3.232   5.418
10586SOL     OW32656   1.797   5.864   5.802
10586SOL    HW132657   1.894   5.870   5.779
10586SOL    HW232658   1.761   5.775   5.772
10587SOL     OW32659   5.905   4.432   6.869
10587SOL    HW132660   5.907   4.415   6.967
10587SOL    HW232661   5.811   4.425   6.836
10588SOL     OW32662   0.973   4.356   1.625
10588SOL    HW132663   1.039   4.359   1.700
10588SOL    HW232664   0.933   4.264   1.620
10589SOL     OW32665   5.607   1.309   4.555
10589SOL    HW132666   5.669   1.376   4.513
10589SOL    HW232667   5.545   1.274   4.485
10590SOL     OW32668   0.864   0.435   1.515
10590SOL    HW132669   0.954   0.423   1.555
10590SOL    HW232670   0.794   0.421   1.585
10591SOL     OW32671   1.499   1.602   6.009
10591SOL    HW132672   1.575   1.565   6.063
10591SOL    HW232673   1.526   1.690   5.970
10592SOL     OW32674   5.716   2.610   0.700
10592SOL    HW132675   5.720   2.517   0.734
10592SOL    HW232676   5.759   2.615   0.610
10593SOL     OW32677   2.848   5.247   0.607
10593SOL    HW132678   2.888   5.289   0.526
10593SOL    HW232679   2.749   5.241   0.597
10594SOL     OW32680   5.480   1.620   3.633
10594SOL    HW132681   5.421   1.642   3.711
10594SOL    HW232682   5.523   1.532   3.649
10595SOL     OW32683   3.597   0.257   6.494
10595SOL    HW132684   3.602   0.278   6.592
10595SOL    HW232685   3.650   0.324   6.443
10596SOL     OW32686   4.115   6.882   1.685
10596SOL    HW132687   4.120   6.828   1.769
10596SOL    HW232688   4.166   6.835   1.613
10597SOL     OW32689   2.613   1.289   4.612
10597SOL    HW132690   2.573   1.197   4.605
10597SOL    HW232691   2.652   1.315   4.524
10598SOL     OW32692   2.680   2.578   0.164
10598SOL    HW132693   2.741   2.570   0.085
10598SOL    HW232694   2.695   2.502   0.226
10599SOL     OW32695   5.345   2.284   0.261
10599SOL    HW132696   5.327   2.199   0.310
10599SOL    HW232697   5.435   2.319   0.288
10600SOL     OW32698   1.969   3.423   0.538
10600SOL    HW132699   1.916   3.341   0.518
10600SOL    HW232700   1.991   3.470   0.452
10601SOL     OW32701   2.123   5.057   5.866
10601SOL    HW132702   2.184   5.014   5.800
10601SOL    HW232703   2.176   5.089   5.945
10602SOL     OW32704   5.238   1.413   3.147
10602SOL    HW132705   5.295   1.444   3.223
10602SOL    HW232706   5.295   1.383   3.072
10603SOL     OW32707   2.561   5.979   3.355
10603SOL    HW132708   2.533   6.068   3.393
10603SOL    HW232709   2.549   5.980   3.256
10604SOL     OW32710   5.628   4.194   4.687
10604SOL    HW132711   5.548   4.186   4.746
10604SOL    HW232712   5.611   4.264   4.618
10605SOL     OW32713   1.039   4.604   0.546
10605SOL    HW132714   1.112   4.612   0.614
10605SOL    HW232715   0.984   4.688   0.547
10606SOL     OW32716   5.837   0.768   2.260
10606SOL    HW132717   5.760   0.829   2.279
10606SOL    HW232718   5.897   0.810   2.192
10607SOL     OW32719   4.383   3.604   5.542
10607SOL    HW132720   4.333   3.610   5.455
10607SOL    HW232721   4.346   3.672   5.606
10608SOL     OW32722   6.022   1.975   4.978
10608SOL    HW132723   6.040   2.043   4.906
10608SOL    HW232724   6.056   2.010   5.065
10609SOL     OW32725   2.986   6.163   1.845
10609SOL    HW132726   3.070   6.170   1.791
10609SOL    HW232727   2.911   6.209   1.798
10610SOL     OW32728   0.237   4.161   6.400
10610SOL    HW132729   0.187   4.075   6.389
10610SOL    HW232730   0.175   4.232   6.432
10611SOL     OW32731   5.194   3.309   6.651
10611SOL    HW132732   5.197   3.212   6.627
10611SOL    HW232733   5.118   3.353   6.603
10612SOL     OW32734   2.364   0.221   5.478
10612SOL    HW132735   2.442   0.166   5.508
10612SOL    HW232736   2.390   0.317   5.474
10613SOL     OW32737   0.246   6.862   5.776
10613SOL    HW132738   0.171   6.838   5.838
10613SOL    HW232739   0.230   6.954   5.740
10614SOL     OW32740   0.113   1.814   4.472
10614SOL    HW132741   0.185   1.748   4.447
10614SOL    HW232742   0.057   1.833   4.392
10615SOL     OW32743   4.408   5.625   5.580
10615SOL    HW132744   4.464   5.644   5.500
10615SOL    HW232745   4.316   5.661   5.565
10616SOL     OW32746   3.552   6.172   0.388
10616SOL    HW132747   3.478   6.235   0.365
10616SOL    HW232748   3.640   6.219   0.377
10617SOL     OW32749   2.274   2.595   0.626
10617SOL    HW132750   2.304   2.611   0.720
10617SOL    HW232751   2.274   2.496   0.608
10618SOL     OW32752   5.630   3.189   0.016
10618SOL    HW132753   5.540   3.234   0.024
10618SOL    HW232754   5.620   3.104   6.992
10619SOL     OW32755   0.146   3.520   1.645
10619SOL    HW132756   0.068   3.561   1.598
10619SOL    HW232757   0.186   3.587   1.707
10620SOL     OW32758   1.161   6.163   5.240
10620SOL    HW132759   1.162   6.137   5.337
10620SOL    HW232760   1.184   6.083   5.185
10621SOL     OW32761   1.533   5.814   0.936
10621SOL    HW132762   1.610   5.874   0.916
10621SOL    HW232763   1.453   5.843   0.883
10622SOL     OW32764   4.463   0.945   1.009
10622SOL    HW132765   4.554   0.904   1.018
10622SOL    HW232766   4.397   0.874   0.983
10623SOL     OW32767   6.081   3.384   3.541
10623SOL    HW132768   6.077   3.339   3.631
10623SOL    HW232769   6.109   3.479   3.553
10624SOL     OW32770   1.028   1.006   4.603
10624SOL    HW132771   0.995   0.945   4.530
10624SOL    HW232772   1.023   1.101   4.572
10625SOL     OW32773   0.709   4.233   0.046
10625SOL    HW132774   0.728   4.296   6.998
10625SOL    HW232775   0.677   4.146   0.009
10626SOL     OW32776   0.905   2.587   1.470
10626SOL    HW132777   0.946   2.502   1.435
10626SOL    HW232778   0.824   2.565   1.525
10627SOL     OW32779   5.390   6.242   2.201
10627SOL    HW132780   5.462   6.229   2.132
10627SOL    HW232781   5.425   6.214   2.291
10628SOL     OW32782   5.725   5.316   5.778
10628SOL    HW132783   5.691   5.314   5.684
10628SOL    HW232784   5.706   5.228   5.822
10629SOL     OW32785   2.764   4.601   5.371
10629SOL    HW132786   2.831   4.577   5.300
10629SOL    HW232787   2.686   4.647   5.329
10630SOL     OW32788   6.587   0.643   3.437
10630SOL    HW132789   6.548   0.736   3.436
10630SOL    HW232790   6.593   0.609   3.343
10631SOL     OW32791   1.606   5.597   4.532
10631SOL    HW132792   1.703   5.572   4.532
10631SOL    HW232793   1.594   5.682   4.481
10632SOL     OW32794   5.487   2.399   4.152
10632SOL    HW132795   5.391   2.391   4.127
10632SOL    HW232796   5.527   2.308   4.160
10633SOL     OW32797   2.999   3.979   1.535
10633SOL    HW132798   2.999   3.886   1.573
10633SOL    HW232799   3.078   4.029   1.570
10634SOL     OW32800   3.461   5.352   0.756
10634SOL    HW132801   3.462   5.260   0.716
10634SOL    HW232802   3.443   5.419   0.685
10635SOL     OW32803   2.571   1.531   1.649
10635SOL    HW132804   2.624   1.529   1.564
10635SOL    HW232805   2.554   1.626   1.676
10636SOL     OW32806   1.178   2.640   2.139
10636SOL    HW132807   1.181   2.541   2.135
10636SOL    HW232808   1.191   2.678   2.048
10637SOL     OW32809   3.772   3.963   5.657
10637SOL    HW132810   3.675   3.938   5.666
10637SOL    HW232811   3.790   3.993   5.563
10638SOL     OW32812   6.886   6.002   2.699
10638SOL    HW132813   6.928   6.054   2.625
10638SOL    HW232814   6.788   5.994   2.682
10639SOL     OW32815   0.811   1.562   3.570
10639SOL    HW132816   0.731   1.537   3.624
10639SOL    HW232817   0.812   1.661   3.554
10640SOL     OW32818   4.193   0.193   6.658
10640SOL    HW132819   4.221   0.102   6.629
10640SOL    HW232820   4.093   0.199   6.658
10641SOL     OW32821   3.581   2.225   0.037
10641SOL    HW132822   3.645   2.149   0.026
10641SOL    HW232823   3.575   2.249   0.134
10642SOL     OW32824   0.351   2.911   1.540
10642SOL    HW132825   0.307   2.924   1.452
10642SOL    HW232826   0.331   2.989   1.599
10643SOL     OW32827   1.843   4.478   6.129
10643SOL    HW132828   1.784   4.414   6.178
10643SOL    HW232829   1.792   4.560   6.105
10644SOL     OW32830   4.756   2.251   3.680
10644SOL    HW132831   4.741   2.243   3.778
10644SOL    HW232832   4.806   2.335   3.660
10645SOL     OW32833   0.877   1.120   4.182
10645SOL    HW132834   0.883   1.207   4.232
10645SOL    HW232835   0.899   1.136   4.085
10646SOL     OW32836   0.921   1.908   5.290
10646SOL    HW132837   0.961   1.817   5.290
10646SOL    HW232838   0.937   1.952   5.201
10647SOL     OW32839   5.275   6.036   6.485
10647SOL    HW132840   5.291   5.937   6.484
10647SOL    HW232841   5.187   6.056   6.443
10648SOL     OW32842   5.501   3.105   6.363
10648SOL    HW132843   5.465   3.037   6.427
10648SOL    HW232844   5.448   3.103   6.278
10649SOL     OW32845   0.284   4.515   3.494
10649SOL    HW132846   0.195   4.501   3.451
10649SOL    HW232847   0.273   4.573   3.574
10650SOL     OW32848   1.248   6.541   3.344
10650SOL    HW132849   1.182   6.470   3.323
10650SOL    HW232850   1.340   6.510   3.317
10651SOL     OW32851   4.828   6.701   5.613
10651SOL    HW132852   4.842   6.709   5.712
10651SOL    HW232853   4.731   6.704   5.592
10652SOL     OW32854   3.514   0.261   6.908
10652SOL    HW132855   3.441   0.219   6.855
10652SOL    HW232856   3.586   0.293   6.846
10653SOL     OW32857   5.134   4.802   3.983
10653SOL    HW132858   5.166   4.791   4.076
10653SOL    HW232859   5.129   4.900   3.961
10654SOL     OW32860   3.862   0.453   1.440
10654SOL    HW132861   3.902   0.400   1.365
10654SOL    HW232862   3.906   0.428   1.526
10655SOL     OW32863   3.435   5.402   1.451
10655SOL    HW132864   3.532   5.426   1.450
10655SOL    HW232865   3.414   5.352   1.535
10656SOL     OW32866   6.148   2.145   0.566
10656SOL    HW132867   6.079   2.116   0.632
10656SOL    HW232868   6.218   2.074   0.557
10657SOL     OW32869   6.347   6.934   0.225
10657SOL    HW132870   6.279   6.996   0.263
10657SOL    HW232871   6.345   6.938   0.125
10658SOL     OW32872   0.407   4.300   4.692
10658SOL    HW132873   0.411   4.373   4.623
10658SOL    HW232874   0.325   4.245   4.677
10659SOL     OW32875   7.002   6.755   1.242
10659SOL    HW132876   6.931   6.826   1.250
10659SOL    HW232877   0.033   6.775   1.163
10660SOL     OW32878   5.169   4.285   6.318
10660SOL    HW132879   5.135   4.346   6.389
10660SOL    HW232880   5.240   4.225   6.356
10661SOL     OW32881   6.913   6.322   2.768
10661SOL    HW132882   6.910   6.313   2.868
10661SOL    HW232883   7.000   6.284   2.734
10662SOL     OW32884   6.033   1.167   2.100
10662SOL    HW132885   5.991   1.246   2.056
10662SOL    HW232886   6.132   1.175   2.096
10663SOL     OW32887   0.735   0.121   1.135
10663SOL    HW132888   0.692   0.030   1.137
10663SOL    HW232889   0.828   0.114   1.171
10664SOL     OW32890   2.134   4.201   6.369
10664SOL    HW132891   2.088   4.223   6.283
10664SOL    HW232892   2.221   4.250   6.374
10665SOL     OW32893   0.939   1.007   6.737
10665SOL    HW132894   0.861   0.979   6.793
10665SOL    HW232895   0.905   1.046   6.651
10666SOL     OW32896   4.037   3.966   0.119
10666SOL    HW132897   4.098   3.989   0.043
10666SOL    HW232898   3.954   3.922   0.085
10667SOL     OW32899   3.951   1.545   5.390
10667SOL    HW132900   3.961   1.449   5.365
10667SOL    HW232901   3.859   1.560   5.426
10668SOL     OW32902   1.255   1.920   5.721
10668SOL    HW132903   1.231   1.907   5.818
10668SOL    HW232904   1.218   2.007   5.689
10669SOL     OW32905   0.009   6.716   0.688
10669SOL    HW132906   0.025   6.730   0.590
10669SOL    HW232907   6.938   6.707   0.705
10670SOL     OW32908   5.134   4.562   5.919
10670SOL    HW132909   5.127   4.656   5.885
10670SOL    HW232910   5.045   4.531   5.952
10671SOL     OW32911   2.122   3.531   2.786
10671SOL    HW132912   2.130   3.607   2.851
10671SOL    HW232913   2.038   3.480   2.806
10672SOL     OW32914   6.886   3.007   0.673
10672SOL    HW132915   6.932   2.929   0.715
10672SOL    HW232916   6.793   3.015   0.709
10673SOL     OW32917   2.692   2.402   5.883
10673SOL    HW132918   2.700   2.369   5.790
10673SOL    HW232919   2.655   2.330   5.942
10674SOL     OW32920   4.002   3.346   0.573
10674SOL    HW132921   3.951   3.342   0.658
10674SOL    HW232922   4.005   3.440   0.539
10675SOL     OW32923   0.761   0.675   5.685
10675SOL    HW132924   0.784   0.587   5.644
10675SOL    HW232925   0.843   0.732   5.691
10676SOL     OW32926   6.095   0.224   5.987
10676SOL    HW132927   6.039   0.246   5.906
10676SOL    HW232928   6.067   0.135   6.023
10677SOL     OW32929   0.822   0.716   2.182
10677SOL    HW132930   0.777   0.695   2.095
10677SOL    HW232931   0.882   0.795   2.170
10678SOL     OW32932   3.704   5.424   3.005
10678SOL    HW132933   3.726   5.380   3.092
10678SOL    HW232934   3.750   5.512   2.999
10679SOL     OW32935   5.597   5.601   5.125
10679SOL    HW132936   5.661   5.593   5.201
10679SOL    HW232937   5.565   5.696   5.119
10680SOL     OW32938   1.508   3.247   3.155
10680SOL    HW132939   1.517   3.336   3.110
10680SOL    HW232940   1.594   3.223   3.198
10681SOL     OW32941   6.503   4.062   6.797
10681SOL    HW132942   6.602   4.065   6.812
10681SOL    HW232943   6.460   4.141   6.839
10682SOL     OW32944   1.766   1.797   2.727
10682SOL    HW132945   1.769   1.742   2.811
10682SOL    HW232946   1.680   1.778   2.679
10683SOL     OW32947   2.663   2.387   3.965
10683SOL    HW132948   2.762   2.403   3.967
10683SOL    HW232949   2.618   2.446   4.032
10684SOL     OW32950   5.126   3.870   0.387
10684SOL    HW132951   5.044   3.830   0.345
10684SOL    HW232952   5.206   3.814   0.364
10685SOL     OW32953   0.883   3.703   3.033
10685SOL    HW132954   0.863   3.622   2.979
10685SOL    HW232955   0.951   3.760   2.986
10686SOL     OW32956   3.993   5.962   6.811
10686SOL    HW132957   3.992   5.865   6.787
10686SOL    HW232958   4.032   5.974   6.902
10687SOL     OW32959   0.039   5.428   2.071
10687SOL    HW132960   0.096   5.472   2.001
10687SOL    HW232961   0.063   5.464   2.161
10688SOL     OW32962   6.061   4.507   2.253
10688SOL    HW132963   6.137   4.490   2.189
10688SOL    HW232964   5.980   4.457   2.222
10689SOL     OW32965   6.974   6.951   3.064
10689SOL    HW132966   6.980   6.958   3.163
10689SOL    HW232967   6.974   6.855   3.037
10690SOL     OW32968   4.754   5.882   3.108
10690SOL    HW132969   4.812   5.963   3.103
10690SOL    HW232970   4.798   5.813   3.165
10691SOL     OW32971   6.415   1.349   1.654
10691SOL    HW132972   6.350   1.424   1.639
10691SOL    HW232973   6.492   1.383   1.707
10692SOL     OW32974   3.069   5.892   3.561
10692SOL    HW132975   2.992   5.943   3.599
10692SOL    HW232976   3.096   5.820   3.626
10693SOL     OW32977   1.546   1.285   1.257
10693SOL    HW132978   1.613   1.300   1.184
10693SOL    HW232979   1.517   1.190   1.256
10694SOL     OW32980   3.040   6.315   1.413
10694SOL    HW132981   3.129   6.340   1.452
10694SOL    HW232982   3.035   6.346   1.318
10695SOL     OW32983   6.586   2.404   3.883
10695SOL    HW132984   6.615   2.499   3.873
10695SOL    HW232985   6.596   2.357   3.795
10696SOL     OW32986   6.800   5.538   1.528
10696SOL    HW132987   6.841   5.516   1.439
10696SOL    HW232988   6.777   5.453   1.575
10697SOL     OW32989   0.225   6.169   3.540
10697SOL    HW132990   0.170   6.091   3.569
10697SOL    HW232991   0.165   6.247   3.522
10698SOL     OW32992   2.833   0.369   3.830
10698SOL    HW132993   2.907   0.402   3.772
10698SOL    HW232994   2.828   0.423   3.913
10699SOL     OW32995   4.512   1.316   2.917
10699SOL    HW132996   4.478   1.370   2.994
10699SOL    HW232997   4.534   1.377   2.841
10700SOL     OW32998   0.774   0.335   0.523
10700SOL    HW132999   0.843   0.300   0.460
10700SOL    HW233000   0.756   0.267   0.594
10701SOL     OW33001   4.456   6.064   6.639
10701SOL    HW133002   4.358   6.083   6.650
10701SOL    HW233003   4.484   5.994   6.706
10702SOL     OW33004   5.725   2.326   1.502
10702SOL    HW133005   5.799   2.376   1.456
10702SOL    HW233006   5.695   2.378   1.582
10703SOL     OW33007   3.566   3.898   3.006
10703SOL    HW133008   3.613   3.810   2.997
10703SOL    HW233009   3.476   3.884   3.047
10704SOL     OW33010   4.934   6.713   2.014
10704SOL    HW133011   4.958   6.656   2.093
10704SOL    HW233012   4.910   6.654   1.937
10705SOL     OW33013   1.243   3.540   6.609
10705SOL    HW133014   1.340   3.523   6.597
10705SOL    HW233015   1.226   3.638   6.604
10706SOL     OW33016   4.460   0.711   2.442
10706SOL    HW133017   4.373   0.753   2.418
10706SOL    HW233018   4.464   0.697   2.541
10707SOL     OW33019   0.053   6.762   5.948
10707SOL    HW133020   6.981   6.749   5.958
10707SOL    HW233021   0.098   6.674   5.931
10708SOL     OW33022   4.812   0.789   1.309
10708SOL    HW133023   4.821   0.691   1.329
10708SOL    HW233024   4.893   0.837   1.344
10709SOL     OW33025   6.302   0.644   5.516
10709SOL    HW133026   6.398   0.614   5.517
10709SOL    HW233027   6.298   0.742   5.494
10710SOL     OW33028   6.622   5.864   3.957
10710SOL    HW133029   6.555   5.934   3.983
10710SOL    HW233030   6.587   5.774   3.984
10711SOL     OW33031   2.082   0.299   4.040
10711SOL    HW133032   2.127   0.212   4.020
10711SOL    HW233033   2.047   0.298   4.134
10712SOL     OW33034   3.766   1.039   4.776
10712SOL    HW133035   3.780   1.126   4.729
10712SOL    HW233036   3.668   1.025   4.791
10713SOL     OW33037   1.924   5.370   1.949
10713SOL    HW133038   1.984   5.334   1.877
10713SOL    HW233039   1.967   5.449   1.992
10714SOL     OW33040   0.529   5.025   4.721
10714SOL    HW133041   0.606   5.041   4.659
10714SOL    HW233042   0.544   4.939   4.771
10715SOL     OW33043   4.994   1.850   4.362
10715SOL    HW133044   5.023   1.916   4.293
10715SOL    HW233045   5.023   1.758   4.335
10716SOL     OW33046   6.381   1.097   4.044
10716SOL    HW133047   6.446   1.045   4.098
10716SOL    HW233048   6.296   1.109   4.095
10717SOL     OW33049   0.364   1.484   1.326
10717SOL    HW133050   0.379   1.533   1.412
10717SOL    HW233051   0.437   1.417   1.312
10718SOL     OW33052   6.674   5.536   0.437
10718SOL    HW133053   6.743   5.599   0.471
10718SOL    HW233054   6.590   5.547   0.490
10719SOL     OW33055   4.947   0.644   2.687
10719SOL    HW133056   4.925   0.546   2.685
10719SOL    HW233057   5.012   0.662   2.761
10720SOL     OW33058   6.887   3.690   5.811
10720SOL    HW133059   6.942   3.752   5.866
10720SOL    HW233060   6.906   3.595   5.838
10721SOL     OW33061   6.010   2.163   4.529
10721SOL    HW133062   6.093   2.212   4.501
10721SOL    HW233063   6.012   2.070   4.492
10722SOL     OW33064   6.565   3.609   0.105
10722SOL    HW133065   6.649   3.607   0.159
10722SOL    HW233066   6.508   3.686   0.134
10723SOL     OW33067   5.258   4.067   6.854
10723SOL    HW133068   5.225   4.074   6.760
10723SOL    HW233069   5.358   4.055   6.853
10724SOL     OW33070   4.600   6.639   6.054
10724SOL    HW133071   4.588   6.695   6.135
10724SOL    HW233072   4.673   6.572   6.070
10725SOL     OW33073   0.621   6.380   4.456
10725SOL    HW133074   0.679   6.335   4.524
10725SOL    HW233075   0.675   6.400   4.374
10726SOL     OW33076   5.478   0.907   5.120
10726SOL    HW133077   5.434   0.822   5.095
10726SOL    HW233078   5.463   0.926   5.217
10727SOL     OW33079   2.185   5.000   5.072
10727SOL    HW133080   2.231   5.035   4.990
10727SOL    HW233081   2.108   5.059   5.095
10728SOL     OW33082   4.594   0.016   2.626
10728SOL    HW133083   4.662   0.034   2.554
10728SOL    HW233084   4.544   6.959   2.604
10729SOL     OW33085   6.154   2.446   3.014
10729SOL    HW133086   6.126   2.402   2.929
10729SOL    HW233087   6.073   2.482   3.061
10730SOL     OW33088   2.394   5.975   2.574
10730SOL    HW133089   2.469   6.029   2.612
10730SOL    HW233090   2.382   5.998   2.477
10731SOL     OW33091   3.245   5.393   0.276
10731SOL    HW133092   3.283   5.485   0.284
10731SOL    HW233093   3.314   5.331   0.238
10732SOL     OW33094   5.470   6.604   2.834
10732SOL    HW133095   5.395   6.551   2.874
10732SOL    HW233096   5.551   6.546   2.826
10733SOL     OW33097   5.540   1.331   0.220
10733SOL    HW133098   5.582   1.276   0.148
10733SOL    HW233099   5.549   1.284   0.308
10734SOL     OW33100   0.463   0.198   6.526
10734SOL    HW133101   0.557   0.170   6.547
10734SOL    HW233102   0.428   0.142   6.451
10735SOL     OW33103   0.868   5.337   2.402
10735SOL    HW133104   0.879   5.262   2.468
10735SOL    HW233105   0.815   5.410   2.444
10736SOL     OW33106   0.002   0.903   4.306
10736SOL    HW133107   6.958   0.880   4.374
10736SOL    HW233108   0.074   0.957   4.349
10737SOL     OW33109   0.129   1.948   1.232
10737SOL    HW133110   0.119   1.896   1.316
10737SOL    HW233111   0.132   1.886   1.154
10738SOL     OW33112   2.740   1.163   2.637
10738SOL    HW133113   2.719   1.258   2.614
10738SOL    HW233114   2.807   1.161   2.711
10739SOL     OW33115   6.205   2.066   3.080
10739SOL    HW133116   6.119   2.102   3.116
10739SOL    HW233117   6.206   2.076   2.981
10740SOL     OW33118   1.359   6.647   5.549
10740SOL    HW133119   1.376   6.551   5.526
10740SOL    HW233120   1.354   6.658   5.648
10741SOL     OW33121   1.602   2.771   3.274
10741SOL    HW133122   1.638   2.775   3.367
10741SOL    HW233123   1.515   2.820   3.270
10742SOL     OW33124   6.348   5.764   1.988
10742SOL    HW133125   6.361   5.707   1.907
10742SOL    HW233126   6.372   5.859   1.967
10743SOL     OW33127   3.562   1.201   5.448
10743SOL    HW133128   3.613   1.235   5.527
10743SOL    HW233129   3.464   1.208   5.465
10744SOL     OW33130   3.341   0.639   1.394
10744SOL    HW133131   3.433   0.678   1.388
10744SOL    HW233132   3.345   0.550   1.439
10745SOL     OW33133   2.144   4.642   0.897
10745SOL    HW133134   2.091   4.625   0.980
10745SOL    HW233135   2.190   4.557   0.870
10746SOL     OW33136   2.564   5.606   0.546
10746SOL    HW133137   2.488   5.552   0.582
10746SOL    HW233138   2.646   5.549   0.544
10747SOL     OW33139   5.813   2.417   4.218
10747SOL    HW133140   5.859   2.330   4.200
10747SOL    HW233141   5.716   2.409   4.196
10748SOL     OW33142   4.661   5.559   1.197
10748SOL    HW133143   4.633   5.466   1.223
10748SOL    HW233144   4.729   5.593   1.262
10749SOL     OW33145   5.886   4.902   3.552
10749SOL    HW133146   5.972   4.920   3.504
10749SOL    HW233147   5.817   4.870   3.488
10750SOL     OW33148   4.845   3.818   3.724
10750SOL    HW133149   4.828   3.795   3.820
10750SOL    HW233150   4.815   3.911   3.706
10751SOL     OW33151   1.298   3.444   4.890
10751SOL    HW133152   1.322   3.541   4.889
10751SOL    HW233153   1.210   3.431   4.935
10752SOL     OW33154   6.335   5.020   6.534
10752SOL    HW133155   6.324   5.108   6.581
10752SOL    HW233156   6.339   4.946   6.601
10753SOL     OW33157   4.162   6.370   4.491
10753SOL    HW133158   4.152   6.331   4.400
10753SOL    HW233159   4.232   6.441   4.490
10754SOL     OW33160   0.606   2.911   2.026
10754SOL    HW133161   0.653   2.957   1.950
10754SOL    HW233162   0.547   2.977   2.073
10755SOL     OW33163   6.862   1.994   1.780
10755SOL    HW133164   6.859   1.925   1.852
10755SOL    HW233165   6.877   2.084   1.820
10756SOL     OW33166   5.976   2.536   0.304
10756SOL    HW133167   6.000   2.573   0.214
10756SOL    HW233168   6.059   2.509   0.352
10757SOL     OW33169   6.835   3.901   0.394
10757SOL    HW133170   6.770   3.842   0.444
10757SOL    HW233171   6.848   3.986   0.445
10758SOL     OW33172   1.408   5.545   6.503
10758SOL    HW133173   1.399   5.607   6.424
10758SOL    HW233174   1.336   5.475   6.498
10759SOL     OW33175   1.219   2.604   6.095
10759SOL    HW133176   1.241   2.550   6.014
10759SOL    HW233177   1.136   2.658   6.077
10760SOL     OW33178   1.266   6.136   0.427
10760SOL    HW133179   1.312   6.204   0.484
10760SOL    HW233180   1.326   6.110   0.351
10761SOL     OW33181   0.800   2.353   6.495
10761SOL    HW133182   0.853   2.355   6.579
10761SOL    HW233183   0.784   2.258   6.467
10762SOL     OW33184   3.996   0.567   6.107
10762SOL    HW133185   4.080   0.589   6.157
10762SOL    HW233186   3.918   0.609   6.153
10763SOL     OW33187   5.791   1.030   2.723
10763SOL    HW133188   5.807   0.962   2.795
10763SOL    HW233189   5.794   0.985   2.634
10764SOL     OW33190   4.300   0.894   4.942
10764SOL    HW133191   4.255   0.928   5.025
10764SOL    HW233192   4.325   0.798   4.955
10765SOL     OW33193   5.715   1.766   2.580
10765SOL    HW133194   5.690   1.695   2.514
10765SOL    HW233195   5.634   1.796   2.630
10766SOL     OW33196   1.712   5.257   0.028
10766SOL    HW133197   1.660   5.188   7.003
10766SOL    HW233198   1.796   5.216   0.063
10767SOL     OW33199   2.066   6.596   0.333
10767SOL    HW133200   2.046   6.505   0.299
10767SOL    HW233201   2.005   6.662   0.290
10768SOL     OW33202   5.269   5.165   0.475
10768SOL    HW133203   5.263   5.169   0.375
10768SOL    HW233204   5.340   5.100   0.501
10769SOL     OW33205   2.796   4.140   5.410
10769SOL    HW133206   2.877   4.175   5.363
10769SOL    HW233207   2.714   4.182   5.371
10770SOL     OW33208   5.367   6.613   4.515
10770SOL    HW133209   5.408   6.547   4.453
10770SOL    HW233210   5.317   6.682   4.463
10771SOL     OW33211   4.407   0.525   5.240
10771SOL    HW133212   4.469   0.552   5.313
10771SOL    HW233213   4.435   0.436   5.203
10772SOL     OW33214   5.892   6.485   3.945
10772SOL    HW133215   5.827   6.430   3.893
10772SOL    HW233216   5.843   6.541   4.012
10773SOL     OW33217   6.750   4.367   0.372
10773SOL    HW133218   6.664   4.404   0.408
10773SOL    HW233219   6.787   4.299   0.436
10774SOL     OW33220   1.223   2.483   1.207
10774SOL    HW133221   1.317   2.476   1.174
10774SOL    HW233222   1.191   2.392   1.235
10775SOL     OW33223   1.851   4.383   0.708
10775SOL    HW133224   1.802   4.315   0.654
10775SOL    HW233225   1.786   4.450   0.744
10776SOL     OW33226   6.171   0.644   2.828
10776SOL    HW133227   6.086   0.608   2.790
10776SOL    HW233228   6.170   0.636   2.927
10777SOL     OW33229   2.923   0.974   3.935
10777SOL    HW133230   2.880   0.980   4.025
10777SOL    HW233231   3.021   0.989   3.944
10778SOL     OW33232   6.675   6.529   4.818
10778SOL    HW133233   6.632   6.600   4.873
10778SOL    HW233234   6.671   6.442   4.867
10779SOL     OW33235   5.517   4.601   3.407
10779SOL    HW133236   5.548   4.694   3.388
10779SOL    HW233237   5.493   4.555   3.321
10780SOL     OW33238   0.881   6.124   4.765
10780SOL    HW133239   0.850   6.212   4.803
10780SOL    HW233240   0.961   6.092   4.815
10781SOL     OW33241   6.266   1.653   5.086
10781SOL    HW133242   6.270   1.558   5.058
10781SOL    HW233243   6.358   1.689   5.097
10782SOL     OW33244   6.902   3.404   5.268
10782SOL    HW133245   6.828   3.465   5.241
10782SOL    HW233246   6.886   3.370   5.361
10783SOL     OW33247   1.461   2.424   2.164
10783SOL    HW133248   1.488   2.510   2.209
10783SOL    HW233249   1.378   2.389   2.207
10784SOL     OW33250   2.908   6.120   2.092
10784SOL    HW133251   2.986   6.097   2.149
10784SOL    HW233252   2.941   6.167   2.009
10785SOL     OW33253   1.367   4.985   1.680
10785SOL    HW133254   1.394   4.916   1.747
10785SOL    HW233255   1.268   5.000   1.685
10786SOL     OW33256   4.313   2.337   2.556
10786SOL    HW133257   4.345   2.245   2.535
10786SOL    HW233258   4.259   2.335   2.640
10787SOL     OW33259   3.277   1.566   4.281
10787SOL    HW133260   3.304   1.579   4.186
10787SOL    HW233261   3.340   1.616   4.341
10788SOL     OW33262   1.074   4.494   0.288
10788SOL    HW133263   1.048   4.398   0.299
10788SOL    HW233264   1.097   4.533   0.377
10789SOL     OW33265   6.497   1.070   0.462
10789SOL    HW133266   6.439   1.053   0.542
10789SOL    HW233267   6.562   0.995   0.452
10790SOL     OW33268   0.705   2.222   5.509
10790SOL    HW133269   0.789   2.183   5.547
10790SOL    HW233270   0.724   2.314   5.473
10791SOL     OW33271   2.408   1.867   2.134
10791SOL    HW133272   2.338   1.808   2.174
10791SOL    HW233273   2.466   1.905   2.206
10792SOL     OW33274   3.130   2.388   1.376
10792SOL    HW133275   3.156   2.467   1.431
10792SOL    HW233276   3.084   2.321   1.434
10793SOL     OW33277   5.189   1.737   4.740
10793SOL    HW133278   5.266   1.732   4.805
10793SOL    HW233279   5.189   1.827   4.696
10794SOL     OW33280   4.406   3.112   1.685
10794SOL    HW133281   4.483   3.096   1.747
10794SOL    HW233282   4.374   3.024   1.650
10795SOL     OW33283   0.286   3.895   2.356
10795SOL    HW133284   0.318   3.975   2.305
10795SOL    HW233285   0.217   3.924   2.423
10796SOL     OW33286   5.902   6.896   6.314
10796SOL    HW133287   5.962   6.920   6.390
10796SOL    HW233288   5.843   6.820   6.340
10797SOL     OW33289   3.629   2.947   0.413
10797SOL    HW133290   3.705   2.952   0.477
10797SOL    HW233291   3.553   3.003   0.447
10798SOL     OW33292   2.757   0.170   6.192
10798SOL    HW133293   2.782   0.245   6.131
10798SOL    HW233294   2.815   0.091   6.173
10799SOL     OW33295   3.221   1.842   2.558
10799SOL    HW133296   3.191   1.936   2.545
10799SOL    HW233297   3.306   1.840   2.611
10800SOL     OW33298   1.519   0.252   0.643
10800SOL    HW133299   1.497   0.173   0.701
10800SOL    HW233300   1.436   0.286   0.599
10801SOL     OW33301   2.134   6.133   5.566
10801SOL    HW133302   2.101   6.115   5.659
10801SOL    HW233303   2.183   6.220   5.564
10802SOL     OW33304   1.553   3.746   4.182
10802SOL    HW133305   1.514   3.766   4.092
10802SOL    HW233306   1.481   3.752   4.251
10803SOL     OW33307   5.433   4.798   5.183
10803SOL    HW133308   5.517   4.801   5.130
10803SOL    HW233309   5.454   4.790   5.280
10804SOL     OW33310   6.265   4.002   1.673
10804SOL    HW133311   6.191   4.066   1.652
10804SOL    HW233312   6.254   3.967   1.766
10805SOL     OW33313   4.215   6.620   0.793
10805SOL    HW133314   4.194   6.579   0.882
10805SOL    HW233315   4.138   6.604   0.731
10806SOL     OW33316   5.633   3.466   0.381
10806SOL    HW133317   5.653   3.372   0.405
10806SOL    HW233318   5.537   3.487   0.404
10807SOL     OW33319   3.388   6.146   3.581
10807SOL    HW133320   3.360   6.194   3.665
10807SOL    HW233321   3.486   6.158   3.567
10808SOL     OW33322   0.619   3.208   6.500
10808SOL    HW133323   0.642   3.304   6.482
10808SOL    HW233324   0.701   3.160   6.530
10809SOL     OW33325   3.000   1.686   4.493
10809SOL    HW133326   3.041   1.776   4.503
10809SOL    HW233327   3.061   1.627   4.440
10810SOL     OW33328   0.324   1.606   5.379
10810SOL    HW133329   0.236   1.646   5.356
10810SOL    HW233330   0.369   1.661   5.450
10811SOL     OW33331   4.304   5.369   5.213
10811SOL    HW133332   4.288   5.349   5.309
10811SOL    HW233333   4.400   5.356   5.192
10812SOL     OW33334   6.722   3.128   3.002
10812SOL    HW133335   6.802   3.119   3.061
10812SOL    HW233336   6.653   3.062   3.030
10813SOL     OW33337   2.801   5.695   1.766
10813SOL    HW133338   2.817   5.633   1.842
10813SOL    HW233339   2.851   5.780   1.781
10814SOL     OW33340   2.327   0.469   5.242
10814SOL    HW133341   2.273   0.552   5.225
10814SOL    HW233342   2.386   0.483   5.321
10815SOL     OW33343   5.331   4.039   2.882
10815SOL    HW133344   5.351   4.136   2.868
10815SOL    HW233345   5.383   3.985   2.816
10816SOL     OW33346   1.869   1.130   2.325
10816SOL    HW133347   1.930   1.208   2.331
10816SOL    HW233348   1.784   1.150   2.373
10817SOL     OW33349   5.281   0.390   2.502
10817SOL    HW133350   5.359   0.388   2.441
10817SOL    HW233351   5.271   0.481   2.542
10818SOL     OW33352   5.488   2.989   6.895
10818SOL    HW133353   5.525   2.958   6.808
10818SOL    HW233354   5.489   2.913   6.960
10819SOL     OW33355   0.282   4.252   6.144
10819SOL    HW133356   0.264   4.224   6.238
10819SOL    HW233357   0.254   4.348   6.132
10820SOL     OW33358   0.457   6.925   3.840
10820SOL    HW133359   0.489   6.922   3.935
10820SOL    HW233360   0.358   6.933   3.838
10821SOL     OW33361   0.161   6.963   1.753
10821SOL    HW133362   0.211   6.929   1.833
10821SOL    HW233363   0.167   0.037   1.750
10822SOL     OW33364   0.657   3.073   2.323
10822SOL    HW133365   0.602   3.092   2.404
10822SOL    HW233366   0.637   2.980   2.290
10823SOL     OW33367   2.646   5.997   1.536
10823SOL    HW133368   2.721   6.060   1.519
10823SOL    HW233369   2.607   5.967   1.449
10824SOL     OW33370   5.039   0.529   3.321
10824SOL    HW133371   5.113   0.467   3.347
10824SOL    HW233372   5.070   0.624   3.332
10825SOL     OW33373   2.915   1.345   1.333
10825SOL    HW133374   2.886   1.254   1.305
10825SOL    HW233375   2.862   1.414   1.282
10826SOL     OW33376   6.971   3.747   1.798
10826SOL    HW133377   6.968   3.687   1.718
10826SOL    HW233378   6.892   3.728   1.857
10827SOL     OW33379   6.956   3.629   4.420
10827SOL    HW133380   6.921   3.536   4.415
10827SOL    HW233381   6.989   3.648   4.512
10828SOL     OW33382   1.220   5.766   1.127
10828SOL    HW133383   1.277   5.839   1.165
10828SOL    HW233384   1.274   5.682   1.120
10829SOL     OW33385   2.906   3.785   1.841
10829SOL    HW133386   2.989   3.804   1.790
10829SOL    HW233387   2.918   3.813   1.936
10830SOL     OW33388   5.787   3.386   4.651
10830SOL    HW133389   5.754   3.467   4.699
10830SOL    HW233390   5.755   3.388   4.556
10831SOL     OW33391   4.898   1.054   2.612
10831SOL    HW133392   4.982   1.084   2.566
10831SOL    HW233393   4.920   1.018   2.703
10832SOL     OW33394   1.063   1.917   0.288
10832SOL    HW133395   0.997   1.922   0.363
10832SOL    HW233396   1.042   1.837   0.230
10833SOL     OW33397   2.685   0.703   4.316
10833SOL    HW133398   2.592   0.739   4.326
10833SOL    HW233399   2.743   0.739   4.388
10834SOL     OW33400   0.600   1.075   5.721
10834SOL    HW133401   0.534   1.137   5.677
10834SOL    HW233402   0.686   1.078   5.671
10835SOL     OW33403   6.047   1.757   2.530
10835SOL    HW133404   5.975   1.775   2.597
10835SOL    HW233405   6.100   1.841   2.514
10836SOL     OW33406   0.488   1.400   5.436
10836SOL    HW133407   0.434   1.478   5.405
10836SOL    HW233408   0.576   1.432   5.472
10837SOL     OW33409   6.721   4.523   0.087
10837SOL    HW133410   6.702   4.484   0.177
10837SOL    HW233411   6.801   4.582   0.093
10838SOL     OW33412   5.989   0.236   6.389
10838SOL    HW133413   5.916   0.233   6.457
10838SOL    HW233414   5.950   0.225   6.298
10839SOL     OW33415   2.777   1.785   7.019
10839SOL    HW133416   2.741   1.871   6.984
10839SOL    HW233417   2.811   1.729   6.944
10840SOL     OW33418   3.353   5.770   1.383
10840SOL    HW133419   3.257   5.747   1.400
10840SOL    HW233420   3.382   5.732   1.296
10841SOL     OW33421   4.195   6.350   6.007
10841SOL    HW133422   4.210   6.444   6.035
10841SOL    HW233423   4.189   6.291   6.089
10842SOL     OW33424   6.446   2.674   0.857
10842SOL    HW133425   6.468   2.686   0.760
10842SOL    HW233426   6.514   2.720   0.913
10843SOL     OW33427   1.291   1.652   2.164
10843SOL    HW133428   1.330   1.702   2.242
10843SOL    HW233429   1.362   1.594   2.124
10844SOL     OW33430   6.405   6.649   3.940
10844SOL    HW133431   6.466   6.581   3.898
10844SOL    HW233432   6.368   6.611   4.025
10845SOL     OW33433   1.183   1.295   1.612
10845SOL    HW133434   1.116   1.251   1.551
10845SOL    HW233435   1.266   1.240   1.615
10846SOL     OW33436   4.401   2.111   0.975
10846SOL    HW133437   4.327   2.139   1.036
10846SOL    HW233438   4.392   2.160   0.888
10847SOL     OW33439   3.088   1.987   6.075
10847SOL    HW133440   3.117   1.896   6.106
10847SOL    HW233441   3.154   2.022   6.009
10848SOL     OW33442   2.347   0.930   0.091
10848SOL    HW133443   2.377   1.023   0.071
10848SOL    HW233444   2.247   0.926   0.084
10849SOL     OW33445   2.965   4.863   4.114
10849SOL    HW133446   3.059   4.829   4.111
10849SOL    HW233447   2.930   4.856   4.208
10850SOL     OW33448   5.060   6.874   7.026
10850SOL    HW133449   5.011   6.787   0.002
10850SOL    HW233450   5.145   6.862   6.974
10851SOL     OW33451   2.657   2.717   6.393
10851SOL    HW133452   2.563   2.695   6.419
10851SOL    HW233453   2.681   2.807   6.430
10852SOL     OW33454   0.319   1.182   6.642
10852SOL    HW133455   0.225   1.201   6.616
10852SOL    HW233456   0.322   1.101   6.700
10853SOL     OW33457   2.999   1.885   4.839
10853SOL    HW133458   3.030   1.796   4.806
10853SOL    HW233459   2.902   1.897   4.817
10854SOL     OW33460   5.725   6.906   6.663
10854SOL    HW133461   5.634   6.949   6.665
10854SOL    HW233462   5.745   6.867   6.753
10855SOL     OW33463   1.955   6.090   2.596
10855SOL    HW133464   1.881   6.059   2.656
10855SOL    HW233465   1.947   6.188   2.582
10856SOL     OW33466   6.301   6.215   6.998
10856SOL    HW133467   6.294   6.148   0.046
10856SOL    HW233468   6.298   6.169   6.910
10857SOL     OW33469   6.063   2.529   3.692
10857SOL    HW133470   5.985   2.466   3.702
10857SOL    HW233471   6.077   2.579   3.777
10858SOL     OW33472   1.976   3.657   0.326
10858SOL    HW133473   1.982   3.736   0.386
10858SOL    HW233474   1.917   3.678   0.248
10859SOL     OW33475   0.941   4.212   3.343
10859SOL    HW133476   1.006   4.217   3.267
10859SOL    HW233477   0.853   4.248   3.314
10860SOL     OW33478   6.989   1.156   0.563
10860SOL    HW133479   0.050   1.169   0.610
10860SOL    HW233480   6.928   1.103   0.622
10861SOL     OW33481   3.036   2.640   1.698
10861SOL    HW133482   3.052   2.720   1.755
10861SOL    HW233483   2.971   2.579   1.743
10862SOL     OW33484   2.919   2.446   6.058
10862SOL    HW133485   2.946   2.542   6.070
10862SOL    HW233486   2.843   2.441   5.993
10863SOL     OW33487   2.315   0.427   3.188
10863SOL    HW133488   2.271   0.491   3.250
10863SOL    HW233489   2.285   0.444   3.094
10864SOL     OW33490   2.898   4.530   1.287
10864SOL    HW133491   2.834   4.463   1.324
10864SOL    HW233492   2.913   4.512   1.190
10865SOL     OW33493   5.537   2.837   3.729
10865SOL    HW133494   5.590   2.905   3.680
10865SOL    HW233495   5.556   2.844   3.827
10866SOL     OW33496   6.540   2.512   1.218
10866SOL    HW133497   6.574   2.476   1.131
10866SOL    HW233498   6.572   2.453   1.292
10867SOL     OW33499   2.792   2.767   0.406
10867SOL    HW133500   2.830   2.771   0.314
10867SOL    HW233501   2.729   2.689   0.413
10868SOL     OW33502   0.450   1.819   3.135
10868SOL    HW133503   0.359   1.840   3.171
10868SOL    HW233504   0.504   1.903   3.133
10869NA      NA33505   0.197   1.985   6.038
10870NA      NA33506   4.421   4.653   5.227
10871NA      NA33507   1.595   5.276   2.606
10872NA      NA33508   5.160   4.324   3.855
10873NA      NA33509   4.249   2.449   5.329
10874NA      NA33510   2.802   5.015   1.335
10875NA      NA33511   1.165   5.417   0.536
10876NA      NA33512   3.544   4.040   1.323
10877NA      NA33513   4.598   4.465   0.596
10878NA      NA33514   3.483   1.171   6.450
10879NA      NA33515   5.192   6.069   2.139
10880NA      NA33516   1.495   0.259   5.259
10881NA      NA33517   4.693   5.102   1.927
10882NA      NA33518   3.167   3.499   0.187
   7.02654   7.02654   7.02654
