Generated by trjconv : CNT in water t= 149.00000
33518
    1C        C    1   2.842   2.765   4.750
    1C        C    2   2.903   2.721   4.870
    1C        C    3   2.846   2.778   4.985
    1C        C    4   2.850   2.774   4.260
    1C        C    5   2.899   2.726   4.383
    1C        C    6   2.850   2.774   4.507
    1C        C    7   3.015   2.642   4.625
    1C        C    8   2.898   2.721   4.629
    1C        C    9   3.077   2.602   4.745
    1C        C   10   3.015   2.635   4.867
    1C        C   11   3.179   2.483   4.975
    1C        C   12   3.062   2.560   4.975
    1C        C   13   2.851   2.776   3.770
    1C        C   14   2.905   2.730   3.892
    1C        C   15   2.857   2.782   4.014
    1C        C   16   3.020   2.650   4.136
    1C        C   17   2.907   2.734   4.137
    1C        C   18   3.080   2.616   4.259
    1C        C   19   3.016   2.647   4.381
    1C        C   20   3.211   2.562   4.500
    1C        C   21   3.078   2.610   4.503
    1C        C   22   3.277   2.537   4.622
    1C        C   23   3.208   2.545   4.745
    1C        C   24   3.412   2.486   4.864
    1C        C   25   3.270   2.504   4.866
    1C        C   26   3.488   2.475   4.981
    1C        C   27   2.849   2.769   3.282
    1C        C   28   2.904   2.728   3.405
    1C        C   29   2.852   2.776   3.527
    1C        C   30   3.017   2.642   3.649
    1C        C   31   2.905   2.727   3.649
    1C        C   32   3.079   2.604   3.770
    1C        C   33   3.016   2.642   3.890
    1C        C   34   3.207   2.552   4.015
    1C        C   35   3.077   2.608   4.013
    1C        C   36   3.278   2.536   4.136
    1C        C   37   3.212   2.565   4.258
    1C        C   38   3.418   2.508   4.379
    1C        C   39   3.280   2.541   4.379
    1C        C   40   3.487   2.497   4.502
    1C        C   41   3.414   2.502   4.623
    1C        C   42   3.628   2.479   4.745
    1C        C   43   3.486   2.480   4.743
    1C        C   44   3.703   2.484   4.865
    1C        C   45   3.626   2.492   4.981
    1C        C   46   2.838   2.755   2.795
    1C        C   47   2.895   2.711   2.917
    1C        C   48   2.847   2.766   3.038
    1C        C   49   3.017   2.639   3.162
    1C        C   50   2.902   2.720   3.160
    1C        C   51   3.081   2.608   3.284
    1C        C   52   3.019   2.644   3.406
    1C        C   53   3.209   2.550   3.527
    1C        C   54   3.080   2.606   3.527
    1C        C   55   3.279   2.533   3.650
    1C        C   56   3.212   2.556   3.772
    1C        C   57   3.418   2.509   3.894
    1C        C   58   3.279   2.536   3.895
    1C        C   59   3.489   2.501   4.016
    1C        C   60   3.415   2.504   4.136
    1C        C   61   3.628   2.490   4.258
    1C        C   62   3.487   2.492   4.258
    1C        C   63   3.699   2.497   4.380
    1C        C   64   3.628   2.498   4.502
    1C        C   65   3.833   2.538   4.622
    1C        C   66   3.699   2.494   4.624
    1C        C   67   3.903   2.558   4.743
    1C        C   68   3.838   2.524   4.864
    1C        C   69   4.051   2.584   4.977
    1C        C   70   3.923   2.527   4.976
    1C        C   71   2.821   2.730   2.309
    1C        C   72   2.884   2.696   2.431
    1C        C   73   2.832   2.746   2.552
    1C        C   74   3.009   2.629   2.672
    1C        C   75   2.889   2.703   2.674
    1C        C   76   3.073   2.601   2.794
    1C        C   77   3.012   2.633   2.918
    1C        C   78   3.207   2.547   3.038
    1C        C   79   3.078   2.603   3.040
    1C        C   80   3.275   2.528   3.161
    1C        C   81   3.210   2.551   3.284
    1C        C   82   3.417   2.500   3.402
    1C        C   83   3.278   2.529   3.406
    1C        C   84   3.485   2.494   3.526
    1C        C   85   3.417   2.507   3.649
    1C        C   86   3.629   2.492   3.769
    1C        C   87   3.487   2.496   3.772
    1C        C   88   3.698   2.503   3.891
    1C        C   89   3.630   2.501   4.015
    1C        C   90   3.838   2.538   4.136
    1C        C   91   3.701   2.502   4.137
    1C        C   92   3.906   2.558   4.258
    1C        C   93   3.835   2.534   4.378
    1C        C   94   4.024   2.632   4.499
    1C        C   95   3.898   2.568   4.500
    1C        C   96   4.087   2.671   4.620
    1C        C   97   4.028   2.626   4.740
    1C        C   98   4.193   2.760   4.863
    1C        C   99   4.098   2.653   4.860
    1C        C  100   4.214   2.843   4.974
    1C        C  101   2.819   2.733   2.069
    1C        C  102   2.986   2.592   2.190
    1C        C  103   2.871   2.678   2.187
    1C        C  104   3.061   2.575   2.310
    1C        C  105   3.000   2.616   2.430
    1C        C  106   3.201   2.537   2.552
    1C        C  107   3.069   2.588   2.550
    1C        C  108   3.271   2.517   2.673
    1C        C  109   3.202   2.544   2.794
    1C        C  110   3.411   2.497   2.916
    1C        C  111   3.272   2.521   2.915
    1C        C  112   3.482   2.489   3.037
    1C        C  113   3.413   2.498   3.160
    1C        C  114   3.628   2.493   3.279
    1C        C  115   3.487   2.489   3.280
    1C        C  116   3.695   2.502   3.403
    1C        C  117   3.626   2.490   3.526
    1C        C  118   3.835   2.536   3.645
    1C        C  119   3.699   2.500   3.647
    1C        C  120   3.900   2.563   3.768
    1C        C  121   3.835   2.537   3.891
    1C        C  122   4.026   2.629   4.011
    1C        C  123   3.901   2.563   4.013
    1C        C  124   4.085   2.671   4.133
    1C        C  125   4.027   2.630   4.256
    1C        C  126   4.192   2.764   4.377
    1C        C  127   4.085   2.672   4.378
    1C        C  128   4.239   2.818   4.499
    1C        C  129   4.189   2.768   4.621
    1C        C  130   4.322   2.935   4.737
    1C        C  131   4.242   2.817   4.742
    1C        C  132   4.351   3.007   4.855
    1C        C  133   4.279   2.966   4.967
    1C        C  134   3.169   2.466   2.084
    1C        C  135   3.037   2.513   2.082
    1C        C  136   3.259   2.477   2.191
    1C        C  137   3.194   2.523   2.308
    1C        C  138   3.403   2.483   2.427
    1C        C  139   3.265   2.510   2.429
    1C        C  140   3.479   2.482   2.546
    1C        C  141   3.411   2.498   2.669
    1C        C  142   3.620   2.494   2.789
    1C        C  143   3.479   2.492   2.792
    1C        C  144   3.692   2.501   2.911
    1C        C  145   3.623   2.495   3.034
    1C        C  146   3.833   2.533   3.153
    1C        C  147   3.696   2.501   3.155
    1C        C  148   3.897   2.556   3.277
    1C        C  149   3.833   2.532   3.400
    1C        C  150   4.027   2.620   3.522
    1C        C  151   3.902   2.555   3.522
    1C        C  152   4.085   2.662   3.644
    1C        C  153   4.024   2.631   3.767
    1C        C  154   4.192   2.760   3.886
    1C        C  155   4.084   2.669   3.889
    1C        C  156   4.238   2.813   4.008
    1C        C  157   4.193   2.762   4.132
    1C        C  158   4.330   2.924   4.250
    1C        C  159   4.241   2.814   4.254
    1C        C  160   4.367   2.985   4.371
    1C        C  161   4.325   2.930   4.494
    1C        C  162   4.439   3.112   4.613
    1C        C  163   4.365   2.992   4.615
    1C        C  164   4.462   3.185   4.732
    1C        C  165   4.425   3.127   4.855
    1C        C  166   4.522   3.320   4.970
    1C        C  167   4.478   3.188   4.970
    1C        C  168   3.474   2.437   2.071
    1C        C  169   3.398   2.452   2.187
    1C        C  170   3.616   2.465   2.304
    1C        C  171   3.474   2.461   2.306
    1C        C  172   3.689   2.489   2.422
    1C        C  173   3.620   2.483   2.545
    1C        C  174   3.828   2.531   2.664
    1C        C  175   3.691   2.497   2.667
    1C        C  176   3.896   2.556   2.786
    1C        C  177   3.830   2.534   2.908
    1C        C  178   4.027   2.616   3.031
    1C        C  179   3.898   2.556   3.030
    1C        C  180   4.087   2.655   3.153
    1C        C  181   4.023   2.619   3.274
    1C        C  182   4.191   2.746   3.396
    1C        C  183   4.085   2.653   3.397
    1C        C  184   4.238   2.804   3.516
    1C        C  185   4.192   2.754   3.640
    1C        C  186   4.332   2.914   3.760
    1C        C  187   4.244   2.804   3.762
    1C        C  188   4.370   2.976   3.882
    1C        C  189   4.332   2.919   4.005
    1C        C  190   4.438   3.103   4.126
    1C        C  191   4.375   2.976   4.127
    1C        C  192   4.464   3.172   4.246
    1C        C  193   4.435   3.109   4.369
    1C        C  194   4.504   3.312   4.488
    1C        C  195   4.467   3.175   4.490
    1C        C  196   4.518   3.386   4.608
    1C        C  197   4.507   3.319   4.732
    1C        C  198   4.551   3.535   4.848
    1C        C  199   4.537   3.392   4.850
    1C        C  200   4.585   3.616   4.962
    1C        C  201   3.613   2.415   2.070
    1C        C  202   3.824   2.509   2.182
    1C        C  203   3.690   2.457   2.183
    1C        C  204   3.897   2.537   2.300
    1C        C  205   3.827   2.520   2.422
    1C        C  206   4.020   2.615   2.542
    1C        C  207   3.896   2.548   2.542
    1C        C  208   4.079   2.654   2.664
    1C        C  209   4.022   2.619   2.788
    1C        C  210   4.195   2.744   2.906
    1C        C  211   4.087   2.653   2.909
    1C        C  212   4.244   2.795   3.028
    1C        C  213   4.193   2.748   3.151
    1C        C  214   4.326   2.911   3.272
    1C        C  215   4.240   2.799   3.274
    1C        C  216   4.363   2.972   3.394
    1C        C  217   4.324   2.915   3.518
    1C        C  218   4.423   3.106   3.637
    1C        C  219   4.366   2.977   3.638
    1C        C  220   4.452   3.171   3.759
    1C        C  221   4.427   3.105   3.882
    1C        C  222   4.496   3.306   4.003
    1C        C  223   4.460   3.169   4.003
    1C        C  224   4.503   3.381   4.123
    1C        C  225   4.498   3.309   4.244
    1C        C  226   4.522   3.522   4.365
    1C        C  227   4.513   3.381   4.365
    1C        C  228   4.520   3.598   4.484
    1C        C  229   4.524   3.527   4.606
    1C        C  230   4.496   3.739   4.726
    1C        C  231   4.536   3.603   4.724
    1C        C  232   4.487   3.813   4.846
    1C        C  233   4.543   3.749   4.957
    1C        C  234   4.014   2.606   2.062
    1C        C  235   3.892   2.539   2.064
    1C        C  236   4.081   2.648   2.178
    1C        C  237   4.022   2.606   2.298
    1C        C  238   4.194   2.736   2.418
    1C        C  239   4.080   2.651   2.419
    1C        C  240   4.247   2.785   2.540
    1C        C  241   4.192   2.740   2.662
    1C        C  242   4.328   2.905   2.781
    1C        C  243   4.243   2.792   2.782
    1C        C  244   4.372   2.961   2.904
    1C        C  245   4.332   2.906   3.027
    1C        C  246   4.433   3.093   3.149
    1C        C  247   4.367   2.968   3.149
    1C        C  248   4.451   3.164   3.270
    1C        C  249   4.419   3.101   3.392
    1C        C  250   4.486   3.305   3.512
    1C        C  251   4.446   3.170   3.513
    1C        C  252   4.504   3.373   3.634
    1C        C  253   4.491   3.306   3.758
    1C        C  254   4.519   3.516   3.877
    1C        C  255   4.509   3.375   3.880
    1C        C  256   4.514   3.589   3.997
    1C        C  257   4.514   3.522   4.121
    1C        C  258   4.495   3.732   4.240
    1C        C  259   4.520   3.593   4.243
    1C        C  260   4.473   3.803   4.360
    1C        C  261   4.491   3.737   4.484
    1C        C  262   4.430   3.942   4.605
    1C        C  263   4.476   3.809   4.604
    1C        C  264   4.404   4.011   4.725
    1C        C  265   4.426   3.940   4.845
    1C        C  266   4.315   4.127   4.958
    1C        C  267   4.384   4.006   4.962
    1C        C  268   4.263   2.772   2.061
    1C        C  269   4.192   2.736   2.177
    1C        C  270   4.337   2.895   2.298
    1C        C  271   4.246   2.786   2.297
    1C        C  272   4.380   2.954   2.419
    1C        C  273   4.340   2.891   2.539
    1C        C  274   4.437   3.085   2.661
    1C        C  275   4.372   2.960   2.659
    1C        C  276   4.466   3.152   2.782
    1C        C  277   4.439   3.085   2.903
    1C        C  278   4.500   3.289   3.025
    1C        C  279   4.466   3.152   3.025
    1C        C  280   4.508   3.365   3.145
    1C        C  281   4.493   3.299   3.269
    1C        C  282   4.515   3.513   3.390
    1C        C  283   4.503   3.373   3.389
    1C        C  284   4.516   3.585   3.511
    1C        C  285   4.517   3.514   3.634
    1C        C  286   4.491   3.725   3.754
    1C        C  287   4.516   3.586   3.755
    1C        C  288   4.474   3.797   3.874
    1C        C  289   4.494   3.729   3.996
    1C        C  290   4.423   3.931   4.118
    1C        C  291   4.471   3.799   4.118
    1C        C  292   4.395   3.998   4.239
    1C        C  293   4.420   3.934   4.363
    1C        C  294   4.325   4.127   4.477
    1C        C  295   4.395   4.004   4.483
    1C        C  296   4.283   4.186   4.598
    1C        C  297   4.328   4.131   4.720
    1C        C  298   4.199   4.311   4.836
    1C        C  299   4.284   4.195   4.839
    1C        C  300   4.168   4.392   4.949
    1C        C  301   4.348   2.881   2.061
    1C        C  302   4.469   3.067   2.177
    1C        C  303   4.392   2.946   2.177
    1C        C  304   4.480   3.143   2.297
    1C        C  305   4.443   3.080   2.418
    1C        C  306   4.505   3.285   2.537
    1C        C  307   4.468   3.149   2.539
    1C        C  308   4.516   3.357   2.658
    1C        C  309   4.497   3.290   2.781
    1C        C  310   4.525   3.499   2.899
    1C        C  311   4.515   3.358   2.903
    1C        C  312   4.517   3.573   3.020
    1C        C  313   4.518   3.506   3.144
    1C        C  314   4.486   3.718   3.265
    1C        C  315   4.510   3.579   3.265
    1C        C  316   4.476   3.789   3.386
    1C        C  317   4.493   3.725   3.511
    1C        C  318   4.432   3.930   3.628
    1C        C  319   4.477   3.796   3.632
    1C        C  320   4.400   3.995   3.749
    1C        C  321   4.428   3.931   3.872
    1C        C  322   4.324   4.116   3.989
    1C        C  323   4.398   3.995   3.995
    1C        C  324   4.274   4.169   4.110
    1C        C  325   4.318   4.117   4.234
    1C        C  326   4.187   4.285   4.351
    1C        C  327   4.285   4.183   4.354
    1C        C  328   4.135   4.336   4.472
    1C        C  329   4.187   4.290   4.595
    1C        C  330   4.025   4.434   4.712
    1C        C  331   4.140   4.351   4.713
    1C        C  332   3.968   4.485   4.831
    1C        C  333   4.053   4.473   4.941
    1C        C  334   4.553   3.266   2.061
    1C        C  335   4.529   3.128   2.062
    1C        C  336   4.541   3.349   2.173
    1C        C  337   4.518   3.280   2.293
    1C        C  338   4.520   3.494   2.411
    1C        C  339   4.514   3.353   2.414
    1C        C  340   4.520   3.567   2.532
    1C        C  341   4.525   3.498   2.655
    1C        C  342   4.496   3.707   2.773
    1C        C  343   4.525   3.569   2.777
    1C        C  344   4.478   3.780   2.893
    1C        C  345   4.495   3.712   3.016
    1C        C  346   4.426   3.913   3.138
    1C        C  347   4.477   3.781   3.138
    1C        C  348   4.396   3.979   3.259
    1C        C  349   4.431   3.923   3.384
    1C        C  350   4.322   4.107   3.500
    1C        C  351   4.400   3.990   3.504
    1C        C  352   4.276   4.167   3.620
    1C        C  353   4.317   4.109   3.742
    1C        C  354   4.177   4.265   3.866
    1C        C  355   4.277   4.166   3.865
    1C        C  356   4.120   4.313   3.986
    1C        C  357   4.176   4.271   4.109
    1C        C  358   4.011   4.405   4.230
    1C        C  359   4.126   4.323   4.230
    1C        C  360   3.952   4.448   4.351
    1C        C  361   4.021   4.420   4.471
    1C        C  362   3.831   4.524   4.592
    1C        C  363   3.958   4.462   4.591
    1C        C  364   3.763   4.549   4.713
    1C        C  365   3.837   4.539   4.832
    1C        C  366   3.631   4.591   4.951
    1C        C  367   3.769   4.576   4.948
    1C        C  368   4.503   3.563   2.052
    1C        C  369   4.520   3.489   2.170
    1C        C  370   4.502   3.706   2.285
    1C        C  371   4.515   3.565   2.289
    1C        C  372   4.484   3.778   2.405
    1C        C  373   4.502   3.708   2.527
    1C        C  374   4.434   3.907   2.647
    1C        C  375   4.482   3.774   2.650
    1C        C  376   4.402   3.974   2.767
    1C        C  377   4.428   3.912   2.891
    1C        C  378   4.318   4.091   3.010
    1C        C  379   4.399   3.975   3.014
    1C        C  380   4.270   4.147   3.131
    1C        C  381   4.316   4.095   3.254
    1C        C  382   4.175   4.255   3.376
    1C        C  383   4.274   4.154   3.376
    1C        C  384   4.119   4.302   3.497
    1C        C  385   4.173   4.264   3.621
    1C        C  386   4.005   4.390   3.743
    1C        C  387   4.124   4.313   3.744
    1C        C  388   3.943   4.431   3.863
    1C        C  389   4.004   4.395   3.985
    1C        C  390   3.817   4.492   4.108
    1C        C  391   3.946   4.435   4.108
    1C        C  392   3.751   4.517   4.230
    1C        C  393   3.819   4.495   4.352
    1C        C  394   3.617   4.555   4.474
    1C        C  395   3.756   4.533   4.472
    1C        C  396   3.548   4.565   4.596
    1C        C  397   3.622   4.564   4.716
    1C        C  398   3.412   4.549   4.839
    1C        C  399   3.551   4.572   4.838
    1C        C  400   3.345   4.510   4.956
    1C        C  401   4.506   3.702   2.050
    1C        C  402   4.455   3.915   2.163
    1C        C  403   4.499   3.781   2.165
    1C        C  404   4.415   3.977   2.283
    1C        C  405   4.440   3.912   2.406
    1C        C  406   4.323   4.090   2.522
    1C        C  407   4.405   3.975   2.527
    1C        C  408   4.278   4.145   2.644
    1C        C  409   4.320   4.090   2.767
    1C        C  410   4.177   4.248   2.887
    1C        C  411   4.274   4.146   2.888
    1C        C  412   4.123   4.297   3.008
    1C        C  413   4.173   4.250   3.132
    1C        C  414   3.999   4.373   3.251
    1C        C  415   4.120   4.299   3.253
    1C        C  416   3.938   4.407   3.374
    1C        C  417   3.999   4.377   3.498
    1C        C  418   3.812   4.474   3.620
    1C        C  419   3.941   4.417   3.620
    1C        C  420   3.747   4.504   3.741
    1C        C  421   3.813   4.486   3.865
    1C        C  422   3.607   4.537   3.985
    1C        C  423   3.746   4.511   3.987
    1C        C  424   3.540   4.541   4.109
    1C        C  425   3.611   4.539   4.231
    1C        C  426   3.401   4.553   4.357
    1C        C  427   3.542   4.554   4.354
    1C        C  428   3.332   4.546   4.480
    1C        C  429   3.406   4.558   4.600
    1C        C  430   3.196   4.516   4.723
    1C        C  431   3.335   4.546   4.721
    1C        C  432   3.127   4.494   4.845
    1C        C  433   3.208   4.489   4.959
    1C        C  434   4.382   4.124   2.051
    1C        C  435   4.442   3.998   2.051
    1C        C  436   4.302   4.163   2.162
    1C        C  437   4.335   4.095   2.282
    1C        C  438   4.186   4.253   2.400
    1C        C  439   4.280   4.148   2.401
    1C        C  440   4.128   4.298   2.521
    1C        C  441   4.178   4.245   2.642
    1C        C  442   4.006   4.372   2.764
    1C        C  443   4.122   4.291   2.764
    1C        C  444   3.942   4.406   2.885
    1C        C  445   4.006   4.375   3.007
    1C        C  446   3.812   4.466   3.128
    1C        C  447   3.941   4.409   3.128
    1C        C  448   3.746   4.486   3.251
    1C        C  449   3.809   4.464   3.376
    1C        C  450   3.606   4.524   3.495
    1C        C  451   3.745   4.495   3.497
    1C        C  452   3.539   4.539   3.618
    1C        C  453   3.609   4.538   3.741
    1C        C  454   3.397   4.547   3.867
    1C        C  455   3.538   4.548   3.862
    1C        C  456   3.328   4.538   3.990
    1C        C  457   3.399   4.543   4.112
    1C        C  458   3.196   4.497   4.236
    1C        C  459   3.330   4.542   4.235
    1C        C  460   3.129   4.481   4.359
    1C        C  461   3.195   4.512   4.480
    1C        C  462   3.002   4.427   4.604
    1C        C  463   3.128   4.489   4.602
    1C        C  464   2.929   4.397   4.722
    1C        C  465   2.994   4.441   4.841
    1C        C  466   2.806   4.337   4.961
    1C        C  467   2.912   4.428   4.957
    1C        C  468   4.118   4.279   2.042
    1C        C  469   4.188   4.250   2.160
    1C        C  470   4.009   4.375   2.277
    1C        C  471   4.131   4.301   2.280
    1C        C  472   3.944   4.406   2.398
    1C        C  473   4.008   4.373   2.520
    1C        C  474   3.814   4.459   2.642
    1C        C  475   3.947   4.410   2.641
    1C        C  476   3.745   4.486   2.762
    1C        C  477   3.814   4.466   2.884
    1C        C  478   3.607   4.517   3.007
    1C        C  479   3.745   4.488   3.005
    1C        C  480   3.538   4.527   3.130
    1C        C  481   3.607   4.513   3.253
    1C        C  482   3.394   4.532   3.376
    1C        C  483   3.535   4.528   3.373
    1C        C  484   3.326   4.528   3.500
    1C        C  485   3.398   4.540   3.621
    1C        C  486   3.191   4.501   3.745
    1C        C  487   3.328   4.538   3.744
    1C        C  488   3.128   4.478   3.869
    1C        C  489   3.191   4.501   3.993
    1C        C  490   3.000   4.410   4.115
    1C        C  491   3.125   4.475   4.115
    1C        C  492   2.942   4.377   4.239
    1C        C  493   3.001   4.420   4.360
    1C        C  494   2.830   4.298   4.483
    1C        C  495   2.942   4.386   4.483
    1C        C  496   2.781   4.248   4.606
    1C        C  497   2.820   4.307   4.729
    1C        C  498   2.665   4.162   4.847
    1C        C  499   2.753   4.272   4.848
    1C        C  500   2.587   4.120   4.955
    1C        C  501   4.003   4.358   2.041
    1C        C  502   3.815   4.467   2.157
    1C        C  503   3.943   4.408   2.157
    1C        C  504   3.746   4.490   2.278
    1C        C  505   3.814   4.462   2.399
    1C        C  506   3.606   4.503   2.519
    1C        C  507   3.744   4.477   2.520
    1C        C  508   3.534   4.512   2.640
    1C        C  509   3.606   4.508   2.762
    1C        C  510   3.395   4.523   2.886
    1C        C  511   3.537   4.520   2.885
    1C        C  512   3.324   4.520   3.008
    1C        C  513   3.397   4.530   3.129
    1C        C  514   3.191   4.488   3.255
    1C        C  515   3.327   4.526   3.251
    1C        C  516   3.123   4.469   3.377
    1C        C  517   3.188   4.498   3.499
    1C        C  518   2.998   4.411   3.624
    1C        C  519   3.125   4.475   3.623
    1C        C  520   2.939   4.374   3.747
    1C        C  521   3.004   4.410   3.867
    1C        C  522   2.841   4.277   3.995
    1C        C  523   2.947   4.370   3.990
    1C        C  524   2.790   4.231   4.118
    1C        C  525   2.837   4.282   4.241
    1C        C  526   2.694   4.130   4.364
    1C        C  527   2.781   4.241   4.364
    1C        C  528   2.655   4.072   4.487
    1C        C  529   2.691   4.140   4.606
    1C        C  530   2.582   3.960   4.733
    1C        C  531   2.643   4.089   4.728
    1C        C  532   2.539   3.900   4.854
    1C        C  533   2.521   3.996   4.958
    1C        C  534   3.619   4.563   2.043
    1C        C  535   3.751   4.516   2.042
    1C        C  536   3.534   4.533   2.155
    1C        C  537   3.605   4.512   2.276
    1C        C  538   3.394   4.512   2.401
    1C        C  539   3.535   4.520   2.398
    1C        C  540   3.322   4.511   2.523
    1C        C  541   3.393   4.517   2.644
    1C        C  542   3.184   4.484   2.763
    1C        C  543   3.322   4.513   2.766
    1C        C  544   3.122   4.459   2.888
    1C        C  545   3.187   4.486   3.010
    1C        C  546   2.995   4.401   3.134
    1C        C  547   3.121   4.465   3.134
    1C        C  548   2.938   4.365   3.258
    1C        C  549   2.997   4.404   3.380
    1C        C  550   2.830   4.278   3.507
    1C        C  551   2.938   4.369   3.504
    1C        C  552   2.782   4.228   3.630
    1C        C  553   2.831   4.282   3.751
    1C        C  554   2.702   4.115   3.877
    1C        C  555   2.788   4.228   3.873
    1C        C  556   2.659   4.060   3.999
    1C        C  557   2.698   4.124   4.119
    1C        C  558   2.594   3.941   4.247
    1C        C  559   2.659   4.067   4.243
    1C        C  560   2.565   3.878   4.370
    1C        C  561   2.591   3.946   4.491
    1C        C  562   2.529   3.748   4.615
    1C        C  563   2.562   3.885   4.615
    1C        C  564   2.518   3.681   4.739
    1C        C  565   2.517   3.758   4.859
    1C        C  566   2.522   3.546   4.977
    1C        C  567   2.520   3.685   4.978
    1C        C  568   3.325   4.471   2.041
    1C        C  569   3.395   4.502   2.158
    1C        C  570   3.184   4.471   2.278
    1C        C  571   3.322   4.505   2.280
    1C        C  572   3.117   4.450   2.400
    1C        C  573   3.183   4.483   2.521
    1C        C  574   2.986   4.402   2.643
    1C        C  575   3.112   4.466   2.642
    1C        C  576   2.937   4.357   2.768
    1C        C  577   2.999   4.391   2.890
    1C        C  578   2.825   4.272   3.016
    1C        C  579   2.935   4.361   3.013
    1C        C  580   2.781   4.219   3.139
    1C        C  581   2.834   4.269   3.260
    1C        C  582   2.697   4.113   3.387
    1C        C  583   2.783   4.226   3.384
    1C        C  584   2.658   4.058   3.511
    1C        C  585   2.691   4.120   3.633
    1C        C  586   2.592   3.933   3.752
    1C        C  587   2.659   4.057   3.756
    1C        C  588   2.566   3.873   3.878
    1C        C  589   2.594   3.934   4.002
    1C        C  590   2.528   3.737   4.126
    1C        C  591   2.567   3.873   4.126
    1C        C  592   2.517   3.670   4.250
    1C        C  593   2.529   3.741   4.371
    1C        C  594   2.503   3.534   4.496
    1C        C  595   2.514   3.675   4.495
    1C        C  596   2.505   3.465   4.619
    1C        C  597   2.508   3.539   4.739
    1C        C  598   2.535   3.327   4.860
    1C        C  599   2.521   3.468   4.860
    1C        C  600   2.530   3.248   4.976
    1C        C  601   3.194   4.426   2.043
    1C        C  602   2.980   4.391   2.159
    1C        C  603   3.115   4.438   2.158
    1C        C  604   2.918   4.361   2.283
    1C        C  605   2.988   4.393   2.402
    1C        C  606   2.821   4.265   2.528
    1C        C  607   2.925   4.360   2.523
    1C        C  608   2.778   4.212   2.652
    1C        C  609   2.832   4.262   2.772
    1C        C  610   2.685   4.111   2.895
    1C        C  611   2.776   4.219   2.894
    1C        C  612   2.645   4.055   3.019
    1C        C  613   2.688   4.112   3.140
    1C        C  614   2.594   3.928   3.264
    1C        C  615   2.655   4.055   3.265
    1C        C  616   2.566   3.866   3.388
    1C        C  617   2.594   3.932   3.510
    1C        C  618   2.529   3.729   3.638
    1C        C  619   2.567   3.865   3.631
    1C        C  620   2.520   3.662   3.762
    1C        C  621   2.535   3.735   3.882
    1C        C  622   2.506   3.526   4.008
    1C        C  623   2.519   3.666   4.004
    1C        C  624   2.508   3.457   4.132
    1C        C  625   2.507   3.530   4.253
    1C        C  626   2.531   3.321   4.379
    1C        C  627   2.506   3.460   4.376
    1C        C  628   2.549   3.253   4.501
    1C        C  629   2.527   3.325   4.621
    1C        C  630   2.594   3.119   4.740
    1C        C  631   2.548   3.254   4.741
    1C        C  632   2.616   3.050   4.862
    1C        C  633   2.557   3.111   4.977
    1C        C  634   2.783   4.298   2.050
    1C        C  635   2.892   4.386   2.046
    1C        C  636   2.750   4.225   2.164
    1C        C  637   2.809   4.269   2.284
    1C        C  638   2.674   4.108   2.410
    1C        C  639   2.762   4.219   2.408
    1C        C  640   2.634   4.051   2.533
    1C        C  641   2.682   4.108   2.652
    1C        C  642   2.582   3.922   2.776
    1C        C  643   2.643   4.050   2.775
    1C        C  644   2.564   3.858   2.901
    1C        C  645   2.587   3.926   3.022
    1C        C  646   2.526   3.723   3.146
    1C        C  647   2.563   3.859   3.145
    1C        C  648   2.514   3.656   3.270
    1C        C  649   2.527   3.730   3.390
    1C        C  650   2.504   3.522   3.519
    1C        C  651   2.512   3.663   3.514
    1C        C  652   2.508   3.452   3.641
    1C        C  653   2.506   3.521   3.764
    1C        C  654   2.529   3.314   3.889
    1C        C  655   2.501   3.452   3.888
    1C        C  656   2.547   3.249   4.013
    1C        C  657   2.528   3.317   4.135
    1C        C  658   2.608   3.121   4.258
    1C        C  659   2.554   3.252   4.258
    1C        C  660   2.638   3.057   4.381
    1C        C  661   2.600   3.121   4.501
    1C        C  662   2.709   2.935   4.627
    1C        C  663   2.629   3.052   4.621
    1C        C  664   2.752   2.875   4.747
    1C        C  665   2.695   2.930   4.865
    1C        C  666   2.741   2.869   4.983
    1C        C  667   2.669   4.025   2.054
    1C        C  668   2.679   4.103   2.170
    1C        C  669   2.583   3.911   2.289
    1C        C  670   2.638   4.042   2.291
    1C        C  671   2.555   3.850   2.414
    1C        C  672   2.581   3.920   2.534
    1C        C  673   2.515   3.719   2.656
    1C        C  674   2.552   3.855   2.656
    1C        C  675   2.511   3.648   2.779
    1C        C  676   2.529   3.721   2.898
    1C        C  677   2.506   3.514   3.029
    1C        C  678   2.516   3.655   3.022
    1C        C  679   2.505   3.443   3.152
    1C        C  680   2.503   3.515   3.273
    1C        C  681   2.530   3.310   3.401
    1C        C  682   2.504   3.449   3.398
    1C        C  683   2.550   3.243   3.523
    1C        C  684   2.534   3.313   3.645
    1C        C  685   2.601   3.113   3.771
    1C        C  686   2.550   3.245   3.767
    1C        C  687   2.636   3.053   3.894
    1C        C  688   2.603   3.119   4.015
    1C        C  689   2.714   2.938   4.141
    1C        C  690   2.635   3.055   4.136
    1C        C  691   2.762   2.885   4.263
    1C        C  692   2.715   2.939   4.384
    1C        C  693   2.757   2.881   4.506
    1C        C  694   2.624   3.892   2.055
    1C        C  695   2.527   3.701   2.176
    1C        C  696   2.569   3.836   2.171
    1C        C  697   2.504   3.637   2.299
    1C        C  698   2.513   3.715   2.416
    1C        C  699   2.490   3.503   2.539
    1C        C  700   2.498   3.644   2.537
    1C        C  701   2.501   3.437   2.663
    1C        C  702   2.498   3.508   2.785
    1C        C  703   2.523   3.300   2.910
    1C        C  704   2.501   3.440   2.909
    1C        C  705   2.537   3.232   3.033
    1C        C  706   2.524   3.303   3.155
    1C        C  707   2.598   3.108   3.279
    1C        C  708   2.551   3.241   3.279
    1C        C  709   2.630   3.046   3.402
    1C        C  710   2.600   3.111   3.524
    1C        C  711   2.710   2.933   3.649
    1C        C  712   2.631   3.050   3.648
    1C        C  713   2.757   2.882   3.772
    1C        C  714   2.713   2.935   3.895
    1C        C  715   2.763   2.887   4.018
    1C        C  716   2.443   3.498   2.060
    1C        C  717   2.491   3.629   2.061
    1C        C  718   2.465   3.420   2.178
    1C        C  719   2.487   3.496   2.297
    1C        C  720   2.517   3.288   2.423
    1C        C  721   2.489   3.427   2.420
    1C        C  722   2.541   3.225   2.547
    1C        C  723   2.526   3.298   2.667
    1C        C  724   2.591   3.097   2.790
    1C        C  725   2.542   3.230   2.789
    1C        C  726   2.621   3.035   2.913
    1C        C  727   2.588   3.100   3.034
    1C        C  728   2.702   2.924   3.159
    1C        C  729   2.624   3.042   3.157
    1C        C  730   2.754   2.874   3.280
    1C        C  731   2.714   2.932   3.403
    1C        C  732   2.756   2.879   3.527
    1C        C  733   2.487   3.194   2.069
    1C        C  734   2.486   3.279   2.180
    1C        C  735   2.578   3.084   2.304
    1C        C  736   2.527   3.217   2.302
    1C        C  737   2.616   3.022   2.425
    1C        C  738   2.588   3.091   2.545
    1C        C  739   2.696   2.912   2.671
    1C        C  740   2.623   3.033   2.669
    1C        C  741   2.741   2.858   2.794
    1C        C  742   2.702   2.918   2.915
    1C        C  743   2.751   2.870   3.038
    1C        C  744   2.539   3.065   2.073
    1C        C  745   2.680   2.893   2.189
    1C        C  746   2.598   3.008   2.187
    1C        C  747   2.726   2.836   2.309
    1C        C  748   2.684   2.898   2.429
    1C        C  749   2.736   2.849   2.551
    1C        C  750   2.731   2.840   2.070
    1C        C  751   3.668   2.315   1.976
    1C        O  752   3.727   2.211   2.015
    1C        O  753   3.673   2.327   1.836
    1C        C  754   4.615   3.050   1.971
    1C        O  755   4.592   3.047   1.847
    1C        O  756   4.754   3.046   1.990
    1C        C  757   4.463   4.227   1.982
    1C        O  758   4.564   4.275   2.040
    1C        O  759   4.464   4.234   1.842
    1C        C  760   3.594   4.683   1.959
    1C        O  761   3.566   4.796   2.007
    1C        O  762   3.599   4.690   1.820
    1C        C  763   2.896   4.497   1.949
    1C        O  764   2.919   4.468   1.829
    1C        O  765   2.804   4.600   1.973
    1C        C  766   2.311   3.482   1.995
    1C        O  767   2.309   3.427   1.881
    1C        O  768   2.196   3.528   2.060
    1C        C  769   4.709   3.593   5.039
    1C        O  770   4.713   3.533   5.150
    1C        O  771   4.837   3.600   4.985
    1C        C  772   4.281   4.440   5.032
    1C        O  773   4.275   4.488   5.148
    1C        O  774   4.364   4.531   4.966
    1C        C  775   4.152   2.517   5.061
    1C        O  776   4.235   2.437   5.010
    1C        O  777   4.127   2.481   5.194
    1C        C  778   2.898   4.544   5.048
    1C        O  779   2.842   4.647   5.003
    1C        O  780   2.950   4.553   5.178
    1C        C  781   2.461   3.026   5.051
    1C        O  782   2.345   3.003   5.008
    1C        O  783   2.475   2.992   5.185
    1C        C  784   2.412   3.988   5.058
    1C        O  785   2.303   4.044   5.028
    1C        O  786   2.449   3.987   5.193
    1C        C  787   2.942   2.431   2.003
    1C        O  788   2.913   2.472   1.888
    1C        O  789   2.902   2.304   2.041
    1C        C  790   3.168   2.350   5.039
    1C        O  791   3.088   2.255   5.013
    1C        O  792   3.223   2.343   5.167
    1C        H  793   4.269   3.032   5.051
    1C        H  794   4.194   2.813   5.075
    1C        H  795   4.482   3.132   5.061
    1C        H  796   4.574   3.353   5.057
    1C        H  797   4.554   3.802   5.050
    1C        H  798   4.441   3.986   5.050
    1C        H  799   4.255   4.148   5.043
    1C        H  800   4.046   4.558   5.005
    1C        H  801   3.815   4.553   5.042
    1C        H  802   3.601   4.675   5.011
    1C        H  803   3.405   4.466   5.033
    1C        H  804   3.176   4.433   5.045
    1C        H  805   3.915   2.443   5.042
    1C        H  806   3.675   2.463   5.072
    1C        H  807   2.990   2.529   5.047
    1C        H  808   3.448   2.437   5.073
    1C        H  809   2.876   2.739   5.080
    1C        H  810   2.728   2.916   5.078
    1C        H  811   2.579   3.292   5.060
    1C        H  812   2.593   3.513   5.050
    1C        H  813   2.491   3.734   5.068
    1C        H  814   2.554   4.192   5.028
    1C        H  815   2.807   4.271   5.045
    1C        H  816   2.683   2.863   1.977
    1C        H  817   2.852   2.694   1.974
    1C        H  818   3.196   2.404   2.001
    1C        H  819   3.422   2.457   1.980
    1C        H  820   3.844   2.525   1.969
    1C        H  821   4.048   2.644   1.968
    1C        H  822   4.284   2.688   1.997
    1C        H  823   4.398   2.906   1.969
    1C        H  824   4.624   3.299   1.988
    1C        H  825   4.481   3.514   1.960
    1C        H  826   4.517   3.746   1.953
    1C        H  827   3.787   4.489   1.946
    1C        H  828   3.974   4.391   1.943
    1C        H  829   4.151   4.233   1.952
    1C        H  830   4.441   3.950   1.955
    1C        H  831   2.668   3.825   1.984
    1C        H  832   2.659   4.076   1.961
    1C        H  833   2.701   4.327   1.987
    1C        H  834   3.371   4.481   1.945
    1C        H  835   3.151   4.380   1.957
    1C        H  836   2.530   3.006   1.985
    1C        H  837   2.409   3.206   1.996
    1C        H  838   2.495   3.680   1.966
    2V3OU   H29  839   2.795   3.541   1.699
    2V3OU   C27  840   2.777   3.501   1.802
    2V3OU   H27  841   2.717   3.573   1.863
    2V3OU   H28  842   2.723   3.403   1.790
    2V3OU   O11  843   2.903   3.471   1.862
    2V3OU   C15  844   2.921   3.403   1.981
    2V3OU   C13  845   3.050   3.379   2.034
    2V3OU   C14  846   3.076   3.270   2.117
    2V3OU   C16  847   2.973   3.192   2.170
    2V3OU    H6  848   2.988   3.103   2.232
    2V3OU   C12  849   3.213   3.228   2.155
    2V3OU    O2  850   3.238   3.117   2.205
    2V3OU   C10  851   3.328   3.308   2.110
    2V3OU    C8  852   3.458   3.272   2.143
    2V3OU   O10  853   3.486   3.150   2.197
    2V3OU   H26  854   3.403   3.115   2.231
    2V3OU    C6  855   3.568   3.353   2.100
    2V3OU    C5  856   3.541   3.467   2.027
    2V3OU    C4  857   3.705   3.294   2.100
    2V3OU    H4  858   3.721   3.224   2.188
    2V3OU    H5  859   3.707   3.228   2.009
    2V3OU    C2  860   3.818   3.397   2.089
    2V3OU    O6  861   3.807   3.471   2.211
    2V3OU   H21  862   3.759   3.554   2.197
    2V3OU    C3  863   3.781   3.493   1.975
    2V3OU    H2  864   3.856   3.576   1.971
    2V3OU    H3  865   3.786   3.440   1.876
    2V3OU   C25  866   3.950   3.324   2.066
    2V3OU    O7  867   3.999   3.300   1.955
    2V3OU   C26  868   4.033   3.291   2.188
    2V3OU   H22  869   4.064   3.390   2.230
    2V3OU   H23  870   4.116   3.220   2.162
    2V3OU    O8  871   3.965   3.208   2.280
    2V3OU   H24  872   3.926   3.268   2.345
    2V3OU    C1  873   3.647   3.565   1.985
    2V3OU    H1  874   3.628   3.618   1.887
    2V3OU    O3  875   3.660   3.654   2.096
    2V3OU   C19  876   3.620   3.790   2.083
    2V3OU    H9  877   3.519   3.791   2.033
    2V3OU    O4  878   3.711   3.851   1.995
    2V3OU   C20  879   3.845   3.874   2.042
    2V3OU   H10  880   3.894   3.774   2.057
    2V3OU   C24  881   3.608   3.853   2.223
    2V3OU   H16  882   3.544   3.784   2.284
    2V3OU   H17  883   3.560   3.954   2.214
    2V3OU   C23  884   3.748   3.875   2.280
    2V3OU   H15  885   3.790   3.773   2.307
    2V3OU    N1  886   3.737   3.953   2.401
    2V3OU   H19  887   3.809   3.929   2.466
    2V3OU   H20  888   3.648   3.937   2.444
    2V3OU   C21  889   3.845   3.943   2.178
    2V3OU   H11  890   3.951   3.927   2.214
    2V3OU    O5  891   3.825   4.084   2.185
    2V3OU   H18  892   3.785   4.096   2.272
    2V3OU   C22  893   3.912   3.948   1.927
    2V3OU   H12  894   3.860   4.044   1.905
    2V3OU   H13  895   3.906   3.888   1.833
    2V3OU   H14  896   4.022   3.960   1.947
    2V3OU   C11  897   3.160   3.474   2.016
    2V3OU    O1  898   3.140   3.591   1.975
    2V3OU    C9  899   3.298   3.429   2.041
    2V3OU    C7  900   3.406   3.507   2.001
    2V3OU    O9  901   3.385   3.621   1.926
    2V3OU   H25  902   3.288   3.625   1.929
    2V3OU   C17  903   2.818   3.323   2.034
    2V3OU    H7  904   2.717   3.340   1.997
    2V3OU   C18  905   2.844   3.220   2.124
    2V3OU    H8  906   2.767   3.158   2.171
    3SOL     OW  907   2.374   4.275   0.652
    3SOL    HW1  908   2.354   4.368   0.682
    3SOL    HW2  909   2.359   4.212   0.728
    4SOL     OW  910   6.595   5.498   2.171
    4SOL    HW1  911   6.581   5.533   2.079
    4SOL    HW2  912   6.597   5.574   2.236
    5SOL     OW  913   3.668   1.678   2.362
    5SOL    HW1  914   3.690   1.775   2.362
    5SOL    HW2  915   3.674   1.642   2.269
    6SOL     OW  916   3.994   1.568   2.182
    6SOL    HW1  917   4.010   1.627   2.261
    6SOL    HW2  918   3.983   1.625   2.100
    7SOL     OW  919   6.393   3.061   1.579
    7SOL    HW1  920   6.345   2.985   1.623
    7SOL    HW2  921   6.487   3.065   1.614
    8SOL     OW  922   2.429   6.903   5.097
    8SOL    HW1  923   2.520   6.931   5.128
    8SOL    HW2  924   2.366   6.903   5.175
    9SOL     OW  925   0.853   5.562   5.845
    9SOL    HW1  926   0.807   5.650   5.835
    9SOL    HW2  927   0.902   5.541   5.760
   10SOL     OW  928   1.183   4.577   5.585
   10SOL    HW1  929   1.186   4.545   5.491
   10SOL    HW2  930   1.088   4.590   5.613
   11SOL     OW  931   2.698   0.360   0.503
   11SOL    HW1  932   2.789   0.400   0.504
   11SOL    HW2  933   2.629   0.432   0.495
   12SOL     OW  934   4.131   5.717   4.012
   12SOL    HW1  935   4.043   5.744   3.972
   12SOL    HW2  936   4.121   5.707   4.111
   13SOL     OW  937   3.712   5.879   4.164
   13SOL    HW1  938   3.763   5.795   4.146
   13SOL    HW2  939   3.772   5.958   4.153
   14SOL     OW  940   4.633   5.796   6.470
   14SOL    HW1  941   4.634   5.756   6.562
   14SOL    HW2  942   4.547   5.773   6.425
   15SOL     OW  943   1.534   5.629   0.141
   15SOL    HW1  944   1.574   5.718   0.121
   15SOL    HW2  945   1.457   5.640   0.203
   16SOL     OW  946   5.836   2.154   5.562
   16SOL    HW1  947   5.808   2.074   5.615
   16SOL    HW2  948   5.890   2.125   5.483
   17SOL     OW  949   5.772   6.137   4.700
   17SOL    HW1  950   5.710   6.069   4.663
   17SOL    HW2  951   5.722   6.220   4.722
   18SOL     OW  952   3.263   1.717   0.049
   18SOL    HW1  953   3.280   1.811   0.080
   18SOL    HW2  954   3.348   1.664   0.054
   19SOL     OW  955   0.085   6.728   3.056
   19SOL    HW1  956   0.070   6.750   3.152
   19SOL    HW2  957   0.028   6.788   2.999
   20SOL     OW  958   3.223   1.683   4.114
   20SOL    HW1  959   3.193   1.767   4.071
   20SOL    HW2  960   3.321   1.669   4.095
   21SOL     OW  961   3.154   2.117   2.562
   21SOL    HW1  962   3.140   2.207   2.521
   21SOL    HW2  963   3.248   2.088   2.547
   22SOL     OW  964   2.112   6.995   6.654
   22SOL    HW1  965   2.090   0.071   6.653
   22SOL    HW2  966   2.054   6.949   6.721
   23SOL     OW  967   4.550   6.605   3.355
   23SOL    HW1  968   4.610   6.674   3.395
   23SOL    HW2  969   4.455   6.632   3.367
   24SOL     OW  970   5.190   1.347   4.268
   24SOL    HW1  971   5.101   1.348   4.223
   24SOL    HW2  972   5.181   1.379   4.362
   25SOL     OW  973   3.085   6.058   5.992
   25SOL    HW1  974   3.137   6.121   5.933
   25SOL    HW2  975   3.076   5.970   5.947
   26SOL     OW  976   6.013   1.084   1.233
   26SOL    HW1  977   6.020   1.163   1.172
   26SOL    HW2  978   5.938   1.097   1.297
   27SOL     OW  979   0.336   1.218   2.449
   27SOL    HW1  980   0.268   1.163   2.402
   27SOL    HW2  981   0.300   1.246   2.538
   28SOL     OW  982   4.230   0.906   0.250
   28SOL    HW1  983   4.264   0.999   0.237
   28SOL    HW2  984   4.299   0.852   0.298
   29SOL     OW  985   5.319   2.578   1.753
   29SOL    HW1  986   5.396   2.616   1.805
   29SOL    HW2  987   5.235   2.585   1.807
   30SOL     OW  988   3.218   6.876   5.482
   30SOL    HW1  989   3.163   6.896   5.401
   30SOL    HW2  990   3.172   6.913   5.563
   31SOL     OW  991   0.696   1.680   5.930
   31SOL    HW1  992   0.749   1.709   5.850
   31SOL    HW2  993   0.678   1.582   5.924
   32SOL     OW  994   0.803   1.886   3.086
   32SOL    HW1  995   0.799   1.934   2.998
   32SOL    HW2  996   0.713   1.888   3.129
   33SOL     OW  997   2.131   3.124   6.862
   33SOL    HW1  998   2.052   3.146   6.804
   33SOL    HW2  999   2.117   3.035   6.905
   34SOL     OW 1000   2.064   0.926   3.941
   34SOL    HW1 1001   2.008   0.992   3.989
   34SOL    HW2 1002   2.084   0.959   3.848
   35SOL     OW 1003   4.103   2.156   6.581
   35SOL    HW1 1004   4.123   2.104   6.664
   35SOL    HW2 1005   4.015   2.126   6.543
   36SOL     OW 1006   0.990   0.628   6.580
   36SOL    HW1 1007   1.024   0.677   6.500
   36SOL    HW2 1008   1.021   0.675   6.663
   37SOL     OW 1009   2.296   0.478   0.691
   37SOL    HW1 1010   2.326   0.385   0.707
   37SOL    HW2 1011   2.313   0.533   0.773
   38SOL     OW 1012   0.574   5.630   3.060
   38SOL    HW1 1013   0.551   5.651   3.155
   38SOL    HW2 1014   0.623   5.542   3.056
   39SOL     OW 1015   6.592   4.262   6.442
   39SOL    HW1 1016   6.659   4.286   6.513
   39SOL    HW2 1017   6.638   4.212   6.369
   40SOL     OW 1018   6.056   2.461   1.673
   40SOL    HW1 1019   6.136   2.463   1.614
   40SOL    HW2 1020   6.065   2.529   1.745
   41SOL     OW 1021   1.548   6.489   4.279
   41SOL    HW1 1022   1.645   6.483   4.252
   41SOL    HW2 1023   1.511   6.397   4.291
   42SOL     OW 1024   3.226   6.789   6.593
   42SOL    HW1 1025   3.315   6.749   6.616
   42SOL    HW2 1026   3.153   6.734   6.634
   43SOL     OW 1027   5.881   6.377   5.664
   43SOL    HW1 1028   5.801   6.337   5.619
   43SOL    HW2 1029   5.938   6.304   5.702
   44SOL     OW 1030   6.410   2.720   6.315
   44SOL    HW1 1031   6.406   2.741   6.413
   44SOL    HW2 1032   6.449   2.798   6.267
   45SOL     OW 1033   2.965   0.542   3.977
   45SOL    HW1 1034   2.953   0.583   3.887
   45SOL    HW2 1035   3.046   0.485   3.978
   46SOL     OW 1036   1.191   3.818   4.244
   46SOL    HW1 1037   1.113   3.756   4.239
   46SOL    HW2 1038   1.246   3.810   4.160
   47SOL     OW 1039   5.284   3.917   3.147
   47SOL    HW1 1040   5.272   3.972   3.064
   47SOL    HW2 1041   5.202   3.926   3.205
   48SOL     OW 1042   0.748   2.719   5.074
   48SOL    HW1 1043   0.716   2.751   4.985
   48SOL    HW2 1044   0.764   2.798   5.134
   49SOL     OW 1045   4.708   4.116   1.783
   49SOL    HW1 1046   4.627   4.174   1.773
   49SOL    HW2 1047   4.781   4.152   1.726
   50SOL     OW 1048   6.277   2.379   5.538
   50SOL    HW1 1049   6.350   2.319   5.505
   50SOL    HW2 1050   6.202   2.323   5.574
   51SOL     OW 1051   3.309   6.025   2.630
   51SOL    HW1 1052   3.236   5.978   2.581
   51SOL    HW2 1053   3.270   6.092   2.694
   52SOL     OW 1054   4.725   1.761   3.621
   52SOL    HW1 1055   4.647   1.705   3.594
   52SOL    HW2 1056   4.788   1.771   3.544
   53SOL     OW 1057   4.769   0.495   4.188
   53SOL    HW1 1058   4.712   0.575   4.210
   53SOL    HW2 1059   4.862   0.510   4.221
   54SOL     OW 1060   3.415   5.243   0.221
   54SOL    HW1 1061   3.386   5.150   0.242
   54SOL    HW2 1062   3.508   5.242   0.186
   55SOL     OW 1063   3.492   1.219   6.243
   55SOL    HW1 1064   3.554   1.147   6.274
   55SOL    HW2 1065   3.523   1.308   6.278
   56SOL     OW 1066   1.352   0.601   1.520
   56SOL    HW1 1067   1.263   0.629   1.555
   56SOL    HW2 1068   1.423   0.661   1.557
   57SOL     OW 1069   4.757   0.270   0.962
   57SOL    HW1 1070   4.847   0.297   0.997
   57SOL    HW2 1071   4.750   0.171   0.961
   58SOL     OW 1072   0.285   6.647   5.917
   58SOL    HW1 1073   0.378   6.672   5.945
   58SOL    HW2 1074   0.274   6.661   5.819
   59SOL     OW 1075   1.652   1.095   6.205
   59SOL    HW1 1076   1.743   1.126   6.178
   59SOL    HW2 1077   1.594   1.174   6.225
   60SOL     OW 1078   5.883   0.758   5.839
   60SOL    HW1 1079   5.887   0.833   5.906
   60SOL    HW2 1080   5.917   0.791   5.751
   61SOL     OW 1081   5.148   1.196   5.001
   61SOL    HW1 1082   5.103   1.220   5.087
   61SOL    HW2 1083   5.244   1.224   5.004
   62SOL     OW 1084   0.726   1.350   3.642
   62SOL    HW1 1085   0.638   1.357   3.691
   62SOL    HW2 1086   0.734   1.426   3.578
   63SOL     OW 1087   6.305   1.772   3.820
   63SOL    HW1 1088   6.216   1.748   3.858
   63SOL    HW2 1089   6.308   1.749   3.723
   64SOL     OW 1090   0.444   4.220   6.495
   64SOL    HW1 1091   0.389   4.295   6.458
   64SOL    HW2 1092   0.438   4.140   6.435
   65SOL     OW 1093   6.409   4.445   5.250
   65SOL    HW1 1094   6.384   4.541   5.259
   65SOL    HW2 1095   6.358   4.403   5.175
   66SOL     OW 1096   3.453   0.556   6.779
   66SOL    HW1 1097   3.356   0.558   6.799
   66SOL    HW2 1098   3.474   0.476   6.723
   67SOL     OW 1099   5.613   5.275   5.313
   67SOL    HW1 1100   5.677   5.338   5.268
   67SOL    HW2 1101   5.610   5.295   5.411
   68SOL     OW 1102   6.721   0.795   6.931
   68SOL    HW1 1103   6.781   0.752   6.863
   68SOL    HW2 1104   6.775   0.856   6.989
   69SOL     OW 1105   1.847   3.941   6.836
   69SOL    HW1 1106   1.835   3.982   6.746
   69SOL    HW2 1107   1.823   3.844   6.831
   70SOL     OW 1108   6.343   5.472   3.130
   70SOL    HW1 1109   6.288   5.426   3.199
   70SOL    HW2 1110   6.289   5.486   3.048
   71SOL     OW 1111   3.106   1.955   3.013
   71SOL    HW1 1112   3.188   1.990   2.969
   71SOL    HW2 1113   3.131   1.891   3.086
   72SOL     OW 1114   3.053   6.176   4.882
   72SOL    HW1 1115   3.128   6.110   4.895
   72SOL    HW2 1116   2.968   6.127   4.863
   73SOL     OW 1117   3.388   1.755   0.671
   73SOL    HW1 1118   3.360   1.839   0.716
   73SOL    HW2 1119   3.461   1.776   0.605
   74SOL     OW 1120   5.230   6.702   6.504
   74SOL    HW1 1121   5.311   6.649   6.480
   74SOL    HW2 1122   5.216   6.775   6.436
   75SOL     OW 1123   3.639   6.249   5.691
   75SOL    HW1 1124   3.558   6.216   5.643
   75SOL    HW2 1125   3.695   6.304   5.628
   76SOL     OW 1126   1.703   2.807   1.509
   76SOL    HW1 1127   1.725   2.902   1.485
   76SOL    HW2 1128   1.657   2.763   1.433
   77SOL     OW 1129   4.851   5.998   4.206
   77SOL    HW1 1130   4.881   5.966   4.296
   77SOL    HW2 1131   4.829   5.919   4.149
   78SOL     OW 1132   5.917   7.018   6.137
   78SOL    HW1 1133   5.852   0.021   6.065
   78SOL    HW2 1134   6.010   0.012   6.104
   79SOL     OW 1135   2.878   6.751   0.471
   79SOL    HW1 1136   2.869   6.833   0.415
   79SOL    HW2 1137   2.791   6.731   0.516
   80SOL     OW 1138   5.523   1.251   4.386
   80SOL    HW1 1139   5.502   1.256   4.288
   80SOL    HW2 1140   5.440   1.225   4.436
   81SOL     OW 1141   2.273   0.120   2.520
   81SOL    HW1 1142   2.234   0.138   2.610
   81SOL    HW2 1143   2.288   0.207   2.472
   82SOL     OW 1144   0.012   5.510   0.398
   82SOL    HW1 1145   0.076   5.492   0.472
   82SOL    HW2 1146   6.971   5.433   0.389
   83SOL     OW 1147   6.298   6.932   0.621
   83SOL    HW1 1148   6.379   6.969   0.667
   83SOL    HW2 1149   6.220   6.934   0.683
   84SOL     OW 1150   4.923   3.504   3.258
   84SOL    HW1 1151   4.894   3.454   3.176
   84SOL    HW2 1152   4.907   3.447   3.339
   85SOL     OW 1153   1.057   1.537   5.380
   85SOL    HW1 1154   1.093   1.480   5.454
   85SOL    HW2 1155   1.048   1.631   5.412
   86SOL     OW 1156   0.999   0.076   5.610
   86SOL    HW1 1157   1.076   0.044   5.555
   86SOL    HW2 1158   0.979   0.171   5.589
   87SOL     OW 1159   4.885   3.127   0.714
   87SOL    HW1 1160   4.795   3.107   0.752
   87SOL    HW2 1161   4.890   3.091   0.621
   88SOL     OW 1162   4.248   1.756   6.291
   88SOL    HW1 1163   4.263   1.834   6.351
   88SOL    HW2 1164   4.265   1.783   6.196
   89SOL     OW 1165   1.583   3.135   6.537
   89SOL    HW1 1166   1.656   3.139   6.605
   89SOL    HW2 1167   1.537   3.224   6.532
   90SOL     OW 1168   4.720   6.941   3.970
   90SOL    HW1 1169   4.639   6.961   4.025
   90SOL    HW2 1170   4.795   7.001   3.997
   91SOL     OW 1171   4.567   4.493   3.896
   91SOL    HW1 1172   4.511   4.444   3.963
   91SOL    HW2 1173   4.536   4.588   3.889
   92SOL     OW 1174   3.094   4.531   0.604
   92SOL    HW1 1175   3.009   4.478   0.599
   92SOL    HW2 1176   3.153   4.506   0.527
   93SOL     OW 1177   2.551   4.399   6.524
   93SOL    HW1 1178   2.516   4.390   6.431
   93SOL    HW2 1179   2.647   4.371   6.526
   94SOL     OW 1180   2.480   6.261   6.181
   94SOL    HW1 1181   2.436   6.350   6.179
   94SOL    HW2 1182   2.462   6.217   6.269
   95SOL     OW 1183   0.916   1.707   3.247
   95SOL    HW1 1184   1.002   1.687   3.200
   95SOL    HW2 1185   0.872   1.785   3.203
   96SOL     OW 1186   2.865   6.786   5.943
   96SOL    HW1 1187   2.768   6.789   5.968
   96SOL    HW2 1188   2.919   6.757   6.022
   97SOL     OW 1189   0.589   3.969   5.915
   97SOL    HW1 1190   0.611   3.959   5.818
   97SOL    HW2 1191   0.516   3.906   5.940
   98SOL     OW 1192   6.267   3.808   6.832
   98SOL    HW1 1193   6.192   3.751   6.797
   98SOL    HW2 1194   6.253   3.826   6.929
   99SOL     OW 1195   4.253   4.216   0.988
   99SOL    HW1 1196   4.299   4.297   0.952
   99SOL    HW2 1197   4.298   4.186   1.072
  100SOL     OW 1198   0.717   6.618   5.990
  100SOL    HW1 1199   0.806   6.616   5.944
  100SOL    HW2 1200   0.658   6.685   5.945
  101SOL     OW 1201   1.173   5.677   2.771
  101SOL    HW1 1202   1.116   5.744   2.818
  101SOL    HW2 1203   1.260   5.668   2.819
  102SOL     OW 1204   5.292   0.740   2.635
  102SOL    HW1 1205   5.198   0.714   2.615
  102SOL    HW2 1206   5.299   0.839   2.646
  103SOL     OW 1207   3.689   1.126   2.042
  103SOL    HW1 1208   3.696   1.109   2.141
  103SOL    HW2 1209   3.610   1.183   2.023
  104SOL     OW 1210   0.454   5.042   2.674
  104SOL    HW1 1211   0.412   5.122   2.631
  104SOL    HW2 1212   0.553   5.044   2.659
  105SOL     OW 1213   6.495   2.083   6.566
  105SOL    HW1 1214   6.400   2.068   6.594
  105SOL    HW2 1215   6.541   2.141   6.632
  106SOL     OW 1216   3.027   6.666   5.302
  106SOL    HW1 1217   3.075   6.697   5.220
  106SOL    HW2 1218   2.942   6.718   5.313
  107SOL     OW 1219   2.050   2.173   1.713
  107SOL    HW1 1220   2.003   2.085   1.721
  107SOL    HW2 1221   2.016   2.235   1.784
  108SOL     OW 1222   4.420   4.825   6.710
  108SOL    HW1 1223   4.331   4.846   6.668
  108SOL    HW2 1224   4.413   4.831   6.809
  109SOL     OW 1225   0.320   1.148   1.536
  109SOL    HW1 1226   0.325   1.244   1.509
  109SOL    HW2 1227   0.412   1.115   1.559
  110SOL     OW 1228   3.670   6.583   5.598
  110SOL    HW1 1229   3.685   6.518   5.524
  110SOL    HW2 1230   3.577   6.619   5.593
  111SOL     OW 1231   3.329   0.682   5.504
  111SOL    HW1 1232   3.288   0.708   5.417
  111SOL    HW2 1233   3.360   0.587   5.499
  112SOL     OW 1234   6.246   6.323   5.865
  112SOL    HW1 1235   6.338   6.337   5.903
  112SOL    HW2 1236   6.195   6.409   5.868
  113SOL     OW 1237   6.919   4.927   3.049
  113SOL    HW1 1238   7.015   4.920   3.023
  113SOL    HW2 1239   6.909   4.991   3.125
  114SOL     OW 1240   1.069   0.010   1.235
  114SOL    HW1 1241   1.167   7.017   1.242
  114SOL    HW2 1242   1.044   0.026   1.140
  115SOL     OW 1243   3.960   1.040   4.361
  115SOL    HW1 1244   3.890   1.059   4.430
  115SOL    HW2 1245   3.916   1.020   4.274
  116SOL     OW 1246   5.968   5.339   2.360
  116SOL    HW1 1247   5.979   5.381   2.270
  116SOL    HW2 1248   5.911   5.398   2.418
  117SOL     OW 1249   0.849   1.564   6.407
  117SOL    HW1 1250   0.831   1.612   6.492
  117SOL    HW2 1251   0.818   1.619   6.329
  118SOL     OW 1252   0.892   1.500   2.138
  118SOL    HW1 1253   0.911   1.402   2.139
  118SOL    HW2 1254   0.972   1.550   2.172
  119SOL     OW 1255   1.247   2.098   6.279
  119SOL    HW1 1256   1.311   2.026   6.251
  119SOL    HW2 1257   1.192   2.064   6.355
  120SOL     OW 1258   6.601   6.843   0.216
  120SOL    HW1 1259   6.512   6.857   0.259
  120SOL    HW2 1260   6.648   6.931   0.207
  121SOL     OW 1261   2.678   3.696   6.750
  121SOL    HW1 1262   2.727   3.781   6.730
  121SOL    HW2 1263   2.586   3.717   6.782
  122SOL     OW 1264   1.549   4.728   6.384
  122SOL    HW1 1265   1.570   4.647   6.329
  122SOL    HW2 1266   1.629   4.752   6.439
  123SOL     OW 1267   0.663   2.146   1.615
  123SOL    HW1 1268   0.760   2.129   1.600
  123SOL    HW2 1269   0.638   2.121   1.709
  124SOL     OW 1270   5.292   2.759   7.007
  124SOL    HW1 1271   5.286   2.807   6.920
  124SOL    HW2 1272   5.273   2.823   0.060
  125SOL     OW 1273   2.388   1.847   2.176
  125SOL    HW1 1274   2.437   1.929   2.145
  125SOL    HW2 1275   2.405   1.772   2.111
  126SOL     OW 1276   2.768   4.670   0.750
  126SOL    HW1 1277   2.776   4.596   0.682
  126SOL    HW2 1278   2.734   4.632   0.836
  127SOL     OW 1279   0.027   5.125   6.137
  127SOL    HW1 1280   0.018   5.078   6.049
  127SOL    HW2 1281   0.112   5.097   6.182
  128SOL     OW 1282   4.129   2.799   1.456
  128SOL    HW1 1283   4.049   2.794   1.516
  128SOL    HW2 1284   4.106   2.758   1.368
  129SOL     OW 1285   4.462   4.163   6.014
  129SOL    HW1 1286   4.404   4.195   5.939
  129SOL    HW2 1287   4.481   4.239   6.076
  130SOL     OW 1288   0.580   1.158   4.196
  130SOL    HW1 1289   0.577   1.247   4.242
  130SOL    HW2 1290   0.674   1.138   4.169
  131SOL     OW 1291   5.570   1.239   1.960
  131SOL    HW1 1292   5.518   1.299   2.021
  131SOL    HW2 1293   5.506   1.186   1.904
  132SOL     OW 1294   2.370   2.906   0.843
  132SOL    HW1 1295   2.316   2.953   0.913
  132SOL    HW2 1296   2.339   2.936   0.752
  133SOL     OW 1297   5.232   6.493   3.984
  133SOL    HW1 1298   5.138   6.491   3.951
  133SOL    HW2 1299   5.273   6.582   3.965
  134SOL     OW 1300   6.025   1.807   2.605
  134SOL    HW1 1301   6.062   1.718   2.634
  134SOL    HW2 1302   5.941   1.826   2.656
  135SOL     OW 1303   5.814   2.789   2.131
  135SOL    HW1 1304   5.849   2.695   2.126
  135SOL    HW2 1305   5.722   2.789   2.168
  136SOL     OW 1306   3.950   3.445   6.264
  136SOL    HW1 1307   3.940   3.503   6.345
  136SOL    HW2 1308   3.929   3.498   6.182
  137SOL     OW 1309   5.195   0.679   5.215
  137SOL    HW1 1310   5.241   0.766   5.235
  137SOL    HW2 1311   5.261   0.615   5.177
  138SOL     OW 1312   0.584   4.473   3.805
  138SOL    HW1 1313   0.606   4.431   3.716
  138SOL    HW2 1314   0.546   4.403   3.866
  139SOL     OW 1315   2.308   6.079   5.261
  139SOL    HW1 1316   2.317   6.176   5.238
  139SOL    HW2 1317   2.388   6.030   5.228
  140SOL     OW 1318   0.194   6.196   3.430
  140SOL    HW1 1319   0.225   6.111   3.475
  140SOL    HW2 1320   0.272   6.241   3.387
  141SOL     OW 1321   6.219   3.005   5.356
  141SOL    HW1 1322   6.209   2.923   5.412
  141SOL    HW2 1323   6.209   3.086   5.414
  142SOL     OW 1324   1.391   5.610   0.553
  142SOL    HW1 1325   1.425   5.523   0.518
  142SOL    HW2 1326   1.432   5.628   0.643
  143SOL     OW 1327   5.787   3.964   1.997
  143SOL    HW1 1328   5.821   3.943   1.906
  143SOL    HW2 1329   5.845   4.033   2.040
  144SOL     OW 1330   1.316   7.018   6.777
  144SOL    HW1 1331   1.228   6.988   6.739
  144SOL    HW2 1332   1.316   0.096   6.784
  145SOL     OW 1333   0.618   4.835   0.365
  145SOL    HW1 1334   0.629   4.834   0.464
  145SOL    HW2 1335   0.549   4.767   0.338
  146SOL     OW 1336   5.019   0.117   5.543
  146SOL    HW1 1337   5.119   0.105   5.544
  146SOL    HW2 1338   4.993   0.168   5.461
  147SOL     OW 1339   6.038   2.902   6.629
  147SOL    HW1 1340   6.104   2.830   6.647
  147SOL    HW2 1341   5.981   2.917   6.710
  148SOL     OW 1342   0.704   4.674   6.452
  148SOL    HW1 1343   0.782   4.678   6.390
  148SOL    HW2 1344   0.697   4.581   6.489
  149SOL     OW 1345   2.529   1.483   4.388
  149SOL    HW1 1346   2.625   1.488   4.414
  149SOL    HW2 1347   2.507   1.560   4.327
  150SOL     OW 1348   5.830   4.866   6.433
  150SOL    HW1 1349   5.926   4.844   6.449
  150SOL    HW2 1350   5.819   4.965   6.430
  151SOL     OW 1351   3.283   1.757   1.092
  151SOL    HW1 1352   3.253   1.725   1.002
  151SOL    HW2 1353   3.284   1.680   1.156
  152SOL     OW 1354   1.878   1.482   4.070
  152SOL    HW1 1355   1.797   1.440   4.111
  152SOL    HW2 1356   1.863   1.497   3.972
  153SOL     OW 1357   2.762   0.202   1.679
  153SOL    HW1 1358   2.701   0.277   1.701
  153SOL    HW2 1359   2.711   0.116   1.680
  154SOL     OW 1360   0.463   3.079   2.972
  154SOL    HW1 1361   0.366   3.067   2.995
  154SOL    HW2 1362   0.476   3.061   2.875
  155SOL     OW 1363   0.369   1.365   3.436
  155SOL    HW1 1364   0.358   1.268   3.459
  155SOL    HW2 1365   0.459   1.379   3.395
  156SOL     OW 1366   6.959   1.785   1.252
  156SOL    HW1 1367   0.019   1.841   1.250
  156SOL    HW2 1368   6.949   1.738   1.164
  157SOL     OW 1369   6.301   3.638   2.037
  157SOL    HW1 1370   6.388   3.605   2.001
  157SOL    HW2 1371   6.251   3.686   1.965
  158SOL     OW 1372   2.607   6.937   2.694
  158SOL    HW1 1373   2.698   6.901   2.716
  158SOL    HW2 1374   2.602   0.011   2.722
  159SOL     OW 1375   4.602   4.386   1.576
  159SOL    HW1 1376   4.599   4.294   1.538
  159SOL    HW2 1377   4.515   4.406   1.621
  160SOL     OW 1378   0.137   4.864   6.822
  160SOL    HW1 1379   0.037   4.860   6.821
  160SOL    HW2 1380   0.172   4.869   6.729
  161SOL     OW 1381   1.593   5.344   4.504
  161SOL    HW1 1382   1.602   5.280   4.428
  161SOL    HW2 1383   1.667   5.331   4.569
  162SOL     OW 1384   3.814   6.493   0.395
  162SOL    HW1 1385   3.892   6.464   0.451
  162SOL    HW2 1386   3.843   6.501   0.300
  163SOL     OW 1387   5.193   5.721   0.946
  163SOL    HW1 1388   5.250   5.679   1.016
  163SOL    HW2 1389   5.212   5.679   0.857
  164SOL     OW 1390   6.659   4.031   1.129
  164SOL    HW1 1391   6.656   4.028   1.029
  164SOL    HW2 1392   6.591   3.967   1.166
  165SOL     OW 1393   5.603   3.019   1.215
  165SOL    HW1 1394   5.589   2.953   1.288
  165SOL    HW2 1395   5.532   3.007   1.145
  166SOL     OW 1396   0.480   4.886   3.858
  166SOL    HW1 1397   0.569   4.930   3.870
  166SOL    HW2 1398   0.466   4.819   3.931
  167SOL     OW 1399   5.759   1.941   0.718
  167SOL    HW1 1400   5.714   1.888   0.646
  167SOL    HW2 1401   5.766   1.886   0.801
  168SOL     OW 1402   2.780   3.621   1.002
  168SOL    HW1 1403   2.836   3.661   0.930
  168SOL    HW2 1404   2.718   3.691   1.038
  169SOL     OW 1405   3.696   0.411   2.707
  169SOL    HW1 1406   3.741   0.412   2.618
  169SOL    HW2 1407   3.627   0.483   2.711
  170SOL     OW 1408   0.224   1.628   3.412
  170SOL    HW1 1409   0.201   1.655   3.318
  170SOL    HW2 1410   0.243   1.529   3.414
  171SOL     OW 1411   4.037   4.408   0.393
  171SOL    HW1 1412   4.106   4.480   0.385
  171SOL    HW2 1413   4.010   4.378   0.301
  172SOL     OW 1414   6.299   1.635   4.327
  172SOL    HW1 1415   6.224   1.632   4.393
  172SOL    HW2 1416   6.286   1.711   4.264
  173SOL     OW 1417   6.345   1.146   4.388
  173SOL    HW1 1418   6.413   1.092   4.438
  173SOL    HW2 1419   6.313   1.221   4.446
  174SOL     OW 1420   2.888   5.360   4.337
  174SOL    HW1 1421   2.971   5.414   4.330
  174SOL    HW2 1422   2.891   5.284   4.271
  175SOL     OW 1423   1.819   6.566   1.756
  175SOL    HW1 1424   1.891   6.496   1.760
  175SOL    HW2 1425   1.801   6.589   1.661
  176SOL     OW 1426   1.240   4.107   0.831
  176SOL    HW1 1427   1.172   4.178   0.815
  176SOL    HW2 1428   1.331   4.148   0.833
  177SOL     OW 1429   5.881   2.953   2.342
  177SOL    HW1 1430   5.799   2.991   2.385
  177SOL    HW2 1431   5.855   2.900   2.262
  178SOL     OW 1432   4.767   3.444   5.873
  178SOL    HW1 1433   4.851   3.497   5.857
  178SOL    HW2 1434   4.764   3.367   5.809
  179SOL     OW 1435   2.809   1.869   6.190
  179SOL    HW1 1436   2.768   1.872   6.281
  179SOL    HW2 1437   2.740   1.895   6.122
  180SOL     OW 1438   1.176   0.202   6.428
  180SOL    HW1 1439   1.152   0.128   6.365
  180SOL    HW2 1440   1.271   0.190   6.459
  181SOL     OW 1441   3.751   1.327   6.752
  181SOL    HW1 1442   3.833   1.329   6.809
  181SOL    HW2 1443   3.766   1.266   6.675
  182SOL     OW 1444   3.848   2.125   4.678
  182SOL    HW1 1445   3.748   2.127   4.675
  182SOL    HW2 1446   3.880   2.165   4.763
  183SOL     OW 1447   3.298   1.701   3.810
  183SOL    HW1 1448   3.346   1.654   3.884
  183SOL    HW2 1449   3.214   1.651   3.787
  184SOL     OW 1450   1.368   5.863   4.022
  184SOL    HW1 1451   1.432   5.788   4.040
  184SOL    HW2 1452   1.292   5.859   4.087
  185SOL     OW 1453   1.122   2.402   6.637
  185SOL    HW1 1454   1.138   2.495   6.602
  185SOL    HW2 1455   1.105   2.340   6.561
  186SOL     OW 1456   6.651   1.406   3.378
  186SOL    HW1 1457   6.680   1.311   3.394
  186SOL    HW2 1458   6.612   1.414   3.286
  187SOL     OW 1459   4.839   0.652   3.533
  187SOL    HW1 1460   4.900   0.580   3.500
  187SOL    HW2 1461   4.819   0.638   3.629
  188SOL     OW 1462   6.066   2.108   3.370
  188SOL    HW1 1463   6.086   2.130   3.274
  188SOL    HW2 1464   6.121   2.166   3.430
  189SOL     OW 1465   1.796   5.611   2.934
  189SOL    HW1 1466   1.714   5.597   2.879
  189SOL    HW2 1467   1.806   5.709   2.954
  190SOL     OW 1468   3.759   1.163   4.519
  190SOL    HW1 1469   3.745   1.254   4.480
  190SOL    HW2 1470   3.680   1.106   4.498
  191SOL     OW 1471   5.335   5.756   5.936
  191SOL    HW1 1472   5.283   5.836   5.966
  191SOL    HW2 1473   5.419   5.787   5.891
  192SOL     OW 1474   0.015   5.539   1.806
  192SOL    HW1 1475   6.996   5.494   1.885
  192SOL    HW2 1476   0.001   5.483   1.724
  193SOL     OW 1477   4.617   2.622   5.559
  193SOL    HW1 1478   4.666   2.691   5.505
  193SOL    HW2 1479   4.521   2.621   5.532
  194SOL     OW 1480   3.720   1.207   2.877
  194SOL    HW1 1481   3.699   1.157   2.793
  194SOL    HW2 1482   3.642   1.263   2.903
  195SOL     OW 1483   1.929   6.224   4.149
  195SOL    HW1 1484   1.908   6.158   4.221
  195SOL    HW2 1485   2.022   6.209   4.116
  196SOL     OW 1486   2.893   1.487   6.902
  196SOL    HW1 1487   2.928   1.503   6.995
  196SOL    HW2 1488   2.799   1.521   6.895
  197SOL     OW 1489   2.288   0.687   0.312
  197SOL    HW1 1490   2.305   0.777   0.351
  197SOL    HW2 1491   2.285   0.693   0.212
  198SOL     OW 1492   4.815   1.566   3.246
  198SOL    HW1 1493   4.796   1.661   3.221
  198SOL    HW2 1494   4.908   1.558   3.283
  199SOL     OW 1495   1.009   2.478   4.147
  199SOL    HW1 1496   1.077   2.511   4.212
  199SOL    HW2 1497   1.013   2.533   4.064
  200SOL     OW 1498   1.574   3.196   0.939
  200SOL    HW1 1499   1.586   3.290   0.969
  200SOL    HW2 1500   1.581   3.135   1.019
  201SOL     OW 1501   0.297   6.593   5.168
  201SOL    HW1 1502   0.223   6.601   5.235
  201SOL    HW2 1503   0.307   6.497   5.142
  202SOL     OW 1504   4.087   1.729   6.593
  202SOL    HW1 1505   4.108   1.703   6.499
  202SOL    HW2 1506   4.070   1.647   6.648
  203SOL     OW 1507   5.981   2.346   5.273
  203SOL    HW1 1508   5.907   2.349   5.206
  203SOL    HW2 1509   5.949   2.383   5.360
  204SOL     OW 1510   0.749   0.050   4.611
  204SOL    HW1 1511   0.730   0.002   4.697
  204SOL    HW2 1512   0.663   0.083   4.573
  205SOL     OW 1513   1.888   2.344   2.915
  205SOL    HW1 1514   1.920   2.343   3.010
  205SOL    HW2 1515   1.788   2.335   2.913
  206SOL     OW 1516   1.260   3.165   1.237
  206SOL    HW1 1517   1.330   3.110   1.283
  206SOL    HW2 1518   1.177   3.111   1.226
  207SOL     OW 1519   5.562   0.737   3.440
  207SOL    HW1 1520   5.539   0.644   3.471
  207SOL    HW2 1521   5.478   0.785   3.415
  208SOL     OW 1522   0.207   3.688   5.641
  208SOL    HW1 1523   0.170   3.644   5.559
  208SOL    HW2 1524   0.281   3.632   5.678
  209SOL     OW 1525   6.484   4.446   3.031
  209SOL    HW1 1526   6.420   4.370   3.041
  209SOL    HW2 1527   6.567   4.426   3.083
  210SOL     OW 1528   4.434   2.051   0.640
  210SOL    HW1 1529   4.379   1.973   0.611
  210SOL    HW2 1530   4.421   2.066   0.738
  211SOL     OW 1531   0.973   6.726   2.337
  211SOL    HW1 1532   1.024   6.640   2.334
  211SOL    HW2 1533   0.915   6.728   2.419
  212SOL     OW 1534   1.087   3.810   2.372
  212SOL    HW1 1535   1.057   3.854   2.287
  212SOL    HW2 1536   1.183   3.785   2.365
  213SOL     OW 1537   1.575   5.849   0.779
  213SOL    HW1 1538   1.648   5.907   0.816
  213SOL    HW2 1539   1.540   5.890   0.694
  214SOL     OW 1540   3.511   5.194   2.460
  214SOL    HW1 1541   3.577   5.232   2.524
  214SOL    HW2 1542   3.459   5.121   2.504
  215SOL     OW 1543   2.784   4.169   1.342
  215SOL    HW1 1544   2.755   4.092   1.284
  215SOL    HW2 1545   2.863   4.214   1.300
  216SOL     OW 1546   0.808   6.522   3.056
  216SOL    HW1 1547   0.863   6.476   3.126
  216SOL    HW2 1548   0.771   6.607   3.094
  217SOL     OW 1549   1.081   2.324   5.167
  217SOL    HW1 1550   1.019   2.253   5.201
  217SOL    HW2 1551   1.145   2.284   5.102
  218SOL     OW 1552   0.622   2.826   4.829
  218SOL    HW1 1553   0.659   2.856   4.741
  218SOL    HW2 1554   0.611   2.727   4.828
  219SOL     OW 1555   4.396   0.473   0.284
  219SOL    HW1 1556   4.375   0.452   0.189
  219SOL    HW2 1557   4.310   0.474   0.337
  220SOL     OW 1558   2.460   6.892   0.623
  220SOL    HW1 1559   2.547   6.857   0.657
  220SOL    HW2 1560   2.470   6.990   0.603
  221SOL     OW 1561   6.517   4.282   1.256
  221SOL    HW1 1562   6.579   4.204   1.249
  221SOL    HW2 1563   6.436   4.255   1.308
  222SOL     OW 1564   1.621   4.524   6.187
  222SOL    HW1 1565   1.700   4.485   6.235
  222SOL    HW2 1566   1.630   4.507   6.089
  223SOL     OW 1567   6.833   2.626   5.125
  223SOL    HW1 1568   6.871   2.576   5.203
  223SOL    HW2 1569   6.869   2.588   5.040
  224SOL     OW 1570   3.604   1.260   6.981
  224SOL    HW1 1571   3.642   1.289   6.893
  224SOL    HW2 1572   3.670   1.202   0.006
  225SOL     OW 1573   4.197   3.950   6.386
  225SOL    HW1 1574   4.151   4.001   6.459
  225SOL    HW2 1575   4.130   3.892   6.339
  226SOL     OW 1576   0.631   1.444   6.044
  226SOL    HW1 1577   0.594   1.520   6.097
  226SOL    HW2 1578   0.691   1.388   6.102
  227SOL     OW 1579   2.245   4.383   2.587
  227SOL    HW1 1580   2.230   4.459   2.523
  227SOL    HW2 1581   2.237   4.296   2.538
  228SOL     OW 1582   1.784   0.657   2.861
  228SOL    HW1 1583   1.846   0.579   2.856
  228SOL    HW2 1584   1.695   0.632   2.823
  229SOL     OW 1585   5.385   5.249   6.096
  229SOL    HW1 1586   5.355   5.335   6.055
  229SOL    HW2 1587   5.316   5.216   6.161
  230SOL     OW 1588   4.531   5.724   4.405
  230SOL    HW1 1589   4.504   5.800   4.465
  230SOL    HW2 1590   4.602   5.670   4.450
  231SOL     OW 1591   6.212   1.446   6.363
  231SOL    HW1 1592   6.230   1.482   6.454
  231SOL    HW2 1593   6.210   1.346   6.365
  232SOL     OW 1594   0.602   3.198   6.366
  232SOL    HW1 1595   0.654   3.162   6.444
  232SOL    HW2 1596   0.616   3.296   6.359
  233SOL     OW 1597   4.400   1.722   3.191
  233SOL    HW1 1598   4.312   1.756   3.157
  233SOL    HW2 1599   4.475   1.769   3.144
  234SOL     OW 1600   6.103   1.245   6.725
  234SOL    HW1 1601   6.138   1.152   6.718
  234SOL    HW2 1602   6.020   1.245   6.781
  235SOL     OW 1603   4.904   3.192   2.163
  235SOL    HW1 1604   4.944   3.119   2.219
  235SOL    HW2 1605   4.841   3.152   2.096
  236SOL     OW 1606   5.174   2.504   6.930
  236SOL    HW1 1607   5.185   2.503   6.831
  236SOL    HW2 1608   5.222   2.584   6.968
  237SOL     OW 1609   0.240   4.190   1.807
  237SOL    HW1 1610   0.230   4.104   1.858
  237SOL    HW2 1611   0.231   4.267   1.870
  238SOL     OW 1612   6.326   1.679   0.498
  238SOL    HW1 1613   6.334   1.716   0.406
  238SOL    HW2 1614   6.402   1.712   0.554
  239SOL     OW 1615   0.940   3.987   0.079
  239SOL    HW1 1616   1.017   3.923   0.071
  239SOL    HW2 1617   0.913   3.995   0.175
  240SOL     OW 1618   0.765   2.876   3.549
  240SOL    HW1 1619   0.762   2.777   3.545
  240SOL    HW2 1620   0.802   2.913   3.464
  241SOL     OW 1621   2.733   2.302   4.662
  241SOL    HW1 1622   2.689   2.358   4.732
  241SOL    HW2 1623   2.805   2.246   4.704
  242SOL     OW 1624   3.322   3.570   3.755
  242SOL    HW1 1625   3.325   3.550   3.657
  242SOL    HW2 1626   3.413   3.597   3.786
  243SOL     OW 1627   4.514   1.698   0.119
  243SOL    HW1 1628   4.562   1.637   0.183
  243SOL    HW2 1629   4.468   1.644   0.049
  244SOL     OW 1630   5.866   3.982   5.627
  244SOL    HW1 1631   5.898   4.064   5.578
  244SOL    HW2 1632   5.790   4.007   5.687
  245SOL     OW 1633   4.401   2.284   3.770
  245SOL    HW1 1634   4.403   2.185   3.779
  245SOL    HW2 1635   4.465   2.312   3.698
  246SOL     OW 1636   5.028   1.467   3.496
  246SOL    HW1 1637   5.049   1.537   3.428
  246SOL    HW2 1638   4.956   1.500   3.557
  247SOL     OW 1639   2.431   1.442   0.486
  247SOL    HW1 1640   2.355   1.378   0.491
  247SOL    HW2 1641   2.396   1.534   0.465
  248SOL     OW 1642   2.371   1.160   2.879
  248SOL    HW1 1643   2.342   1.065   2.890
  248SOL    HW2 1644   2.347   1.191   2.787
  249SOL     OW 1645   5.237   6.646   5.387
  249SOL    HW1 1646   5.227   6.731   5.437
  249SOL    HW2 1647   5.170   6.642   5.313
  250SOL     OW 1648   4.060   3.713   0.593
  250SOL    HW1 1649   4.004   3.707   0.676
  250SOL    HW2 1650   4.156   3.703   0.617
  251SOL     OW 1651   4.496   3.544   5.300
  251SOL    HW1 1652   4.547   3.529   5.385
  251SOL    HW2 1653   4.557   3.533   5.222
  252SOL     OW 1654   6.641   0.118   5.256
  252SOL    HW1 1655   6.680   0.086   5.169
  252SOL    HW2 1656   6.569   0.055   5.285
  253SOL     OW 1657   3.878   5.190   6.385
  253SOL    HW1 1658   3.923   5.264   6.336
  253SOL    HW2 1659   3.780   5.211   6.393
  254SOL     OW 1660   6.689   2.326   3.583
  254SOL    HW1 1661   6.764   2.260   3.581
  254SOL    HW2 1662   6.603   2.278   3.566
  255SOL     OW 1663   2.375   4.504   5.622
  255SOL    HW1 1664   2.472   4.490   5.601
  255SOL    HW2 1665   2.322   4.500   5.537
  256SOL     OW 1666   5.752   3.390   6.062
  256SOL    HW1 1667   5.689   3.401   5.985
  256SOL    HW2 1668   5.728   3.307   6.113
  257SOL     OW 1669   5.289   0.146   3.380
  257SOL    HW1 1670   5.211   0.115   3.435
  257SOL    HW2 1671   5.290   0.246   3.377
  258SOL     OW 1672   2.336   4.230   5.286
  258SOL    HW1 1673   2.372   4.219   5.378
  258SOL    HW2 1674   2.358   4.150   5.231
  259SOL     OW 1675   5.788   0.433   2.213
  259SOL    HW1 1676   5.732   0.515   2.220
  259SOL    HW2 1677   5.816   0.420   2.118
  260SOL     OW 1678   4.134   5.636   3.079
  260SOL    HW1 1679   4.042   5.605   3.058
  260SOL    HW2 1680   4.134   5.734   3.094
  261SOL     OW 1681   5.538   3.758   1.610
  261SOL    HW1 1682   5.573   3.685   1.552
  261SOL    HW2 1683   5.439   3.761   1.603
  262SOL     OW 1684   0.835   3.994   0.342
  262SOL    HW1 1685   0.737   4.014   0.355
  262SOL    HW2 1686   0.889   4.059   0.395
  263SOL     OW 1687   1.674   0.772   4.461
  263SOL    HW1 1688   1.688   0.838   4.386
  263SOL    HW2 1689   1.611   0.810   4.528
  264SOL     OW 1690   6.682   2.252   0.025
  264SOL    HW1 1691   6.722   2.235   0.115
  264SOL    HW2 1692   6.613   2.325   0.033
  265SOL     OW 1693   5.806   6.324   2.733
  265SOL    HW1 1694   5.780   6.320   2.829
  265SOL    HW2 1695   5.808   6.419   2.703
  266SOL     OW 1696   4.662   3.046   5.862
  266SOL    HW1 1697   4.686   2.976   5.796
  266SOL    HW2 1698   4.578   3.020   5.910
  267SOL     OW 1699   0.473   1.811   6.096
  267SOL    HW1 1700   0.510   1.770   6.179
  267SOL    HW2 1701   0.503   1.758   6.016
  268SOL     OW 1702   2.714   1.099   6.032
  268SOL    HW1 1703   2.719   1.148   6.119
  268SOL    HW2 1704   2.728   1.163   5.956
  269SOL     OW 1705   2.330   4.106   0.888
  269SOL    HW1 1706   2.407   4.130   0.947
  269SOL    HW2 1707   2.262   4.055   0.941
  270SOL     OW 1708   0.615   6.253   1.271
  270SOL    HW1 1709   0.534   6.209   1.309
  270SOL    HW2 1710   0.648   6.199   1.193
  271SOL     OW 1711   0.064   1.698   6.083
  271SOL    HW1 1712   0.129   1.773   6.070
  271SOL    HW2 1713   6.997   1.735   6.109
  272SOL     OW 1714   3.497   6.586   4.103
  272SOL    HW1 1715   3.519   6.580   4.006
  272SOL    HW2 1716   3.428   6.657   4.118
  273SOL     OW 1717   2.369   4.366   4.505
  273SOL    HW1 1718   2.377   4.438   4.435
  273SOL    HW2 1719   2.327   4.404   4.587
  274SOL     OW 1720   4.010   1.810   3.416
  274SOL    HW1 1721   3.989   1.898   3.375
  274SOL    HW2 1722   4.071   1.823   3.494
  275SOL     OW 1723   5.933   5.959   2.909
  275SOL    HW1 1724   5.991   5.921   2.981
  275SOL    HW2 1725   5.962   6.053   2.889
  276SOL     OW 1726   6.703   6.907   3.943
  276SOL    HW1 1727   6.619   6.883   3.992
  276SOL    HW2 1728   6.750   6.982   3.992
  277SOL     OW 1729   1.947   4.048   0.355
  277SOL    HW1 1730   1.907   3.957   0.341
  277SOL    HW2 1731   1.982   4.082   0.268
  278SOL     OW 1732   0.266   3.542   1.796
  278SOL    HW1 1733   0.329   3.613   1.826
  278SOL    HW2 1734   0.316   3.457   1.780
  279SOL     OW 1735   5.570   2.937   4.642
  279SOL    HW1 1736   5.481   2.980   4.657
  279SOL    HW2 1737   5.626   2.947   4.724
  280SOL     OW 1738   3.009   5.440   1.983
  280SOL    HW1 1739   3.015   5.374   2.057
  280SOL    HW2 1740   3.080   5.509   1.994
  281SOL     OW 1741   2.503   4.851   1.908
  281SOL    HW1 1742   2.523   4.903   1.991
  281SOL    HW2 1743   2.584   4.799   1.881
  282SOL     OW 1744   2.907   1.692   5.492
  282SOL    HW1 1745   2.821   1.742   5.480
  282SOL    HW2 1746   2.913   1.658   5.586
  283SOL     OW 1747   6.176   2.658   6.751
  283SOL    HW1 1748   6.123   2.575   6.765
  283SOL    HW2 1749   6.187   2.706   6.838
  284SOL     OW 1750   1.353   3.292   3.850
  284SOL    HW1 1751   1.381   3.218   3.912
  284SOL    HW2 1752   1.308   3.364   3.903
  285SOL     OW 1753   5.111   4.883   4.161
  285SOL    HW1 1754   5.138   4.932   4.244
  285SOL    HW2 1755   5.029   4.829   4.181
  286SOL     OW 1756   3.229   4.858   7.019
  286SOL    HW1 1757   3.303   4.792   7.007
  286SOL    HW2 1758   3.257   4.928   0.063
  287SOL     OW 1759   1.207   3.230   0.895
  287SOL    HW1 1760   1.298   3.188   0.898
  287SOL    HW2 1761   1.204   3.306   0.960
  288SOL     OW 1762   3.551   1.764   6.792
  288SOL    HW1 1763   3.595   1.690   6.843
  288SOL    HW2 1764   3.612   1.794   6.719
  289SOL     OW 1765   1.866   4.349   5.328
  289SOL    HW1 1766   1.815   4.415   5.272
  289SOL    HW2 1767   1.873   4.262   5.278
  290SOL     OW 1768   6.055   1.752   4.779
  290SOL    HW1 1769   5.967   1.798   4.762
  290SOL    HW2 1770   6.118   1.817   4.823
  291SOL     OW 1771   0.545   1.958   4.245
  291SOL    HW1 1772   0.493   2.042   4.264
  291SOL    HW2 1773   0.551   1.944   4.146
  292SOL     OW 1774   2.211   1.357   2.956
  292SOL    HW1 1775   2.259   1.429   3.008
  292SOL    HW2 1776   2.279   1.294   2.918
  293SOL     OW 1777   4.448   5.902   3.105
  293SOL    HW1 1778   4.479   5.867   3.193
  293SOL    HW2 1779   4.437   6.001   3.110
  294SOL     OW 1780   6.633   5.902   6.589
  294SOL    HW1 1781   6.631   5.807   6.619
  294SOL    HW2 1782   6.694   5.912   6.511
  295SOL     OW 1783   3.503   1.281   3.052
  295SOL    HW1 1784   3.483   1.198   3.103
  295SOL    HW2 1785   3.577   1.331   3.097
  296SOL     OW 1786   3.096   1.549   2.368
  296SOL    HW1 1787   3.134   1.619   2.308
  296SOL    HW2 1788   3.062   1.473   2.313
  297SOL     OW 1789   2.277   4.234   3.830
  297SOL    HW1 1790   2.369   4.199   3.818
  297SOL    HW2 1791   2.281   4.328   3.866
  298SOL     OW 1792   4.487   6.033   1.463
  298SOL    HW1 1793   4.562   5.999   1.405
  298SOL    HW2 1794   4.401   5.990   1.435
  299SOL     OW 1795   5.457   3.742   5.481
  299SOL    HW1 1796   5.523   3.706   5.546
  299SOL    HW2 1797   5.445   3.677   5.406
  300SOL     OW 1798   6.688   0.693   2.646
  300SOL    HW1 1799   6.720   0.712   2.554
  300SOL    HW2 1800   6.593   0.662   2.643
  301SOL     OW 1801   5.518   3.940   0.414
  301SOL    HW1 1802   5.553   3.856   0.373
  301SOL    HW2 1803   5.545   4.018   0.359
  302SOL     OW 1804   1.288   0.535   3.313
  302SOL    HW1 1805   1.366   0.481   3.345
  302SOL    HW2 1806   1.206   0.478   3.312
  303SOL     OW 1807   5.223   0.703   1.907
  303SOL    HW1 1808   5.306   0.660   1.871
  303SOL    HW2 1809   5.205   0.668   1.999
  304SOL     OW 1810   1.951   0.079   3.182
  304SOL    HW1 1811   1.894   0.161   3.193
  304SOL    HW2 1812   1.949   0.026   3.267
  305SOL     OW 1813   0.504   3.479   6.933
  305SOL    HW1 1814   0.418   3.470   6.884
  305SOL    HW2 1815   0.507   3.568   6.978
  306SOL     OW 1816   1.600   1.362   4.094
  306SOL    HW1 1817   1.574   1.458   4.103
  306SOL    HW2 1818   1.578   1.329   4.002
  307SOL     OW 1819   4.929   6.880   1.180
  307SOL    HW1 1820   4.871   6.798   1.179
  307SOL    HW2 1821   4.949   6.907   1.274
  308SOL     OW 1822   0.121   5.308   4.136
  308SOL    HW1 1823   0.058   5.384   4.121
  308SOL    HW2 1824   0.073   5.222   4.118
  309SOL     OW 1825   3.881   4.507   5.311
  309SOL    HW1 1826   3.973   4.546   5.307
  309SOL    HW2 1827   3.887   4.412   5.341
  310SOL     OW 1828   5.681   7.013   5.948
  310SOL    HW1 1829   5.602   0.006   5.888
  310SOL    HW2 1830   5.712   6.918   5.940
  311SOL     OW 1831   6.698   5.077   2.035
  311SOL    HW1 1832   6.622   5.072   2.100
  311SOL    HW2 1833   6.691   5.162   1.982
  312SOL     OW 1834   4.861   1.525   4.929
  312SOL    HW1 1835   4.925   1.581   4.876
  312SOL    HW2 1836   4.800   1.585   4.980
  313SOL     OW 1837   2.528   4.171   1.750
  313SOL    HW1 1838   2.597   4.215   1.808
  313SOL    HW2 1839   2.533   4.210   1.658
  314SOL     OW 1840   3.544   5.843   0.746
  314SOL    HW1 1841   3.458   5.825   0.699
  314SOL    HW2 1842   3.617   5.855   0.679
  315SOL     OW 1843   0.952   2.137   3.300
  315SOL    HW1 1844   0.910   2.194   3.230
  315SOL    HW2 1845   0.885   2.116   3.370
  316SOL     OW 1846   2.294   2.845   4.479
  316SOL    HW1 1847   2.335   2.891   4.558
  316SOL    HW2 1848   2.223   2.782   4.510
  317SOL     OW 1849   0.790   1.609   0.160
  317SOL    HW1 1850   0.791   1.512   0.133
  317SOL    HW2 1851   0.876   1.632   0.205
  318SOL     OW 1852   1.462   5.079   0.991
  318SOL    HW1 1853   1.398   5.083   1.068
  318SOL    HW2 1854   1.413   5.057   0.907
  319SOL     OW 1855   1.109   7.019   2.104
  319SOL    HW1 1856   1.123   7.016   2.203
  319SOL    HW2 1857   1.092   6.927   2.069
  320SOL     OW 1858   6.033   2.533   0.071
  320SOL    HW1 1859   5.935   2.547   0.078
  320SOL    HW2 1860   6.054   2.474   7.014
  321SOL     OW 1861   2.144   1.879   2.322
  321SOL    HW1 1862   2.228   1.878   2.267
  321SOL    HW2 1863   2.067   1.906   2.264
  322SOL     OW 1864   3.204   2.964   4.229
  322SOL    HW1 1865   3.119   3.011   4.202
  322SOL    HW2 1866   3.219   2.977   4.326
  323SOL     OW 1867   0.396   3.983   0.384
  323SOL    HW1 1868   0.457   4.051   0.342
  323SOL    HW2 1869   0.301   4.013   0.374
  324SOL     OW 1870   0.785   2.909   4.608
  324SOL    HW1 1871   0.788   3.007   4.626
  324SOL    HW2 1872   0.735   2.892   4.523
  325SOL     OW 1873   2.262   3.311   1.029
  325SOL    HW1 1874   2.294   3.405   1.017
  325SOL    HW2 1875   2.266   3.287   1.126
  326SOL     OW 1876   1.606   6.448   6.761
  326SOL    HW1 1877   1.537   6.504   6.716
  326SOL    HW2 1878   1.589   6.448   6.860
  327SOL     OW 1879   0.519   4.872   4.499
  327SOL    HW1 1880   0.534   4.962   4.540
  327SOL    HW2 1881   0.462   4.881   4.418
  328SOL     OW 1882   3.645   5.244   2.715
  328SOL    HW1 1883   3.595   5.285   2.791
  328SOL    HW2 1884   3.643   5.144   2.723
  329SOL     OW 1885   3.355   4.099   3.412
  329SOL    HW1 1886   3.407   4.113   3.328
  329SOL    HW2 1887   3.404   4.141   3.489
  330SOL     OW 1888   2.941   6.489   2.149
  330SOL    HW1 1889   2.913   6.546   2.227
  330SOL    HW2 1890   3.001   6.416   2.181
  331SOL     OW 1891   4.853   5.631   6.216
  331SOL    HW1 1892   4.859   5.693   6.137
  331SOL    HW2 1893   4.834   5.685   6.298
  332SOL     OW 1894   3.407   1.956   3.762
  332SOL    HW1 1895   3.394   1.861   3.790
  332SOL    HW2 1896   3.319   1.995   3.735
  333SOL     OW 1897   4.215   0.124   6.171
  333SOL    HW1 1898   4.277   0.197   6.200
  333SOL    HW2 1899   4.268   0.042   6.151
  334SOL     OW 1900   3.019   6.903   2.321
  334SOL    HW1 1901   3.106   6.858   2.302
  334SOL    HW2 1902   2.973   6.924   2.235
  335SOL     OW 1903   3.888   5.739   3.882
  335SOL    HW1 1904   3.809   5.680   3.865
  335SOL    HW2 1905   3.858   5.835   3.885
  336SOL     OW 1906   2.308   1.163   3.456
  336SOL    HW1 1907   2.272   1.109   3.380
  336SOL    HW2 1908   2.320   1.258   3.426
  337SOL     OW 1909   6.812   3.262   1.356
  337SOL    HW1 1910   6.846   3.314   1.434
  337SOL    HW2 1911   6.889   3.230   1.301
  338SOL     OW 1912   2.861   3.036   1.745
  338SOL    HW1 1913   2.898   2.987   1.823
  338SOL    HW2 1914   2.925   3.108   1.716
  339SOL     OW 1915   3.856   0.492   2.905
  339SOL    HW1 1916   3.904   0.407   2.928
  339SOL    HW2 1917   3.788   0.473   2.835
  340SOL     OW 1918   5.524   4.367   4.694
  340SOL    HW1 1919   5.606   4.408   4.654
  340SOL    HW2 1920   5.542   4.271   4.714
  341SOL     OW 1921   5.439   6.225   4.391
  341SOL    HW1 1922   5.509   6.188   4.331
  341SOL    HW2 1923   5.363   6.260   4.337
  342SOL     OW 1924   5.559   4.389   0.139
  342SOL    HW1 1925   5.575   4.432   0.050
  342SOL    HW2 1926   5.589   4.450   0.212
  343SOL     OW 1927   2.916   6.098   2.056
  343SOL    HW1 1928   2.899   6.139   2.146
  343SOL    HW2 1929   2.839   6.040   2.031
  344SOL     OW 1930   2.037   5.201   0.478
  344SOL    HW1 1931   2.101   5.153   0.539
  344SOL    HW2 1932   2.031   5.153   0.391
  345SOL     OW 1933   0.681   0.602   5.582
  345SOL    HW1 1934   0.697   0.693   5.542
  345SOL    HW2 1935   0.604   0.559   5.536
  346SOL     OW 1936   1.655   0.639   3.175
  346SOL    HW1 1937   1.584   0.607   3.237
  346SOL    HW2 1938   1.622   0.636   3.081
  347SOL     OW 1939   5.533   0.077   6.660
  347SOL    HW1 1940   5.479   0.146   6.709
  347SOL    HW2 1941   5.535   0.100   6.562
  348SOL     OW 1942   3.977   5.178   1.661
  348SOL    HW1 1943   3.899   5.235   1.684
  348SOL    HW2 1944   4.057   5.235   1.646
  349SOL     OW 1945   0.512   4.354   2.259
  349SOL    HW1 1946   0.565   4.376   2.177
  349SOL    HW2 1947   0.454   4.275   2.242
  350SOL     OW 1948   4.015   3.700   1.659
  350SOL    HW1 1949   4.048   3.715   1.753
  350SOL    HW2 1950   3.940   3.634   1.660
  351SOL     OW 1951   2.727   2.214   0.661
  351SOL    HW1 1952   2.761   2.226   0.755
  351SOL    HW2 1953   2.750   2.295   0.607
  352SOL     OW 1954   3.642   0.610   5.082
  352SOL    HW1 1955   3.579   0.647   5.151
  352SOL    HW2 1956   3.694   0.685   5.041
  353SOL     OW 1957   2.073   6.291   0.347
  353SOL    HW1 1958   2.023   6.376   0.329
  353SOL    HW2 1959   2.171   6.310   0.349
  354SOL     OW 1960   4.026   2.320   0.798
  354SOL    HW1 1961   4.061   2.400   0.846
  354SOL    HW2 1962   4.070   2.237   0.832
  355SOL     OW 1963   6.857   3.112   2.602
  355SOL    HW1 1964   6.886   3.207   2.604
  355SOL    HW2 1965   6.919   3.057   2.658
  356SOL     OW 1966   4.877   5.023   4.945
  356SOL    HW1 1967   4.892   4.954   4.874
  356SOL    HW2 1968   4.851   5.110   4.902
  357SOL     OW 1969   0.646   6.212   5.585
  357SOL    HW1 1970   0.649   6.113   5.598
  357SOL    HW2 1971   0.565   6.249   5.631
  358SOL     OW 1972   6.557   0.268   1.772
  358SOL    HW1 1973   6.555   0.245   1.870
  358SOL    HW2 1974   6.566   0.184   1.719
  359SOL     OW 1975   1.230   2.461   2.543
  359SOL    HW1 1976   1.157   2.428   2.482
  359SOL    HW2 1977   1.230   2.561   2.544
  360SOL     OW 1978   3.696   6.648   6.136
  360SOL    HW1 1979   3.660   6.657   6.043
  360SOL    HW2 1980   3.795   6.659   6.134
  361SOL     OW 1981   5.158   5.647   3.232
  361SOL    HW1 1982   5.085   5.716   3.235
  361SOL    HW2 1983   5.145   5.590   3.151
  362SOL     OW 1984   2.689   4.350   0.208
  362SOL    HW1 1985   2.615   4.326   0.272
  362SOL    HW2 1986   2.741   4.426   0.245
  363SOL     OW 1987   3.760   4.897   4.080
  363SOL    HW1 1988   3.722   4.987   4.103
  363SOL    HW2 1989   3.716   4.863   3.997
  364SOL     OW 1990   0.519   5.347   5.887
  364SOL    HW1 1991   0.494   5.442   5.869
  364SOL    HW2 1992   0.493   5.290   5.809
  365SOL     OW 1993   5.053   5.921   2.482
  365SOL    HW1 1994   5.028   5.946   2.576
  365SOL    HW2 1995   5.129   5.978   2.452
  366SOL     OW 1996   6.219   1.273   0.150
  366SOL    HW1 1997   6.301   1.313   0.111
  366SOL    HW2 1998   6.157   1.346   0.180
  367SOL     OW 1999   5.236   3.198   1.034
  367SOL    HW1 2000   5.293   3.255   0.975
  367SOL    HW2 2001   5.254   3.220   1.129
  368SOL     OW 2002   1.541   4.692   4.860
  368SOL    HW1 2003   1.616   4.756   4.847
  368SOL    HW2 2004   1.572   4.599   4.841
  369SOL     OW 2005   6.502   4.240   1.581
  369SOL    HW1 2006   6.522   4.306   1.654
  369SOL    HW2 2007   6.585   4.188   1.561
  370SOL     OW 2008   2.463   0.487   5.865
  370SOL    HW1 2009   2.535   0.519   5.926
  370SOL    HW2 2010   2.496   0.488   5.771
  371SOL     OW 2011   2.686   3.522   0.071
  371SOL    HW1 2012   2.714   3.616   0.052
  371SOL    HW2 2013   2.729   3.461   0.005
  372SOL     OW 2014   6.902   0.519   5.206
  372SOL    HW1 2015   6.926   0.516   5.303
  372SOL    HW2 2016   6.940   0.602   5.165
  373SOL     OW 2017   0.043   6.485   6.490
  373SOL    HW1 2018   0.057   6.496   6.392
  373SOL    HW2 2019   0.047   6.574   6.535
  374SOL     OW 2020   3.525   0.229   2.862
  374SOL    HW1 2021   3.561   0.305   2.808
  374SOL    HW2 2022   3.426   0.239   2.872
  375SOL     OW 2023   6.441   5.066   3.667
  375SOL    HW1 2024   6.365   5.039   3.727
  375SOL    HW2 2025   6.407   5.126   3.595
  376SOL     OW 2026   1.509   2.840   3.722
  376SOL    HW1 2027   1.470   2.814   3.634
  376SOL    HW2 2028   1.553   2.761   3.764
  377SOL     OW 2029   5.339   2.341   2.698
  377SOL    HW1 2030   5.384   2.422   2.662
  377SOL    HW2 2031   5.406   2.283   2.745
  378SOL     OW 2032   3.878   3.576   5.765
  378SOL    HW1 2033   3.818   3.523   5.704
  378SOL    HW2 2034   3.974   3.561   5.739
  379SOL     OW 2035   5.896   3.403   1.354
  379SOL    HW1 2036   5.945   3.437   1.435
  379SOL    HW2 2037   5.813   3.458   1.340
  380SOL     OW 2038   1.345   1.635   0.999
  380SOL    HW1 2039   1.314   1.540   0.999
  380SOL    HW2 2040   1.363   1.664   1.093
  381SOL     OW 2041   3.217   4.868   1.520
  381SOL    HW1 2042   3.145   4.905   1.579
  381SOL    HW2 2043   3.284   4.820   1.577
  382SOL     OW 2044   3.273   5.991   0.352
  382SOL    HW1 2045   3.364   5.954   0.337
  382SOL    HW2 2046   3.208   5.947   0.290
  383SOL     OW 2047   6.822   2.670   6.512
  383SOL    HW1 2048   6.742   2.649   6.456
  383SOL    HW2 2049   6.852   2.587   6.560
  384SOL     OW 2050   0.363   5.565   5.794
  384SOL    HW1 2051   0.300   5.536   5.722
  384SOL    HW2 2052   0.312   5.574   5.880
  385SOL     OW 2053   4.658   6.164   0.583
  385SOL    HW1 2054   4.627   6.181   0.677
  385SOL    HW2 2055   4.678   6.250   0.538
  386SOL     OW 2056   4.003   6.614   4.885
  386SOL    HW1 2057   3.905   6.631   4.888
  386SOL    HW2 2058   4.027   6.567   4.800
  387SOL     OW 2059   0.090   0.557   4.141
  387SOL    HW1 2060   0.067   0.539   4.046
  387SOL    HW2 2061   0.189   0.551   4.154
  388SOL     OW 2062   7.010   3.015   5.362
  388SOL    HW1 2063   6.927   3.070   5.357
  388SOL    HW2 2064   0.002   2.985   5.457
  389SOL     OW 2065   4.374   4.454   1.733
  389SOL    HW1 2066   4.281   4.430   1.704
  389SOL    HW2 2067   4.407   4.385   1.797
  390SOL     OW 2068   3.991   1.183   0.480
  390SOL    HW1 2069   3.995   1.198   0.381
  390SOL    HW2 2070   3.918   1.238   0.519
  391SOL     OW 2071   3.226   4.021   6.310
  391SOL    HW1 2072   3.219   4.113   6.271
  391SOL    HW2 2073   3.207   3.953   6.239
  392SOL     OW 2074   1.517   3.932   1.881
  392SOL    HW1 2075   1.556   3.872   1.812
  392SOL    HW2 2076   1.573   4.014   1.891
  393SOL     OW 2077   0.665   4.519   0.747
  393SOL    HW1 2078   0.704   4.500   0.838
  393SOL    HW2 2079   0.640   4.433   0.703
  394SOL     OW 2080   6.388   2.528   6.675
  394SOL    HW1 2081   6.434   2.575   6.750
  394SOL    HW2 2082   6.304   2.576   6.651
  395SOL     OW 2083   4.674   4.463   1.887
  395SOL    HW1 2084   4.659   4.448   1.790
  395SOL    HW2 2085   4.626   4.393   1.940
  396SOL     OW 2086   2.996   1.954   2.741
  396SOL    HW1 2087   3.059   2.009   2.686
  396SOL    HW2 2088   3.035   1.940   2.832
  397SOL     OW 2089   4.678   1.286   5.146
  397SOL    HW1 2090   4.730   1.209   5.183
  397SOL    HW2 2091   4.656   1.267   5.050
  398SOL     OW 2092   1.528   0.236   4.634
  398SOL    HW1 2093   1.574   0.164   4.582
  398SOL    HW2 2094   1.577   0.322   4.621
  399SOL     OW 2095   5.040   5.342   3.867
  399SOL    HW1 2096   5.017   5.266   3.929
  399SOL    HW2 2097   4.962   5.362   3.808
  400SOL     OW 2098   6.007   0.768   4.468
  400SOL    HW1 2099   5.923   0.715   4.459
  400SOL    HW2 2100   6.024   0.820   4.385
  401SOL     OW 2101   6.505   6.707   5.738
  401SOL    HW1 2102   6.431   6.641   5.728
  401SOL    HW2 2103   6.488   6.764   5.819
  402SOL     OW 2104   6.523   0.008   2.649
  402SOL    HW1 2105   6.446   0.039   2.593
  402SOL    HW2 2106   6.607   0.053   2.617
  403SOL     OW 2107   2.762   0.803   6.454
  403SOL    HW1 2108   2.828   0.730   6.438
  403SOL    HW2 2109   2.670   0.764   6.461
  404SOL     OW 2110   3.629   5.451   5.431
  404SOL    HW1 2111   3.670   5.386   5.367
  404SOL    HW2 2112   3.690   5.464   5.509
  405SOL     OW 2113   2.116   4.091   3.523
  405SOL    HW1 2114   2.185   4.133   3.582
  405SOL    HW2 2115   2.137   4.111   3.427
  406SOL     OW 2116   0.247   5.166   5.795
  406SOL    HW1 2117   0.166   5.151   5.739
  406SOL    HW2 2118   0.228   5.235   5.864
  407SOL     OW 2119   1.442   3.076   4.034
  407SOL    HW1 2120   1.481   3.020   4.107
  407SOL    HW2 2121   1.505   3.080   3.957
  408SOL     OW 2122   3.060   1.334   3.103
  408SOL    HW1 2123   2.984   1.360   3.043
  408SOL    HW2 2124   3.123   1.412   3.112
  409SOL     OW 2125   1.286   4.090   2.614
  409SOL    HW1 2126   1.368   4.143   2.596
  409SOL    HW2 2127   1.311   3.997   2.641
  410SOL     OW 2128   1.638   2.463   1.337
  410SOL    HW1 2129   1.566   2.528   1.362
  410SOL    HW2 2130   1.671   2.417   1.419
  411SOL     OW 2131   0.290   2.259   1.620
  411SOL    HW1 2132   0.327   2.206   1.695
  411SOL    HW2 2133   0.363   2.312   1.577
  412SOL     OW 2134   2.105   5.022   2.650
  412SOL    HW1 2135   2.027   4.993   2.706
  412SOL    HW2 2136   2.128   4.948   2.586
  413SOL     OW 2137   4.263   4.947   2.709
  413SOL    HW1 2138   4.196   4.917   2.641
  413SOL    HW2 2139   4.271   5.046   2.707
  414SOL     OW 2140   2.825   6.687   3.771
  414SOL    HW1 2141   2.783   6.695   3.681
  414SOL    HW2 2142   2.778   6.616   3.823
  415SOL     OW 2143   6.530   0.482   0.456
  415SOL    HW1 2144   6.481   0.395   0.464
  415SOL    HW2 2145   6.479   0.554   0.503
  416SOL     OW 2146   4.943   3.653   4.769
  416SOL    HW1 2147   4.899   3.611   4.849
  416SOL    HW2 2148   5.040   3.629   4.769
  417SOL     OW 2149   3.731   2.244   6.757
  417SOL    HW1 2150   3.764   2.255   6.663
  417SOL    HW2 2151   3.631   2.235   6.756
  418SOL     OW 2152   3.460   6.173   3.993
  418SOL    HW1 2153   3.416   6.228   4.064
  418SOL    HW2 2154   3.559   6.186   3.998
  419SOL     OW 2155   0.782   0.055   1.798
  419SOL    HW1 2156   0.816   0.137   1.844
  419SOL    HW2 2157   0.856   7.012   1.786
  420SOL     OW 2158   6.202   0.403   6.504
  420SOL    HW1 2159   6.146   0.353   6.438
  420SOL    HW2 2160   6.266   0.462   6.456
  421SOL     OW 2161   5.199   3.845   3.911
  421SOL    HW1 2162   5.210   3.787   3.992
  421SOL    HW2 2163   5.134   3.918   3.931
  422SOL     OW 2164   5.517   2.657   1.931
  422SOL    HW1 2165   5.589   2.714   1.891
  422SOL    HW2 2166   5.533   2.647   2.029
  423SOL     OW 2167   3.185   1.246   6.439
  423SOL    HW1 2168   3.279   1.271   6.460
  423SOL    HW2 2169   3.122   1.313   6.478
  424SOL     OW 2170   1.533   4.405   3.052
  424SOL    HW1 2171   1.473   4.472   3.008
  424SOL    HW2 2172   1.479   4.347   3.113
  425SOL     OW 2173   3.700   0.436   5.606
  425SOL    HW1 2174   3.719   0.521   5.656
  425SOL    HW2 2175   3.779   0.375   5.612
  426SOL     OW 2176   2.532   2.429   4.509
  426SOL    HW1 2177   2.612   2.381   4.545
  426SOL    HW2 2178   2.520   2.515   4.559
  427SOL     OW 2179   4.017   2.040   3.248
  427SOL    HW1 2180   3.951   2.065   3.178
  427SOL    HW2 2181   4.078   1.968   3.213
  428SOL     OW 2182   2.711   1.407   5.023
  428SOL    HW1 2183   2.622   1.363   5.019
  428SOL    HW2 2184   2.781   1.345   4.988
  429SOL     OW 2185   0.859   6.160   3.721
  429SOL    HW1 2186   0.825   6.232   3.660
  429SOL    HW2 2187   0.880   6.078   3.667
  430SOL     OW 2188   1.868   6.794   3.593
  430SOL    HW1 2189   1.856   6.796   3.693
  430SOL    HW2 2190   1.965   6.802   3.571
  431SOL     OW 2191   2.530   2.077   2.020
  431SOL    HW1 2192   2.611   2.130   1.996
  431SOL    HW2 2193   2.461   2.088   1.948
  432SOL     OW 2194   4.216   2.519   1.425
  432SOL    HW1 2195   4.206   2.581   1.503
  432SOL    HW2 2196   4.258   2.433   1.456
  433SOL     OW 2197   2.168   6.706   7.005
  433SOL    HW1 2198   2.219   6.703   0.069
  433SOL    HW2 2199   2.215   6.651   6.936
  434SOL     OW 2200   4.043   6.571   3.837
  434SOL    HW1 2201   4.061   6.516   3.918
  434SOL    HW2 2202   3.987   6.519   3.773
  435SOL     OW 2203   2.990   1.483   6.062
  435SOL    HW1 2204   2.912   1.501   6.123
  435SOL    HW2 2205   3.031   1.570   6.034
  436SOL     OW 2206   4.562   0.049   3.087
  436SOL    HW1 2207   4.533   6.976   3.074
  436SOL    HW2 2208   4.650   0.064   3.042
  437SOL     OW 2209   6.854   0.058   4.432
  437SOL    HW1 2210   6.798   0.128   4.476
  437SOL    HW2 2211   6.948   0.092   4.423
  438SOL     OW 2212   0.959   4.587   2.744
  438SOL    HW1 2213   0.978   4.615   2.650
  438SOL    HW2 2214   0.863   4.564   2.754
  439SOL     OW 2215   5.676   0.557   2.844
  439SOL    HW1 2216   5.702   0.533   2.937
  439SOL    HW2 2217   5.600   0.623   2.846
  440SOL     OW 2218   4.281   0.923   0.604
  440SOL    HW1 2219   4.374   0.885   0.600
  440SOL    HW2 2220   4.284   1.020   0.579
  441SOL     OW 2221   0.386   4.350   2.707
  441SOL    HW1 2222   0.350   4.355   2.614
  441SOL    HW2 2223   0.401   4.442   2.743
  442SOL     OW 2224   5.650   3.452   5.393
  442SOL    HW1 2225   5.566   3.468   5.340
  442SOL    HW2 2226   5.642   3.498   5.481
  443SOL     OW 2227   4.983   3.635   2.745
  443SOL    HW1 2228   4.981   3.607   2.841
  443SOL    HW2 2229   5.054   3.584   2.697
  444SOL     OW 2230   4.246   1.123   1.399
  444SOL    HW1 2231   4.166   1.106   1.342
  444SOL    HW2 2232   4.265   1.043   1.456
  445SOL     OW 2233   1.617   5.192   2.368
  445SOL    HW1 2234   1.617   5.165   2.271
  445SOL    HW2 2235   1.696   5.250   2.386
  446SOL     OW 2236   5.693   6.722   1.971
  446SOL    HW1 2237   5.753   6.762   1.901
  446SOL    HW2 2238   5.703   6.773   2.056
  447SOL     OW 2239   5.863   3.718   7.019
  447SOL    HW1 2240   5.951   3.704   0.043
  447SOL    HW2 2241   5.802   3.770   0.057
  448SOL     OW 2242   2.527   0.207   3.174
  448SOL    HW1 2243   2.604   0.271   3.174
  448SOL    HW2 2244   2.467   0.228   3.251
  449SOL     OW 2245   1.902   2.949   4.425
  449SOL    HW1 2246   1.857   2.867   4.462
  449SOL    HW2 2247   1.935   2.929   4.333
  450SOL     OW 2248   0.593   4.137   3.435
  450SOL    HW1 2249   0.536   4.055   3.438
  450SOL    HW2 2250   0.673   4.120   3.377
  451SOL     OW 2251   1.000   2.388   2.785
  451SOL    HW1 2252   1.049   2.432   2.710
  451SOL    HW2 2253   1.053   2.310   2.818
  452SOL     OW 2254   4.691   6.078   3.187
  452SOL    HW1 2255   4.604   6.116   3.217
  452SOL    HW2 2256   4.723   6.126   3.106
  453SOL     OW 2257   3.856   0.720   0.219
  453SOL    HW1 2258   3.763   0.693   0.194
  453SOL    HW2 2259   3.886   0.665   0.298
  454SOL     OW 2260   0.267   4.449   6.431
  454SOL    HW1 2261   0.283   4.499   6.346
  454SOL    HW2 2262   0.189   4.388   6.419
  455SOL     OW 2263   6.363   4.696   6.183
  455SOL    HW1 2264   6.396   4.715   6.275
  455SOL    HW2 2265   6.346   4.782   6.135
  456SOL     OW 2266   2.494   0.902   2.516
  456SOL    HW1 2267   2.443   0.932   2.435
  456SOL    HW2 2268   2.438   0.918   2.597
  457SOL     OW 2269   2.280   6.945   6.307
  457SOL    HW1 2270   2.221   7.016   6.267
  457SOL    HW2 2271   2.227   6.891   6.372
  458SOL     OW 2272   2.079   1.670   3.432
  458SOL    HW1 2273   2.042   1.700   3.344
  458SOL    HW2 2274   2.174   1.702   3.441
  459SOL     OW 2275   2.417   0.246   4.701
  459SOL    HW1 2276   2.377   0.241   4.792
  459SOL    HW2 2277   2.444   0.155   4.670
  460SOL     OW 2278   1.189   1.790   4.752
  460SOL    HW1 2279   1.232   1.880   4.758
  460SOL    HW2 2280   1.152   1.777   4.660
  461SOL     OW 2281   0.875   5.212   5.864
  461SOL    HW1 2282   0.937   5.291   5.861
  461SOL    HW2 2283   0.924   5.134   5.904
  462SOL     OW 2284   3.286   4.133   4.593
  462SOL    HW1 2285   3.206   4.074   4.580
  462SOL    HW2 2286   3.307   4.179   4.507
  463SOL     OW 2287   6.062   6.782   2.490
  463SOL    HW1 2288   6.080   6.786   2.589
  463SOL    HW2 2289   6.148   6.788   2.440
  464SOL     OW 2290   3.893   6.123   6.692
  464SOL    HW1 2291   3.893   6.058   6.768
  464SOL    HW2 2292   3.904   6.073   6.606
  465SOL     OW 2293   1.628   2.866   6.903
  465SOL    HW1 2294   1.623   2.930   6.980
  465SOL    HW2 2295   1.536   2.837   6.878
  466SOL     OW 2296   3.826   5.812   4.570
  466SOL    HW1 2297   3.909   5.852   4.529
  466SOL    HW2 2298   3.849   5.770   4.657
  467SOL     OW 2299   6.134   0.689   2.108
  467SOL    HW1 2300   6.102   0.654   2.196
  467SOL    HW2 2301   6.193   0.620   2.064
  468SOL     OW 2302   4.064   6.848   6.814
  468SOL    HW1 2303   4.123   6.903   6.755
  468SOL    HW2 2304   4.118   6.814   6.891
  469SOL     OW 2305   2.662   5.018   5.720
  469SOL    HW1 2306   2.586   5.034   5.783
  469SOL    HW2 2307   2.626   4.992   5.630
  470SOL     OW 2308   2.189   5.009   3.036
  470SOL    HW1 2309   2.279   5.021   2.993
  470SOL    HW2 2310   2.191   4.928   3.094
  471SOL     OW 2311   2.671   2.307   4.008
  471SOL    HW1 2312   2.587   2.319   3.955
  471SOL    HW2 2313   2.654   2.329   4.104
  472SOL     OW 2314   6.556   4.301   6.048
  472SOL    HW1 2315   6.603   4.221   6.085
  472SOL    HW2 2316   6.469   4.314   6.095
  473SOL     OW 2317   6.508   2.749   2.916
  473SOL    HW1 2318   6.482   2.844   2.931
  473SOL    HW2 2319   6.608   2.742   2.910
  474SOL     OW 2320   4.956   5.904   4.436
  474SOL    HW1 2321   5.021   5.937   4.505
  474SOL    HW2 2322   4.993   5.823   4.391
  475SOL     OW 2323   5.807   1.080   1.434
  475SOL    HW1 2324   5.789   1.175   1.411
  475SOL    HW2 2325   5.809   1.068   1.533
  476SOL     OW 2326   0.631   4.649   1.565
  476SOL    HW1 2327   0.726   4.673   1.545
  476SOL    HW2 2328   0.573   4.729   1.551
  477SOL     OW 2329   1.514   4.526   3.623
  477SOL    HW1 2330   1.462   4.513   3.538
  477SOL    HW2 2331   1.454   4.567   3.692
  478SOL     OW 2332   4.513   5.722   1.506
  478SOL    HW1 2333   4.583   5.741   1.437
  478SOL    HW2 2334   4.523   5.787   1.581
  479SOL     OW 2335   3.898   4.013   4.118
  479SOL    HW1 2336   3.800   4.030   4.113
  479SOL    HW2 2337   3.945   4.069   4.050
  480SOL     OW 2338   2.288   0.181   2.801
  480SOL    HW1 2339   2.238   0.175   2.887
  480SOL    HW2 2340   2.344   0.264   2.800
  481SOL     OW 2341   0.409   0.204   0.726
  481SOL    HW1 2342   0.432   0.125   0.783
  481SOL    HW2 2343   0.409   0.286   0.783
  482SOL     OW 2344   4.782   5.075   1.689
  482SOL    HW1 2345   4.853   5.085   1.619
  482SOL    HW2 2346   4.701   5.127   1.661
  483SOL     OW 2347   5.292   2.246   3.100
  483SOL    HW1 2348   5.376   2.192   3.088
  483SOL    HW2 2349   5.282   2.272   3.196
  484SOL     OW 2350   2.174   4.037   4.231
  484SOL    HW1 2351   2.181   3.947   4.273
  484SOL    HW2 2352   2.158   4.027   4.133
  485SOL     OW 2353   5.252   3.253   1.741
  485SOL    HW1 2354   5.154   3.234   1.743
  485SOL    HW2 2355   5.286   3.263   1.835
  486SOL     OW 2356   5.699   6.455   5.884
  486SOL    HW1 2357   5.745   6.491   5.803
  486SOL    HW2 2358   5.709   6.355   5.887
  487SOL     OW 2359   0.063   6.614   4.901
  487SOL    HW1 2360   0.156   6.591   4.872
  487SOL    HW2 2361   0.047   6.577   4.993
  488SOL     OW 2362   1.288   6.061   3.856
  488SOL    HW1 2363   1.346   6.143   3.854
  488SOL    HW2 2364   1.336   5.988   3.905
  489SOL     OW 2365   0.516   5.780   5.851
  489SOL    HW1 2366   0.440   5.716   5.839
  489SOL    HW2 2367   0.594   5.731   5.890
  490SOL     OW 2368   1.303   4.975   5.788
  490SOL    HW1 2369   1.328   5.059   5.739
  490SOL    HW2 2370   1.382   4.941   5.839
  491SOL     OW 2371   0.161   2.460   1.048
  491SOL    HW1 2372   0.193   2.424   1.136
  491SOL    HW2 2373   0.092   2.530   1.065
  492SOL     OW 2374   1.478   1.859   5.983
  492SOL    HW1 2375   1.536   1.785   5.949
  492SOL    HW2 2376   1.425   1.897   5.908
  493SOL     OW 2377   2.441   6.119   4.840
  493SOL    HW1 2378   2.349   6.158   4.836
  493SOL    HW2 2379   2.499   6.178   4.897
  494SOL     OW 2380   2.152   6.567   5.185
  494SOL    HW1 2381   2.103   6.654   5.179
  494SOL    HW2 2382   2.170   6.533   5.093
  495SOL     OW 2383   3.784   5.293   5.882
  495SOL    HW1 2384   3.876   5.256   5.874
  495SOL    HW2 2385   3.766   5.318   5.977
  496SOL     OW 2386   4.936   1.705   2.663
  496SOL    HW1 2387   4.915   1.694   2.760
  496SOL    HW2 2388   4.991   1.787   2.650
  497SOL     OW 2389   3.367   1.111   0.068
  497SOL    HW1 2390   3.450   1.070   0.105
  497SOL    HW2 2391   3.388   1.200   0.029
  498SOL     OW 2392   0.461   5.798   1.761
  498SOL    HW1 2393   0.391   5.726   1.760
  498SOL    HW2 2394   0.470   5.837   1.669
  499SOL     OW 2395   3.328   6.176   0.032
  499SOL    HW1 2396   3.307   6.189   0.129
  499SOL    HW2 2397   3.282   6.246   7.000
  500SOL     OW 2398   5.812   1.718   0.389
  500SOL    HW1 2399   5.829   1.809   0.428
  500SOL    HW2 2400   5.806   1.651   0.463
  501SOL     OW 2401   1.161   0.326   2.960
  501SOL    HW1 2402   1.133   0.412   2.917
  501SOL    HW2 2403   1.135   0.327   3.056
  502SOL     OW 2404   1.851   5.209   6.429
  502SOL    HW1 2405   1.811   5.139   6.371
  502SOL    HW2 2406   1.872   5.170   6.519
  503SOL     OW 2407   3.714   4.931   6.699
  503SOL    HW1 2408   3.808   4.918   6.729
  503SOL    HW2 2409   3.659   4.966   6.775
  504SOL     OW 2410   6.168   6.538   1.943
  504SOL    HW1 2411   6.127   6.451   1.972
  504SOL    HW2 2412   6.262   6.522   1.914
  505SOL     OW 2413   4.809   6.685   4.727
  505SOL    HW1 2414   4.891   6.740   4.746
  505SOL    HW2 2415   4.773   6.647   4.812
  506SOL     OW 2416   3.775   5.086   3.041
  506SOL    HW1 2417   3.871   5.084   3.015
  506SOL    HW2 2418   3.727   5.009   2.998
  507SOL     OW 2419   3.687   0.527   0.771
  507SOL    HW1 2420   3.625   0.585   0.824
  507SOL    HW2 2421   3.677   0.547   0.673
  508SOL     OW 2422   6.874   5.129   4.127
  508SOL    HW1 2423   6.882   5.097   4.032
  508SOL    HW2 2424   6.902   5.057   4.189
  509SOL     OW 2425   4.554   6.595   5.661
  509SOL    HW1 2426   4.602   6.608   5.574
  509SOL    HW2 2427   4.611   6.542   5.724
  510SOL     OW 2428   6.834   3.893   6.970
  510SOL    HW1 2429   6.908   3.827   6.977
  510SOL    HW2 2430   6.750   3.847   6.940
  511SOL     OW 2431   0.948   1.826   0.834
  511SOL    HW1 2432   0.916   1.920   0.847
  511SOL    HW2 2433   1.048   1.825   0.828
  512SOL     OW 2434   6.634   2.563   6.333
  512SOL    HW1 2435   6.589   2.483   6.374
  512SOL    HW2 2436   6.567   2.636   6.322
  513SOL     OW 2437   5.410   0.458   2.740
  513SOL    HW1 2438   5.426   0.405   2.657
  513SOL    HW2 2439   5.479   0.529   2.749
  514SOL     OW 2440   6.214   6.708   4.160
  514SOL    HW1 2441   6.171   6.797   4.143
  514SOL    HW2 2442   6.174   6.667   4.242
  515SOL     OW 2443   3.692   6.665   6.625
  515SOL    HW1 2444   3.766   6.598   6.635
  515SOL    HW2 2445   3.697   6.708   6.536
  516SOL     OW 2446   2.033   5.553   1.506
  516SOL    HW1 2447   1.938   5.525   1.500
  516SOL    HW2 2448   2.076   5.510   1.585
  517SOL     OW 2449   3.327   5.180   2.281
  517SOL    HW1 2450   3.348   5.089   2.246
  517SOL    HW2 2451   3.391   5.203   2.354
  518SOL     OW 2452   2.076   3.474   3.435
  518SOL    HW1 2453   2.113   3.381   3.432
  518SOL    HW2 2454   2.086   3.510   3.528
  519SOL     OW 2455   0.261   6.804   3.568
  519SOL    HW1 2456   0.360   6.819   3.567
  519SOL    HW2 2457   0.219   6.849   3.489
  520SOL     OW 2458   1.673   3.241   0.288
  520SOL    HW1 2459   1.615   3.319   0.268
  520SOL    HW2 2460   1.704   3.245   0.383
  521SOL     OW 2461   5.323   4.944   5.494
  521SOL    HW1 2462   5.235   4.943   5.447
  521SOL    HW2 2463   5.395   4.914   5.431
  522SOL     OW 2464   4.333   3.977   1.470
  522SOL    HW1 2465   4.237   3.954   1.481
  522SOL    HW2 2466   4.385   3.942   1.548
  523SOL     OW 2467   0.549   6.406   2.020
  523SOL    HW1 2468   0.646   6.428   2.022
  523SOL    HW2 2469   0.535   6.319   1.971
  524SOL     OW 2470   6.962   2.127   1.774
  524SOL    HW1 2471   6.916   2.174   1.698
  524SOL    HW2 2472   6.997   2.195   1.838
  525SOL     OW 2473   1.746   3.999   6.525
  525SOL    HW1 2474   1.801   4.053   6.462
  525SOL    HW2 2475   1.780   3.905   6.528
  526SOL     OW 2476   2.923   6.964   4.652
  526SOL    HW1 2477   2.881   0.007   4.589
  526SOL    HW2 2478   3.019   6.952   4.628
  527SOL     OW 2479   0.918   1.919   0.398
  527SOL    HW1 2480   1.015   1.936   0.417
  527SOL    HW2 2481   0.873   1.885   0.480
  528SOL     OW 2482   6.422   2.991   4.290
  528SOL    HW1 2483   6.399   3.069   4.231
  528SOL    HW2 2484   6.343   2.970   4.349
  529SOL     OW 2485   2.194   0.514   5.924
  529SOL    HW1 2486   2.210   0.500   6.022
  529SOL    HW2 2487   2.280   0.505   5.874
  530SOL     OW 2488   3.457   3.745   0.942
  530SOL    HW1 2489   3.453   3.651   0.975
  530SOL    HW2 2490   3.442   3.807   1.019
  531SOL     OW 2491   2.223   0.655   1.957
  531SOL    HW1 2492   2.131   0.653   1.994
  531SOL    HW2 2493   2.223   0.616   1.865
  532SOL     OW 2494   2.842   2.431   0.531
  532SOL    HW1 2495   2.856   2.382   0.445
  532SOL    HW2 2496   2.899   2.513   0.532
  533SOL     OW 2497   3.829   0.264   3.828
  533SOL    HW1 2498   3.779   0.180   3.804
  533SOL    HW2 2499   3.817   0.332   3.756
  534SOL     OW 2500   1.328   5.236   1.423
  534SOL    HW1 2501   1.266   5.268   1.495
  534SOL    HW2 2502   1.364   5.146   1.447
  535SOL     OW 2503   5.357   3.622   3.597
  535SOL    HW1 2504   5.334   3.557   3.524
  535SOL    HW2 2505   5.337   3.715   3.566
  536SOL     OW 2506   6.523   6.215   2.994
  536SOL    HW1 2507   6.547   6.279   2.921
  536SOL    HW2 2508   6.447   6.252   3.046
  537SOL     OW 2509   3.537   0.810   4.597
  537SOL    HW1 2510   3.531   0.871   4.518
  537SOL    HW2 2511   3.504   0.859   4.678
  538SOL     OW 2512   2.632   4.692   5.672
  538SOL    HW1 2513   2.643   4.712   5.574
  538SOL    HW2 2514   2.540   4.716   5.700
  539SOL     OW 2515   0.890   6.337   0.368
  539SOL    HW1 2516   0.863   6.375   0.457
  539SOL    HW2 2517   0.816   6.350   0.302
  540SOL     OW 2518   1.002   0.409   3.906
  540SOL    HW1 2519   0.995   0.316   3.868
  540SOL    HW2 2520   0.992   0.405   4.005
  541SOL     OW 2521   4.182   6.468   4.369
  541SOL    HW1 2522   4.278   6.443   4.382
  541SOL    HW2 2523   4.175   6.533   4.293
  542SOL     OW 2524   2.810   6.489   6.812
  542SOL    HW1 2525   2.753   6.499   6.893
  542SOL    HW2 2526   2.852   6.398   6.811
  543SOL     OW 2527   5.309   2.309   4.583
  543SOL    HW1 2528   5.387   2.252   4.559
  543SOL    HW2 2529   5.306   2.389   4.523
  544SOL     OW 2530   0.641   4.269   0.634
  544SOL    HW1 2531   0.724   4.216   0.651
  544SOL    HW2 2532   0.564   4.227   0.681
  545SOL     OW 2533   5.385   1.115   1.756
  545SOL    HW1 2534   5.356   1.194   1.702
  545SOL    HW2 2535   5.304   1.063   1.785
  546SOL     OW 2536   0.610   3.997   2.357
  546SOL    HW1 2537   0.674   4.000   2.434
  546SOL    HW2 2538   0.587   3.902   2.336
  547SOL     OW 2539   4.615   1.423   6.842
  547SOL    HW1 2540   4.710   1.414   6.873
  547SOL    HW2 2541   4.594   1.352   6.775
  548SOL     OW 2542   3.605   2.843   0.120
  548SOL    HW1 2543   3.685   2.901   0.106
  548SOL    HW2 2544   3.609   2.766   0.056
  549SOL     OW 2545   5.906   2.078   1.132
  549SOL    HW1 2546   5.992   2.128   1.126
  549SOL    HW2 2547   5.906   2.021   1.214
  550SOL     OW 2548   0.151   4.484   3.108
  550SOL    HW1 2549   0.244   4.460   3.135
  550SOL    HW2 2550   0.100   4.400   3.085
  551SOL     OW 2551   0.016   0.720   0.339
  551SOL    HW1 2552   6.944   0.686   0.339
  551SOL    HW2 2553   0.054   0.712   0.432
  552SOL     OW 2554   5.718   5.536   5.961
  552SOL    HW1 2555   5.815   5.514   5.976
  552SOL    HW2 2556   5.708   5.583   5.873
  553SOL     OW 2557   3.487   1.265   5.609
  553SOL    HW1 2558   3.409   1.264   5.546
  553SOL    HW2 2559   3.561   1.210   5.571
  554SOL     OW 2560   5.955   5.689   0.611
  554SOL    HW1 2561   6.012   5.770   0.626
  554SOL    HW2 2562   5.859   5.715   0.618
  555SOL     OW 2563   2.201   5.410   5.474
  555SOL    HW1 2564   2.208   5.398   5.375
  555SOL    HW2 2565   2.279   5.465   5.506
  556SOL     OW 2566   4.919   1.571   3.726
  556SOL    HW1 2567   4.846   1.521   3.772
  556SOL    HW2 2568   4.881   1.656   3.687
  557SOL     OW 2569   6.337   4.784   5.763
  557SOL    HW1 2570   6.249   4.740   5.745
  557SOL    HW2 2571   6.391   4.786   5.678
  558SOL     OW 2572   3.431   3.707   2.596
  558SOL    HW1 2573   3.458   3.802   2.583
  558SOL    HW2 2574   3.346   3.703   2.649
  559SOL     OW 2575   6.280   6.249   5.591
  559SOL    HW1 2576   6.269   6.218   5.686
  559SOL    HW2 2577   6.242   6.180   5.530
  560SOL     OW 2578   6.500   3.350   3.255
  560SOL    HW1 2579   6.407   3.383   3.244
  560SOL    HW2 2580   6.499   3.253   3.280
  561SOL     OW 2581   0.774   2.927   6.137
  561SOL    HW1 2582   0.713   2.960   6.209
  561SOL    HW2 2583   0.835   3.001   6.108
  562SOL     OW 2584   4.222   0.514   5.823
  562SOL    HW1 2585   4.168   0.576   5.767
  562SOL    HW2 2586   4.284   0.462   5.765
  563SOL     OW 2587   1.477   2.125   4.227
  563SOL    HW1 2588   1.461   2.038   4.273
  563SOL    HW2 2589   1.423   2.129   4.143
  564SOL     OW 2590   0.189   2.166   5.046
  564SOL    HW1 2591   0.289   2.169   5.058
  564SOL    HW2 2592   0.154   2.081   5.086
  565SOL     OW 2593   3.258   2.904   3.503
  565SOL    HW1 2594   3.217   2.991   3.529
  565SOL    HW2 2595   3.237   2.835   3.573
  566SOL     OW 2596   3.492   5.913   3.079
  566SOL    HW1 2597   3.447   5.970   3.148
  566SOL    HW2 2598   3.569   5.963   3.040
  567SOL     OW 2599   2.313   2.173   6.532
  567SOL    HW1 2600   2.355   2.261   6.509
  567SOL    HW2 2601   2.358   2.101   6.479
  568SOL     OW 2602   6.601   0.327   1.012
  568SOL    HW1 2603   6.584   0.397   0.943
  568SOL    HW2 2604   6.688   0.282   0.994
  569SOL     OW 2605   0.290   1.970   0.427
  569SOL    HW1 2606   0.331   1.918   0.352
  569SOL    HW2 2607   0.283   1.911   0.508
  570SOL     OW 2608   2.984   0.304   6.395
  570SOL    HW1 2609   2.892   0.338   6.412
  570SOL    HW2 2610   3.004   0.229   6.458
  571SOL     OW 2611   2.910   4.767   2.974
  571SOL    HW1 2612   2.882   4.738   2.883
  571SOL    HW2 2613   2.829   4.789   3.029
  572SOL     OW 2614   2.246   6.379   4.121
  572SOL    HW1 2615   2.203   6.440   4.187
  572SOL    HW2 2616   2.331   6.420   4.089
  573SOL     OW 2617   6.025   2.297   5.713
  573SOL    HW1 2618   6.057   2.210   5.750
  573SOL    HW2 2619   5.939   2.283   5.664
  574SOL     OW 2620   2.526   1.845   5.091
  574SOL    HW1 2621   2.514   1.746   5.102
  574SOL    HW2 2622   2.475   1.893   5.163
  575SOL     OW 2623   3.129   3.543   6.886
  575SOL    HW1 2624   3.087   3.560   6.975
  575SOL    HW2 2625   3.169   3.628   6.851
  576SOL     OW 2626   1.913   3.086   2.802
  576SOL    HW1 2627   1.918   3.119   2.896
  576SOL    HW2 2628   1.988   3.125   2.749
  577SOL     OW 2629   1.209   1.422   2.264
  577SOL    HW1 2630   1.227   1.414   2.363
  577SOL    HW2 2631   1.295   1.440   2.216
  578SOL     OW 2632   2.090   5.479   0.084
  578SOL    HW1 2633   2.111   5.393   0.039
  578SOL    HW2 2634   2.108   5.555   0.022
  579SOL     OW 2635   2.571   4.557   2.411
  579SOL    HW1 2636   2.623   4.576   2.328
  579SOL    HW2 2637   2.562   4.641   2.465
  580SOL     OW 2638   4.417   5.613   5.192
  580SOL    HW1 2639   4.509   5.576   5.207
  580SOL    HW2 2640   4.407   5.641   5.097
  581SOL     OW 2641   1.033   2.775   3.632
  581SOL    HW1 2642   0.991   2.735   3.550
  581SOL    HW2 2643   0.961   2.796   3.699
  582SOL     OW 2644   5.736   5.205   3.332
  582SOL    HW1 2645   5.835   5.199   3.345
  582SOL    HW2 2646   5.695   5.114   3.344
  583SOL     OW 2647   3.317   5.216   6.221
  583SOL    HW1 2648   3.307   5.117   6.233
  583SOL    HW2 2649   3.320   5.238   6.123
  584SOL     OW 2650   3.909   0.416   6.639
  584SOL    HW1 2651   3.882   0.413   6.735
  584SOL    HW2 2652   4.004   0.445   6.631
  585SOL     OW 2653   2.398   6.366   1.956
  585SOL    HW1 2654   2.305   6.337   1.978
  585SOL    HW2 2655   2.420   6.450   2.007
  586SOL     OW 2656   3.971   0.230   1.175
  586SOL    HW1 2657   4.060   0.192   1.199
  586SOL    HW2 2658   3.978   0.329   1.167
  587SOL     OW 2659   5.175   2.027   1.721
  587SOL    HW1 2660   5.094   2.005   1.667
  587SOL    HW2 2661   5.176   1.969   1.803
  588SOL     OW 2662   1.355   5.495   1.533
  588SOL    HW1 2663   1.358   5.419   1.468
  588SOL    HW2 2664   1.408   5.572   1.496
  589SOL     OW 2665   3.666   5.647   1.422
  589SOL    HW1 2666   3.566   5.654   1.419
  589SOL    HW2 2667   3.693   5.591   1.500
  590SOL     OW 2668   5.340   1.258   1.014
  590SOL    HW1 2669   5.265   1.269   1.078
  590SOL    HW2 2670   5.304   1.249   0.921
  591SOL     OW 2671   4.379   5.275   4.270
  591SOL    HW1 2672   4.312   5.348   4.284
  591SOL    HW2 2673   4.464   5.315   4.236
  592SOL     OW 2674   4.419   1.754   4.602
  592SOL    HW1 2675   4.393   1.833   4.545
  592SOL    HW2 2676   4.337   1.719   4.647
  593SOL     OW 2677   3.447   1.953   5.402
  593SOL    HW1 2678   3.493   1.998   5.478
  593SOL    HW2 2679   3.385   2.018   5.357
  594SOL     OW 2680   5.652   1.443   1.705
  594SOL    HW1 2681   5.581   1.444   1.776
  594SOL    HW2 2682   5.610   1.466   1.617
  595SOL     OW 2683   5.364   6.337   2.457
  595SOL    HW1 2684   5.361   6.261   2.392
  595SOL    HW2 2685   5.441   6.324   2.519
  596SOL     OW 2686   6.861   3.957   3.613
  596SOL    HW1 2687   6.941   3.938   3.556
  596SOL    HW2 2688   6.889   4.006   3.695
  597SOL     OW 2689   3.057   6.911   6.155
  597SOL    HW1 2690   3.096   6.992   6.199
  597SOL    HW2 2691   3.127   6.841   6.143
  598SOL     OW 2692   2.963   3.952   4.968
  598SOL    HW1 2693   2.889   4.003   4.926
  598SOL    HW2 2694   2.995   3.881   4.905
  599SOL     OW 2695   1.260   5.715   1.901
  599SOL    HW1 2696   1.307   5.758   1.824
  599SOL    HW2 2697   1.172   5.678   1.869
  600SOL     OW 2698   0.095   3.966   4.759
  600SOL    HW1 2699   0.005   3.991   4.723
  600SOL    HW2 2700   0.087   3.884   4.814
  601SOL     OW 2701   1.040   0.742   4.637
  601SOL    HW1 2702   1.105   0.675   4.672
  601SOL    HW2 2703   0.979   0.772   4.711
  602SOL     OW 2704   2.715   6.348   4.702
  602SOL    HW1 2705   2.707   6.368   4.799
  602SOL    HW2 2706   2.652   6.406   4.650
  603SOL     OW 2707   1.497   1.013   5.110
  603SOL    HW1 2708   1.447   1.009   5.023
  603SOL    HW2 2709   1.575   1.075   5.100
  604SOL     OW 2710   6.924   2.535   1.838
  604SOL    HW1 2711   6.928   2.564   1.743
  604SOL    HW2 2712   6.839   2.484   1.854
  605SOL     OW 2713   0.340   4.139   2.201
  605SOL    HW1 2714   0.323   4.192   2.118
  605SOL    HW2 2715   0.253   4.103   2.236
  606SOL     OW 2716   3.818   6.935   5.040
  606SOL    HW1 2717   3.769   6.895   5.117
  606SOL    HW2 2718   3.913   6.905   5.042
  607SOL     OW 2719   1.555   4.849   5.863
  607SOL    HW1 2720   1.572   4.751   5.871
  607SOL    HW2 2721   1.642   4.897   5.849
  608SOL     OW 2722   4.291   0.258   5.912
  608SOL    HW1 2723   4.282   0.256   6.012
  608SOL    HW2 2724   4.297   0.353   5.881
  609SOL     OW 2725   3.830   2.595   1.543
  609SOL    HW1 2726   3.787   2.674   1.585
  609SOL    HW2 2727   3.837   2.521   1.609
  610SOL     OW 2728   4.541   2.885   0.319
  610SOL    HW1 2729   4.468   2.937   0.274
  610SOL    HW2 2730   4.539   2.790   0.287
  611SOL     OW 2731   4.026   0.358   2.479
  611SOL    HW1 2732   4.091   0.397   2.415
  611SOL    HW2 2733   3.933   0.376   2.448
  612SOL     OW 2734   3.823   4.764   6.084
  612SOL    HW1 2735   3.816   4.665   6.071
  612SOL    HW2 2736   3.794   4.787   6.177
  613SOL     OW 2737   5.118   5.854   5.734
  613SOL    HW1 2738   5.188   5.844   5.663
  613SOL    HW2 2739   5.160   5.891   5.817
  614SOL     OW 2740   4.949   5.611   5.772
  614SOL    HW1 2741   4.932   5.569   5.683
  614SOL    HW2 2742   5.009   5.690   5.761
  615SOL     OW 2743   0.268   4.380   1.003
  615SOL    HW1 2744   0.199   4.446   0.974
  615SOL    HW2 2745   0.349   4.428   1.037
  616SOL     OW 2746   6.222   2.752   3.425
  616SOL    HW1 2747   6.247   2.666   3.469
  616SOL    HW2 2748   6.291   2.776   3.357
  617SOL     OW 2749   2.722   5.412   6.152
  617SOL    HW1 2750   2.817   5.381   6.144
  617SOL    HW2 2751   2.676   5.404   6.064
  618SOL     OW 2752   1.015   1.512   1.548
  618SOL    HW1 2753   0.997   1.416   1.526
  618SOL    HW2 2754   1.098   1.519   1.603
  619SOL     OW 2755   1.984   1.985   6.511
  619SOL    HW1 2756   1.911   1.953   6.450
  619SOL    HW2 2757   1.984   1.929   6.594
  620SOL     OW 2758   4.672   2.657   0.511
  620SOL    HW1 2759   4.609   2.705   0.450
  620SOL    HW2 2760   4.701   2.571   0.467
  621SOL     OW 2761   6.601   5.003   0.379
  621SOL    HW1 2762   6.699   4.988   0.367
  621SOL    HW2 2763   6.581   5.101   0.376
  622SOL     OW 2764   1.705   1.401   0.342
  622SOL    HW1 2765   1.679   1.446   0.427
  622SOL    HW2 2766   1.674   1.455   0.264
  623SOL     OW 2767   0.824   4.757   6.209
  623SOL    HW1 2768   0.803   4.783   6.115
  623SOL    HW2 2769   0.908   4.803   6.238
  624SOL     OW 2770   0.470   2.438   2.551
  624SOL    HW1 2771   0.415   2.399   2.625
  624SOL    HW2 2772   0.416   2.508   2.503
  625SOL     OW 2773   2.777   1.287   2.824
  625SOL    HW1 2774   2.801   1.282   2.727
  625SOL    HW2 2775   2.834   1.356   2.869
  626SOL     OW 2776   2.089   6.560   3.608
  626SOL    HW1 2777   2.159   6.557   3.680
  626SOL    HW2 2778   2.104   6.641   3.551
  627SOL     OW 2779   5.295   1.127   0.345
  627SOL    HW1 2780   5.282   1.112   0.443
  627SOL    HW2 2781   5.314   1.040   0.300
  628SOL     OW 2782   4.885   4.625   3.964
  628SOL    HW1 2783   4.982   4.644   3.979
  628SOL    HW2 2784   4.846   4.695   3.903
  629SOL     OW 2785   0.403   6.927   1.571
  629SOL    HW1 2786   0.351   6.939   1.656
  629SOL    HW2 2787   0.486   6.982   1.576
  630SOL     OW 2788   4.630   1.179   1.835
  630SOL    HW1 2789   4.540   1.220   1.842
  630SOL    HW2 2790   4.687   1.209   1.911
  631SOL     OW 2791   2.393   0.246   5.761
  631SOL    HW1 2792   2.429   0.320   5.818
  631SOL    HW2 2793   2.323   0.196   5.813
  632SOL     OW 2794   2.272   0.912   0.539
  632SOL    HW1 2795   2.285   0.988   0.603
  632SOL    HW2 2796   2.228   0.836   0.585
  633SOL     OW 2797   3.308   6.382   0.284
  633SOL    HW1 2798   3.265   6.334   0.360
  633SOL    HW2 2799   3.399   6.413   0.312
  634SOL     OW 2800   4.301   5.382   1.197
  634SOL    HW1 2801   4.213   5.427   1.189
  634SOL    HW2 2802   4.372   5.450   1.213
  635SOL     OW 2803   3.274   0.311   2.830
  635SOL    HW1 2804   3.196   0.372   2.818
  635SOL    HW2 2805   3.258   0.226   2.780
  636SOL     OW 2806   5.638   5.293   6.738
  636SOL    HW1 2807   5.718   5.288   6.799
  636SOL    HW2 2808   5.565   5.235   6.775
  637SOL     OW 2809   4.757   4.906   1.169
  637SOL    HW1 2810   4.777   5.004   1.177
  637SOL    HW2 2811   4.841   4.857   1.145
  638SOL     OW 2812   5.235   1.303   1.649
  638SOL    HW1 2813   5.142   1.323   1.681
  638SOL    HW2 2814   5.250   1.347   1.561
  639SOL     OW 2815   4.447   4.703   1.830
  639SOL    HW1 2816   4.514   4.689   1.902
  639SOL    HW2 2817   4.439   4.620   1.775
  640SOL     OW 2818   2.305   4.211   5.805
  640SOL    HW1 2819   2.257   4.182   5.722
  640SOL    HW2 2820   2.371   4.282   5.782
  641SOL     OW 2821   0.419   5.893   4.699
  641SOL    HW1 2822   0.464   5.855   4.779
  641SOL    HW2 2823   0.344   5.832   4.671
  642SOL     OW 2824   0.334   5.079   4.890
  642SOL    HW1 2825   0.378   5.153   4.839
  642SOL    HW2 2826   0.385   4.994   4.877
  643SOL     OW 2827   6.453   5.441   6.020
  643SOL    HW1 2828   6.493   5.532   6.012
  643SOL    HW2 2829   6.361   5.448   6.060
  644SOL     OW 2830   1.219   6.387   2.885
  644SOL    HW1 2831   1.123   6.381   2.912
  644SOL    HW2 2832   1.228   6.363   2.788
  645SOL     OW 2833   4.999   2.593   4.094
  645SOL    HW1 2834   4.967   2.512   4.045
  645SOL    HW2 2835   4.921   2.648   4.122
  646SOL     OW 2836   1.382   0.987   4.005
  646SOL    HW1 2837   1.336   0.915   4.057
  646SOL    HW2 2838   1.436   1.044   4.067
  647SOL     OW 2839   6.117   2.791   6.994
  647SOL    HW1 2840   6.121   2.694   7.020
  647SOL    HW2 2841   6.022   2.816   6.975
  648SOL     OW 2842   6.061   3.696   2.365
  648SOL    HW1 2843   6.063   3.656   2.273
  648SOL    HW2 2844   6.010   3.783   2.362
  649SOL     OW 2845   3.778   4.806   0.887
  649SOL    HW1 2846   3.852   4.741   0.902
  649SOL    HW2 2847   3.778   4.834   0.791
  650SOL     OW 2848   4.878   4.330   0.812
  650SOL    HW1 2849   4.811   4.397   0.844
  650SOL    HW2 2850   4.937   4.373   0.744
  651SOL     OW 2851   0.737   6.455   1.040
  651SOL    HW1 2852   0.747   6.547   1.077
  651SOL    HW2 2853   0.727   6.390   1.116
  652SOL     OW 2854   4.574   0.590   2.970
  652SOL    HW1 2855   4.528   0.538   2.898
  652SOL    HW2 2856   4.518   0.590   3.053
  653SOL     OW 2857   3.356   5.066   4.057
  653SOL    HW1 2858   3.274   5.075   4.113
  653SOL    HW2 2859   3.435   5.102   4.107
  654SOL     OW 2860   6.856   5.360   7.001
  654SOL    HW1 2861   6.933   5.303   6.974
  654SOL    HW2 2862   6.881   5.457   6.990
  655SOL     OW 2863   0.631   0.161   1.117
  655SOL    HW1 2864   0.673   0.240   1.071
  655SOL    HW2 2865   0.671   0.151   1.208
  656SOL     OW 2866   2.391   6.140   2.224
  656SOL    HW1 2867   2.399   6.063   2.287
  656SOL    HW2 2868   2.434   6.116   2.137
  657SOL     OW 2869   2.846   1.316   0.668
  657SOL    HW1 2870   2.928   1.259   0.675
  657SOL    HW2 2871   2.864   1.392   0.605
  658SOL     OW 2872   3.416   3.988   6.886
  658SOL    HW1 2873   3.445   3.936   6.967
  658SOL    HW2 2874   3.497   4.017   6.835
  659SOL     OW 2875   2.988   6.869   0.070
  659SOL    HW1 2876   2.996   6.772   0.047
  659SOL    HW2 2877   2.921   6.881   0.144
  660SOL     OW 2878   3.898   5.928   2.433
  660SOL    HW1 2879   3.953   5.998   2.478
  660SOL    HW2 2880   3.944   5.897   2.350
  661SOL     OW 2881   4.631   5.926   2.910
  661SOL    HW1 2882   4.586   5.911   2.998
  661SOL    HW2 2883   4.726   5.895   2.916
  662SOL     OW 2884   3.496   1.260   5.905
  662SOL    HW1 2885   3.408   1.302   5.928
  662SOL    HW2 2886   3.508   1.260   5.806
  663SOL     OW 2887   2.193   5.085   5.199
  663SOL    HW1 2888   2.234   5.174   5.178
  663SOL    HW2 2889   2.150   5.089   5.289
  664SOL     OW 2890   0.083   0.110   6.753
  664SOL    HW1 2891   0.145   0.068   6.819
  664SOL    HW2 2892   0.124   0.108   6.662
  665SOL     OW 2893   2.903   5.724   3.716
  665SOL    HW1 2894   2.898   5.624   3.720
  665SOL    HW2 2895   2.989   5.752   3.673
  666SOL     OW 2896   4.115   0.761   2.538
  666SOL    HW1 2897   4.065   0.785   2.455
  666SOL    HW2 2898   4.193   0.703   2.513
  667SOL     OW 2899   0.695   5.505   1.884
  667SOL    HW1 2900   0.646   5.459   1.810
  667SOL    HW2 2901   0.724   5.438   1.952
  668SOL     OW 2902   5.705   4.457   6.293
  668SOL    HW1 2903   5.768   4.416   6.226
  668SOL    HW2 2904   5.640   4.517   6.245
  669SOL     OW 2905   6.044   1.507   2.654
  669SOL    HW1 2906   6.018   1.460   2.739
  669SOL    HW2 2907   6.087   1.442   2.592
  670SOL     OW 2908   1.575   1.688   3.583
  670SOL    HW1 2909   1.668   1.706   3.615
  670SOL    HW2 2910   1.568   1.712   3.486
  671SOL     OW 2911   2.471   6.505   1.692
  671SOL    HW1 2912   2.481   6.426   1.631
  671SOL    HW2 2913   2.460   6.474   1.786
  672SOL     OW 2914   0.471   5.965   1.976
  672SOL    HW1 2915   0.461   5.906   1.896
  672SOL    HW2 2916   0.450   6.059   1.951
  673SOL     OW 2917   5.593   6.791   1.104
  673SOL    HW1 2918   5.501   6.829   1.113
  673SOL    HW2 2919   5.660   6.859   1.134
  674SOL     OW 2920   6.918   1.318   5.050
  674SOL    HW1 2921   6.926   1.414   5.075
  674SOL    HW2 2922   6.955   1.261   5.124
  675SOL     OW 2923   5.734   1.960   1.904
  675SOL    HW1 2924   5.738   1.867   1.868
  675SOL    HW2 2925   5.648   1.973   1.953
  676SOL     OW 2926   2.407   4.879   4.890
  676SOL    HW1 2927   2.375   4.800   4.941
  676SOL    HW2 2928   2.503   4.866   4.864
  677SOL     OW 2929   4.526   0.901   1.468
  677SOL    HW1 2930   4.431   0.912   1.496
  677SOL    HW2 2931   4.532   0.899   1.368
  678SOL     OW 2932   2.627   4.398   5.574
  678SOL    HW1 2933   2.608   4.362   5.483
  678SOL    HW2 2934   2.721   4.433   5.578
  679SOL     OW 2935   5.415   1.528   5.332
  679SOL    HW1 2936   5.419   1.429   5.322
  679SOL    HW2 2937   5.352   1.566   5.264
  680SOL     OW 2938   5.497   6.987   4.384
  680SOL    HW1 2939   5.580   0.018   4.401
  680SOL    HW2 2940   5.421   0.005   4.435
  681SOL     OW 2941   5.409   6.114   1.991
  681SOL    HW1 2942   5.356   6.191   2.028
  681SOL    HW2 2943   5.352   6.063   1.926
  682SOL     OW 2944   0.836   0.678   2.511
  682SOL    HW1 2945   0.765   0.746   2.494
  682SOL    HW2 2946   0.794   0.594   2.545
  683SOL     OW 2947   4.380   3.409   0.879
  683SOL    HW1 2948   4.412   3.504   0.884
  683SOL    HW2 2949   4.441   3.356   0.820
  684SOL     OW 2950   6.404   0.589   6.409
  684SOL    HW1 2951   6.411   0.677   6.362
  684SOL    HW2 2952   6.483   0.578   6.469
  685SOL     OW 2953   3.330   1.621   3.419
  685SOL    HW1 2954   3.239   1.662   3.424
  685SOL    HW2 2955   3.324   1.524   3.442
  686SOL     OW 2956   4.180   0.770   4.223
  686SOL    HW1 2957   4.108   0.777   4.155
  686SOL    HW2 2958   4.241   0.694   4.201
  687SOL     OW 2959   0.802   1.855   4.302
  687SOL    HW1 2960   0.705   1.876   4.294
  687SOL    HW2 2961   0.838   1.827   4.213
  688SOL     OW 2962   6.916   1.608   6.612
  688SOL    HW1 2963   6.878   1.613   6.520
  688SOL    HW2 2964   7.003   1.658   6.615
  689SOL     OW 2965   0.988   4.849   5.347
  689SOL    HW1 2966   1.075   4.888   5.376
  689SOL    HW2 2967   0.915   4.915   5.365
  690SOL     OW 2968   6.320   3.353   2.897
  690SOL    HW1 2969   6.301   3.377   2.802
  690SOL    HW2 2970   6.279   3.264   2.918
  691SOL     OW 2971   4.054   1.778   0.066
  691SOL    HW1 2972   4.098   1.846   0.125
  691SOL    HW2 2973   4.111   1.762   7.008
  692SOL     OW 2974   3.243   1.270   5.492
  692SOL    HW1 2975   3.198   1.324   5.562
  692SOL    HW2 2976   3.177   1.206   5.451
  693SOL     OW 2977   4.958   5.838   3.254
  693SOL    HW1 2978   4.983   5.933   3.270
  693SOL    HW2 2979   4.865   5.822   3.287
  694SOL     OW 2980   3.945   6.354   4.374
  694SOL    HW1 2981   3.915   6.323   4.464
  694SOL    HW2 2982   4.027   6.409   4.384
  695SOL     OW 2983   3.144   5.765   4.118
  695SOL    HW1 2984   3.070   5.802   4.062
  695SOL    HW2 2985   3.162   5.670   4.091
  696SOL     OW 2986   4.955   3.867   2.919
  696SOL    HW1 2987   5.046   3.897   2.947
  696SOL    HW2 2988   4.960   3.824   2.829
  697SOL     OW 2989   0.990   4.377   1.458
  697SOL    HW1 2990   1.051   4.298   1.461
  697SOL    HW2 2991   0.907   4.357   1.511
  698SOL     OW 2992   4.654   6.930   1.745
  698SOL    HW1 2993   4.564   6.973   1.736
  698SOL    HW2 2994   4.674   6.877   1.662
  699SOL     OW 2995   3.058   2.500   0.160
  699SOL    HW1 2996   3.051   2.582   0.218
  699SOL    HW2 2997   3.107   2.523   0.076
  700SOL     OW 2998   3.095   6.893   2.566
  700SOL    HW1 2999   3.089   6.981   2.612
  700SOL    HW2 3000   3.054   6.901   2.475
  701SOL     OW 3001   6.059   4.478   0.850
  701SOL    HW1 3002   5.995   4.402   0.836
  701SOL    HW2 3003   6.151   4.440   0.865
  702SOL     OW 3004   3.032   0.927   4.585
  702SOL    HW1 3005   3.091   0.876   4.647
  702SOL    HW2 3006   3.005   0.869   4.509
  703SOL     OW 3007   2.670   3.422   5.470
  703SOL    HW1 3008   2.701   3.362   5.396
  703SOL    HW2 3009   2.605   3.372   5.527
  704SOL     OW 3010   1.319   2.408   6.306
  704SOL    HW1 3011   1.262   2.466   6.248
  704SOL    HW2 3012   1.381   2.465   6.359
  705SOL     OW 3013   6.454   6.410   4.234
  705SOL    HW1 3014   6.424   6.420   4.329
  705SOL    HW2 3015   6.542   6.457   4.222
  706SOL     OW 3016   4.015   0.995   5.588
  706SOL    HW1 3017   4.069   1.074   5.560
  706SOL    HW2 3018   4.029   0.920   5.524
  707SOL     OW 3019   3.677   5.359   3.573
  707SOL    HW1 3020   3.670   5.459   3.570
  707SOL    HW2 3021   3.754   5.333   3.631
  708SOL     OW 3022   3.164   1.188   3.336
  708SOL    HW1 3023   3.105   1.238   3.273
  708SOL    HW2 3024   3.239   1.145   3.285
  709SOL     OW 3025   1.810   6.894   1.696
  709SOL    HW1 3026   1.826   6.855   1.787
  709SOL    HW2 3027   1.731   6.956   1.700
  710SOL     OW 3028   5.228   2.963   1.425
  710SOL    HW1 3029   5.294   3.035   1.445
  710SOL    HW2 3030   5.188   2.978   1.335
  711SOL     OW 3031   0.121   2.801   5.269
  711SOL    HW1 3032   0.089   2.895   5.281
  711SOL    HW2 3033   0.129   2.781   5.172
  712SOL     OW 3034   4.315   3.019   0.713
  712SOL    HW1 3035   4.267   3.072   0.782
  712SOL    HW2 3036   4.249   2.963   0.662
  713SOL     OW 3037   4.397   2.695   5.317
  713SOL    HW1 3038   4.298   2.704   5.325
  713SOL    HW2 3039   4.419   2.614   5.262
  714SOL     OW 3040   6.605   4.622   3.448
  714SOL    HW1 3041   6.599   4.718   3.477
  714SOL    HW2 3042   6.539   4.568   3.499
  715SOL     OW 3043   6.379   5.063   5.600
  715SOL    HW1 3044   6.332   5.149   5.618
  715SOL    HW2 3045   6.366   5.000   5.676
  716SOL     OW 3046   2.234   0.968   2.685
  716SOL    HW1 3047   2.157   0.929   2.735
  716SOL    HW2 3048   2.203   1.044   2.629
  717SOL     OW 3049   5.983   4.870   3.714
  717SOL    HW1 3050   5.910   4.907   3.771
  717SOL    HW2 3051   5.945   4.839   3.627
  718SOL     OW 3052   4.896   2.366   4.328
  718SOL    HW1 3053   4.858   2.325   4.245
  718SOL    HW2 3054   4.989   2.398   4.310
  719SOL     OW 3055   6.909   0.510   2.653
  719SOL    HW1 3056   6.937   0.476   2.563
  719SOL    HW2 3057   6.819   0.553   2.646
  720SOL     OW 3058   1.676   0.651   6.298
  720SOL    HW1 3059   1.689   0.579   6.367
  720SOL    HW2 3060   1.662   0.739   6.343
  721SOL     OW 3061   0.490   2.298   2.305
  721SOL    HW1 3062   0.518   2.204   2.282
  721SOL    HW2 3063   0.483   2.307   2.404
  722SOL     OW 3064   4.372   6.904   6.384
  722SOL    HW1 3065   4.359   7.001   6.362
  722SOL    HW2 3066   4.337   6.848   6.310
  723SOL     OW 3067   2.233   6.264   3.434
  723SOL    HW1 3068   2.189   6.181   3.400
  723SOL    HW2 3069   2.222   6.338   3.367
  724SOL     OW 3070   0.868   0.780   3.381
  724SOL    HW1 3071   0.775   0.816   3.390
  724SOL    HW2 3072   0.916   0.789   3.468
  725SOL     OW 3073   2.337   4.424   2.327
  725SOL    HW1 3074   2.316   4.327   2.328
  725SOL    HW2 3075   2.426   4.439   2.371
  726SOL     OW 3076   2.375   5.125   0.417
  726SOL    HW1 3077   2.321   5.097   0.496
  726SOL    HW2 3078   2.472   5.125   0.441
  727SOL     OW 3079   4.905   5.371   6.258
  727SOL    HW1 3080   4.822   5.329   6.221
  727SOL    HW2 3081   4.898   5.470   6.252
  728SOL     OW 3082   0.074   3.335   4.397
  728SOL    HW1 3083   0.026   3.248   4.407
  728SOL    HW2 3084   0.150   3.323   4.333
  729SOL     OW 3085   0.379   3.199   0.682
  729SOL    HW1 3086   0.363   3.188   0.780
  729SOL    HW2 3087   0.445   3.130   0.652
  730SOL     OW 3088   5.099   0.557   3.105
  730SOL    HW1 3089   5.168   0.629   3.108
  730SOL    HW2 3090   5.024   0.584   3.045
  731SOL     OW 3091   5.002   4.500   6.759
  731SOL    HW1 3092   5.062   4.561   6.708
  731SOL    HW2 3093   5.000   4.410   6.713
  732SOL     OW 3094   5.302   1.994   2.816
  732SOL    HW1 3095   5.368   2.069   2.809
  732SOL    HW2 3096   5.342   1.920   2.869
  733SOL     OW 3097   5.619   6.533   3.732
  733SOL    HW1 3098   5.640   6.466   3.803
  733SOL    HW2 3099   5.698   6.542   3.670
  734SOL     OW 3100   6.592   4.914   2.490
  734SOL    HW1 3101   6.676   4.940   2.537
  734SOL    HW2 3102   6.613   4.892   2.394
  735SOL     OW 3103   5.819   0.583   1.856
  735SOL    HW1 3104   5.874   0.665   1.837
  735SOL    HW2 3105   5.742   0.608   1.914
  736SOL     OW 3106   1.532   1.111   4.190
  736SOL    HW1 3107   1.576   1.192   4.151
  736SOL    HW2 3108   1.502   1.130   4.283
  737SOL     OW 3109   5.785   1.480   6.296
  737SOL    HW1 3110   5.729   1.552   6.336
  737SOL    HW2 3111   5.834   1.431   6.369
  738SOL     OW 3112   2.874   3.942   1.182
  738SOL    HW1 3113   2.937   4.019   1.190
  738SOL    HW2 3114   2.826   3.946   1.094
  739SOL     OW 3115   3.119   0.018   5.062
  739SOL    HW1 3116   3.207   0.058   5.036
  739SOL    HW2 3117   3.046   0.086   5.048
  740SOL     OW 3118   5.538   2.155   2.815
  740SOL    HW1 3119   5.625   2.199   2.792
  740SOL    HW2 3120   5.532   2.142   2.914
  741SOL     OW 3121   2.554   0.458   4.608
  741SOL    HW1 3122   2.483   0.527   4.590
  741SOL    HW2 3123   2.511   0.374   4.642
  742SOL     OW 3124   1.499   6.538   0.793
  742SOL    HW1 3125   1.453   6.591   0.721
  742SOL    HW2 3126   1.471   6.442   0.787
  743SOL     OW 3127   0.796   6.644   3.764
  743SOL    HW1 3128   0.837   6.610   3.679
  743SOL    HW2 3129   0.720   6.585   3.790
  744SOL     OW 3130   6.072   1.161   0.768
  744SOL    HW1 3131   6.144   1.131   0.831
  744SOL    HW2 3132   5.983   1.151   0.812
  745SOL     OW 3133   2.126   5.500   4.902
  745SOL    HW1 3134   2.137   5.401   4.915
  745SOL    HW2 3135   2.189   5.532   4.831
  746SOL     OW 3136   5.536   3.984   5.071
  746SOL    HW1 3137   5.491   3.944   5.151
  746SOL    HW2 3138   5.471   4.042   5.021
  747SOL     OW 3139   5.537   5.233   3.531
  747SOL    HW1 3140   5.589   5.238   3.445
  747SOL    HW2 3141   5.599   5.248   3.608
  748SOL     OW 3142   5.102   5.654   2.745
  748SOL    HW1 3143   5.119   5.609   2.657
  748SOL    HW2 3144   5.009   5.689   2.746
  749SOL     OW 3145   4.817   3.914   3.586
  749SOL    HW1 3146   4.798   4.008   3.557
  749SOL    HW2 3147   4.803   3.853   3.508
  750SOL     OW 3148   2.296   1.463   1.686
  750SOL    HW1 3149   2.328   1.555   1.665
  750SOL    HW2 3150   2.368   1.413   1.734
  751SOL     OW 3151   5.012   1.963   0.222
  751SOL    HW1 3152   4.938   1.935   0.282
  751SOL    HW2 3153   5.021   2.063   0.224
  752SOL     OW 3154   3.140   2.780   5.516
  752SOL    HW1 3155   3.178   2.699   5.471
  752SOL    HW2 3156   3.209   2.852   5.517
  753SOL     OW 3157   3.533   3.429   5.259
  753SOL    HW1 3158   3.572   3.517   5.283
  753SOL    HW2 3159   3.572   3.358   5.318
  754SOL     OW 3160   5.622   0.839   6.322
  754SOL    HW1 3161   5.682   0.787   6.384
  754SOL    HW2 3162   5.526   0.821   6.347
  755SOL     OW 3163   3.085   4.308   5.240
  755SOL    HW1 3164   3.148   4.333   5.314
  755SOL    HW2 3165   3.060   4.391   5.189
  756SOL     OW 3166   2.676   5.479   6.902
  756SOL    HW1 3167   2.722   5.567   6.887
  756SOL    HW2 3168   2.708   5.413   6.833
  757SOL     OW 3169   2.009   6.703   2.101
  757SOL    HW1 3170   2.019   6.742   2.193
  757SOL    HW2 3171   1.942   6.629   2.103
  758SOL     OW 3172   4.211   1.340   3.721
  758SOL    HW1 3173   4.234   1.264   3.781
  758SOL    HW2 3174   4.118   1.330   3.687
  759SOL     OW 3175   6.987   3.133   3.622
  759SOL    HW1 3176   0.060   3.100   3.623
  759SOL    HW2 3177   6.987   3.233   3.630
  760SOL     OW 3178   6.840   6.657   3.901
  760SOL    HW1 3179   6.806   6.748   3.925
  760SOL    HW2 3180   6.773   6.588   3.928
  761SOL     OW 3181   5.412   3.950   5.307
  761SOL    HW1 3182   5.415   3.868   5.364
  761SOL    HW2 3183   5.423   4.031   5.364
  762SOL     OW 3184   3.005   6.188   5.547
  762SOL    HW1 3185   3.005   6.288   5.541
  762SOL    HW2 3186   2.914   6.153   5.524
  763SOL     OW 3187   5.825   0.601   6.790
  763SOL    HW1 3188   5.825   0.698   6.769
  763SOL    HW2 3189   5.833   0.587   6.889
  764SOL     OW 3190   5.724   1.107   5.798
  764SOL    HW1 3191   5.658   1.141   5.865
  764SOL    HW2 3192   5.779   1.182   5.763
  765SOL     OW 3193   0.841   6.581   0.828
  765SOL    HW1 3194   0.779   6.546   0.898
  765SOL    HW2 3195   0.909   6.640   0.871
  766SOL     OW 3196   1.946   2.045   4.772
  766SOL    HW1 3197   1.981   2.086   4.688
  766SOL    HW2 3198   1.959   1.946   4.769
  767SOL     OW 3199   0.044   6.912   4.050
  767SOL    HW1 3200   0.070   6.884   3.958
  767SOL    HW2 3201   6.968   6.930   4.054
  768SOL     OW 3202   1.788   6.059   2.660
  768SOL    HW1 3203   1.858   6.075   2.591
  768SOL    HW2 3204   1.731   6.140   2.670
  769SOL     OW 3205   3.314   1.542   4.954
  769SOL    HW1 3206   3.371   1.553   4.873
  769SOL    HW2 3207   3.284   1.632   4.986
  770SOL     OW 3208   2.015   4.939   4.484
  770SOL    HW1 3209   2.089   4.900   4.539
  770SOL    HW2 3210   2.053   5.006   4.419
  771SOL     OW 3211   1.260   5.352   3.101
  771SOL    HW1 3212   1.215   5.284   3.159
  771SOL    HW2 3213   1.283   5.311   3.013
  772SOL     OW 3214   5.459   4.907   7.011
  772SOL    HW1 3215   5.472   4.855   0.073
  772SOL    HW2 3216   5.364   4.896   6.980
  773SOL     OW 3217   1.518   3.483   3.430
  773SOL    HW1 3218   1.437   3.528   3.394
  773SOL    HW2 3219   1.491   3.396   3.472
  774SOL     OW 3220   1.920   1.819   3.863
  774SOL    HW1 3221   1.928   1.790   3.958
  774SOL    HW2 3222   1.993   1.883   3.841
  775SOL     OW 3223   1.981   3.572   4.033
  775SOL    HW1 3224   2.003   3.476   4.013
  775SOL    HW2 3225   1.936   3.578   4.122
  776SOL     OW 3226   1.242   6.887   6.483
  776SOL    HW1 3227   1.185   6.931   6.414
  776SOL    HW2 3228   1.190   6.877   6.568
  777SOL     OW 3229   1.958   3.825   0.144
  777SOL    HW1 3230   2.050   3.824   0.104
  777SOL    HW2 3231   1.906   3.901   0.106
  778SOL     OW 3232   3.711   6.597   2.055
  778SOL    HW1 3233   3.774   6.541   2.108
  778SOL    HW2 3234   3.665   6.540   1.987
  779SOL     OW 3235   0.512   2.599   1.771
  779SOL    HW1 3236   0.527   2.531   1.699
  779SOL    HW2 3237   0.451   2.670   1.736
  780SOL     OW 3238   1.602   2.099   4.682
  780SOL    HW1 3239   1.513   2.054   4.684
  780SOL    HW2 3240   1.669   2.040   4.637
  781SOL     OW 3241   0.404   4.470   0.583
  781SOL    HW1 3242   0.332   4.416   0.538
  781SOL    HW2 3243   0.454   4.412   0.646
  782SOL     OW 3244   1.955   4.079   5.764
  782SOL    HW1 3245   1.939   4.011   5.692
  782SOL    HW2 3246   1.922   4.169   5.733
  783SOL     OW 3247   5.269   4.475   6.395
  783SOL    HW1 3248   5.242   4.380   6.387
  783SOL    HW2 3249   5.240   4.512   6.483
  784SOL     OW 3250   3.016   6.010   1.560
  784SOL    HW1 3251   3.053   6.093   1.518
  784SOL    HW2 3252   2.938   6.034   1.617
  785SOL     OW 3253   0.531   6.731   4.083
  785SOL    HW1 3254   0.476   6.756   4.004
  785SOL    HW2 3255   0.478   6.672   4.144
  786SOL     OW 3256   6.481   0.947   3.778
  786SOL    HW1 3257   6.527   1.025   3.820
  786SOL    HW2 3258   6.404   0.979   3.723
  787SOL     OW 3259   2.374   0.135   0.071
  787SOL    HW1 3260   2.305   0.138   7.021
  787SOL    HW2 3261   2.377   0.222   0.119
  788SOL     OW 3262   3.782   3.250   1.000
  788SOL    HW1 3263   3.746   3.220   1.088
  788SOL    HW2 3264   3.839   3.178   0.960
  789SOL     OW 3265   4.464   5.593   1.273
  789SOL    HW1 3266   4.513   5.663   1.222
  789SOL    HW2 3267   4.478   5.606   1.371
  790SOL     OW 3268   0.702   2.817   1.572
  790SOL    HW1 3269   0.776   2.783   1.630
  790SOL    HW2 3270   0.703   2.917   1.572
  791SOL     OW 3271   2.597   4.876   5.428
  791SOL    HW1 3272   2.522   4.843   5.371
  791SOL    HW2 3273   2.680   4.883   5.373
  792SOL     OW 3274   0.516   1.177   0.769
  792SOL    HW1 3275   0.535   1.270   0.737
  792SOL    HW2 3276   0.551   1.111   0.703
  793SOL     OW 3277   3.986   5.394   3.709
  793SOL    HW1 3278   4.054   5.466   3.717
  793SOL    HW2 3279   3.924   5.398   3.788
  794SOL     OW 3280   2.932   3.718   3.685
  794SOL    HW1 3281   2.926   3.636   3.629
  794SOL    HW2 3282   3.027   3.749   3.690
  795SOL     OW 3283   3.627   0.839   6.297
  795SOL    HW1 3284   3.576   0.807   6.217
  795SOL    HW2 3285   3.647   0.761   6.356
  796SOL     OW 3286   1.776   3.172   6.699
  796SOL    HW1 3287   1.775   3.140   6.794
  796SOL    HW2 3288   1.831   3.254   6.692
  797SOL     OW 3289   4.633   6.847   1.008
  797SOL    HW1 3290   4.559   6.781   1.016
  797SOL    HW2 3291   4.626   6.914   1.083
  798SOL     OW 3292   3.321   6.336   1.160
  798SOL    HW1 3293   3.302   6.342   1.063
  798SOL    HW2 3294   3.289   6.419   1.206
  799SOL     OW 3295   1.574   1.687   6.443
  799SOL    HW1 3296   1.520   1.611   6.480
  799SOL    HW2 3297   1.562   1.767   6.502
  800SOL     OW 3298   6.327   1.639   1.937
  800SOL    HW1 3299   6.331   1.543   1.908
  800SOL    HW2 3300   6.311   1.698   1.858
  801SOL     OW 3301   1.888   5.708   5.427
  801SOL    HW1 3302   1.907   5.671   5.336
  801SOL    HW2 3303   1.903   5.637   5.496
  802SOL     OW 3304   5.435   2.151   0.025
  802SOL    HW1 3305   5.386   2.234   0.052
  802SOL    HW2 3306   5.382   2.071   0.053
  803SOL     OW 3307   2.884   1.277   5.525
  803SOL    HW1 3308   2.884   1.312   5.431
  803SOL    HW2 3309   2.947   1.333   5.581
  804SOL     OW 3310   6.257   0.460   2.039
  804SOL    HW1 3311   6.164   0.424   2.031
  804SOL    HW2 3312   6.300   0.461   1.948
  805SOL     OW 3313   3.237   1.423   3.886
  805SOL    HW1 3314   3.302   1.349   3.908
  805SOL    HW2 3315   3.184   1.445   3.968
  806SOL     OW 3316   0.903   6.806   5.319
  806SOL    HW1 3317   0.826   6.757   5.357
  806SOL    HW2 3318   0.961   6.743   5.267
  807SOL     OW 3319   0.551   6.121   4.927
  807SOL    HW1 3320   0.570   6.068   4.844
  807SOL    HW2 3321   0.452   6.124   4.942
  808SOL     OW 3322   5.668   2.792   0.373
  808SOL    HW1 3323   5.630   2.884   0.377
  808SOL    HW2 3324   5.708   2.768   0.461
  809SOL     OW 3325   0.425   4.966   0.134
  809SOL    HW1 3326   0.441   5.029   0.210
  809SOL    HW2 3327   0.465   5.004   0.050
  810SOL     OW 3328   2.921   3.704   0.244
  810SOL    HW1 3329   2.861   3.666   0.314
  810SOL    HW2 3330   2.995   3.640   0.224
  811SOL     OW 3331   5.451   5.090   4.549
  811SOL    HW1 3332   5.375   5.080   4.485
  811SOL    HW2 3333   5.537   5.070   4.502
  812SOL     OW 3334   0.880   1.816   2.280
  812SOL    HW1 3335   0.971   1.820   2.239
  812SOL    HW2 3336   0.811   1.825   2.207
  813SOL     OW 3337   1.754   1.394   4.325
  813SOL    HW1 3338   1.756   1.316   4.388
  813SOL    HW2 3339   1.693   1.373   4.248
  814SOL     OW 3340   0.135   6.198   3.105
  814SOL    HW1 3341   0.107   6.187   3.200
  814SOL    HW2 3342   0.111   6.115   3.054
  815SOL     OW 3343   5.102   2.214   3.702
  815SOL    HW1 3344   5.120   2.142   3.768
  815SOL    HW2 3345   5.171   2.286   3.711
  816SOL     OW 3346   5.113   3.746   0.234
  816SOL    HW1 3347   5.031   3.758   0.179
  816SOL    HW2 3348   5.091   3.759   0.330
  817SOL     OW 3349   1.417   5.671   0.919
  817SOL    HW1 3350   1.445   5.576   0.906
  817SOL    HW2 3351   1.484   5.731   0.875
  818SOL     OW 3352   5.507   2.983   3.489
  818SOL    HW1 3353   5.501   2.898   3.437
  818SOL    HW2 3354   5.480   2.966   3.584
  819SOL     OW 3355   5.714   2.169   1.653
  819SOL    HW1 3356   5.676   2.261   1.659
  819SOL    HW2 3357   5.650   2.103   1.691
  820SOL     OW 3358   1.900   2.043   4.197
  820SOL    HW1 3359   1.884   2.067   4.293
  820SOL    HW2 3360   1.988   1.998   4.188
  821SOL     OW 3361   5.753   4.114   4.966
  821SOL    HW1 3362   5.750   4.058   4.883
  821SOL    HW2 3363   5.676   4.089   5.025
  822SOL     OW 3364   1.004   4.314   4.025
  822SOL    HW1 3365   0.925   4.263   4.057
  822SOL    HW2 3366   0.974   4.395   3.974
  823SOL     OW 3367   1.181   3.688   6.008
  823SOL    HW1 3368   1.212   3.620   5.941
  823SOL    HW2 3369   1.086   3.669   6.032
  824SOL     OW 3370   5.703   0.939   5.056
  824SOL    HW1 3371   5.755   0.921   5.139
  824SOL    HW2 3372   5.721   0.866   4.989
  825SOL     OW 3373   6.201   5.685   1.145
  825SOL    HW1 3374   6.200   5.589   1.172
  825SOL    HW2 3375   6.283   5.729   1.181
  826SOL     OW 3376   3.822   1.147   5.689
  826SOL    HW1 3377   3.861   1.238   5.695
  826SOL    HW2 3378   3.894   1.080   5.669
  827SOL     OW 3379   3.554   4.186   4.644
  827SOL    HW1 3380   3.458   4.159   4.649
  827SOL    HW2 3381   3.576   4.245   4.722
  828SOL     OW 3382   6.134   5.520   4.170
  828SOL    HW1 3383   6.149   5.531   4.268
  828SOL    HW2 3384   6.185   5.589   4.119
  829SOL     OW 3385   3.538   2.881   2.670
  829SOL    HW1 3386   3.598   2.810   2.705
  829SOL    HW2 3387   3.557   2.967   2.716
  830SOL     OW 3388   6.373   4.505   6.705
  830SOL    HW1 3389   6.446   4.554   6.656
  830SOL    HW2 3390   6.349   4.555   6.788
  831SOL     OW 3391   5.563   6.010   1.073
  831SOL    HW1 3392   5.532   5.966   1.157
  831SOL    HW2 3393   5.663   6.005   1.069
  832SOL     OW 3394   3.751   1.767   5.080
  832SOL    HW1 3395   3.652   1.761   5.091
  832SOL    HW2 3396   3.773   1.844   5.019
  833SOL     OW 3397   1.205   3.802   6.463
  833SOL    HW1 3398   1.126   3.843   6.510
  833SOL    HW2 3399   1.230   3.858   6.385
  834SOL     OW 3400   4.669   3.306   6.863
  834SOL    HW1 3401   4.730   3.274   6.791
  834SOL    HW2 3402   4.614   3.382   6.829
  835SOL     OW 3403   1.337   0.507   4.132
  835SOL    HW1 3404   1.419   0.563   4.133
  835SOL    HW2 3405   1.290   0.515   4.220
  836SOL     OW 3406   3.327   1.672   5.397
  836SOL    HW1 3407   3.392   1.628   5.459
  836SOL    HW2 3408   3.341   1.771   5.399
  837SOL     OW 3409   1.371   0.524   1.222
  837SOL    HW1 3410   1.361   0.559   1.315
  837SOL    HW2 3411   1.344   0.427   1.219
  838SOL     OW 3412   1.994   5.600   4.080
  838SOL    HW1 3413   2.087   5.625   4.109
  838SOL    HW2 3414   1.940   5.573   4.160
  839SOL     OW 3415   1.541   1.421   1.084
  839SOL    HW1 3416   1.543   1.336   1.033
  839SOL    HW2 3417   1.450   1.464   1.074
  840SOL     OW 3418   6.364   5.463   0.482
  840SOL    HW1 3419   6.403   5.376   0.454
  840SOL    HW2 3420   6.283   5.482   0.427
  841SOL     OW 3421   4.006   5.114   5.626
  841SOL    HW1 3422   3.910   5.087   5.631
  841SOL    HW2 3423   4.064   5.033   5.625
  842SOL     OW 3424   3.322   0.144   6.720
  842SOL    HW1 3425   3.251   0.093   6.670
  842SOL    HW2 3426   3.282   0.186   6.801
  843SOL     OW 3427   1.654   1.698   1.326
  843SOL    HW1 3428   1.678   1.720   1.232
  843SOL    HW2 3429   1.658   1.782   1.381
  844SOL     OW 3430   0.319   6.892   1.113
  844SOL    HW1 3431   0.229   6.852   1.099
  844SOL    HW2 3432   0.313   6.992   1.105
  845SOL     OW 3433   4.138   1.674   2.676
  845SOL    HW1 3434   4.235   1.665   2.656
  845SOL    HW2 3435   4.118   1.632   2.764
  846SOL     OW 3436   3.178   1.565   6.677
  846SOL    HW1 3437   3.196   1.656   6.714
  846SOL    HW2 3438   3.080   1.557   6.656
  847SOL     OW 3439   2.427   3.499   1.499
  847SOL    HW1 3440   2.378   3.577   1.538
  847SOL    HW2 3441   2.415   3.419   1.558
  848SOL     OW 3442   6.053   6.520   5.924
  848SOL    HW1 3443   6.106   6.599   5.955
  848SOL    HW2 3444   5.980   6.552   5.862
  849SOL     OW 3445   5.667   3.489   0.358
  849SOL    HW1 3446   5.705   3.503   0.450
  849SOL    HW2 3447   5.569   3.504   0.360
  850SOL     OW 3448   6.432   0.784   5.059
  850SOL    HW1 3449   6.398   0.782   4.965
  850SOL    HW2 3450   6.364   0.828   5.118
  851SOL     OW 3451   6.515   3.055   6.637
  851SOL    HW1 3452   6.534   3.111   6.557
  851SOL    HW2 3453   6.420   3.066   6.665
  852SOL     OW 3454   6.855   3.955   1.319
  852SOL    HW1 3455   6.784   3.953   1.249
  852SOL    HW2 3456   6.925   3.887   1.297
  853SOL     OW 3457   1.858   4.524   0.399
  853SOL    HW1 3458   1.760   4.536   0.417
  853SOL    HW2 3459   1.882   4.428   0.408
  854SOL     OW 3460   6.325   6.523   7.014
  854SOL    HW1 3461   6.413   6.529   0.040
  854SOL    HW2 3462   6.321   6.592   6.942
  855SOL     OW 3463   0.354   0.868   6.753
  855SOL    HW1 3464   0.287   0.883   6.681
  855SOL    HW2 3465   0.348   0.774   6.787
  856SOL     OW 3466   1.921   6.482   6.291
  856SOL    HW1 3467   1.862   6.409   6.326
  856SOL    HW2 3468   1.892   6.570   6.329
  857SOL     OW 3469   0.232   4.687   3.822
  857SOL    HW1 3470   0.225   4.707   3.725
  857SOL    HW2 3471   0.174   4.750   3.874
  858SOL     OW 3472   3.702   3.951   0.597
  858SOL    HW1 3473   3.762   4.018   0.641
  858SOL    HW2 3474   3.625   4.000   0.555
  859SOL     OW 3475   3.916   6.682   5.394
  859SOL    HW1 3476   3.913   6.634   5.482
  859SOL    HW2 3477   4.003   6.661   5.348
  860SOL     OW 3478   5.276   2.621   5.469
  860SOL    HW1 3479   5.180   2.628   5.440
  860SOL    HW2 3480   5.287   2.665   5.559
  861SOL     OW 3481   2.185   5.392   3.097
  861SOL    HW1 3482   2.197   5.341   3.012
  861SOL    HW2 3483   2.166   5.328   3.172
  862SOL     OW 3484   1.662   4.289   3.606
  862SOL    HW1 3485   1.621   4.378   3.628
  862SOL    HW2 3486   1.756   4.286   3.640
  863SOL     OW 3487   6.718   0.131   5.731
  863SOL    HW1 3488   6.737   0.183   5.648
  863SOL    HW2 3489   6.805   0.107   5.776
  864SOL     OW 3490   4.753   0.446   5.463
  864SOL    HW1 3491   4.846   0.456   5.428
  864SOL    HW2 3492   4.688   0.471   5.392
  865SOL     OW 3493   2.173   6.130   4.777
  865SOL    HW1 3494   2.102   6.129   4.847
  865SOL    HW2 3495   2.140   6.181   4.697
  866SOL     OW 3496   2.467   6.777   1.318
  866SOL    HW1 3497   2.564   6.766   1.339
  866SOL    HW2 3498   2.457   6.809   1.224
  867SOL     OW 3499   5.786   1.837   0.980
  867SOL    HW1 3500   5.869   1.861   1.032
  867SOL    HW2 3501   5.726   1.916   0.974
  868SOL     OW 3502   0.109   2.281   1.928
  868SOL    HW1 3503   0.188   2.235   1.888
  868SOL    HW2 3504   0.123   2.294   2.026
  869SOL     OW 3505   0.051   4.079   3.864
  869SOL    HW1 3506   0.103   4.024   3.798
  869SOL    HW2 3507   0.086   4.061   3.956
  870SOL     OW 3508   3.446   4.959   1.867
  870SOL    HW1 3509   3.417   4.918   1.781
  870SOL    HW2 3510   3.507   4.896   1.915
  871SOL     OW 3511   4.990   1.897   4.249
  871SOL    HW1 3512   4.908   1.921   4.198
  871SOL    HW2 3513   5.070   1.937   4.203
  872SOL     OW 3514   0.106   2.238   4.594
  872SOL    HW1 3515   0.026   2.184   4.620
  872SOL    HW2 3516   0.152   2.195   4.516
  873SOL     OW 3517   4.327   6.475   5.690
  873SOL    HW1 3518   4.316   6.467   5.789
  873SOL    HW2 3519   4.411   6.524   5.669
  874SOL     OW 3520   5.930   4.160   6.944
  874SOL    HW1 3521   6.009   4.105   6.916
  874SOL    HW2 3522   5.939   4.253   6.908
  875SOL     OW 3523   5.223   5.313   1.113
  875SOL    HW1 3524   5.147   5.370   1.142
  875SOL    HW2 3525   5.304   5.370   1.099
  876SOL     OW 3526   0.225   5.415   2.094
  876SOL    HW1 3527   0.279   5.345   2.049
  876SOL    HW2 3528   0.243   5.413   2.193
  877SOL     OW 3529   2.828   4.592   0.300
  877SOL    HW1 3530   2.790   4.683   0.322
  877SOL    HW2 3531   2.924   4.601   0.274
  878SOL     OW 3532   4.308   6.771   4.053
  878SOL    HW1 3533   4.308   6.749   3.956
  878SOL    HW2 3534   4.222   6.816   4.077
  879SOL     OW 3535   4.069   0.746   1.371
  879SOL    HW1 3536   4.027   0.814   1.430
  879SOL    HW2 3537   4.010   0.666   1.364
  880SOL     OW 3538   3.161   4.105   3.695
  880SOL    HW1 3539   3.111   4.188   3.668
  880SOL    HW2 3540   3.218   4.126   3.774
  881SOL     OW 3541   4.454   2.485   5.151
  881SOL    HW1 3542   4.533   2.430   5.122
  881SOL    HW2 3543   4.378   2.469   5.088
  882SOL     OW 3544   0.518   3.207   4.854
  882SOL    HW1 3545   0.453   3.276   4.885
  882SOL    HW2 3546   0.476   3.151   4.782
  883SOL     OW 3547   2.704   0.407   3.240
  883SOL    HW1 3548   2.629   0.439   3.297
  883SOL    HW2 3549   2.737   0.482   3.182
  884SOL     OW 3550   4.707   2.858   5.443
  884SOL    HW1 3551   4.773   2.898   5.380
  884SOL    HW2 3552   4.615   2.892   5.422
  885SOL     OW 3553   3.064   1.401   5.698
  885SOL    HW1 3554   3.149   1.407   5.751
  885SOL    HW2 3555   3.011   1.485   5.711
  886SOL     OW 3556   3.660   0.659   0.549
  886SOL    HW1 3557   3.654   0.756   0.526
  886SOL    HW2 3558   3.751   0.625   0.526
  887SOL     OW 3559   3.715   6.830   3.879
  887SOL    HW1 3560   3.812   6.849   3.894
  887SOL    HW2 3561   3.662   6.914   3.891
  888SOL     OW 3562   0.726   6.932   2.978
  888SOL    HW1 3563   0.631   6.961   2.965
  888SOL    HW2 3564   0.768   6.913   2.890
  889SOL     OW 3565   0.352   3.706   0.379
  889SOL    HW1 3566   0.388   3.799   0.387
  889SOL    HW2 3567   0.344   3.666   0.470
  890SOL     OW 3568   1.417   5.281   3.719
  890SOL    HW1 3569   1.397   5.293   3.817
  890SOL    HW2 3570   1.436   5.370   3.677
  891SOL     OW 3571   5.418   5.770   1.131
  891SOL    HW1 3572   5.435   5.716   1.213
  891SOL    HW2 3573   5.502   5.778   1.077
  892SOL     OW 3574   2.720   3.967   5.794
  892SOL    HW1 3575   2.651   3.997   5.728
  892SOL    HW2 3576   2.674   3.938   5.878
  893SOL     OW 3577   2.417   6.284   2.571
  893SOL    HW1 3578   2.377   6.212   2.627
  893SOL    HW2 3579   2.470   6.346   2.629
  894SOL     OW 3580   0.806   3.326   1.275
  894SOL    HW1 3581   0.828   3.234   1.241
  894SOL    HW2 3582   0.801   3.390   1.199
  895SOL     OW 3583   0.713   4.393   3.183
  895SOL    HW1 3584   0.782   4.435   3.242
  895SOL    HW2 3585   0.712   4.294   3.199
  896SOL     OW 3586   5.703   5.077   0.552
  896SOL    HW1 3587   5.673   4.991   0.594
  896SOL    HW2 3588   5.662   5.086   0.461
  897SOL     OW 3589   4.726   1.212   0.363
  897SOL    HW1 3590   4.641   1.189   0.316
  897SOL    HW2 3591   4.738   1.152   0.442
  898SOL     OW 3592   3.666   6.049   2.928
  898SOL    HW1 3593   3.617   6.124   2.883
  898SOL    HW2 3594   3.755   6.036   2.884
  899SOL     OW 3595   0.337   5.854   6.226
  899SOL    HW1 3596   0.384   5.933   6.263
  899SOL    HW2 3597   0.356   5.774   6.283
  900SOL     OW 3598   6.272   7.001   0.160
  900SOL    HW1 3599   6.276   6.966   0.066
  900SOL    HW2 3600   6.310   6.932   0.222
  901SOL     OW 3601   2.365   0.642   2.657
  901SOL    HW1 3602   2.335   0.664   2.564
  901SOL    HW2 3603   2.296   0.673   2.722
  902SOL     OW 3604   6.883   3.179   0.505
  902SOL    HW1 3605   6.906   3.271   0.471
  902SOL    HW2 3606   6.887   3.179   0.605
  903SOL     OW 3607   6.746   2.290   6.456
  903SOL    HW1 3608   6.661   2.342   6.457
  903SOL    HW2 3609   6.808   2.330   6.388
  904SOL     OW 3610   2.603   2.059   3.730
  904SOL    HW1 3611   2.646   2.148   3.746
  904SOL    HW2 3612   2.519   2.071   3.677
  905SOL     OW 3613   5.221   1.942   0.022
  905SOL    HW1 3614   5.222   1.844   0.000
  905SOL    HW2 3615   5.154   1.959   0.094
  906SOL     OW 3616   0.190   2.475   5.896
  906SOL    HW1 3617   0.203   2.552   5.834
  906SOL    HW2 3618   0.245   2.397   5.865
  907SOL     OW 3619   5.115   3.158   0.472
  907SOL    HW1 3620   5.098   3.256   0.485
  907SOL    HW2 3621   5.059   3.124   0.397
  908SOL     OW 3622   2.439   4.896   2.765
  908SOL    HW1 3623   2.528   4.879   2.722
  908SOL    HW2 3624   2.366   4.879   2.699
  909SOL     OW 3625   4.218   5.545   0.042
  909SOL    HW1 3626   4.181   5.500   6.983
  909SOL    HW2 3627   4.270   5.626   0.015
  910SOL     OW 3628   3.005   2.835   1.421
  910SOL    HW1 3629   3.026   2.901   1.493
  910SOL    HW2 3630   3.079   2.770   1.412
  911SOL     OW 3631   1.384   5.733   6.056
  911SOL    HW1 3632   1.377   5.830   6.032
  911SOL    HW2 3633   1.295   5.700   6.086
  912SOL     OW 3634   5.381   2.768   3.310
  912SOL    HW1 3635   5.301   2.725   3.353
  912SOL    HW2 3636   5.351   2.838   3.246
  913SOL     OW 3637   4.884   6.107   3.355
  913SOL    HW1 3638   4.932   6.191   3.330
  913SOL    HW2 3639   4.808   6.092   3.291
  914SOL     OW 3640   2.238   0.432   6.567
  914SOL    HW1 3641   2.229   0.531   6.576
  914SOL    HW2 3642   2.331   0.404   6.590
  915SOL     OW 3643   5.940   4.452   6.851
  915SOL    HW1 3644   5.998   4.530   6.877
  915SOL    HW2 3645   5.911   4.462   6.756
  916SOL     OW 3646   1.492   2.351   2.205
  916SOL    HW1 3647   1.480   2.432   2.148
  916SOL    HW2 3648   1.553   2.287   2.158
  917SOL     OW 3649   7.011   6.629   0.509
  917SOL    HW1 3650   0.032   6.542   0.486
  917SOL    HW2 3651   6.938   6.614   0.576
  918SOL     OW 3652   2.207   6.798   0.713
  918SOL    HW1 3653   2.196   6.699   0.709
  918SOL    HW2 3654   2.289   6.824   0.661
  919SOL     OW 3655   5.498   1.104   3.531
  919SOL    HW1 3656   5.543   1.050   3.603
  919SOL    HW2 3657   5.497   1.200   3.557
  920SOL     OW 3658   2.220   4.697   1.540
  920SOL    HW1 3659   2.192   4.727   1.631
  920SOL    HW2 3660   2.318   4.677   1.540
  921SOL     OW 3661   5.064   5.345   4.215
  921SOL    HW1 3662   5.034   5.266   4.161
  921SOL    HW2 3663   5.016   5.427   4.184
  922SOL     OW 3664   3.780   3.643   4.421
  922SOL    HW1 3665   3.851   3.677   4.482
  922SOL    HW2 3666   3.739   3.720   4.371
  923SOL     OW 3667   2.223   2.807   5.705
  923SOL    HW1 3668   2.166   2.726   5.690
  923SOL    HW2 3669   2.311   2.795   5.660
  924SOL     OW 3670   6.530   3.613   2.575
  924SOL    HW1 3671   6.526   3.648   2.669
  924SOL    HW2 3672   6.556   3.687   2.513
  925SOL     OW 3673   6.777   2.458   0.181
  925SOL    HW1 3674   6.857   2.408   0.214
  925SOL    HW2 3675   6.700   2.444   0.243
  926SOL     OW 3676   6.925   1.572   1.436
  926SOL    HW1 3677   6.923   1.629   1.354
  926SOL    HW2 3678   7.017   1.575   1.476
  927SOL     OW 3679   5.921   3.903   3.878
  927SOL    HW1 3680   5.852   3.861   3.818
  927SOL    HW2 3681   5.876   3.965   3.942
  928SOL     OW 3682   2.999   6.135   0.624
  928SOL    HW1 3683   2.944   6.053   0.642
  928SOL    HW2 3684   2.997   6.195   0.704
  929SOL     OW 3685   6.586   1.194   6.997
  929SOL    HW1 3686   6.682   1.170   6.984
  929SOL    HW2 3687   6.528   1.133   6.943
  930SOL     OW 3688   4.149   5.353   6.069
  930SOL    HW1 3689   4.114   5.282   6.009
  930SOL    HW2 3690   4.169   5.435   6.016
  931SOL     OW 3691   6.846   2.110   3.674
  931SOL    HW1 3692   6.939   2.118   3.639
  931SOL    HW2 3693   6.848   2.097   3.773
  932SOL     OW 3694   3.703   1.474   3.625
  932SOL    HW1 3695   3.682   1.560   3.672
  932SOL    HW2 3696   3.652   1.399   3.668
  933SOL     OW 3697   1.414   4.933   2.653
  933SOL    HW1 3698   1.417   4.859   2.721
  933SOL    HW2 3699   1.471   5.008   2.684
  934SOL     OW 3700   2.489   5.693   6.222
  934SOL    HW1 3701   2.587   5.674   6.229
  934SOL    HW2 3702   2.442   5.610   6.193
  935SOL     OW 3703   5.167   3.832   3.517
  935SOL    HW1 3704   5.120   3.901   3.462
  935SOL    HW2 3705   5.101   3.782   3.572
  936SOL     OW 3706   1.228   0.447   6.089
  936SOL    HW1 3707   1.145   0.414   6.135
  936SOL    HW2 3708   1.298   0.375   6.091
  937SOL     OW 3709   4.333   1.202   5.753
  937SOL    HW1 3710   4.243   1.180   5.715
  937SOL    HW2 3711   4.366   1.288   5.712
  938SOL     OW 3712   0.153   5.784   3.937
  938SOL    HW1 3713   0.212   5.756   4.013
  938SOL    HW2 3714   0.104   5.704   3.901
  939SOL     OW 3715   6.812   6.699   4.850
  939SOL    HW1 3716   6.901   6.682   4.891
  939SOL    HW2 3717   6.776   6.787   4.883
  940SOL     OW 3718   0.993   4.731   0.950
  940SOL    HW1 3719   1.075   4.674   0.957
  940SOL    HW2 3720   0.976   4.753   0.854
  941SOL     OW 3721   4.700   0.512   6.531
  941SOL    HW1 3722   4.720   0.598   6.579
  941SOL    HW2 3723   4.606   0.485   6.552
  942SOL     OW 3724   6.503   6.355   0.938
  942SOL    HW1 3725   6.600   6.345   0.915
  942SOL    HW2 3726   6.454   6.272   0.911
  943SOL     OW 3727   2.776   4.714   2.738
  943SOL    HW1 3728   2.688   4.673   2.761
  943SOL    HW2 3729   2.764   4.783   2.667
  944SOL     OW 3730   0.343   5.968   4.271
  944SOL    HW1 3731   0.387   5.984   4.360
  944SOL    HW2 3732   0.258   6.020   4.265
  945SOL     OW 3733   0.207   5.700   5.474
  945SOL    HW1 3734   0.300   5.732   5.492
  945SOL    HW2 3735   0.202   5.601   5.488
  946SOL     OW 3736   4.939   4.592   4.513
  946SOL    HW1 3737   5.013   4.627   4.571
  946SOL    HW2 3738   4.970   4.509   4.466
  947SOL     OW 3739   4.115   3.697   3.745
  947SOL    HW1 3740   4.164   3.640   3.811
  947SOL    HW2 3741   4.058   3.763   3.794
  948SOL     OW 3742   4.850   1.139   2.697
  948SOL    HW1 3743   4.943   1.105   2.691
  948SOL    HW2 3744   4.809   1.140   2.605
  949SOL     OW 3745   2.754   6.625   0.877
  949SOL    HW1 3746   2.766   6.545   0.818
  949SOL    HW2 3747   2.819   6.622   0.953
  950SOL     OW 3748   6.630   5.747   1.601
  950SOL    HW1 3749   6.693   5.820   1.629
  950SOL    HW2 3750   6.562   5.732   1.673
  951SOL     OW 3751   1.725   0.210   3.424
  951SOL    HW1 3752   1.664   0.154   3.479
  951SOL    HW2 3753   1.765   0.282   3.481
  952SOL     OW 3754   3.826   2.134   2.471
  952SOL    HW1 3755   3.842   2.174   2.380
  952SOL    HW2 3756   3.763   2.057   2.463
  953SOL     OW 3757   6.547   5.556   4.853
  953SOL    HW1 3758   6.581   5.637   4.899
  953SOL    HW2 3759   6.606   5.478   4.874
  954SOL     OW 3760   4.769   5.738   1.991
  954SOL    HW1 3761   4.789   5.743   2.089
  954SOL    HW2 3762   4.822   5.662   1.951
  955SOL     OW 3763   1.556   4.777   6.783
  955SOL    HW1 3764   1.541   4.793   6.880
  955SOL    HW2 3765   1.470   4.753   6.739
  956SOL     OW 3766   0.050   0.739   0.971
  956SOL    HW1 3767   0.058   0.644   0.942
  956SOL    HW2 3768   0.102   0.753   1.055
  957SOL     OW 3769   6.041   1.625   2.315
  957SOL    HW1 3770   5.972   1.631   2.243
  957SOL    HW2 3771   6.008   1.565   2.388
  958SOL     OW 3772   5.011   6.793   2.429
  958SOL    HW1 3773   4.984   6.823   2.520
  958SOL    HW2 3774   4.973   6.855   2.360
  959SOL     OW 3775   3.410   6.856   4.191
  959SOL    HW1 3776   3.326   6.816   4.155
  959SOL    HW2 3777   3.389   6.909   4.273
  960SOL     OW 3778   0.611   0.443   0.465
  960SOL    HW1 3779   0.592   0.496   0.548
  960SOL    HW2 3780   0.567   0.354   0.470
  961SOL     OW 3781   3.029   6.286   3.087
  961SOL    HW1 3782   3.041   6.197   3.042
  961SOL    HW2 3783   3.028   6.359   3.019
  962SOL     OW 3784   6.622   6.936   4.797
  962SOL    HW1 3785   6.556   6.865   4.825
  962SOL    HW2 3786   6.586   6.985   4.718
  963SOL     OW 3787   4.518   2.145   1.494
  963SOL    HW1 3788   4.609   2.184   1.489
  963SOL    HW2 3789   4.474   2.153   1.404
  964SOL     OW 3790   5.395   4.551   4.848
  964SOL    HW1 3791   5.442   4.548   4.936
  964SOL    HW2 3792   5.434   4.483   4.787
  965SOL     OW 3793   5.550   2.337   2.454
  965SOL    HW1 3794   5.536   2.418   2.511
  965SOL    HW2 3795   5.644   2.337   2.419
  966SOL     OW 3796   4.972   1.838   3.460
  966SOL    HW1 3797   4.977   1.861   3.363
  966SOL    HW2 3798   5.064   1.826   3.496
  967SOL     OW 3799   4.655   4.369   6.210
  967SOL    HW1 3800   4.682   4.303   6.281
  967SOL    HW2 3801   4.555   4.374   6.206
  968SOL     OW 3802   3.617   0.599   2.003
  968SOL    HW1 3803   3.562   0.561   2.078
  968SOL    HW2 3804   3.655   0.687   2.031
  969SOL     OW 3805   3.622   4.921   5.739
  969SOL    HW1 3806   3.654   4.830   5.713
  969SOL    HW2 3807   3.534   4.912   5.786
  970SOL     OW 3808   6.191   0.667   4.968
  970SOL    HW1 3809   6.278   0.646   5.011
  970SOL    HW2 3810   6.181   0.611   4.885
  971SOL     OW 3811   0.021   4.644   2.896
  971SOL    HW1 3812   6.944   4.646   2.877
  971SOL    HW2 3813   0.040   4.573   2.963
  972SOL     OW 3814   6.927   2.392   0.860
  972SOL    HW1 3815   6.849   2.371   0.919
  972SOL    HW2 3816   6.908   2.476   0.808
  973SOL     OW 3817   0.140   4.312   5.890
  973SOL    HW1 3818   0.139   4.410   5.911
  973SOL    HW2 3819   0.058   4.270   5.928
  974SOL     OW 3820   0.348   4.847   4.282
  974SOL    HW1 3821   0.394   4.795   4.211
  974SOL    HW2 3822   0.275   4.903   4.242
  975SOL     OW 3823   2.059   6.427   1.828
  975SOL    HW1 3824   2.133   6.360   1.834
  975SOL    HW2 3825   2.087   6.512   1.873
  976SOL     OW 3826   6.524   4.047   1.966
  976SOL    HW1 3827   6.470   4.038   1.882
  976SOL    HW2 3828   6.496   4.129   2.015
  977SOL     OW 3829   0.998   0.997   2.325
  977SOL    HW1 3830   0.977   0.914   2.273
  977SOL    HW2 3831   1.059   0.974   2.401
  978SOL     OW 3832   5.928   2.158   1.883
  978SOL    HW1 3833   5.864   2.082   1.871
  978SOL    HW2 3834   6.020   2.128   1.859
  979SOL     OW 3835   0.123   3.323   6.249
  979SOL    HW1 3836   0.180   3.250   6.289
  979SOL    HW2 3837   0.028   3.310   6.277
  980SOL     OW 3838   3.838   1.113   4.754
  980SOL    HW1 3839   3.816   1.135   4.659
  980SOL    HW2 3840   3.818   1.016   4.771
  981SOL     OW 3841   6.759   0.441   4.891
  981SOL    HW1 3842   6.713   0.484   4.969
  981SOL    HW2 3843   6.824   0.373   4.926
  982SOL     OW 3844   0.380   1.913   5.467
  982SOL    HW1 3845   0.300   1.965   5.437
  982SOL    HW2 3846   0.351   1.828   5.510
  983SOL     OW 3847   0.549   3.644   3.554
  983SOL    HW1 3848   0.489   3.587   3.610
  983SOL    HW2 3849   0.577   3.592   3.473
  984SOL     OW 3850   1.712   2.186   3.300
  984SOL    HW1 3851   1.640   2.161   3.235
  984SOL    HW2 3852   1.773   2.253   3.258
  985SOL     OW 3853   5.990   3.372   3.964
  985SOL    HW1 3854   6.025   3.344   3.874
  985SOL    HW2 3855   5.891   3.362   3.966
  986SOL     OW 3856   4.959   4.262   1.431
  986SOL    HW1 3857   4.960   4.229   1.525
  986SOL    HW2 3858   5.038   4.321   1.415
  987SOL     OW 3859   5.859   5.586   3.554
  987SOL    HW1 3860   5.763   5.589   3.529
  987SOL    HW2 3861   5.870   5.613   3.650
  988SOL     OW 3862   3.624   3.915   1.714
  988SOL    HW1 3863   3.647   3.888   1.807
  988SOL    HW2 3864   3.644   4.012   1.701
  989SOL     OW 3865   0.271   2.409   0.517
  989SOL    HW1 3866   0.235   2.416   0.610
  989SOL    HW2 3867   0.332   2.487   0.500
  990SOL     OW 3868   3.523   0.846   3.184
  990SOL    HW1 3869   3.614   0.871   3.152
  990SOL    HW2 3870   3.531   0.793   3.268
  991SOL     OW 3871   6.662   3.963   4.207
  991SOL    HW1 3872   6.657   3.863   4.205
  991SOL    HW2 3873   6.675   3.994   4.302
  992SOL     OW 3874   1.127   2.836   1.111
  992SOL    HW1 3875   1.117   2.741   1.138
  992SOL    HW2 3876   1.095   2.896   1.185
  993SOL     OW 3877   1.248   4.672   0.909
  993SOL    HW1 3878   1.250   4.744   0.839
  993SOL    HW2 3879   1.340   4.655   0.943
  994SOL     OW 3880   3.436   6.571   1.558
  994SOL    HW1 3881   3.384   6.623   1.489
  994SOL    HW2 3882   3.446   6.477   1.527
  995SOL     OW 3883   4.990   3.571   5.839
  995SOL    HW1 3884   5.088   3.586   5.850
  995SOL    HW2 3885   4.957   3.625   5.761
  996SOL     OW 3886   4.274   6.047   5.366
  996SOL    HW1 3887   4.344   5.977   5.367
  996SOL    HW2 3888   4.254   6.073   5.271
  997SOL     OW 3889   1.385   6.759   3.655
  997SOL    HW1 3890   1.328   6.686   3.618
  997SOL    HW2 3891   1.346   6.848   3.629
  998SOL     OW 3892   6.139   0.307   6.026
  998SOL    HW1 3893   6.119   0.221   5.978
  998SOL    HW2 3894   6.208   0.358   5.974
  999SOL     OW 3895   5.064   3.403   1.424
  999SOL    HW1 3896   5.130   3.455   1.479
  999SOL    HW2 3897   4.996   3.465   1.387
 1000SOL     OW 3898   3.912   1.835   1.191
 1000SOL    HW1 3899   3.816   1.828   1.165
 1000SOL    HW2 3900   3.961   1.890   1.123
 1001SOL     OW 3901   2.795   6.939   2.116
 1001SOL    HW1 3902   2.746   6.857   2.085
 1001SOL    HW2 3903   2.741   6.985   2.187
 1002SOL     OW 3904   5.225   2.690   1.408
 1002SOL    HW1 3905   5.249   2.787   1.410
 1002SOL    HW2 3906   5.306   2.636   1.383
 1003SOL     OW 3907   1.376   6.008   2.732
 1003SOL    HW1 3908   1.423   5.929   2.772
 1003SOL    HW2 3909   1.349   5.986   2.638
 1004SOL     OW 3910   6.282   1.451   3.368
 1004SOL    HW1 3911   6.300   1.526   3.431
 1004SOL    HW2 3912   6.355   1.447   3.299
 1005SOL     OW 3913   1.654   4.326   3.908
 1005SOL    HW1 3914   1.673   4.228   3.910
 1005SOL    HW2 3915   1.591   4.346   3.833
 1006SOL     OW 3916   2.305   4.107   0.416
 1006SOL    HW1 3917   2.208   4.105   0.439
 1006SOL    HW2 3918   2.358   4.139   0.494
 1007SOL     OW 3919   4.386   1.457   7.008
 1007SOL    HW1 3920   4.337   1.378   0.023
 1007SOL    HW2 3921   4.475   1.427   6.973
 1008SOL     OW 3922   0.444   4.763   5.078
 1008SOL    HW1 3923   0.477   4.843   5.028
 1008SOL    HW2 3924   0.400   4.794   5.163
 1009SOL     OW 3925   5.974   5.058   5.200
 1009SOL    HW1 3926   5.963   5.055   5.300
 1009SOL    HW2 3927   5.976   4.965   5.164
 1010SOL     OW 3928   2.110   3.188   1.575
 1010SOL    HW1 3929   2.192   3.203   1.631
 1010SOL    HW2 3930   2.072   3.098   1.596
 1011SOL     OW 3931   0.718   5.047   2.579
 1011SOL    HW1 3932   0.739   5.144   2.588
 1011SOL    HW2 3933   0.700   5.025   2.483
 1012SOL     OW 3934   6.277   0.281   2.287
 1012SOL    HW1 3935   6.215   0.217   2.243
 1012SOL    HW2 3936   6.256   0.375   2.259
 1013SOL     OW 3937   6.901   1.016   5.804
 1013SOL    HW1 3938   6.811   1.056   5.785
 1013SOL    HW2 3939   6.965   1.041   5.732
 1014SOL     OW 3940   1.422   4.803   3.757
 1014SOL    HW1 3941   1.358   4.755   3.818
 1014SOL    HW2 3942   1.503   4.831   3.808
 1015SOL     OW 3943   3.301   0.259   6.433
 1015SOL    HW1 3944   3.268   0.351   6.413
 1015SOL    HW2 3945   3.300   0.245   6.532
 1016SOL     OW 3946   5.244   3.936   1.183
 1016SOL    HW1 3947   5.282   3.905   1.270
 1016SOL    HW2 3948   5.147   3.913   1.178
 1017SOL     OW 3949   2.106   1.831   1.616
 1017SOL    HW1 3950   2.040   1.762   1.585
 1017SOL    HW2 3951   2.119   1.900   1.545
 1018SOL     OW 3952   7.020   5.013   3.719
 1018SOL    HW1 3953   6.983   4.928   3.681
 1018SOL    HW2 3954   0.093   5.000   3.746
 1019SOL     OW 3955   6.833   4.933   0.769
 1019SOL    HW1 3956   6.744   4.944   0.814
 1019SOL    HW2 3957   6.827   4.860   0.701
 1020SOL     OW 3958   0.274   0.444   1.815
 1020SOL    HW1 3959   0.261   0.437   1.914
 1020SOL    HW2 3960   0.191   0.483   1.774
 1021SOL     OW 3961   6.365   6.001   2.015
 1021SOL    HW1 3962   6.388   6.096   2.035
 1021SOL    HW2 3963   6.313   5.962   2.091
 1022SOL     OW 3964   2.522   6.136   6.428
 1022SOL    HW1 3965   2.528   6.231   6.460
 1022SOL    HW2 3966   2.568   6.076   6.493
 1023SOL     OW 3967   6.837   1.555   2.761
 1023SOL    HW1 3968   6.787   1.617   2.699
 1023SOL    HW2 3969   6.795   1.465   2.757
 1024SOL     OW 3970   0.834   1.541   4.680
 1024SOL    HW1 3971   0.762   1.471   4.680
 1024SOL    HW2 3972   0.803   1.620   4.626
 1025SOL     OW 3973   5.178   3.654   6.387
 1025SOL    HW1 3974   5.114   3.641   6.312
 1025SOL    HW2 3975   5.226   3.741   6.374
 1026SOL     OW 3976   3.084   2.394   1.713
 1026SOL    HW1 3977   3.032   2.424   1.792
 1026SOL    HW2 3978   3.023   2.348   1.648
 1027SOL     OW 3979   1.402   5.908   1.761
 1027SOL    HW1 3980   1.446   5.945   1.843
 1027SOL    HW2 3981   1.352   5.981   1.715
 1028SOL     OW 3982   1.033   6.485   3.297
 1028SOL    HW1 3983   1.123   6.530   3.293
 1028SOL    HW2 3984   1.046   6.386   3.290
 1029SOL     OW 3985   1.064   2.053   5.804
 1029SOL    HW1 3986   1.096   2.089   5.891
 1029SOL    HW2 3987   1.029   2.128   5.748
 1030SOL     OW 3988   3.411   3.261   1.741
 1030SOL    HW1 3989   3.346   3.337   1.746
 1030SOL    HW2 3990   3.389   3.193   1.811
 1031SOL     OW 3991   3.669   3.343   1.514
 1031SOL    HW1 3992   3.612   3.315   1.591
 1031SOL    HW2 3993   3.764   3.355   1.545
 1032SOL     OW 3994   2.097   1.159   5.954
 1032SOL    HW1 3995   2.005   1.163   5.993
 1032SOL    HW2 3996   2.159   1.213   6.011
 1033SOL     OW 3997   0.947   5.797   2.148
 1033SOL    HW1 3998   0.976   5.706   2.117
 1033SOL    HW2 3999   0.848   5.797   2.163
 1034SOL     OW 4000   3.466   6.568   4.367
 1034SOL    HW1 4001   3.492   6.591   4.274
 1034SOL    HW2 4002   3.368   6.549   4.371
 1035SOL     OW 4003   0.625   1.938   5.683
 1035SOL    HW1 4004   0.593   1.979   5.769
 1035SOL    HW2 4005   0.546   1.911   5.628
 1036SOL     OW 4006   4.999   1.209   1.395
 1036SOL    HW1 4007   4.993   1.301   1.357
 1036SOL    HW2 4008   4.951   1.206   1.483
 1037SOL     OW 4009   2.102   2.299   2.748
 1037SOL    HW1 4010   2.036   2.323   2.820
 1037SOL    HW2 4011   2.054   2.293   2.661
 1038SOL     OW 4012   2.345   0.436   6.869
 1038SOL    HW1 4013   2.331   0.512   6.933
 1038SOL    HW2 4014   2.305   0.353   6.906
 1039SOL     OW 4015   3.123   3.113   3.615
 1039SOL    HW1 4016   3.031   3.149   3.602
 1039SOL    HW2 4017   3.176   3.176   3.673
 1040SOL     OW 4018   4.963   0.955   3.149
 1040SOL    HW1 4019   4.999   0.898   3.223
 1040SOL    HW2 4020   4.942   0.898   3.070
 1041SOL     OW 4021   6.858   6.343   4.967
 1041SOL    HW1 4022   6.888   6.248   4.953
 1041SOL    HW2 4023   6.859   6.391   4.880
 1042SOL     OW 4024   4.843   4.919   2.422
 1042SOL    HW1 4025   4.795   4.832   2.410
 1042SOL    HW2 4026   4.871   4.929   2.518
 1043SOL     OW 4027   3.290   1.354   3.526
 1043SOL    HW1 4028   3.273   1.279   3.462
 1043SOL    HW2 4029   3.207   1.373   3.578
 1044SOL     OW 4030   6.156   4.779   1.469
 1044SOL    HW1 4031   6.223   4.769   1.396
 1044SOL    HW2 4032   6.068   4.806   1.430
 1045SOL     OW 4033   2.125   0.535   3.379
 1045SOL    HW1 4034   2.146   0.439   3.357
 1045SOL    HW2 4035   2.167   0.559   3.466
 1046SOL     OW 4036   3.101   1.183   1.564
 1046SOL    HW1 4037   3.200   1.176   1.556
 1046SOL    HW2 4038   3.060   1.092   1.558
 1047SOL     OW 4039   3.344   6.717   3.659
 1047SOL    HW1 4040   3.269   6.656   3.637
 1047SOL    HW2 4041   3.391   6.745   3.575
 1048SOL     OW 4042   2.152   5.945   2.097
 1048SOL    HW1 4043   2.103   5.908   2.018
 1048SOL    HW2 4044   2.248   5.917   2.093
 1049SOL     OW 4045   3.993   0.125   4.054
 1049SOL    HW1 4046   3.904   0.144   4.013
 1049SOL    HW2 4047   4.060   0.106   3.982
 1050SOL     OW 4048   4.073   5.160   3.625
 1050SOL    HW1 4049   4.047   5.254   3.649
 1050SOL    HW2 4050   4.055   5.100   3.703
 1051SOL     OW 4051   6.895   6.849   0.054
 1051SOL    HW1 4052   6.922   6.858   6.980
 1051SOL    HW2 4053   6.807   6.895   0.068
 1052SOL     OW 4054   3.966   0.368   5.894
 1052SOL    HW1 4055   4.058   0.404   5.882
 1052SOL    HW2 4056   3.958   0.327   5.985
 1053SOL     OW 4057   5.732   3.532   2.256
 1053SOL    HW1 4058   5.812   3.561   2.203
 1053SOL    HW2 4059   5.709   3.603   2.322
 1054SOL     OW 4060   3.172   4.080   0.866
 1054SOL    HW1 4061   3.176   4.045   0.772
 1054SOL    HW2 4062   3.253   4.134   0.885
 1055SOL     OW 4063   4.931   5.863   6.967
 1055SOL    HW1 4064   4.905   5.955   6.998
 1055SOL    HW2 4065   4.889   5.795   0.005
 1056SOL     OW 4066   2.021   4.136   0.587
 1056SOL    HW1 4067   2.030   4.234   0.602
 1056SOL    HW2 4068   1.992   4.119   0.493
 1057SOL     OW 4069   3.540   1.728   1.401
 1057SOL    HW1 4070   3.611   1.659   1.395
 1057SOL    HW2 4071   3.542   1.785   1.319
 1058SOL     OW 4072   3.809   2.083   3.052
 1058SOL    HW1 4073   3.757   2.128   2.979
 1058SOL    HW2 4074   3.753   2.011   3.093
 1059SOL     OW 4075   2.169   6.256   2.127
 1059SOL    HW1 4076   2.215   6.174   2.161
 1059SOL    HW2 4077   2.091   6.277   2.186
 1060SOL     OW 4078   0.536   5.733   4.377
 1060SOL    HW1 4079   0.560   5.809   4.317
 1060SOL    HW2 4080   0.618   5.680   4.400
 1061SOL     OW 4081   6.518   4.081   7.021
 1061SOL    HW1 4082   6.540   4.159   6.963
 1061SOL    HW2 4083   6.494   4.003   6.963
 1062SOL     OW 4084   3.832   6.424   4.627
 1062SOL    HW1 4085   3.872   6.504   4.582
 1062SOL    HW2 4086   3.752   6.393   4.575
 1063SOL     OW 4087   1.184   0.034   6.057
 1063SOL    HW1 4088   1.256   0.096   6.091
 1063SOL    HW2 4089   1.188   0.030   5.957
 1064SOL     OW 4090   0.794   4.512   1.018
 1064SOL    HW1 4091   0.858   4.587   1.003
 1064SOL    HW2 4092   0.844   4.429   1.043
 1065SOL     OW 4093   3.845   1.047   3.609
 1065SOL    HW1 4094   3.811   0.961   3.647
 1065SOL    HW2 4095   3.810   1.058   3.516
 1066SOL     OW 4096   4.860   0.350   2.301
 1066SOL    HW1 4097   4.791   0.412   2.265
 1066SOL    HW2 4098   4.816   0.273   2.348
 1067SOL     OW 4099   2.716   1.007   0.081
 1067SOL    HW1 4100   2.626   0.974   0.054
 1067SOL    HW2 4101   2.779   0.929   0.087
 1068SOL     OW 4102   6.280   3.250   0.918
 1068SOL    HW1 4103   6.196   3.273   0.967
 1068SOL    HW2 4104   6.340   3.330   0.916
 1069SOL     OW 4105   5.671   4.409   0.794
 1069SOL    HW1 4106   5.668   4.412   0.894
 1069SOL    HW2 4107   5.749   4.354   0.764
 1070SOL     OW 4108   2.289   0.379   2.427
 1070SOL    HW1 4109   2.299   0.350   2.332
 1070SOL    HW2 4110   2.193   0.401   2.445
 1071SOL     OW 4111   6.765   2.458   4.866
 1071SOL    HW1 4112   6.791   2.488   4.774
 1071SOL    HW2 4113   6.759   2.358   4.869
 1072SOL     OW 4114   2.530   0.609   1.823
 1072SOL    HW1 4115   2.540   0.709   1.823
 1072SOL    HW2 4116   2.480   0.581   1.905
 1073SOL     OW 4117   5.497   1.493   3.107
 1073SOL    HW1 4118   5.525   1.485   3.202
 1073SOL    HW2 4119   5.397   1.504   3.102
 1074SOL     OW 4120   3.205   4.856   2.333
 1074SOL    HW1 4121   3.283   4.889   2.279
 1074SOL    HW2 4122   3.142   4.805   2.274
 1075SOL     OW 4123   5.742   2.129   5.090
 1075SOL    HW1 4124   5.714   2.224   5.103
 1075SOL    HW2 4125   5.826   2.126   5.036
 1076SOL     OW 4126   2.065   4.117   5.142
 1076SOL    HW1 4127   2.065   4.147   5.237
 1076SOL    HW2 4128   2.157   4.087   5.116
 1077SOL     OW 4129   6.955   0.481   0.177
 1077SOL    HW1 4130   6.890   0.529   0.236
 1077SOL    HW2 4131   7.002   0.548   0.119
 1078SOL     OW 4132   6.457   6.846   4.098
 1078SOL    HW1 4133   6.365   6.819   4.128
 1078SOL    HW2 4134   6.520   6.770   4.112
 1079SOL     OW 4135   1.365   5.731   2.563
 1079SOL    HW1 4136   1.293   5.715   2.631
 1079SOL    HW2 4137   1.323   5.744   2.473
 1080SOL     OW 4138   2.154   6.055   5.781
 1080SOL    HW1 4139   2.208   6.120   5.833
 1080SOL    HW2 4140   2.058   6.063   5.807
 1081SOL     OW 4141   6.568   5.615   4.516
 1081SOL    HW1 4142   6.517   5.605   4.602
 1081SOL    HW2 4143   6.538   5.700   4.471
 1082SOL     OW 4144   5.434   0.445   5.739
 1082SOL    HW1 4145   5.425   0.517   5.669
 1082SOL    HW2 4146   5.525   0.449   5.780
 1083SOL     OW 4147   5.181   4.402   0.451
 1083SOL    HW1 4148   5.277   4.409   0.477
 1083SOL    HW2 4149   5.148   4.491   0.420
 1084SOL     OW 4150   6.455   0.261   6.576
 1084SOL    HW1 4151   6.407   0.349   6.585
 1084SOL    HW2 4152   6.553   0.275   6.590
 1085SOL     OW 4153   1.831   3.594   4.568
 1085SOL    HW1 4154   1.860   3.667   4.506
 1085SOL    HW2 4155   1.912   3.548   4.605
 1086SOL     OW 4156   6.658   4.569   6.101
 1086SOL    HW1 4157   6.620   4.477   6.094
 1086SOL    HW2 4158   6.611   4.630   6.037
 1087SOL     OW 4159   1.217   0.900   5.194
 1087SOL    HW1 4160   1.278   0.915   5.116
 1087SOL    HW2 4161   1.251   0.823   5.248
 1088SOL     OW 4162   0.007   5.295   3.734
 1088SOL    HW1 4163   0.043   5.202   3.734
 1088SOL    HW2 4164   6.931   5.293   3.714
 1089SOL     OW 4165   6.991   5.299   4.861
 1089SOL    HW1 4166   6.988   5.255   4.951
 1089SOL    HW2 4167   0.065   5.316   4.836
 1090SOL     OW 4168   5.898   1.637   4.402
 1090SOL    HW1 4169   5.995   1.655   4.413
 1090SOL    HW2 4170   5.845   1.713   4.439
 1091SOL     OW 4171   2.070   3.575   3.706
 1091SOL    HW1 4172   1.979   3.549   3.736
 1091SOL    HW2 4173   2.084   3.673   3.722
 1092SOL     OW 4174   0.970   5.099   1.115
 1092SOL    HW1 4175   0.918   5.026   1.159
 1092SOL    HW2 4176   0.936   5.188   1.146
 1093SOL     OW 4177   2.306   6.626   1.483
 1093SOL    HW1 4178   2.378   6.571   1.524
 1093SOL    HW2 4179   2.345   6.686   1.413
 1094SOL     OW 4180   1.109   6.952   2.696
 1094SOL    HW1 4181   1.160   0.014   2.717
 1094SOL    HW2 4182   1.149   6.875   2.745
 1095SOL     OW 4183   0.081   2.731   6.360
 1095SOL    HW1 4184   0.054   2.713   6.266
 1095SOL    HW2 4185   0.050   2.823   6.387
 1096SOL     OW 4186   2.791   5.717   1.142
 1096SOL    HW1 4187   2.850   5.731   1.062
 1096SOL    HW2 4188   2.839   5.746   1.224
 1097SOL     OW 4189   1.845   5.357   3.804
 1097SOL    HW1 4190   1.867   5.356   3.902
 1097SOL    HW2 4191   1.922   5.320   3.753
 1098SOL     OW 4192   6.054   3.936   6.535
 1098SOL    HW1 4193   6.151   3.952   6.553
 1098SOL    HW2 4194   6.015   3.883   6.610
 1099SOL     OW 4195   4.379   1.541   6.014
 1099SOL    HW1 4196   4.469   1.512   5.981
 1099SOL    HW2 4197   4.379   1.542   6.114
 1100SOL     OW 4198   4.216   1.105   3.868
 1100SOL    HW1 4199   4.187   1.040   3.798
 1100SOL    HW2 4200   4.281   1.061   3.930
 1101SOL     OW 4201   5.435   3.211   5.150
 1101SOL    HW1 4202   5.452   3.156   5.068
 1101SOL    HW2 4203   5.522   3.232   5.194
 1102SOL     OW 4204   2.412   0.669   4.425
 1102SOL    HW1 4205   2.324   0.626   4.406
 1102SOL    HW2 4206   2.404   0.768   4.415
 1103SOL     OW 4207   2.952   1.292   6.730
 1103SOL    HW1 4208   2.930   1.364   6.795
 1103SOL    HW2 4209   2.923   1.320   6.638
 1104SOL     OW 4210   0.941   4.230   3.478
 1104SOL    HW1 4211   0.964   4.236   3.576
 1104SOL    HW2 4212   0.960   4.138   3.445
 1105SOL     OW 4213   5.477   1.761   5.120
 1105SOL    HW1 4214   5.380   1.749   5.139
 1105SOL    HW2 4215   5.532   1.719   5.192
 1106SOL     OW 4216   1.061   1.590   0.252
 1106SOL    HW1 4217   1.154   1.587   0.287
 1106SOL    HW2 4218   0.997   1.582   0.328
 1107SOL     OW 4219   1.323   0.577   6.482
 1107SOL    HW1 4220   1.250   0.518   6.446
 1107SOL    HW2 4221   1.311   0.670   6.447
 1108SOL     OW 4222   3.300   6.044   4.618
 1108SOL    HW1 4223   3.344   6.133   4.626
 1108SOL    HW2 4224   3.325   6.002   4.531
 1109SOL     OW 4225   5.734   1.315   3.726
 1109SOL    HW1 4226   5.662   1.362   3.676
 1109SOL    HW2 4227   5.803   1.282   3.661
 1110SOL     OW 4228   3.455   1.164   2.631
 1110SOL    HW1 4229   3.392   1.088   2.651
 1110SOL    HW2 4230   3.439   1.238   2.697
 1111SOL     OW 4231   4.725   4.075   6.026
 1111SOL    HW1 4232   4.764   4.087   6.117
 1111SOL    HW2 4233   4.625   4.076   6.031
 1112SOL     OW 4234   6.286   0.263   3.174
 1112SOL    HW1 4235   6.199   0.244   3.220
 1112SOL    HW2 4236   6.272   0.261   3.075
 1113SOL     OW 4237   6.447   3.983   2.832
 1113SOL    HW1 4238   6.472   3.898   2.785
 1113SOL    HW2 4239   6.463   4.061   2.771
 1114SOL     OW 4240   3.877   2.535   6.067
 1114SOL    HW1 4241   3.893   2.631   6.091
 1114SOL    HW2 4242   3.961   2.483   6.080
 1115SOL     OW 4243   3.263   4.163   5.625
 1115SOL    HW1 4244   3.178   4.111   5.633
 1115SOL    HW2 4245   3.323   4.119   5.560
 1116SOL     OW 4246   4.941   1.307   0.458
 1116SOL    HW1 4247   4.843   1.299   0.439
 1116SOL    HW2 4248   4.992   1.298   0.372
 1117SOL     OW 4249   1.222   2.655   1.617
 1117SOL    HW1 4250   1.128   2.622   1.619
 1117SOL    HW2 4251   1.285   2.579   1.633
 1118SOL     OW 4252   2.878   5.665   6.838
 1118SOL    HW1 4253   2.867   5.711   6.750
 1118SOL    HW2 4254   2.952   5.598   6.832
 1119SOL     OW 4255   4.060   4.918   3.205
 1119SOL    HW1 4256   4.150   4.898   3.244
 1119SOL    HW2 4257   4.011   4.982   3.264
 1120SOL     OW 4258   6.509   5.558   1.382
 1120SOL    HW1 4259   6.601   5.592   1.402
 1120SOL    HW2 4260   6.490   5.569   1.284
 1121SOL     OW 4261   0.870   5.312   4.256
 1121SOL    HW1 4262   0.774   5.316   4.285
 1121SOL    HW2 4263   0.912   5.230   4.293
 1122SOL     OW 4264   5.507   3.015   1.969
 1122SOL    HW1 4265   5.448   2.941   2.000
 1122SOL    HW2 4266   5.582   2.978   1.915
 1123SOL     OW 4267   4.333   2.038   2.939
 1123SOL    HW1 4268   4.287   2.093   2.869
 1123SOL    HW2 4269   4.402   1.980   2.895
 1124SOL     OW 4270   1.661   2.788   5.122
 1124SOL    HW1 4271   1.716   2.725   5.177
 1124SOL    HW2 4272   1.641   2.746   5.033
 1125SOL     OW 4273   1.879   3.639   4.943
 1125SOL    HW1 4274   1.849   3.546   4.965
 1125SOL    HW2 4275   1.799   3.694   4.919
 1126SOL     OW 4276   4.244   5.954   5.611
 1126SOL    HW1 4277   4.225   5.999   5.524
 1126SOL    HW2 4278   4.187   5.872   5.618
 1127SOL     OW 4279   5.276   6.269   3.642
 1127SOL    HW1 4280   5.309   6.272   3.737
 1127SOL    HW2 4281   5.185   6.228   3.639
 1128SOL     OW 4282   6.275   0.960   3.613
 1128SOL    HW1 4283   6.212   1.029   3.577
 1128SOL    HW2 4284   6.325   0.918   3.538
 1129SOL     OW 4285   1.826   6.438   1.082
 1129SOL    HW1 4286   1.853   6.452   1.177
 1129SOL    HW2 4287   1.736   6.481   1.066
 1130SOL     OW 4288   1.576   5.339   2.992
 1130SOL    HW1 4289   1.555   5.314   3.087
 1130SOL    HW2 4290   1.675   5.342   2.980
 1131SOL     OW 4291   1.099   6.836   4.264
 1131SOL    HW1 4292   1.096   6.909   4.196
 1131SOL    HW2 4293   1.139   6.871   4.349
 1132SOL     OW 4294   4.596   0.734   2.554
 1132SOL    HW1 4295   4.540   0.778   2.624
 1132SOL    HW2 4296   4.595   0.635   2.567
 1133SOL     OW 4297   1.283   0.032   5.063
 1133SOL    HW1 4298   1.354   0.061   4.998
 1133SOL    HW2 4299   1.325   6.998   5.135
 1134SOL     OW 4300   4.704   6.679   1.836
 1134SOL    HW1 4301   4.643   6.758   1.826
 1134SOL    HW2 4302   4.660   6.611   1.895
 1135SOL     OW 4303   2.693   6.445   3.799
 1135SOL    HW1 4304   2.773   6.437   3.740
 1135SOL    HW2 4305   2.619   6.388   3.763
 1136SOL     OW 4306   2.669   6.137   2.793
 1136SOL    HW1 4307   2.751   6.134   2.736
 1136SOL    HW2 4308   2.588   6.132   2.735
 1137SOL     OW 4309   0.654   6.387   6.844
 1137SOL    HW1 4310   0.565   6.368   6.886
 1137SOL    HW2 4311   0.726   6.379   6.913
 1138SOL     OW 4312   1.920   3.532   5.592
 1138SOL    HW1 4313   1.936   3.469   5.668
 1138SOL    HW2 4314   2.008   3.564   5.557
 1139SOL     OW 4315   2.415   4.381   4.145
 1139SOL    HW1 4316   2.469   4.297   4.147
 1139SOL    HW2 4317   2.412   4.416   4.051
 1140SOL     OW 4318   2.011   1.421   1.525
 1140SOL    HW1 4319   1.946   1.429   1.450
 1140SOL    HW2 4320   2.105   1.420   1.489
 1141SOL     OW 4321   6.160   5.477   6.178
 1141SOL    HW1 4322   6.086   5.490   6.244
 1141SOL    HW2 4323   6.121   5.444   6.092
 1142SOL     OW 4324   2.575   6.948   3.751
 1142SOL    HW1 4325   2.647   6.982   3.690
 1142SOL    HW2 4326   2.616   6.921   3.838
 1143SOL     OW 4327   1.043   3.660   1.680
 1143SOL    HW1 4328   1.133   3.617   1.681
 1143SOL    HW2 4329   1.047   3.748   1.726
 1144SOL     OW 4330   5.503   4.389   2.577
 1144SOL    HW1 4331   5.569   4.334   2.526
 1144SOL    HW2 4332   5.524   4.384   2.675
 1145SOL     OW 4333   1.454   2.422   0.709
 1145SOL    HW1 4334   1.488   2.333   0.740
 1145SOL    HW2 4335   1.359   2.413   0.679
 1146SOL     OW 4336   0.576   1.579   1.542
 1146SOL    HW1 4337   0.526   1.614   1.463
 1146SOL    HW2 4338   0.651   1.642   1.564
 1147SOL     OW 4339   3.159   5.437   1.244
 1147SOL    HW1 4340   3.221   5.486   1.183
 1147SOL    HW2 4341   3.188   5.449   1.339
 1148SOL     OW 4342   4.246   6.041   2.133
 1148SOL    HW1 4343   4.282   6.033   2.040
 1148SOL    HW2 4344   4.152   6.074   2.129
 1149SOL     OW 4345   6.260   3.120   1.908
 1149SOL    HW1 4346   6.260   3.185   1.833
 1149SOL    HW2 4347   6.265   3.027   1.873
 1150SOL     OW 4348   1.594   4.376   7.003
 1150SOL    HW1 4349   1.632   4.313   6.935
 1150SOL    HW2 4350   1.509   4.415   6.968
 1151SOL     OW 4351   6.527   5.412   3.883
 1151SOL    HW1 4352   6.579   5.489   3.846
 1151SOL    HW2 4353   6.589   5.353   3.934
 1152SOL     OW 4354   4.474   0.692   0.054
 1152SOL    HW1 4355   4.432   0.605   0.026
 1152SOL    HW2 4356   4.470   0.700   0.153
 1153SOL     OW 4357   0.100   0.064   1.551
 1153SOL    HW1 4358   0.186   0.106   1.578
 1153SOL    HW2 4359   0.118   7.012   1.486
 1154SOL     OW 4360   1.096   3.344   2.453
 1154SOL    HW1 4361   1.051   3.421   2.409
 1154SOL    HW2 4362   1.193   3.343   2.429
 1155SOL     OW 4363   2.389   6.700   4.933
 1155SOL    HW1 4364   2.328   6.733   4.861
 1155SOL    HW2 4365   2.414   6.776   4.993
 1156SOL     OW 4366   3.929   1.715   4.549
 1156SOL    HW1 4367   3.937   1.627   4.596
 1156SOL    HW2 4368   4.020   1.752   4.533
 1157SOL     OW 4369   4.057   0.467   5.330
 1157SOL    HW1 4370   4.150   0.493   5.355
 1157SOL    HW2 4371   4.034   0.380   5.374
 1158SOL     OW 4372   4.803   5.659   4.007
 1158SOL    HW1 4373   4.713   5.700   3.990
 1158SOL    HW2 4374   4.854   5.655   3.921
 1159SOL     OW 4375   6.538   6.624   2.965
 1159SOL    HW1 4376   6.551   6.702   2.903
 1159SOL    HW2 4377   6.478   6.557   2.921
 1160SOL     OW 4378   4.281   6.767   1.414
 1160SOL    HW1 4379   4.284   6.668   1.423
 1160SOL    HW2 4380   4.206   6.804   1.469
 1161SOL     OW 4381   6.736   5.145   6.316
 1161SOL    HW1 4382   6.712   5.219   6.379
 1161SOL    HW2 4383   6.831   5.118   6.331
 1162SOL     OW 4384   1.797   2.873   5.581
 1162SOL    HW1 4385   1.805   2.811   5.659
 1162SOL    HW2 4386   1.875   2.860   5.520
 1163SOL     OW 4387   5.908   4.172   2.146
 1163SOL    HW1 4388   5.833   4.237   2.140
 1163SOL    HW2 4389   5.991   4.218   2.178
 1164SOL     OW 4390   5.538   2.193   4.451
 1164SOL    HW1 4391   5.569   2.098   4.441
 1164SOL    HW2 4392   5.571   2.230   4.537
 1165SOL     OW 4393   4.618   6.097   3.607
 1165SOL    HW1 4394   4.590   6.163   3.537
 1165SOL    HW2 4395   4.694   6.135   3.660
 1166SOL     OW 4396   2.066   6.290   6.509
 1166SOL    HW1 4397   2.079   6.203   6.462
 1166SOL    HW2 4398   1.977   6.328   6.485
 1167SOL     OW 4399   4.904   4.026   2.028
 1167SOL    HW1 4400   4.877   4.091   2.099
 1167SOL    HW2 4401   4.840   4.032   1.951
 1168SOL     OW 4402   6.278   2.442   2.523
 1168SOL    HW1 4403   6.236   2.529   2.547
 1168SOL    HW2 4404   6.287   2.436   2.423
 1169SOL     OW 4405   5.851   1.302   5.684
 1169SOL    HW1 4406   5.836   1.382   5.627
 1169SOL    HW2 4407   5.937   1.313   5.735
 1170SOL     OW 4408   4.866   0.070   3.064
 1170SOL    HW1 4409   4.916   0.157   3.071
 1170SOL    HW2 4410   4.844   0.037   3.155
 1171SOL     OW 4411   2.066   0.164   0.439
 1171SOL    HW1 4412   1.991   0.180   0.374
 1171SOL    HW2 4413   2.038   0.096   0.507
 1172SOL     OW 4414   5.544   3.167   0.595
 1172SOL    HW1 4415   5.603   3.235   0.637
 1172SOL    HW2 4416   5.530   3.090   0.658
 1173SOL     OW 4417   2.525   0.426   1.227
 1173SOL    HW1 4418   2.437   0.383   1.247
 1173SOL    HW2 4419   2.533   0.442   1.129
 1174SOL     OW 4420   3.469   3.687   1.673
 1174SOL    HW1 4421   3.534   3.762   1.680
 1174SOL    HW2 4422   3.434   3.665   1.764
 1175SOL     OW 4423   4.489   3.217   5.646
 1175SOL    HW1 4424   4.441   3.287   5.699
 1175SOL    HW2 4425   4.435   3.133   5.646
 1176SOL     OW 4426   4.793   3.221   6.087
 1176SOL    HW1 4427   4.858   3.296   6.072
 1176SOL    HW2 4428   4.739   3.205   6.004
 1177SOL     OW 4429   6.282   2.637   5.354
 1177SOL    HW1 4430   6.186   2.662   5.343
 1177SOL    HW2 4431   6.296   2.597   5.444
 1178SOL     OW 4432   2.834   3.892   0.733
 1178SOL    HW1 4433   2.849   3.795   0.716
 1178SOL    HW2 4434   2.867   3.945   0.655
 1179SOL     OW 4435   2.128   5.999   0.400
 1179SOL    HW1 4436   2.105   6.088   0.359
 1179SOL    HW2 4437   2.197   6.012   0.471
 1180SOL     OW 4438   3.409   5.612   2.189
 1180SOL    HW1 4439   3.326   5.667   2.192
 1180SOL    HW2 4440   3.460   5.623   2.275
 1181SOL     OW 4441   0.642   5.476   6.525
 1181SOL    HW1 4442   0.587   5.393   6.514
 1181SOL    HW2 4443   0.718   5.457   6.588
 1182SOL     OW 4444   3.685   5.550   3.286
 1182SOL    HW1 4445   3.672   5.592   3.376
 1182SOL    HW2 4446   3.760   5.484   3.290
 1183SOL     OW 4447   1.852   4.940   0.413
 1183SOL    HW1 4448   1.858   4.939   0.513
 1183SOL    HW2 4449   1.916   4.873   0.376
 1184SOL     OW 4450   0.642   0.484   4.341
 1184SOL    HW1 4451   0.670   0.495   4.245
 1184SOL    HW2 4452   0.648   0.387   4.366
 1185SOL     OW 4453   0.260   0.982   6.509
 1185SOL    HW1 4454   0.328   1.054   6.524
 1185SOL    HW2 4455   0.243   0.974   6.410
 1186SOL     OW 4456   4.972   5.235   4.497
 1186SOL    HW1 4457   4.996   5.271   4.407
 1186SOL    HW2 4458   4.965   5.136   4.493
 1187SOL     OW 4459   6.468   6.676   6.746
 1187SOL    HW1 4460   6.425   6.587   6.733
 1187SOL    HW2 4461   6.564   6.671   6.718
 1188SOL     OW 4462   3.131   6.405   5.257
 1188SOL    HW1 4463   3.115   6.491   5.305
 1188SOL    HW2 4464   3.087   6.407   5.168
 1189SOL     OW 4465   6.670   3.184   2.774
 1189SOL    HW1 4466   6.652   3.280   2.753
 1189SOL    HW2 4467   6.734   3.146   2.707
 1190SOL     OW 4468   2.492   6.141   3.330
 1190SOL    HW1 4469   2.441   6.177   3.407
 1190SOL    HW2 4470   2.442   6.158   3.245
 1191SOL     OW 4471   4.586   4.884   3.034
 1191SOL    HW1 4472   4.585   4.882   2.934
 1191SOL    HW2 4473   4.552   4.797   3.069
 1192SOL     OW 4474   3.478   5.411   3.193
 1192SOL    HW1 4475   3.550   5.457   3.245
 1192SOL    HW2 4476   3.484   5.438   3.097
 1193SOL     OW 4477   6.017   4.330   4.521
 1193SOL    HW1 4478   6.071   4.390   4.580
 1193SOL    HW2 4479   6.034   4.352   4.425
 1194SOL     OW 4480   5.454   6.768   1.858
 1194SOL    HW1 4481   5.375   6.742   1.914
 1194SOL    HW2 4482   5.537   6.759   1.912
 1195SOL     OW 4483   6.176   4.468   1.989
 1195SOL    HW1 4484   6.179   4.540   2.059
 1195SOL    HW2 4485   6.105   4.490   1.922
 1196SOL     OW 4486   6.931   6.060   2.823
 1196SOL    HW1 4487   6.902   6.155   2.818
 1196SOL    HW2 4488   7.009   6.045   2.763
 1197SOL     OW 4489   3.609   1.037   6.472
 1197SOL    HW1 4490   3.609   0.955   6.414
 1197SOL    HW2 4491   3.697   1.045   6.518
 1198SOL     OW 4492   1.118   2.904   1.845
 1198SOL    HW1 4493   1.061   2.827   1.874
 1198SOL    HW2 4494   1.126   2.970   1.920
 1199SOL     OW 4495   4.800   4.748   1.740
 1199SOL    HW1 4496   4.808   4.668   1.680
 1199SOL    HW2 4497   4.744   4.818   1.695
 1200SOL     OW 4498   3.352   3.563   3.004
 1200SOL    HW1 4499   3.296   3.487   2.970
 1200SOL    HW2 4500   3.296   3.622   3.062
 1201SOL     OW 4501   1.206   0.791   4.123
 1201SOL    HW1 4502   1.195   0.728   4.046
 1201SOL    HW2 4503   1.192   0.742   4.209
 1202SOL     OW 4504   0.630   5.867   6.301
 1202SOL    HW1 4505   0.691   5.905   6.231
 1202SOL    HW2 4506   0.643   5.769   6.307
 1203SOL     OW 4507   5.585   6.386   6.626
 1203SOL    HW1 4508   5.539   6.301   6.655
 1203SOL    HW2 4509   5.636   6.368   6.543
 1204SOL     OW 4510   2.703   0.211   1.242
 1204SOL    HW1 4511   2.661   0.149   1.309
 1204SOL    HW2 4512   2.654   0.298   1.243
 1205SOL     OW 4513   5.210   4.013   1.462
 1205SOL    HW1 4514   5.235   4.048   1.552
 1205SOL    HW2 4515   5.210   3.913   1.464
 1206SOL     OW 4516   3.136   3.022   5.031
 1206SOL    HW1 4517   3.118   3.040   4.934
 1206SOL    HW2 4518   3.064   2.964   5.068
 1207SOL     OW 4519   1.893   7.021   0.884
 1207SOL    HW1 4520   1.847   6.966   0.954
 1207SOL    HW2 4521   1.988   0.014   0.912
 1208SOL     OW 4522   2.932   4.033   0.499
 1208SOL    HW1 4523   2.975   4.003   0.414
 1208SOL    HW2 4524   2.847   4.082   0.478
 1209SOL     OW 4525   3.818   0.666   5.360
 1209SOL    HW1 4526   3.767   0.727   5.299
 1209SOL    HW2 4527   3.872   0.603   5.306
 1210SOL     OW 4528   2.603   0.039   2.985
 1210SOL    HW1 4529   2.590   0.080   2.894
 1210SOL    HW2 4530   2.578   0.105   3.055
 1211SOL     OW 4531   1.785   3.555   0.982
 1211SOL    HW1 4532   1.788   3.584   0.886
 1211SOL    HW2 4533   1.851   3.481   0.996
 1212SOL     OW 4534   0.223   0.945   6.235
 1212SOL    HW1 4535   0.283   0.890   6.178
 1212SOL    HW2 4536   0.140   0.968   6.185
 1213SOL     OW 4537   5.828   2.407   0.402
 1213SOL    HW1 4538   5.899   2.471   0.374
 1213SOL    HW2 4539   5.866   2.340   0.466
 1214SOL     OW 4540   0.064   2.371   0.330
 1214SOL    HW1 4541   0.135   2.384   0.399
 1214SOL    HW2 4542   0.089   2.421   0.247
 1215SOL     OW 4543   1.556   3.979   4.064
 1215SOL    HW1 4544   1.523   3.903   4.008
 1215SOL    HW2 4545   1.623   4.032   4.012
 1216SOL     OW 4546   4.138   0.615   0.256
 1216SOL    HW1 4547   4.186   0.687   0.206
 1216SOL    HW2 4548   4.121   0.645   0.349
 1217SOL     OW 4549   1.052   5.423   0.993
 1217SOL    HW1 4550   1.081   5.452   1.084
 1217SOL    HW2 4551   0.952   5.415   0.991
 1218SOL     OW 4552   1.644   4.723   4.547
 1218SOL    HW1 4553   1.699   4.646   4.580
 1218SOL    HW2 4554   1.638   4.792   4.619
 1219SOL     OW 4555   5.404   5.566   2.171
 1219SOL    HW1 4556   5.421   5.614   2.258
 1219SOL    HW2 4557   5.332   5.497   2.184
 1220SOL     OW 4558   1.032   5.117   3.215
 1220SOL    HW1 4559   0.987   5.158   3.294
 1220SOL    HW2 4560   0.967   5.108   3.140
 1221SOL     OW 4561   5.218   2.797   5.668
 1221SOL    HW1 4562   5.172   2.726   5.721
 1221SOL    HW2 4563   5.274   2.853   5.729
 1222SOL     OW 4564   6.045   0.007   6.941
 1222SOL    HW1 4565   6.141   0.017   6.914
 1222SOL    HW2 4566   5.989   0.071   6.888
 1223SOL     OW 4567   4.045   0.325   0.691
 1223SOL    HW1 4568   3.971   0.262   0.714
 1223SOL    HW2 4569   4.024   0.416   0.729
 1224SOL     OW 4570   2.421   6.407   1.157
 1224SOL    HW1 4571   2.356   6.410   1.232
 1224SOL    HW2 4572   2.376   6.372   1.075
 1225SOL     OW 4573   3.469   4.342   6.322
 1225SOL    HW1 4574   3.497   4.432   6.290
 1225SOL    HW2 4575   3.390   4.311   6.269
 1226SOL     OW 4576   2.634   4.575   1.200
 1226SOL    HW1 4577   2.641   4.547   1.104
 1226SOL    HW2 4578   2.616   4.495   1.257
 1227SOL     OW 4579   6.834   3.309   6.854
 1227SOL    HW1 4580   6.773   3.372   6.902
 1227SOL    HW2 4581   6.920   3.300   6.905
 1228SOL     OW 4582   3.733   3.223   6.231
 1228SOL    HW1 4583   3.652   3.263   6.274
 1228SOL    HW2 4584   3.806   3.292   6.228
 1229SOL     OW 4585   4.329   4.646   6.006
 1229SOL    HW1 4586   4.248   4.703   6.020
 1229SOL    HW2 4587   4.318   4.592   5.923
 1230SOL     OW 4588   4.363   0.670   4.493
 1230SOL    HW1 4589   4.451   0.623   4.486
 1230SOL    HW2 4590   4.319   0.671   4.403
 1231SOL     OW 4591   1.500   3.853   5.168
 1231SOL    HW1 4592   1.599   3.845   5.181
 1231SOL    HW2 4593   1.471   3.791   5.095
 1232SOL     OW 4594   0.990   1.915   5.137
 1232SOL    HW1 4595   1.085   1.896   5.113
 1232SOL    HW2 4596   0.931   1.894   5.060
 1233SOL     OW 4597   1.952   3.072   5.084
 1233SOL    HW1 4598   1.961   3.159   5.037
 1233SOL    HW2 4599   2.039   3.047   5.126
 1234SOL     OW 4600   6.937   4.303   3.944
 1234SOL    HW1 4601   6.848   4.272   3.977
 1234SOL    HW2 4602   6.989   4.224   3.908
 1235SOL     OW 4603   6.896   6.138   2.170
 1235SOL    HW1 4604   6.973   6.142   2.107
 1235SOL    HW2 4605   6.916   6.194   2.251
 1236SOL     OW 4606   5.406   1.097   6.599
 1236SOL    HW1 4607   5.370   1.100   6.692
 1236SOL    HW2 4608   5.359   1.165   6.542
 1237SOL     OW 4609   2.484   5.172   6.141
 1237SOL    HW1 4610   2.565   5.150   6.195
 1237SOL    HW2 4611   2.490   5.266   6.107
 1238SOL     OW 4612   2.267   0.905   1.174
 1238SOL    HW1 4613   2.353   0.860   1.149
 1238SOL    HW2 4614   2.286   0.988   1.226
 1239SOL     OW 4615   6.737   6.293   6.328
 1239SOL    HW1 4616   6.759   6.274   6.424
 1239SOL    HW2 4617   6.672   6.225   6.295
 1240SOL     OW 4618   5.914   5.981   1.514
 1240SOL    HW1 4619   5.855   5.927   1.576
 1240SOL    HW2 4620   5.947   6.062   1.562
 1241SOL     OW 4621   6.243   3.433   4.028
 1241SOL    HW1 4622   6.248   3.498   4.104
 1241SOL    HW2 4623   6.149   3.403   4.016
 1242SOL     OW 4624   1.687   3.745   0.230
 1242SOL    HW1 4625   1.782   3.766   0.209
 1242SOL    HW2 4626   1.682   3.657   0.278
 1243SOL     OW 4627   1.732   5.845   5.605
 1243SOL    HW1 4628   1.691   5.771   5.657
 1243SOL    HW2 4629   1.805   5.809   5.547
 1244SOL     OW 4630   6.961   6.908   2.866
 1244SOL    HW1 4631   6.903   6.833   2.836
 1244SOL    HW2 4632   6.981   6.968   2.789
 1245SOL     OW 4633   3.843   3.624   6.439
 1245SOL    HW1 4634   3.830   3.567   6.520
 1245SOL    HW2 4635   3.754   3.650   6.401
 1246SOL     OW 4636   2.238   6.531   2.226
 1246SOL    HW1 4637   2.174   6.607   2.237
 1246SOL    HW2 4638   2.187   6.448   2.203
 1247SOL     OW 4639   2.771   0.162   6.648
 1247SOL    HW1 4640   2.821   0.076   6.648
 1247SOL    HW2 4641   2.706   0.163   6.724
 1248SOL     OW 4642   1.425   6.905   3.885
 1248SOL    HW1 4643   1.422   6.847   3.803
 1248SOL    HW2 4644   1.466   6.993   3.861
 1249SOL     OW 4645   5.565   2.719   2.220
 1249SOL    HW1 4646   5.605   2.680   2.303
 1249SOL    HW2 4647   5.465   2.717   2.227
 1250SOL     OW 4648   1.093   4.665   4.627
 1250SOL    HW1 4649   1.132   4.643   4.538
 1250SOL    HW2 4650   1.069   4.763   4.629
 1251SOL     OW 4651   4.051   0.317   4.461
 1251SOL    HW1 4652   4.122   0.345   4.525
 1251SOL    HW2 4653   3.976   0.274   4.512
 1252SOL     OW 4654   3.524   3.803   5.870
 1252SOL    HW1 4655   3.606   3.783   5.924
 1252SOL    HW2 4656   3.464   3.723   5.870
 1253SOL     OW 4657   3.650   5.732   2.065
 1253SOL    HW1 4658   3.576   5.691   2.118
 1253SOL    HW2 4659   3.734   5.679   2.078
 1254SOL     OW 4660   6.119   2.608   2.834
 1254SOL    HW1 4661   6.049   2.537   2.829
 1254SOL    HW2 4662   6.075   2.697   2.846
 1255SOL     OW 4663   6.743   0.652   5.499
 1255SOL    HW1 4664   6.731   0.748   5.522
 1255SOL    HW2 4665   6.720   0.638   5.402
 1256SOL     OW 4666   6.862   0.135   3.017
 1256SOL    HW1 4667   6.858   0.211   2.951
 1256SOL    HW2 4668   6.920   0.063   2.981
 1257SOL     OW 4669   0.211   0.468   3.208
 1257SOL    HW1 4670   0.158   0.383   3.197
 1257SOL    HW2 4671   0.185   0.513   3.292
 1258SOL     OW 4672   0.704   5.379   3.271
 1258SOL    HW1 4673   0.754   5.311   3.325
 1258SOL    HW2 4674   0.761   5.460   3.258
 1259SOL     OW 4675   4.037   1.501   4.665
 1259SOL    HW1 4676   4.073   1.583   4.710
 1259SOL    HW2 4677   4.044   1.424   4.728
 1260SOL     OW 4678   1.065   1.119   6.394
 1260SOL    HW1 4679   1.077   1.214   6.365
 1260SOL    HW2 4680   1.037   1.064   6.315
 1261SOL     OW 4681   6.851   5.342   0.313
 1261SOL    HW1 4682   6.928   5.315   0.256
 1261SOL    HW2 4683   6.765   5.324   0.264
 1262SOL     OW 4684   5.450   5.415   1.883
 1262SOL    HW1 4685   5.429   5.338   1.943
 1262SOL    HW2 4686   5.469   5.496   1.939
 1263SOL     OW 4687   1.090   1.721   2.464
 1263SOL    HW1 4688   1.101   1.775   2.381
 1263SOL    HW2 4689   1.000   1.677   2.464
 1264SOL     OW 4690   1.355   3.899   5.480
 1264SOL    HW1 4691   1.435   3.901   5.420
 1264SOL    HW2 4692   1.350   3.810   5.526
 1265SOL     OW 4693   6.324   5.639   4.722
 1265SOL    HW1 4694   6.321   5.557   4.665
 1265SOL    HW2 4695   6.401   5.633   4.785
 1266SOL     OW 4696   0.799   1.072   4.771
 1266SOL    HW1 4697   0.865   1.146   4.757
 1266SOL    HW2 4698   0.750   1.088   4.857
 1267SOL     OW 4699   4.983   0.493   2.076
 1267SOL    HW1 4700   4.918   0.559   2.038
 1267SOL    HW2 4701   4.938   0.404   2.086
 1268SOL     OW 4702   4.253   2.263   5.345
 1268SOL    HW1 4703   4.199   2.298   5.422
 1268SOL    HW2 4704   4.230   2.315   5.263
 1269SOL     OW 4705   5.152   2.226   4.088
 1269SOL    HW1 4706   5.059   2.193   4.108
 1269SOL    HW2 4707   5.166   2.314   4.134
 1270SOL     OW 4708   1.945   4.622   2.598
 1270SOL    HW1 4709   1.896   4.687   2.540
 1270SOL    HW2 4710   1.951   4.534   2.552
 1271SOL     OW 4711   2.077   1.122   1.053
 1271SOL    HW1 4712   2.103   1.185   0.980
 1271SOL    HW2 4713   2.149   1.054   1.066
 1272SOL     OW 4714   6.620   3.924   6.474
 1272SOL    HW1 4715   6.584   3.913   6.381
 1272SOL    HW2 4716   6.715   3.895   6.476
 1273SOL     OW 4717   1.636   4.445   4.888
 1273SOL    HW1 4718   1.563   4.396   4.840
 1273SOL    HW2 4719   1.698   4.378   4.930
 1274SOL     OW 4720   0.307   4.375   1.995
 1274SOL    HW1 4721   0.366   4.437   1.942
 1274SOL    HW2 4722   0.275   4.422   2.077
 1275SOL     OW 4723   3.228   0.891   3.807
 1275SOL    HW1 4724   3.157   0.886   3.737
 1275SOL    HW2 4725   3.275   0.802   3.813
 1276SOL     OW 4726   5.442   5.070   4.220
 1276SOL    HW1 4727   5.423   5.124   4.138
 1276SOL    HW2 4728   5.531   5.025   4.211
 1277SOL     OW 4729   0.718   6.084   6.898
 1277SOL    HW1 4730   0.737   6.111   6.803
 1277SOL    HW2 4731   0.801   6.051   6.941
 1278SOL     OW 4732   1.610   7.020   3.151
 1278SOL    HW1 4733   1.573   6.960   3.222
 1278SOL    HW2 4734   1.646   0.081   3.194
 1279SOL     OW 4735   3.095   3.671   6.419
 1279SOL    HW1 4736   3.083   3.612   6.498
 1279SOL    HW2 4737   3.058   3.627   6.337
 1280SOL     OW 4738   2.891   0.846   3.748
 1280SOL    HW1 4739   2.872   0.943   3.765
 1280SOL    HW2 4740   2.859   0.822   3.656
 1281SOL     OW 4741   3.610   6.095   3.729
 1281SOL    HW1 4742   3.586   6.192   3.733
 1281SOL    HW2 4743   3.594   6.053   3.818
 1282SOL     OW 4744   6.952   2.851   0.769
 1282SOL    HW1 4745   6.879   2.851   0.701
 1282SOL    HW2 4746   7.012   2.772   0.755
 1283SOL     OW 4747   6.491   4.063   5.447
 1283SOL    HW1 4748   6.575   4.116   5.460
 1283SOL    HW2 4749   6.503   4.002   5.368
 1284SOL     OW 4750   3.764   1.417   1.169
 1284SOL    HW1 4751   3.749   1.481   1.245
 1284SOL    HW2 4752   3.760   1.324   1.204
 1285SOL     OW 4753   3.309   1.448   4.530
 1285SOL    HW1 4754   3.393   1.499   4.510
 1285SOL    HW2 4755   3.241   1.468   4.459
 1286SOL     OW 4756   5.137   2.853   1.665
 1286SOL    HW1 4757   5.095   2.772   1.626
 1286SOL    HW2 4758   5.185   2.903   1.594
 1287SOL     OW 4759   6.138   4.647   4.965
 1287SOL    HW1 4760   6.196   4.725   4.990
 1287SOL    HW2 4761   6.115   4.595   5.047
 1288SOL     OW 4762   4.699   4.564   6.607
 1288SOL    HW1 4763   4.772   4.626   6.577
 1288SOL    HW2 4764   4.610   4.602   6.582
 1289SOL     OW 4765   6.291   0.728   1.228
 1289SOL    HW1 4766   6.310   0.636   1.262
 1289SOL    HW2 4767   6.193   0.739   1.215
 1290SOL     OW 4768   1.626   0.451   0.337
 1290SOL    HW1 4769   1.713   0.412   0.368
 1290SOL    HW2 4770   1.636   0.550   0.325
 1291SOL     OW 4771   6.853   5.162   3.208
 1291SOL    HW1 4772   6.943   5.198   3.232
 1291SOL    HW2 4773   6.802   5.139   3.292
 1292SOL     OW 4774   0.138   5.553   2.593
 1292SOL    HW1 4775   0.091   5.467   2.574
 1292SOL    HW2 4776   0.079   5.630   2.570
 1293SOL     OW 4777   2.549   1.572   6.905
 1293SOL    HW1 4778   2.499   1.550   6.821
 1293SOL    HW2 4779   2.584   1.488   6.946
 1294SOL     OW 4780   1.853   4.507   6.341
 1294SOL    HW1 4781   1.827   4.584   6.399
 1294SOL    HW2 4782   1.929   4.535   6.281
 1295SOL     OW 4783   0.183   3.739   0.962
 1295SOL    HW1 4784   0.276   3.764   0.986
 1295SOL    HW2 4785   0.181   3.702   0.869
 1296SOL     OW 4786   4.938   6.818   5.566
 1296SOL    HW1 4787   4.997   6.744   5.535
 1296SOL    HW2 4788   4.994   6.900   5.581
 1297SOL     OW 4789   0.870   0.378   2.968
 1297SOL    HW1 4790   0.778   0.375   3.008
 1297SOL    HW2 4791   0.909   0.469   2.981
 1298SOL     OW 4792   5.335   6.107   2.673
 1298SOL    HW1 4793   5.358   6.045   2.598
 1298SOL    HW2 4794   5.400   6.183   2.674
 1299SOL     OW 4795   2.226   3.107   4.194
 1299SOL    HW1 4796   2.248   3.013   4.166
 1299SOL    HW2 4797   2.186   3.106   4.285
 1300SOL     OW 4798   2.481   3.905   0.716
 1300SOL    HW1 4799   2.581   3.912   0.721
 1300SOL    HW2 4800   2.440   3.966   0.784
 1301SOL     OW 4801   0.626   0.552   1.788
 1301SOL    HW1 4802   0.715   0.570   1.746
 1301SOL    HW2 4803   0.577   0.638   1.800
 1302SOL     OW 4804   5.459   0.208   6.152
 1302SOL    HW1 4805   5.524   0.132   6.160
 1302SOL    HW2 4806   5.411   0.201   6.065
 1303SOL     OW 4807   4.016   6.314   1.876
 1303SOL    HW1 4808   3.991   6.279   1.966
 1303SOL    HW2 4809   3.933   6.337   1.825
 1304SOL     OW 4810   1.030   1.264   1.012
 1304SOL    HW1 4811   0.948   1.271   0.955
 1304SOL    HW2 4812   1.047   1.168   1.034
 1305SOL     OW 4813   5.056   4.926   6.610
 1305SOL    HW1 4814   5.135   4.983   6.588
 1305SOL    HW2 4815   5.004   4.968   6.684
 1306SOL     OW 4816   1.193   6.136   4.917
 1306SOL    HW1 4817   1.281   6.179   4.895
 1306SOL    HW2 4818   1.128   6.207   4.944
 1307SOL     OW 4819   1.658   3.087   3.812
 1307SOL    HW1 4820   1.729   3.108   3.745
 1307SOL    HW2 4821   1.598   3.015   3.775
 1308SOL     OW 4822   6.723   5.640   6.750
 1308SOL    HW1 4823   6.748   5.653   6.846
 1308SOL    HW2 4824   6.775   5.704   6.693
 1309SOL     OW 4825   5.082   4.554   6.071
 1309SOL    HW1 4826   5.064   4.456   6.078
 1309SOL    HW2 4827   5.049   4.600   6.154
 1310SOL     OW 4828   1.059   3.738   3.775
 1310SOL    HW1 4829   1.124   3.775   3.708
 1310SOL    HW2 4830   1.110   3.704   3.854
 1311SOL     OW 4831   6.271   5.752   6.956
 1311SOL    HW1 4832   6.363   5.715   6.943
 1311SOL    HW2 4833   6.231   5.712   0.017
 1312SOL     OW 4834   0.761   1.079   5.718
 1312SOL    HW1 4835   0.808   1.003   5.763
 1312SOL    HW2 4836   0.823   1.124   5.654
 1313SOL     OW 4837   6.138   5.128   3.568
 1313SOL    HW1 4838   6.051   5.172   3.590
 1313SOL    HW2 4839   6.178   5.090   3.652
 1314SOL     OW 4840   2.163   1.710   5.012
 1314SOL    HW1 4841   2.111   1.791   4.985
 1314SOL    HW2 4842   2.110   1.657   5.078
 1315SOL     OW 4843   6.612   0.638   3.956
 1315SOL    HW1 4844   6.515   0.653   3.937
 1315SOL    HW2 4845   6.636   0.544   3.932
 1316SOL     OW 4846   3.808   0.166   5.379
 1316SOL    HW1 4847   3.813   0.263   5.355
 1316SOL    HW2 4848   3.736   0.152   5.446
 1317SOL     OW 4849   2.894   3.907   6.109
 1317SOL    HW1 4850   2.871   3.934   6.203
 1317SOL    HW2 4851   2.993   3.915   6.095
 1318SOL     OW 4852   2.050   2.350   0.044
 1318SOL    HW1 4853   2.140   2.391   0.033
 1318SOL    HW2 4854   1.999   2.359   6.981
 1319SOL     OW 4855   0.118   6.110   0.190
 1319SOL    HW1 4856   0.022   6.133   0.172
 1319SOL    HW2 4857   0.123   6.029   0.248
 1320SOL     OW 4858   3.391   2.906   6.451
 1320SOL    HW1 4859   3.436   2.831   6.498
 1320SOL    HW2 4860   3.415   2.903   6.354
 1321SOL     OW 4861   5.234   1.648   7.014
 1321SOL    HW1 4862   5.176   1.675   0.068
 1321SOL    HW2 4863   5.318   1.606   0.027
 1322SOL     OW 4864   3.340   0.979   5.849
 1322SOL    HW1 4865   3.324   1.018   5.941
 1322SOL    HW2 4866   3.408   1.035   5.801
 1323SOL     OW 4867   3.240   6.902   0.750
 1323SOL    HW1 4868   3.312   6.834   0.733
 1323SOL    HW2 4869   3.276   6.975   0.808
 1324SOL     OW 4870   1.263   3.903   0.312
 1324SOL    HW1 4871   1.245   3.852   0.396
 1324SOL    HW2 4872   1.216   3.858   0.235
 1325SOL     OW 4873   2.593   6.210   5.873
 1325SOL    HW1 4874   2.680   6.164   5.853
 1325SOL    HW2 4875   2.517   6.146   5.860
 1326SOL     OW 4876   4.781   4.138   4.844
 1326SOL    HW1 4877   4.826   4.222   4.813
 1326SOL    HW2 4878   4.734   4.095   4.766
 1327SOL     OW 4879   0.710   6.702   1.166
 1327SOL    HW1 4880   0.669   6.720   1.255
 1327SOL    HW2 4881   0.675   6.768   1.099
 1328SOL     OW 4882   0.959   3.383   5.837
 1328SOL    HW1 4883   0.969   3.290   5.800
 1328SOL    HW2 4884   0.898   3.380   5.916
 1329SOL     OW 4885   0.614   2.189   2.842
 1329SOL    HW1 4886   0.517   2.170   2.856
 1329SOL    HW2 4887   0.632   2.286   2.857
 1330SOL     OW 4888   6.737   2.061   0.940
 1330SOL    HW1 4889   6.759   2.097   0.850
 1330SOL    HW2 4890   6.724   2.138   1.004
 1331SOL     OW 4891   4.885   2.269   2.447
 1331SOL    HW1 4892   4.835   2.321   2.516
 1331SOL    HW2 4893   4.982   2.265   2.473
 1332SOL     OW 4894   1.942   0.456   0.943
 1332SOL    HW1 4895   1.859   0.404   0.921
 1332SOL    HW2 4896   1.921   0.554   0.942
 1333SOL     OW 4897   4.074   3.767   3.128
 1333SOL    HW1 4898   4.009   3.784   3.202
 1333SOL    HW2 4899   4.146   3.836   3.132
 1334SOL     OW 4900   6.908   1.776   2.946
 1334SOL    HW1 4901   6.936   1.716   3.020
 1334SOL    HW2 4902   6.894   1.722   2.863
 1335SOL     OW 4903   1.926   3.772   1.823
 1335SOL    HW1 4904   1.937   3.672   1.827
 1335SOL    HW2 4905   2.013   3.816   1.846
 1336SOL     OW 4906   3.513   0.864   5.446
 1336SOL    HW1 4907   3.453   0.938   5.418
 1336SOL    HW2 4908   3.459   0.783   5.467
 1337SOL     OW 4909   6.476   1.456   3.149
 1337SOL    HW1 4910   6.500   1.527   3.082
 1337SOL    HW2 4911   6.429   1.381   3.102
 1338SOL     OW 4912   6.393   3.817   4.255
 1338SOL    HW1 4913   6.366   3.747   4.322
 1338SOL    HW2 4914   6.479   3.790   4.212
 1339SOL     OW 4915   0.223   0.382   0.212
 1339SOL    HW1 4916   0.193   0.306   0.154
 1339SOL    HW2 4917   0.148   0.446   0.225
 1340SOL     OW 4918   5.135   1.513   2.093
 1340SOL    HW1 4919   5.039   1.528   2.115
 1340SOL    HW2 4920   5.146   1.505   1.994
 1341SOL     OW 4921   4.584   6.736   6.995
 1341SOL    HW1 4922   4.595   6.824   0.019
 1341SOL    HW2 4923   4.652   6.728   6.921
 1342SOL     OW 4924   3.069   5.495   0.661
 1342SOL    HW1 4925   3.122   5.519   0.743
 1342SOL    HW2 4926   3.060   5.396   0.655
 1343SOL     OW 4927   5.413   5.181   3.020
 1343SOL    HW1 4928   5.369   5.223   3.100
 1343SOL    HW2 4929   5.398   5.239   2.940
 1344SOL     OW 4930   0.311   6.782   4.587
 1344SOL    HW1 4931   0.393   6.810   4.537
 1344SOL    HW2 4932   0.230   6.799   4.530
 1345SOL     OW 4933   0.374   5.098   1.755
 1345SOL    HW1 4934   0.292   5.137   1.712
 1345SOL    HW2 4935   0.369   4.998   1.749
 1346SOL     OW 4936   2.200   5.674   5.714
 1346SOL    HW1 4937   2.246   5.710   5.633
 1346SOL    HW2 4938   2.256   5.602   5.755
 1347SOL     OW 4939   1.659   0.069   6.076
 1347SOL    HW1 4940   1.687   0.151   6.026
 1347SOL    HW2 4941   1.715   0.060   6.158
 1348SOL     OW 4942   7.010   5.809   5.340
 1348SOL    HW1 4943   6.966   5.872   5.404
 1348SOL    HW2 4944   0.069   5.769   5.383
 1349SOL     OW 4945   5.488   2.897   3.780
 1349SOL    HW1 4946   5.576   2.920   3.822
 1349SOL    HW2 4947   5.415   2.907   3.848
 1350SOL     OW 4948   3.513   4.077   0.454
 1350SOL    HW1 4949   3.456   4.135   0.513
 1350SOL    HW2 4950   3.455   4.033   0.385
 1351SOL     OW 4951   5.922   1.976   3.813
 1351SOL    HW1 4952   5.886   1.925   3.891
 1351SOL    HW2 4953   5.930   1.915   3.734
 1352SOL     OW 4954   6.952   0.432   2.407
 1352SOL    HW1 4955   6.917   0.506   2.350
 1352SOL    HW2 4956   6.927   0.344   2.368
 1353SOL     OW 4957   0.234   1.789   0.668
 1353SOL    HW1 4958   0.158   1.816   0.727
 1353SOL    HW2 4959   0.290   1.721   0.715
 1354SOL     OW 4960   6.814   4.368   2.399
 1354SOL    HW1 4961   6.794   4.300   2.329
 1354SOL    HW2 4962   6.901   4.347   2.444
 1355SOL     OW 4963   5.926   3.584   4.270
 1355SOL    HW1 4964   5.904   3.558   4.176
 1355SOL    HW2 4965   5.846   3.624   4.314
 1356SOL     OW 4966   3.666   3.110   2.426
 1356SOL    HW1 4967   3.596   3.066   2.368
 1356SOL    HW2 4968   3.623   3.183   2.479
 1357SOL     OW 4969   6.696   3.687   6.031
 1357SOL    HW1 4970   6.597   3.684   6.018
 1357SOL    HW2 4971   6.720   3.766   6.086
 1358SOL     OW 4972   0.574   0.234   6.826
 1358SOL    HW1 4973   0.525   0.236   6.739
 1358SOL    HW2 4974   0.640   0.158   6.825
 1359SOL     OW 4975   6.264   4.271   1.447
 1359SOL    HW1 4976   6.327   4.245   1.520
 1359SOL    HW2 4977   6.222   4.359   1.469
 1360SOL     OW 4978   3.473   3.136   7.000
 1360SOL    HW1 4979   3.450   3.099   0.068
 1360SOL    HW2 4980   3.480   3.235   7.005
 1361SOL     OW 4981   0.124   4.467   4.803
 1361SOL    HW1 4982   0.134   4.565   4.818
 1361SOL    HW2 4983   0.130   4.419   4.891
 1362SOL     OW 4984   3.940   2.995   2.611
 1362SOL    HW1 4985   3.865   3.036   2.560
 1362SOL    HW2 4986   4.003   2.950   2.548
 1363SOL     OW 4987   6.975   5.549   5.281
 1363SOL    HW1 4988   6.991   5.647   5.284
 1363SOL    HW2 4989   6.881   5.529   5.308
 1364SOL     OW 4990   4.594   4.340   0.020
 1364SOL    HW1 4991   4.677   4.370   6.994
 1364SOL    HW2 4992   4.533   4.295   6.976
 1365SOL     OW 4993   0.724   3.764   6.391
 1365SOL    HW1 4994   0.743   3.711   6.308
 1365SOL    HW2 4995   0.810   3.779   6.440
 1366SOL     OW 4996   1.308   0.714   4.810
 1366SOL    HW1 4997   1.371   0.641   4.785
 1366SOL    HW2 4998   1.250   0.683   4.886
 1367SOL     OW 4999   1.906   1.432   2.371
 1367SOL    HW1 5000   1.960   1.515   2.387
 1367SOL    HW2 5001   1.874   1.396   2.458
 1368SOL     OW 5002   5.686   6.920   4.187
 1368SOL    HW1 5003   5.666   6.851   4.118
 1368SOL    HW2 5004   5.605   6.937   4.243
 1369SOL     OW 5005   0.471   6.671   3.255
 1369SOL    HW1 5006   0.453   6.636   3.347
 1369SOL    HW2 5007   0.568   6.690   3.246
 1370SOL     OW 5008   3.481   0.627   1.745
 1370SOL    HW1 5009   3.509   0.625   1.841
 1370SOL    HW2 5010   3.383   0.646   1.739
 1371SOL     OW 5011   3.854   0.211   5.700
 1371SOL    HW1 5012   3.905   0.278   5.754
 1371SOL    HW2 5013   3.917   0.164   5.638
 1372SOL     OW 5014   2.380   2.069   1.781
 1372SOL    HW1 5015   2.392   2.026   1.692
 1372SOL    HW2 5016   2.299   2.128   1.780
 1373SOL     OW 5017   0.603   5.072   1.200
 1373SOL    HW1 5018   0.634   5.153   1.151
 1373SOL    HW2 5019   0.610   5.088   1.299
 1374SOL     OW 5020   4.274   2.393   1.185
 1374SOL    HW1 5021   4.239   2.452   1.258
 1374SOL    HW2 5022   4.318   2.449   1.115
 1375SOL     OW 5023   0.287   4.844   6.107
 1375SOL    HW1 5024   0.346   4.869   6.030
 1375SOL    HW2 5025   0.332   4.773   6.161
 1376SOL     OW 5026   4.905   3.100   3.641
 1376SOL    HW1 5027   4.961   3.126   3.720
 1376SOL    HW2 5028   4.842   3.027   3.668
 1377SOL     OW 5029   7.002   5.322   5.410
 1377SOL    HW1 5030   0.006   5.414   5.382
 1377SOL    HW2 5031   6.984   5.266   5.329
 1378SOL     OW 5032   1.377   2.038   0.060
 1378SOL    HW1 5033   1.476   2.030   0.053
 1378SOL    HW2 5034   1.338   2.055   6.991
 1379SOL     OW 5035   3.789   6.610   2.636
 1379SOL    HW1 5036   3.728   6.678   2.675
 1379SOL    HW2 5037   3.881   6.623   2.672
 1380SOL     OW 5038   6.463   6.917   2.374
 1380SOL    HW1 5039   6.460   7.010   2.338
 1380SOL    HW2 5040   6.558   6.892   2.395
 1381SOL     OW 5041   6.307   2.333   6.936
 1381SOL    HW1 5042   6.361   2.417   6.931
 1381SOL    HW2 5043   6.302   2.303   0.009
 1382SOL     OW 5044   5.531   5.101   6.499
 1382SOL    HW1 5045   5.623   5.126   6.468
 1382SOL    HW2 5046   5.520   5.131   6.594
 1383SOL     OW 5047   1.823   0.614   0.651
 1383SOL    HW1 5048   1.861   0.598   0.742
 1383SOL    HW2 5049   1.805   0.711   0.639
 1384SOL     OW 5050   4.082   1.570   2.937
 1384SOL    HW1 5051   4.113   1.499   3.000
 1384SOL    HW2 5052   4.002   1.616   2.976
 1385SOL     OW 5053   6.492   3.026   2.875
 1385SOL    HW1 5054   6.567   3.079   2.837
 1385SOL    HW2 5055   6.406   3.055   2.832
 1386SOL     OW 5056   2.036   3.181   4.405
 1386SOL    HW1 5057   2.080   3.177   4.495
 1386SOL    HW2 5058   1.971   3.105   4.396
 1387SOL     OW 5059   3.165   0.368   4.896
 1387SOL    HW1 5060   3.242   0.328   4.846
 1387SOL    HW2 5061   3.114   0.429   4.836
 1388SOL     OW 5062   6.565   1.209   3.833
 1388SOL    HW1 5063   6.543   1.248   3.923
 1388SOL    HW2 5064   6.538   1.274   3.761
 1389SOL     OW 5065   6.085   0.170   4.787
 1389SOL    HW1 5066   5.996   0.123   4.791
 1389SOL    HW2 5067   6.158   0.102   4.796
 1390SOL     OW 5068   4.378   1.978   1.866
 1390SOL    HW1 5069   4.335   1.891   1.893
 1390SOL    HW2 5070   4.311   2.034   1.817
 1391SOL     OW 5071   5.496   0.780   4.757
 1391SOL    HW1 5072   5.522   0.810   4.665
 1391SOL    HW2 5073   5.398   0.796   4.770
 1392SOL     OW 5074   5.406   5.864   6.235
 1392SOL    HW1 5075   5.322   5.811   6.245
 1392SOL    HW2 5076   5.460   5.857   6.319
 1393SOL     OW 5077   6.815   1.126   6.406
 1393SOL    HW1 5078   6.819   1.090   6.499
 1393SOL    HW2 5079   6.731   1.180   6.395
 1394SOL     OW 5080   4.621   0.037   3.764
 1394SOL    HW1 5081   4.528   0.001   3.773
 1394SOL    HW2 5082   4.676   0.006   3.842
 1395SOL     OW 5083   1.578   4.575   2.594
 1395SOL    HW1 5084   1.654   4.570   2.659
 1395SOL    HW2 5085   1.491   4.570   2.644
 1396SOL     OW 5086   2.361   0.958   4.463
 1396SOL    HW1 5087   2.431   1.027   4.445
 1396SOL    HW2 5088   2.272   0.992   4.433
 1397SOL     OW 5089   0.607   5.311   4.353
 1397SOL    HW1 5090   0.548   5.386   4.383
 1397SOL    HW2 5091   0.557   5.255   4.285
 1398SOL     OW 5092   0.568   1.278   1.153
 1398SOL    HW1 5093   0.567   1.180   1.133
 1398SOL    HW2 5094   0.618   1.294   1.239
 1399SOL     OW 5095   4.016   0.264   0.364
 1399SOL    HW1 5096   4.099   0.222   0.400
 1399SOL    HW2 5097   3.940   0.199   0.371
 1400SOL     OW 5098   6.360   0.338   4.207
 1400SOL    HW1 5099   6.426   0.411   4.194
 1400SOL    HW2 5100   6.386   0.283   4.286
 1401SOL     OW 5101   5.434   0.560   3.186
 1401SOL    HW1 5102   5.381   0.634   3.146
 1401SOL    HW2 5103   5.530   0.568   3.159
 1402SOL     OW 5104   6.182   3.953   2.035
 1402SOL    HW1 5105   6.218   4.036   1.993
 1402SOL    HW2 5106   6.125   3.977   2.114
 1403SOL     OW 5107   3.388   2.993   0.200
 1403SOL    HW1 5108   3.466   2.946   0.158
 1403SOL    HW2 5109   3.397   2.989   0.299
 1404SOL     OW 5110   4.342   6.718   0.976
 1404SOL    HW1 5111   4.309   6.753   0.887
 1404SOL    HW2 5112   4.265   6.713   1.039
 1405SOL     OW 5113   2.062   3.234   0.754
 1405SOL    HW1 5114   2.051   3.314   0.813
 1405SOL    HW2 5115   1.978   3.179   0.757
 1406SOL     OW 5116   2.535   3.375   1.170
 1406SOL    HW1 5117   2.629   3.397   1.194
 1406SOL    HW2 5118   2.516   3.279   1.193
 1407SOL     OW 5119   0.925   3.043   0.878
 1407SOL    HW1 5120   0.977   3.116   0.833
 1407SOL    HW2 5121   0.973   2.956   0.865
 1408SOL     OW 5122   5.808   6.294   6.763
 1408SOL    HW1 5123   5.868   6.350   6.820
 1408SOL    HW2 5124   5.737   6.352   6.723
 1409SOL     OW 5125   6.673   1.775   5.659
 1409SOL    HW1 5126   6.762   1.736   5.637
 1409SOL    HW2 5127   6.610   1.760   5.582
 1410SOL     OW 5128   3.578   2.143   6.222
 1410SOL    HW1 5129   3.554   2.110   6.313
 1410SOL    HW2 5130   3.642   2.079   6.179
 1411SOL     OW 5131   4.123   5.519   0.308
 1411SOL    HW1 5132   4.174   5.603   0.321
 1411SOL    HW2 5133   4.126   5.493   0.211
 1412SOL     OW 5134   1.945   2.770   0.570
 1412SOL    HW1 5135   1.896   2.775   0.657
 1412SOL    HW2 5136   2.017   2.701   0.576
 1413SOL     OW 5137   1.641   1.673   5.175
 1413SOL    HW1 5138   1.562   1.643   5.121
 1413SOL    HW2 5139   1.699   1.594   5.196
 1414SOL     OW 5140   1.305   4.024   2.010
 1414SOL    HW1 5141   1.376   3.962   1.978
 1414SOL    HW2 5142   1.307   4.027   2.110
 1415SOL     OW 5143   1.884   2.049   4.467
 1415SOL    HW1 5144   1.857   2.145   4.467
 1415SOL    HW2 5145   1.805   1.991   4.484
 1416SOL     OW 5146   4.092   0.207   5.449
 1416SOL    HW1 5147   4.103   0.179   5.545
 1416SOL    HW2 5148   4.011   0.163   5.411
 1417SOL     OW 5149   3.976   3.223   5.700
 1417SOL    HW1 5150   4.025   3.210   5.787
 1417SOL    HW2 5151   3.922   3.307   5.705
 1418SOL     OW 5152   3.646   4.071   6.789
 1418SOL    HW1 5153   3.683   3.990   6.743
 1418SOL    HW2 5154   3.697   4.087   6.873
 1419SOL     OW 5155   1.755   4.656   2.795
 1419SOL    HW1 5156   1.789   4.637   2.887
 1419SOL    HW2 5157   1.827   4.636   2.728
 1420SOL     OW 5158   3.099   5.861   3.196
 1420SOL    HW1 5159   3.099   5.790   3.125
 1420SOL    HW2 5160   3.019   5.849   3.255
 1421SOL     OW 5161   1.439   5.178   5.644
 1421SOL    HW1 5162   1.522   5.212   5.689
 1421SOL    HW2 5163   1.462   5.098   5.588
 1422SOL     OW 5164   2.387   3.945   5.832
 1422SOL    HW1 5165   2.357   4.041   5.827
 1422SOL    HW2 5166   2.375   3.902   5.742
 1423SOL     OW 5167   4.284   0.998   5.025
 1423SOL    HW1 5168   4.353   0.951   5.080
 1423SOL    HW2 5169   4.230   0.931   4.974
 1424SOL     OW 5170   5.618   2.595   6.622
 1424SOL    HW1 5171   5.557   2.639   6.688
 1424SOL    HW2 5172   5.645   2.506   6.656
 1425SOL     OW 5173   4.635   6.508   3.723
 1425SOL    HW1 5174   4.672   6.566   3.796
 1425SOL    HW2 5175   4.634   6.558   3.637
 1426SOL     OW 5176   3.386   2.296   6.937
 1426SOL    HW1 5177   3.436   2.289   0.001
 1426SOL    HW2 5178   3.344   2.208   6.915
 1427SOL     OW 5179   1.952   1.200   4.162
 1427SOL    HW1 5180   1.971   1.290   4.124
 1427SOL    HW2 5181   1.886   1.152   4.105
 1428SOL     OW 5182   0.329   3.481   3.658
 1428SOL    HW1 5183   0.290   3.449   3.572
 1428SOL    HW2 5184   0.359   3.402   3.712
 1429SOL     OW 5185   5.873   0.553   1.165
 1429SOL    HW1 5186   5.882   0.487   1.239
 1429SOL    HW2 5187   5.776   0.566   1.143
 1430SOL     OW 5188   1.583   3.763   3.330
 1430SOL    HW1 5189   1.665   3.818   3.317
 1430SOL    HW2 5190   1.607   3.676   3.374
 1431SOL     OW 5191   1.806   1.317   5.632
 1431SOL    HW1 5192   1.815   1.230   5.680
 1431SOL    HW2 5193   1.876   1.323   5.560
 1432SOL     OW 5194   2.855   1.606   2.513
 1432SOL    HW1 5195   2.851   1.506   2.513
 1432SOL    HW2 5196   2.947   1.636   2.488
 1433SOL     OW 5197   2.509   0.079   4.300
 1433SOL    HW1 5198   2.420   0.069   4.256
 1433SOL    HW2 5199   2.569   0.133   4.240
 1434SOL     OW 5200   0.396   2.891   0.184
 1434SOL    HW1 5201   0.331   2.953   0.228
 1434SOL    HW2 5202   0.488   2.931   0.188
 1435SOL     OW 5203   0.974   6.950   4.676
 1435SOL    HW1 5204   0.888   6.977   4.632
 1435SOL    HW2 5205   0.968   6.855   4.706
 1436SOL     OW 5206   5.519   1.534   0.745
 1436SOL    HW1 5207   5.616   1.527   0.725
 1436SOL    HW2 5208   5.506   1.546   0.843
 1437SOL     OW 5209   4.443   0.150   6.409
 1437SOL    HW1 5210   4.443   0.229   6.347
 1437SOL    HW2 5211   4.523   0.093   6.390
 1438SOL     OW 5212   2.580   0.095   1.991
 1438SOL    HW1 5213   2.624   0.040   2.062
 1438SOL    HW2 5214   2.623   0.186   1.989
 1439SOL     OW 5215   0.323   4.774   6.982
 1439SOL    HW1 5216   0.344   4.847   0.025
 1439SOL    HW2 5217   0.245   4.801   6.925
 1440SOL     OW 5218   2.933   3.311   3.728
 1440SOL    HW1 5219   3.031   3.307   3.747
 1440SOL    HW2 5220   2.884   3.340   3.810
 1441SOL     OW 5221   6.453   3.021   3.775
 1441SOL    HW1 5222   6.426   3.003   3.680
 1441SOL    HW2 5223   6.482   3.117   3.783
 1442SOL     OW 5224   4.969   4.533   0.613
 1442SOL    HW1 5225   4.976   4.622   0.659
 1442SOL    HW2 5226   5.061   4.496   0.598
 1443SOL     OW 5227   0.563   2.441   2.992
 1443SOL    HW1 5228   0.617   2.455   2.909
 1443SOL    HW2 5229   0.536   2.530   3.029
 1444SOL     OW 5230   4.502   0.852   3.653
 1444SOL    HW1 5231   4.499   0.915   3.575
 1444SOL    HW2 5232   4.511   0.905   3.737
 1445SOL     OW 5233   6.563   2.496   1.426
 1445SOL    HW1 5234   6.475   2.526   1.464
 1445SOL    HW2 5235   6.562   2.397   1.413
 1446SOL     OW 5236   3.892   0.523   1.343
 1446SOL    HW1 5237   3.929   0.472   1.421
 1446SOL    HW2 5238   3.816   0.472   1.303
 1447SOL     OW 5239   6.398   0.565   4.629
 1447SOL    HW1 5240   6.326   0.527   4.688
 1447SOL    HW2 5241   6.362   0.578   4.537
 1448SOL     OW 5242   5.416   0.800   6.695
 1448SOL    HW1 5243   5.389   0.891   6.664
 1448SOL    HW2 5244   5.340   0.736   6.681
 1449SOL     OW 5245   5.234   5.944   1.212
 1449SOL    HW1 5246   5.311   5.881   1.198
 1449SOL    HW2 5247   5.164   5.927   1.143
 1450SOL     OW 5248   5.934   2.809   3.173
 1450SOL    HW1 5249   5.936   2.837   3.269
 1450SOL    HW2 5250   6.007   2.743   3.156
 1451SOL     OW 5251   1.299   6.266   3.109
 1451SOL    HW1 5252   1.302   6.314   3.021
 1451SOL    HW2 5253   1.204   6.261   3.141
 1452SOL     OW 5254   4.549   1.376   5.633
 1452SOL    HW1 5255   4.597   1.288   5.633
 1452SOL    HW2 5256   4.552   1.416   5.542
 1453SOL     OW 5257   5.256   4.724   5.279
 1453SOL    HW1 5258   5.166   4.684   5.297
 1453SOL    HW2 5259   5.246   4.802   5.217
 1454SOL     OW 5260   4.427   3.821   1.194
 1454SOL    HW1 5261   4.446   3.918   1.179
 1454SOL    HW2 5262   4.486   3.787   1.268
 1455SOL     OW 5263   1.783   1.858   1.912
 1455SOL    HW1 5264   1.750   1.854   1.818
 1455SOL    HW2 5265   1.711   1.897   1.971
 1456SOL     OW 5266   5.996   6.398   4.070
 1456SOL    HW1 5267   5.972   6.493   4.089
 1456SOL    HW2 5268   6.095   6.387   4.073
 1457SOL     OW 5269   1.567   0.559   2.727
 1457SOL    HW1 5270   1.571   0.473   2.677
 1457SOL    HW2 5271   1.485   0.610   2.700
 1458SOL     OW 5272   5.548   5.588   6.824
 1458SOL    HW1 5273   5.506   5.584   6.914
 1458SOL    HW2 5274   5.622   5.521   6.818
 1459SOL     OW 5275   2.233   6.499   6.496
 1459SOL    HW1 5276   2.167   6.427   6.517
 1459SOL    HW2 5277   2.187   6.587   6.494
 1460SOL     OW 5278   1.625   0.062   6.888
 1460SOL    HW1 5279   1.525   0.052   6.889
 1460SOL    HW2 5280   1.649   0.155   6.916
 1461SOL     OW 5281   5.535   4.818   2.076
 1461SOL    HW1 5282   5.548   4.720   2.093
 1461SOL    HW2 5283   5.476   4.857   2.147
 1462SOL     OW 5284   5.857   1.138   0.070
 1462SOL    HW1 5285   5.837   1.165   0.164
 1462SOL    HW2 5286   5.830   1.043   0.056
 1463SOL     OW 5287   0.700   1.209   4.989
 1463SOL    HW1 5288   0.605   1.237   4.999
 1463SOL    HW2 5289   0.737   1.185   5.079
 1464SOL     OW 5290   0.437   6.634   1.013
 1464SOL    HW1 5291   0.521   6.582   1.023
 1464SOL    HW2 5292   0.454   6.731   1.034
 1465SOL     OW 5293   6.895   6.922   4.667
 1465SOL    HW1 5294   6.817   6.884   4.717
 1465SOL    HW2 5295   6.862   6.988   4.599
 1466SOL     OW 5296   5.709   4.956   3.465
 1466SOL    HW1 5297   5.792   4.901   3.468
 1466SOL    HW2 5298   5.651   4.934   3.544
 1467SOL     OW 5299   1.103   1.961   3.153
 1467SOL    HW1 5300   1.030   2.012   3.198
 1467SOL    HW2 5301   1.077   1.941   3.059
 1468SOL     OW 5302   5.619   5.929   3.449
 1468SOL    HW1 5303   5.534   5.933   3.396
 1468SOL    HW2 5304   5.696   5.916   3.387
 1469SOL     OW 5305   0.971   1.418   2.710
 1469SOL    HW1 5306   0.930   1.357   2.642
 1469SOL    HW2 5307   0.979   1.369   2.797
 1470SOL     OW 5308   0.690   1.083   3.215
 1470SOL    HW1 5309   0.699   1.097   3.116
 1470SOL    HW2 5310   0.781   1.089   3.258
 1471SOL     OW 5311   0.617   6.929   0.134
 1471SOL    HW1 5312   0.715   6.937   0.117
 1471SOL    HW2 5313   0.602   6.877   0.218
 1472SOL     OW 5314   4.373   0.692   5.986
 1472SOL    HW1 5315   4.377   0.769   5.922
 1472SOL    HW2 5316   4.311   0.622   5.950
 1473SOL     OW 5317   6.140   3.981   3.448
 1473SOL    HW1 5318   6.088   3.896   3.452
 1473SOL    HW2 5319   6.196   3.982   3.366
 1474SOL     OW 5320   4.479   5.528   4.058
 1474SOL    HW1 5321   4.381   5.511   4.068
 1474SOL    HW2 5322   4.492   5.616   4.012
 1475SOL     OW 5323   0.249   1.326   2.698
 1475SOL    HW1 5324   0.201   1.413   2.697
 1475SOL    HW2 5325   0.232   1.279   2.785
 1476SOL     OW 5326   6.823   1.834   1.777
 1476SOL    HW1 5327   6.789   1.903   1.842
 1476SOL    HW2 5328   6.914   1.860   1.745
 1477SOL     OW 5329   3.021   5.960   4.602
 1477SOL    HW1 5330   3.110   6.005   4.590
 1477SOL    HW2 5331   3.008   5.894   4.528
 1478SOL     OW 5332   6.385   4.390   0.515
 1478SOL    HW1 5333   6.317   4.419   0.447
 1478SOL    HW2 5334   6.475   4.386   0.473
 1479SOL     OW 5335   1.454   5.361   0.450
 1479SOL    HW1 5336   1.552   5.356   0.431
 1479SOL    HW2 5337   1.411   5.275   0.425
 1480SOL     OW 5338   2.626   0.660   0.257
 1480SOL    HW1 5339   2.579   0.655   0.345
 1480SOL    HW2 5340   2.686   0.740   0.255
 1481SOL     OW 5341   5.618   2.476   6.258
 1481SOL    HW1 5342   5.610   2.418   6.339
 1481SOL    HW2 5343   5.675   2.429   6.190
 1482SOL     OW 5344   6.588   0.540   6.624
 1482SOL    HW1 5345   6.604   0.507   6.717
 1482SOL    HW2 5346   6.649   0.493   6.561
 1483SOL     OW 5347   5.923   2.016   0.420
 1483SOL    HW1 5348   5.976   2.010   0.336
 1483SOL    HW2 5349   5.826   2.018   0.398
 1484SOL     OW 5350   6.272   5.231   2.708
 1484SOL    HW1 5351   6.222   5.154   2.748
 1484SOL    HW2 5352   6.249   5.240   2.611
 1485SOL     OW 5353   5.213   2.596   3.929
 1485SOL    HW1 5354   5.187   2.555   3.842
 1485SOL    HW2 5355   5.135   2.597   3.991
 1486SOL     OW 5356   4.855   1.922   2.120
 1486SOL    HW1 5357   4.769   1.924   2.069
 1486SOL    HW2 5358   4.838   1.941   2.216
 1487SOL     OW 5359   6.286   1.389   5.618
 1487SOL    HW1 5360   6.243   1.478   5.632
 1487SOL    HW2 5361   6.302   1.375   5.520
 1488SOL     OW 5362   4.796   1.814   3.174
 1488SOL    HW1 5363   4.732   1.886   3.147
 1488SOL    HW2 5364   4.889   1.849   3.168
 1489SOL     OW 5365   4.036   5.470   4.912
 1489SOL    HW1 5366   4.076   5.457   5.003
 1489SOL    HW2 5367   4.086   5.541   4.863
 1490SOL     OW 5368   1.941   2.574   0.255
 1490SOL    HW1 5369   1.929   2.482   0.291
 1490SOL    HW2 5370   1.895   2.581   0.166
 1491SOL     OW 5371   6.869   3.113   3.861
 1491SOL    HW1 5372   6.935   3.104   3.936
 1491SOL    HW2 5373   6.918   3.135   3.777
 1492SOL     OW 5374   5.120   2.042   1.334
 1492SOL    HW1 5375   5.111   1.954   1.380
 1492SOL    HW2 5376   5.070   2.040   1.247
 1493SOL     OW 5377   4.976   0.581   5.393
 1493SOL    HW1 5378   5.065   0.608   5.357
 1493SOL    HW2 5379   4.904   0.621   5.337
 1494SOL     OW 5380   4.138   2.436   5.943
 1494SOL    HW1 5381   4.209   2.395   6.001
 1494SOL    HW2 5382   4.149   2.535   5.943
 1495SOL     OW 5383   1.699   2.865   2.518
 1495SOL    HW1 5384   1.666   2.819   2.436
 1495SOL    HW2 5385   1.715   2.962   2.499
 1496SOL     OW 5386   0.613   0.057   2.462
 1496SOL    HW1 5387   0.533   0.054   2.522
 1496SOL    HW2 5388   0.619   6.994   2.410
 1497SOL     OW 5389   6.005   5.151   4.743
 1497SOL    HW1 5390   6.042   5.058   4.740
 1497SOL    HW2 5391   5.916   5.149   4.789
 1498SOL     OW 5392   2.153   5.757   6.996
 1498SOL    HW1 5393   2.116   5.743   0.067
 1498SOL    HW2 5394   2.236   5.812   7.002
 1499SOL     OW 5395   1.370   3.657   5.608
 1499SOL    HW1 5396   1.429   3.610   5.543
 1499SOL    HW2 5397   1.344   3.595   5.682
 1500SOL     OW 5398   4.901   6.896   6.634
 1500SOL    HW1 5399   4.831   6.827   6.652
 1500SOL    HW2 5400   4.964   6.861   6.565
 1501SOL     OW 5401   4.017   6.330   6.113
 1501SOL    HW1 5402   3.938   6.294   6.065
 1501SOL    HW2 5403   3.990   6.410   6.167
 1502SOL     OW 5404   6.353   6.415   0.593
 1502SOL    HW1 5405   6.373   6.506   0.630
 1502SOL    HW2 5406   6.281   6.372   0.647
 1503SOL     OW 5407   3.529   3.016   6.235
 1503SOL    HW1 5408   3.618   3.057   6.212
 1503SOL    HW2 5409   3.466   3.029   6.159
 1504SOL     OW 5410   3.052   6.608   4.886
 1504SOL    HW1 5411   3.066   6.513   4.915
 1504SOL    HW2 5412   3.081   6.670   4.959
 1505SOL     OW 5413   5.809   5.565   0.172
 1505SOL    HW1 5414   5.853   5.652   0.151
 1505SOL    HW2 5415   5.875   5.491   0.161
 1506SOL     OW 5416   1.048   6.418   4.401
 1506SOL    HW1 5417   1.023   6.497   4.457
 1506SOL    HW2 5418   1.075   6.449   4.310
 1507SOL     OW 5419   1.604   1.674   5.551
 1507SOL    HW1 5420   1.518   1.698   5.505
 1507SOL    HW2 5421   1.649   1.757   5.582
 1508SOL     OW 5422   4.859   6.933   0.509
 1508SOL    HW1 5423   4.795   6.857   0.514
 1508SOL    HW2 5424   4.824   7.002   0.445
 1509SOL     OW 5425   4.758   2.788   0.730
 1509SOL    HW1 5426   4.740   2.731   0.650
 1509SOL    HW2 5427   4.845   2.836   0.718
 1510SOL     OW 5428   6.849   1.852   3.854
 1510SOL    HW1 5429   6.755   1.850   3.888
 1510SOL    HW2 5430   6.888   1.943   3.868
 1511SOL     OW 5431   2.297   3.368   0.590
 1511SOL    HW1 5432   2.260   3.383   0.682
 1511SOL    HW2 5433   2.317   3.456   0.547
 1512SOL     OW 5434   0.273   1.320   2.131
 1512SOL    HW1 5435   0.190   1.301   2.079
 1512SOL    HW2 5436   0.282   1.254   2.205
 1513SOL     OW 5437   3.624   1.159   3.422
 1513SOL    HW1 5438   3.550   1.124   3.365
 1513SOL    HW2 5439   3.586   1.225   3.488
 1514SOL     OW 5440   5.410   1.265   5.373
 1514SOL    HW1 5441   5.429   1.187   5.313
 1514SOL    HW2 5442   5.474   1.264   5.450
 1515SOL     OW 5443   0.235   4.635   4.399
 1515SOL    HW1 5444   0.228   4.562   4.332
 1515SOL    HW2 5445   0.283   4.713   4.359
 1516SOL     OW 5446   0.790   1.138   0.638
 1516SOL    HW1 5447   0.720   1.075   0.672
 1516SOL    HW2 5448   0.770   1.163   0.543
 1517SOL     OW 5449   4.585   5.622   3.487
 1517SOL    HW1 5450   4.547   5.533   3.512
 1517SOL    HW2 5451   4.627   5.616   3.396
 1518SOL     OW 5452   0.362   4.077   1.257
 1518SOL    HW1 5453   0.432   4.018   1.216
 1518SOL    HW2 5454   0.407   4.153   1.304
 1519SOL     OW 5455   6.138   4.451   0.052
 1519SOL    HW1 5456   6.188   4.434   0.137
 1519SOL    HW2 5457   6.044   4.419   0.062
 1520SOL     OW 5458   1.484   3.448   3.050
 1520SOL    HW1 5459   1.581   3.464   3.070
 1520SOL    HW2 5460   1.475   3.418   2.955
 1521SOL     OW 5461   2.847   3.462   6.805
 1521SOL    HW1 5462   2.922   3.491   6.864
 1521SOL    HW2 5463   2.799   3.543   6.770
 1522SOL     OW 5464   6.031   1.923   6.905
 1522SOL    HW1 5465   6.042   1.850   6.972
 1522SOL    HW2 5466   6.107   1.921   6.840
 1523SOL     OW 5467   0.147   2.153   1.071
 1523SOL    HW1 5468   0.063   2.134   1.020
 1523SOL    HW2 5469   0.142   2.245   1.110
 1524SOL     OW 5470   0.172   1.058   2.292
 1524SOL    HW1 5471   0.106   0.999   2.339
 1524SOL    HW2 5472   0.137   1.082   2.202
 1525SOL     OW 5473   4.553   2.067   6.467
 1525SOL    HW1 5474   4.652   2.079   6.468
 1525SOL    HW2 5475   4.531   1.970   6.463
 1526SOL     OW 5476   6.818   2.562   1.548
 1526SOL    HW1 5477   6.797   2.644   1.601
 1526SOL    HW2 5478   6.743   2.542   1.486
 1527SOL     OW 5479   3.571   2.045   5.644
 1527SOL    HW1 5480   3.543   2.136   5.617
 1527SOL    HW2 5481   3.632   2.051   5.724
 1528SOL     OW 5482   5.005   6.143   3.594
 1528SOL    HW1 5483   4.947   6.193   3.658
 1528SOL    HW2 5484   4.952   6.120   3.512
 1529SOL     OW 5485   3.589   0.073   6.055
 1529SOL    HW1 5486   3.520   0.031   6.113
 1529SOL    HW2 5487   3.567   0.170   6.042
 1530SOL     OW 5488   3.598   6.756   2.266
 1530SOL    HW1 5489   3.636   6.669   2.235
 1530SOL    HW2 5490   3.625   6.829   2.203
 1531SOL     OW 5491   6.251   6.998   4.794
 1531SOL    HW1 5492   6.274   6.965   4.886
 1531SOL    HW2 5493   6.212   6.923   4.740
 1532SOL     OW 5494   3.084   1.985   5.051
 1532SOL    HW1 5495   3.036   1.941   4.975
 1532SOL    HW2 5496   3.079   2.085   5.040
 1533SOL     OW 5497   6.234   3.135   6.605
 1533SOL    HW1 5498   6.162   3.076   6.642
 1533SOL    HW2 5499   6.252   3.109   6.510
 1534SOL     OW 5500   6.666   6.060   1.207
 1534SOL    HW1 5501   6.750   6.038   1.256
 1534SOL    HW2 5502   6.593   6.078   1.273
 1535SOL     OW 5503   4.480   5.095   3.938
 1535SOL    HW1 5504   4.484   5.011   3.885
 1535SOL    HW2 5505   4.516   5.078   4.030
 1536SOL     OW 5506   2.838   5.998   5.404
 1536SOL    HW1 5507   2.927   5.968   5.369
 1536SOL    HW2 5508   2.820   6.092   5.374
 1537SOL     OW 5509   1.709   5.604   4.462
 1537SOL    HW1 5510   1.667   5.513   4.451
 1537SOL    HW2 5511   1.644   5.674   4.434
 1538SOL     OW 5512   2.547   5.614   6.616
 1538SOL    HW1 5513   2.584   5.523   6.633
 1538SOL    HW2 5514   2.450   5.607   6.592
 1539SOL     OW 5515   3.746   4.552   1.660
 1539SOL    HW1 5516   3.844   4.552   1.678
 1539SOL    HW2 5517   3.701   4.617   1.722
 1540SOL     OW 5518   0.871   0.202   4.816
 1540SOL    HW1 5519   0.858   0.159   4.727
 1540SOL    HW2 5520   0.961   0.177   4.852
 1541SOL     OW 5521   5.125   2.177   0.962
 1541SOL    HW1 5522   5.102   2.273   0.978
 1541SOL    HW2 5523   5.042   2.126   0.941
 1542SOL     OW 5524   0.951   7.003   1.479
 1542SOL    HW1 5525   0.982   0.006   1.388
 1542SOL    HW2 5526   0.886   0.050   1.513
 1543SOL     OW 5527   3.511   4.184   4.144
 1543SOL    HW1 5528   3.420   4.151   4.169
 1543SOL    HW2 5529   3.571   4.181   4.224
 1544SOL     OW 5530   3.294   4.080   2.789
 1544SOL    HW1 5531   3.254   4.092   2.698
 1544SOL    HW2 5532   3.389   4.050   2.779
 1545SOL     OW 5533   5.638   6.865   5.087
 1545SOL    HW1 5534   5.547   6.867   5.045
 1545SOL    HW2 5535   5.679   6.956   5.081
 1546SOL     OW 5536   0.177   6.871   6.074
 1546SOL    HW1 5537   0.209   6.788   6.027
 1546SOL    HW2 5538   0.255   6.931   6.089
 1547SOL     OW 5539   3.259   5.902   1.456
 1547SOL    HW1 5540   3.173   5.900   1.508
 1547SOL    HW2 5541   3.266   5.989   1.407
 1548SOL     OW 5542   4.965   4.297   4.717
 1548SOL    HW1 5543   5.013   4.276   4.632
 1548SOL    HW2 5544   5.031   4.310   4.790
 1549SOL     OW 5545   6.592   1.780   1.225
 1549SOL    HW1 5546   6.574   1.685   1.249
 1549SOL    HW2 5547   6.508   1.833   1.235
 1550SOL     OW 5548   2.307   5.959   4.262
 1550SOL    HW1 5549   2.275   5.866   4.247
 1550SOL    HW2 5550   2.272   5.993   4.349
 1551SOL     OW 5551   1.753   2.309   0.891
 1551SOL    HW1 5552   1.784   2.327   0.984
 1551SOL    HW2 5553   1.713   2.218   0.886
 1552SOL     OW 5554   0.697   0.685   0.886
 1552SOL    HW1 5555   0.740   0.702   0.797
 1552SOL    HW2 5556   0.664   0.771   0.925
 1553SOL     OW 5557   5.888   1.814   6.151
 1553SOL    HW1 5558   5.951   1.887   6.179
 1553SOL    HW2 5559   5.919   1.727   6.190
 1554SOL     OW 5560   3.894   1.873   1.708
 1554SOL    HW1 5561   3.799   1.845   1.692
 1554SOL    HW2 5562   3.897   1.949   1.772
 1555SOL     OW 5563   3.525   1.584   5.624
 1555SOL    HW1 5564   3.493   1.498   5.662
 1555SOL    HW2 5565   3.605   1.568   5.566
 1556SOL     OW 5566   3.685   1.171   0.832
 1556SOL    HW1 5567   3.667   1.269   0.830
 1556SOL    HW2 5568   3.755   1.151   0.900
 1557SOL     OW 5569   1.936   1.828   1.093
 1557SOL    HW1 5570   1.852   1.777   1.110
 1557SOL    HW2 5571   2.007   1.800   1.158
 1558SOL     OW 5572   6.464   3.398   5.988
 1558SOL    HW1 5573   6.377   3.366   6.025
 1558SOL    HW2 5574   6.456   3.494   5.963
 1559SOL     OW 5575   1.433   4.707   2.834
 1559SOL    HW1 5576   1.362   4.645   2.868
 1559SOL    HW2 5577   1.518   4.692   2.885
 1560SOL     OW 5578   3.931   1.585   1.588
 1560SOL    HW1 5579   3.874   1.534   1.652
 1560SOL    HW2 5580   3.960   1.670   1.631
 1561SOL     OW 5581   6.179   5.942   1.374
 1561SOL    HW1 5582   6.117   5.976   1.445
 1561SOL    HW2 5583   6.200   5.846   1.392
 1562SOL     OW 5584   3.551   6.405   2.248
 1562SOL    HW1 5585   3.639   6.392   2.294
 1562SOL    HW2 5586   3.477   6.402   2.315
 1563SOL     OW 5587   3.943   2.101   4.415
 1563SOL    HW1 5588   3.917   2.112   4.511
 1563SOL    HW2 5589   3.996   2.180   4.386
 1564SOL     OW 5590   1.534   2.064   2.593
 1564SOL    HW1 5591   1.511   2.154   2.557
 1564SOL    HW2 5592   1.451   2.007   2.596
 1565SOL     OW 5593   3.934   0.641   3.939
 1565SOL    HW1 5594   3.911   0.670   3.846
 1565SOL    HW2 5595   4.017   0.585   3.937
 1566SOL     OW 5596   4.676   4.526   3.018
 1566SOL    HW1 5597   4.753   4.520   3.081
 1566SOL    HW2 5598   4.687   4.457   2.946
 1567SOL     OW 5599   4.711   6.467   4.979
 1567SOL    HW1 5600   4.783   6.420   4.929
 1567SOL    HW2 5601   4.646   6.401   5.015
 1568SOL     OW 5602   2.421   6.016   3.088
 1568SOL    HW1 5603   2.509   6.021   3.135
 1568SOL    HW2 5604   2.395   5.920   3.078
 1569SOL     OW 5605   2.722   6.767   3.496
 1569SOL    HW1 5606   2.698   6.753   3.399
 1569SOL    HW2 5607   2.720   6.865   3.517
 1570SOL     OW 5608   3.214   6.918   0.258
 1570SOL    HW1 5609   3.141   6.904   0.192
 1570SOL    HW2 5610   3.285   6.849   0.244
 1571SOL     OW 5611   1.089   2.649   3.964
 1571SOL    HW1 5612   1.137   2.624   3.880
 1571SOL    HW2 5613   1.154   2.684   4.031
 1572SOL     OW 5614   1.925   4.485   2.007
 1572SOL    HW1 5615   1.851   4.553   2.012
 1572SOL    HW2 5616   2.012   4.530   2.027
 1573SOL     OW 5617   5.315   5.079   0.607
 1573SOL    HW1 5618   5.278   5.051   0.696
 1573SOL    HW2 5619   5.298   5.176   0.594
 1574SOL     OW 5620   6.995   3.433   2.733
 1574SOL    HW1 5621   6.948   3.420   2.646
 1574SOL    HW2 5622   0.019   3.522   2.733
 1575SOL     OW 5623   0.420   1.251   0.362
 1575SOL    HW1 5624   0.466   1.183   0.305
 1575SOL    HW2 5625   0.383   1.324   0.305
 1576SOL     OW 5626   0.504   6.756   2.756
 1576SOL    HW1 5627   0.466   6.743   2.847
 1576SOL    HW2 5628   0.522   6.853   2.741
 1577SOL     OW 5629   4.656   0.399   5.709
 1577SOL    HW1 5630   4.739   0.351   5.737
 1577SOL    HW2 5631   4.659   0.418   5.611
 1578SOL     OW 5632   5.405   0.883   0.239
 1578SOL    HW1 5633   5.455   0.838   0.165
 1578SOL    HW2 5634   5.418   0.832   0.324
 1579SOL     OW 5635   1.490   2.716   1.364
 1579SOL    HW1 5636   1.429   2.754   1.434
 1579SOL    HW2 5637   1.444   2.718   1.275
 1580SOL     OW 5638   3.585   3.676   3.129
 1580SOL    HW1 5639   3.667   3.623   3.111
 1580SOL    HW2 5640   3.506   3.632   3.087
 1581SOL     OW 5641   6.678   4.230   5.569
 1581SOL    HW1 5642   6.687   4.321   5.609
 1581SOL    HW2 5643   6.664   4.163   5.641
 1582SOL     OW 5644   4.708   6.450   5.378
 1582SOL    HW1 5645   4.674   6.368   5.425
 1582SOL    HW2 5646   4.636   6.486   5.319
 1583SOL     OW 5647   1.215   5.736   5.072
 1583SOL    HW1 5648   1.211   5.763   4.976
 1583SOL    HW2 5649   1.310   5.732   5.102
 1584SOL     OW 5650   0.813   5.198   6.590
 1584SOL    HW1 5651   0.813   5.121   6.527
 1584SOL    HW2 5652   0.790   5.166   6.682
 1585SOL     OW 5653   3.972   0.190   2.947
 1585SOL    HW1 5654   4.013   0.111   2.992
 1585SOL    HW2 5655   3.982   0.181   2.847
 1586SOL     OW 5656   2.854   5.094   4.063
 1586SOL    HW1 5657   2.809   5.059   3.981
 1586SOL    HW2 5658   2.898   5.181   4.042
 1587SOL     OW 5659   2.332   6.174   5.969
 1587SOL    HW1 5660   2.405   6.233   6.004
 1587SOL    HW2 5661   2.348   6.080   5.998
 1588SOL     OW 5662   6.235   0.227   2.580
 1588SOL    HW1 5663   6.160   0.164   2.603
 1588SOL    HW2 5664   6.249   0.227   2.481
 1589SOL     OW 5665   6.754   4.611   3.227
 1589SOL    HW1 5666   6.684   4.606   3.299
 1589SOL    HW2 5667   6.800   4.523   3.218
 1590SOL     OW 5668   0.204   1.557   3.683
 1590SOL    HW1 5669   0.106   1.534   3.689
 1590SOL    HW2 5670   0.232   1.559   3.587
 1591SOL     OW 5671   0.768   6.022   1.751
 1591SOL    HW1 5672   0.740   5.928   1.768
 1591SOL    HW2 5673   0.695   6.071   1.702
 1592SOL     OW 5674   0.553   3.907   6.811
 1592SOL    HW1 5675   0.557   3.861   6.722
 1592SOL    HW2 5676   0.507   3.848   6.877
 1593SOL     OW 5677   1.717   0.768   6.921
 1593SOL    HW1 5678   1.619   0.771   6.901
 1593SOL    HW2 5679   1.749   0.674   6.918
 1594SOL     OW 5680   6.909   0.586   2.004
 1594SOL    HW1 5681   6.868   0.673   2.030
 1594SOL    HW2 5682   6.899   0.573   1.905
 1595SOL     OW 5683   0.969   4.804   6.629
 1595SOL    HW1 5684   0.874   4.824   6.650
 1595SOL    HW2 5685   0.983   4.705   6.631
 1596SOL     OW 5686   5.564   4.635   2.481
 1596SOL    HW1 5687   5.542   4.710   2.543
 1596SOL    HW2 5688   5.511   4.554   2.507
 1597SOL     OW 5689   3.482   6.629   6.961
 1597SOL    HW1 5690   3.549   6.566   6.999
 1597SOL    HW2 5691   3.514   6.664   6.873
 1598SOL     OW 5692   1.326   5.920   6.687
 1598SOL    HW1 5693   1.276   5.878   6.611
 1598SOL    HW2 5694   1.298   5.877   6.773
 1599SOL     OW 5695   4.546   4.738   3.601
 1599SOL    HW1 5696   4.494   4.794   3.666
 1599SOL    HW2 5697   4.607   4.796   3.548
 1600SOL     OW 5698   3.652   7.002   2.839
 1600SOL    HW1 5699   3.587   0.056   2.838
 1600SOL    HW2 5700   3.727   7.021   2.775
 1601SOL     OW 5701   5.599   6.241   3.890
 1601SOL    HW1 5702   5.500   6.247   3.893
 1601SOL    HW2 5703   5.628   6.217   3.797
 1602SOL     OW 5704   4.497   5.374   3.572
 1602SOL    HW1 5705   4.475   5.283   3.535
 1602SOL    HW2 5706   4.553   5.363   3.654
 1603SOL     OW 5707   2.855   5.462   3.770
 1603SOL    HW1 5708   2.879   5.433   3.863
 1603SOL    HW2 5709   2.757   5.482   3.765
 1604SOL     OW 5710   4.015   5.023   2.411
 1604SOL    HW1 5711   3.925   5.064   2.393
 1604SOL    HW2 5712   4.086   5.092   2.401
 1605SOL     OW 5713   4.680   5.187   1.288
 1605SOL    HW1 5714   4.779   5.183   1.274
 1605SOL    HW2 5715   4.660   5.241   1.370
 1606SOL     OW 5716   4.063   6.246   4.752
 1606SOL    HW1 5717   3.966   6.269   4.740
 1606SOL    HW2 5718   4.072   6.177   4.824
 1607SOL     OW 5719   4.883   5.875   2.933
 1607SOL    HW1 5720   4.886   5.853   3.030
 1607SOL    HW2 5721   4.955   5.942   2.911
 1608SOL     OW 5722   6.391   0.656   2.690
 1608SOL    HW1 5723   6.380   0.687   2.784
 1608SOL    HW2 5724   6.302   0.654   2.645
 1609SOL     OW 5725   3.289   6.066   1.007
 1609SOL    HW1 5726   3.326   6.021   1.088
 1609SOL    HW2 5727   3.235   6.146   1.036
 1610SOL     OW 5728   4.659   0.407   0.240
 1610SOL    HW1 5729   4.713   0.403   0.324
 1610SOL    HW2 5730   4.563   0.421   0.264
 1611SOL     OW 5731   1.288   3.703   1.040
 1611SOL    HW1 5732   1.188   3.708   1.051
 1611SOL    HW2 5733   1.312   3.623   0.987
 1612SOL     OW 5734   3.341   6.730   2.052
 1612SOL    HW1 5735   3.384   6.663   1.991
 1612SOL    HW2 5736   3.242   6.722   2.047
 1613SOL     OW 5737   6.724   5.807   2.561
 1613SOL    HW1 5738   6.680   5.742   2.622
 1613SOL    HW2 5739   6.698   5.900   2.586
 1614SOL     OW 5740   5.996   2.531   6.397
 1614SOL    HW1 5741   5.900   2.553   6.378
 1614SOL    HW2 5742   6.046   2.615   6.417
 1615SOL     OW 5743   0.637   5.074   5.971
 1615SOL    HW1 5744   0.693   5.139   5.919
 1615SOL    HW2 5745   0.633   5.104   6.066
 1616SOL     OW 5746   2.448   1.342   5.006
 1616SOL    HW1 5747   2.422   1.318   4.912
 1616SOL    HW2 5748   2.368   1.332   5.066
 1617SOL     OW 5749   5.267   6.236   3.334
 1617SOL    HW1 5750   5.298   6.142   3.315
 1617SOL    HW2 5751   5.258   6.249   3.433
 1618SOL     OW 5752   2.645   5.653   3.131
 1618SOL    HW1 5753   2.577   5.616   3.194
 1618SOL    HW2 5754   2.737   5.628   3.162
 1619SOL     OW 5755   1.318   5.053   0.132
 1619SOL    HW1 5756   1.403   5.015   0.098
 1619SOL    HW2 5757   1.331   5.085   0.226
 1620SOL     OW 5758   3.519   5.436   6.902
 1620SOL    HW1 5759   3.566   5.419   6.988
 1620SOL    HW2 5760   3.434   5.487   6.920
 1621SOL     OW 5761   5.638   6.476   0.748
 1621SOL    HW1 5762   5.659   6.400   0.810
 1621SOL    HW2 5763   5.640   6.562   0.798
 1622SOL     OW 5764   0.464   4.245   4.802
 1622SOL    HW1 5765   0.524   4.237   4.722
 1622SOL    HW2 5766   0.451   4.342   4.824
 1623SOL     OW 5767   0.691   2.137   4.730
 1623SOL    HW1 5768   0.618   2.069   4.722
 1623SOL    HW2 5769   0.749   2.133   4.649
 1624SOL     OW 5770   4.132   0.885   0.891
 1624SOL    HW1 5771   4.084   0.833   0.962
 1624SOL    HW2 5772   4.106   0.851   0.801
 1625SOL     OW 5773   1.726   5.093   0.865
 1625SOL    HW1 5774   1.760   5.186   0.847
 1625SOL    HW2 5775   1.644   5.098   0.922
 1626SOL     OW 5776   3.057   1.796   1.306
 1626SOL    HW1 5777   3.131   1.862   1.299
 1626SOL    HW2 5778   3.044   1.751   1.217
 1627SOL     OW 5779   4.242   1.776   3.886
 1627SOL    HW1 5780   4.180   1.733   3.952
 1627SOL    HW2 5781   4.276   1.706   3.823
 1628SOL     OW 5782   5.540   6.343   6.250
 1628SOL    HW1 5783   5.463   6.298   6.296
 1628SOL    HW2 5784   5.621   6.340   6.308
 1629SOL     OW 5785   2.071   1.163   3.025
 1629SOL    HW1 5786   2.074   1.097   2.949
 1629SOL    HW2 5787   2.115   1.248   2.997
 1630SOL     OW 5788   0.829   3.835   6.894
 1630SOL    HW1 5789   0.730   3.835   6.879
 1630SOL    HW2 5790   0.851   3.894   6.971
 1631SOL     OW 5791   0.254   3.213   0.416
 1631SOL    HW1 5792   0.298   3.198   0.504
 1631SOL    HW2 5793   0.160   3.244   0.430
 1632SOL     OW 5794   6.488   4.653   2.603
 1632SOL    HW1 5795   6.540   4.728   2.561
 1632SOL    HW2 5796   6.511   4.567   2.557
 1633SOL     OW 5797   4.988   3.169   3.920
 1633SOL    HW1 5798   5.033   3.188   4.006
 1633SOL    HW2 5799   4.958   3.255   3.878
 1634SOL     OW 5800   5.289   0.270   4.650
 1634SOL    HW1 5801   5.282   0.369   4.638
 1634SOL    HW2 5802   5.257   0.224   4.567
 1635SOL     OW 5803   3.415   5.390   4.351
 1635SOL    HW1 5804   3.455   5.464   4.405
 1635SOL    HW2 5805   3.465   5.305   4.369
 1636SOL     OW 5806   5.555   5.934   1.364
 1636SOL    HW1 5807   5.589   6.028   1.370
 1636SOL    HW2 5808   5.627   5.871   1.391
 1637SOL     OW 5809   0.314   0.037   2.264
 1637SOL    HW1 5810   0.288   0.011   2.357
 1637SOL    HW2 5811   0.345   6.979   2.213
 1638SOL     OW 5812   0.013   3.141   1.750
 1638SOL    HW1 5813   0.000   3.049   1.786
 1638SOL    HW2 5814   6.966   3.202   1.789
 1639SOL     OW 5815   5.255   2.958   2.497
 1639SOL    HW1 5816   5.159   2.968   2.468
 1639SOL    HW2 5817   5.309   3.032   2.458
 1640SOL     OW 5818   6.342   0.283   0.505
 1640SOL    HW1 5819   6.328   0.244   0.596
 1640SOL    HW2 5820   6.259   0.331   0.476
 1641SOL     OW 5821   6.704   2.452   2.795
 1641SOL    HW1 5822   6.691   2.413   2.887
 1641SOL    HW2 5823   6.629   2.423   2.736
 1642SOL     OW 5824   5.567   2.341   5.536
 1642SOL    HW1 5825   5.611   2.258   5.571
 1642SOL    HW2 5826   5.490   2.315   5.478
 1643SOL     OW 5827   3.161   5.383   4.394
 1643SOL    HW1 5828   3.253   5.375   4.355
 1643SOL    HW2 5829   3.161   5.344   4.486
 1644SOL     OW 5830   5.852   2.934   0.960
 1644SOL    HW1 5831   5.759   2.900   0.949
 1644SOL    HW2 5832   5.869   2.953   1.057
 1645SOL     OW 5833   2.486   0.741   5.476
 1645SOL    HW1 5834   2.392   0.738   5.443
 1645SOL    HW2 5835   2.487   0.764   5.573
 1646SOL     OW 5836   0.879   5.631   0.857
 1646SOL    HW1 5837   0.959   5.678   0.894
 1646SOL    HW2 5838   0.903   5.586   0.771
 1647SOL     OW 5839   6.161   2.705   4.651
 1647SOL    HW1 5840   6.157   2.712   4.750
 1647SOL    HW2 5841   6.133   2.613   4.623
 1648SOL     OW 5842   5.618   6.290   0.957
 1648SOL    HW1 5843   5.622   6.378   1.005
 1648SOL    HW2 5844   5.591   6.218   1.021
 1649SOL     OW 5845   3.021   0.472   3.315
 1649SOL    HW1 5846   2.966   0.539   3.265
 1649SOL    HW2 5847   3.089   0.519   3.370
 1650SOL     OW 5848   2.972   5.408   6.827
 1650SOL    HW1 5849   3.050   5.386   6.768
 1650SOL    HW2 5850   2.979   5.356   6.912
 1651SOL     OW 5851   0.857   2.807   3.859
 1651SOL    HW1 5852   0.949   2.798   3.897
 1651SOL    HW2 5853   0.813   2.888   3.896
 1652SOL     OW 5854   0.875   2.820   1.331
 1652SOL    HW1 5855   0.796   2.800   1.389
 1652SOL    HW2 5856   0.843   2.850   1.241
 1653SOL     OW 5857   0.351   4.863   3.218
 1653SOL    HW1 5858   0.377   4.951   3.178
 1653SOL    HW2 5859   0.253   4.847   3.204
 1654SOL     OW 5860   0.593   3.055   1.909
 1654SOL    HW1 5861   0.535   3.043   1.990
 1654SOL    HW2 5862   0.566   2.989   1.839
 1655SOL     OW 5863   6.688   0.497   4.633
 1655SOL    HW1 5864   6.592   0.524   4.638
 1655SOL    HW2 5865   6.722   0.478   4.725
 1656SOL     OW 5866   2.406   5.034   3.972
 1656SOL    HW1 5867   2.321   5.072   4.009
 1656SOL    HW2 5868   2.423   5.072   3.881
 1657SOL     OW 5869   0.620   0.296   5.529
 1657SOL    HW1 5870   0.613   0.292   5.629
 1657SOL    HW2 5871   0.540   0.253   5.488
 1658SOL     OW 5872   6.897   6.966   6.818
 1658SOL    HW1 5873   6.978   0.001   6.807
 1658SOL    HW2 5874   6.821   7.022   6.853
 1659SOL     OW 5875   4.485   6.873   6.611
 1659SOL    HW1 5876   4.458   6.898   6.519
 1659SOL    HW2 5877   4.543   6.945   6.650
 1660SOL     OW 5878   1.506   6.730   1.670
 1660SOL    HW1 5879   1.515   6.824   1.701
 1660SOL    HW2 5880   1.573   6.712   1.598
 1661SOL     OW 5881   3.902   4.800   2.687
 1661SOL    HW1 5882   3.973   4.792   2.617
 1661SOL    HW2 5883   3.944   4.807   2.777
 1662SOL     OW 5884   0.316   1.246   4.834
 1662SOL    HW1 5885   0.377   1.276   4.761
 1662SOL    HW2 5886   0.319   1.146   4.842
 1663SOL     OW 5887   4.314   4.495   1.302
 1663SOL    HW1 5888   4.404   4.536   1.316
 1663SOL    HW2 5889   4.324   4.398   1.281
 1664SOL     OW 5890   0.637   0.283   4.982
 1664SOL    HW1 5891   0.633   0.222   5.061
 1664SOL    HW2 5892   0.718   0.261   4.927
 1665SOL     OW 5893   2.213   4.107   1.261
 1665SOL    HW1 5894   2.172   4.060   1.183
 1665SOL    HW2 5895   2.269   4.183   1.228
 1666SOL     OW 5896   5.325   0.209   6.438
 1666SOL    HW1 5897   5.305   0.290   6.493
 1666SOL    HW2 5898   5.354   0.236   6.346
 1667SOL     OW 5899   0.423   6.763   1.331
 1667SOL    HW1 5900   0.397   6.815   1.413
 1667SOL    HW2 5901   0.393   6.812   1.250
 1668SOL     OW 5902   4.942   4.374   3.852
 1668SOL    HW1 5903   4.855   4.344   3.814
 1668SOL    HW2 5904   4.927   4.453   3.912
 1669SOL     OW 5905   0.078   3.827   5.173
 1669SOL    HW1 5906   0.112   3.796   5.085
 1669SOL    HW2 5907   0.154   3.863   5.228
 1670SOL     OW 5908   2.356   4.546   5.900
 1670SOL    HW1 5909   2.350   4.543   5.800
 1670SOL    HW2 5910   2.294   4.478   5.939
 1671SOL     OW 5911   5.148   1.667   1.854
 1671SOL    HW1 5912   5.084   1.689   1.928
 1671SOL    HW2 5913   5.228   1.727   1.860
 1672SOL     OW 5914   0.777   3.109   6.902
 1672SOL    HW1 5915   0.854   3.088   6.841
 1672SOL    HW2 5916   0.783   3.049   6.983
 1673SOL     OW 5917   2.240   1.725   4.378
 1673SOL    HW1 5918   2.316   1.731   4.443
 1673SOL    HW2 5919   2.153   1.728   4.428
 1674SOL     OW 5920   4.701   2.639   2.995
 1674SOL    HW1 5921   4.692   2.686   2.907
 1674SOL    HW2 5922   4.625   2.576   3.008
 1675SOL     OW 5923   5.072   0.675   1.198
 1675SOL    HW1 5924   4.986   0.647   1.156
 1675SOL    HW2 5925   5.099   0.765   1.163
 1676SOL     OW 5926   1.682   1.695   2.936
 1676SOL    HW1 5927   1.771   1.732   2.963
 1676SOL    HW2 5928   1.609   1.753   2.972
 1677SOL     OW 5929   4.095   3.633   3.474
 1677SOL    HW1 5930   4.107   3.640   3.573
 1677SOL    HW2 5931   4.053   3.717   3.440
 1678SOL     OW 5932   0.578   6.886   0.747
 1678SOL    HW1 5933   0.604   6.802   0.699
 1678SOL    HW2 5934   0.604   6.878   0.843
 1679SOL     OW 5935   1.630   1.936   5.660
 1679SOL    HW1 5936   1.685   1.980   5.731
 1679SOL    HW2 5937   1.544   1.986   5.650
 1680SOL     OW 5938   4.694   2.596   4.348
 1680SOL    HW1 5939   4.601   2.582   4.383
 1680SOL    HW2 5940   4.748   2.513   4.362
 1681SOL     OW 5941   1.911   6.363   3.706
 1681SOL    HW1 5942   1.949   6.381   3.796
 1681SOL    HW2 5943   1.954   6.424   3.639
 1682SOL     OW 5944   2.456   0.116   5.536
 1682SOL    HW1 5945   2.555   0.131   5.539
 1682SOL    HW2 5946   2.410   0.181   5.596
 1683SOL     OW 5947   6.238   4.701   2.761
 1683SOL    HW1 5948   6.327   4.684   2.718
 1683SOL    HW2 5949   6.189   4.771   2.710
 1684SOL     OW 5950   1.968   4.660   1.472
 1684SOL    HW1 5951   2.067   4.662   1.481
 1684SOL    HW2 5952   1.926   4.706   1.550
 1685SOL     OW 5953   0.117   1.166   5.615
 1685SOL    HW1 5954   0.159   1.183   5.704
 1685SOL    HW2 5955   0.188   1.143   5.548
 1686SOL     OW 5956   4.722   5.177   3.096
 1686SOL    HW1 5957   4.652   5.107   3.084
 1686SOL    HW2 5958   4.767   5.163   3.184
 1687SOL     OW 5959   6.546   3.702   2.824
 1687SOL    HW1 5960   6.626   3.739   2.872
 1687SOL    HW2 5961   6.527   3.610   2.858
 1688SOL     OW 5962   2.105   2.015   3.825
 1688SOL    HW1 5963   2.122   1.997   3.728
 1688SOL    HW2 5964   2.193   2.020   3.874
 1689SOL     OW 5965   5.962   0.830   1.846
 1689SOL    HW1 5966   5.981   0.919   1.804
 1689SOL    HW2 5967   5.994   0.830   1.940
 1690SOL     OW 5968   0.867   4.261   4.397
 1690SOL    HW1 5969   0.946   4.224   4.447
 1690SOL    HW2 5970   0.844   4.351   4.434
 1691SOL     OW 5971   5.030   2.844   5.130
 1691SOL    HW1 5972   5.088   2.918   5.164
 1691SOL    HW2 5973   4.943   2.844   5.181
 1692SOL     OW 5974   6.082   5.141   1.636
 1692SOL    HW1 5975   6.044   5.222   1.590
 1692SOL    HW2 5976   6.116   5.077   1.567
 1693SOL     OW 5977   6.212   0.556   5.548
 1693SOL    HW1 5978   6.187   0.461   5.567
 1693SOL    HW2 5979   6.143   0.617   5.588
 1694SOL     OW 5980   5.550   0.654   5.308
 1694SOL    HW1 5981   5.590   0.614   5.226
 1694SOL    HW2 5982   5.557   0.753   5.304
 1695SOL     OW 5983   3.734   0.600   6.455
 1695SOL    HW1 5984   3.661   0.548   6.411
 1695SOL    HW2 5985   3.724   0.594   6.554
 1696SOL     OW 5986   4.587   5.747   0.089
 1696SOL    HW1 5987   4.663   5.690   0.059
 1696SOL    HW2 5988   4.621   5.821   0.147
 1697SOL     OW 5989   5.796   2.028   1.413
 1697SOL    HW1 5990   5.766   2.047   1.506
 1697SOL    HW2 5991   5.819   2.113   1.367
 1698SOL     OW 5992   3.378   0.725   2.150
 1698SOL    HW1 5993   3.469   0.766   2.148
 1698SOL    HW2 5994   3.314   0.786   2.196
 1699SOL     OW 5995   2.372   0.638   0.025
 1699SOL    HW1 5996   2.428   0.711   7.008
 1699SOL    HW2 5997   2.431   0.561   0.050
 1700SOL     OW 5998   5.945   3.618   2.843
 1700SOL    HW1 5999   5.976   3.552   2.774
 1700SOL    HW2 6000   5.997   3.606   2.927
 1701SOL     OW 6001   6.759   4.975   4.938
 1701SOL    HW1 6002   6.839   4.923   4.910
 1701SOL    HW2 6003   6.788   5.062   4.979
 1702SOL     OW 6004   2.049   2.617   5.655
 1702SOL    HW1 6005   1.959   2.592   5.620
 1702SOL    HW2 6006   2.085   2.542   5.710
 1703SOL     OW 6007   3.227   2.068   6.857
 1703SOL    HW1 6008   3.194   2.044   6.949
 1703SOL    HW2 6009   3.251   1.984   6.808
 1704SOL     OW 6010   2.645   1.818   0.888
 1704SOL    HW1 6011   2.654   1.808   0.987
 1704SOL    HW2 6012   2.733   1.798   0.845
 1705SOL     OW 6013   3.861   1.159   1.624
 1705SOL    HW1 6014   3.892   1.166   1.719
 1705SOL    HW2 6015   3.767   1.191   1.617
 1706SOL     OW 6016   3.891   1.943   0.933
 1706SOL    HW1 6017   3.812   1.893   0.970
 1706SOL    HW2 6018   3.861   2.003   0.859
 1707SOL     OW 6019   4.675   1.506   2.373
 1707SOL    HW1 6020   4.646   1.471   2.463
 1707SOL    HW2 6021   4.669   1.433   2.305
 1708SOL     OW 6022   3.356   5.239   1.801
 1708SOL    HW1 6023   3.368   5.257   1.898
 1708SOL    HW2 6024   3.401   5.153   1.777
 1709SOL     OW 6025   5.071   5.696   0.613
 1709SOL    HW1 6026   4.972   5.692   0.631
 1709SOL    HW2 6027   5.093   5.637   0.536
 1710SOL     OW 6028   4.309   5.379   2.912
 1710SOL    HW1 6029   4.266   5.340   2.993
 1710SOL    HW2 6030   4.304   5.479   2.916
 1711SOL     OW 6031   3.482   5.614   6.130
 1711SOL    HW1 6032   3.485   5.714   6.136
 1711SOL    HW2 6033   3.399   5.586   6.082
 1712SOL     OW 6034   0.005   1.999   4.245
 1712SOL    HW1 6035   6.979   1.911   4.256
 1712SOL    HW2 6036   0.073   1.990   4.172
 1713SOL     OW 6037   4.083   0.740   2.836
 1713SOL    HW1 6038   4.066   0.641   2.828
 1713SOL    HW2 6039   4.090   0.780   2.744
 1714SOL     OW 6040   3.735   2.758   6.752
 1714SOL    HW1 6041   3.644   2.755   6.710
 1714SOL    HW2 6042   3.783   2.673   6.733
 1715SOL     OW 6043   1.211   6.325   2.576
 1715SOL    HW1 6044   1.260   6.264   2.514
 1715SOL    HW2 6045   1.174   6.402   2.524
 1716SOL     OW 6046   4.509   0.413   4.301
 1716SOL    HW1 6047   4.474   0.328   4.262
 1716SOL    HW2 6048   4.605   0.401   4.326
 1717SOL     OW 6049   3.706   5.960   5.614
 1717SOL    HW1 6050   3.748   6.040   5.656
 1717SOL    HW2 6051   3.773   5.885   5.612
 1718SOL     OW 6052   1.827   2.715   2.113
 1718SOL    HW1 6053   1.919   2.688   2.140
 1718SOL    HW2 6054   1.790   2.649   2.047
 1719SOL     OW 6055   0.892   4.965   1.414
 1719SOL    HW1 6056   0.960   4.920   1.472
 1719SOL    HW2 6057   0.886   4.916   1.327
 1720SOL     OW 6058   6.432   2.995   5.603
 1720SOL    HW1 6059   6.338   2.960   5.597
 1720SOL    HW2 6060   6.431   3.091   5.630
 1721SOL     OW 6061   1.460   1.426   1.628
 1721SOL    HW1 6062   1.465   1.419   1.528
 1721SOL    HW2 6063   1.501   1.513   1.657
 1722SOL     OW 6064   2.959   2.209   3.322
 1722SOL    HW1 6065   3.055   2.183   3.311
 1722SOL    HW2 6066   2.905   2.168   3.249
 1723SOL     OW 6067   5.338   2.917   0.257
 1723SOL    HW1 6068   5.421   2.883   0.213
 1723SOL    HW2 6069   5.339   2.889   0.354
 1724SOL     OW 6070   6.751   2.301   1.103
 1724SOL    HW1 6071   6.674   2.362   1.084
 1724SOL    HW2 6072   6.835   2.354   1.109
 1725SOL     OW 6073   1.904   5.810   6.868
 1725SOL    HW1 6074   1.990   5.772   6.901
 1725SOL    HW2 6075   1.911   5.910   6.863
 1726SOL     OW 6076   5.602   3.712   4.077
 1726SOL    HW1 6077   5.578   3.808   4.065
 1726SOL    HW2 6078   5.584   3.662   3.992
 1727SOL     OW 6079   3.240   3.366   3.266
 1727SOL    HW1 6080   3.279   3.317   3.188
 1727SOL    HW2 6081   3.152   3.406   3.240
 1728SOL     OW 6082   5.121   2.413   4.954
 1728SOL    HW1 6083   5.097   2.474   5.029
 1728SOL    HW2 6084   5.071   2.327   4.963
 1729SOL     OW 6085   1.914   4.089   1.603
 1729SOL    HW1 6086   1.985   4.154   1.632
 1729SOL    HW2 6087   1.826   4.117   1.642
 1730SOL     OW 6088   2.709   4.853   6.035
 1730SOL    HW1 6089   2.703   4.952   6.024
 1730SOL    HW2 6090   2.666   4.825   6.121
 1731SOL     OW 6091   5.827   4.114   4.020
 1731SOL    HW1 6092   5.874   4.133   4.107
 1731SOL    HW2 6093   5.736   4.154   4.022
 1732SOL     OW 6094   2.072   4.685   6.509
 1732SOL    HW1 6095   2.076   4.729   6.418
 1732SOL    HW2 6096   2.165   4.679   6.546
 1733SOL     OW 6097   3.015   3.966   0.254
 1733SOL    HW1 6098   2.970   3.881   0.227
 1733SOL    HW2 6099   2.989   4.039   0.192
 1734SOL     OW 6100   0.335   2.877   1.100
 1734SOL    HW1 6101   0.371   2.803   1.157
 1734SOL    HW2 6102   0.411   2.923   1.054
 1735SOL     OW 6103   4.009   5.434   6.295
 1735SOL    HW1 6104   3.917   5.459   6.266
 1735SOL    HW2 6105   4.060   5.397   6.216
 1736SOL     OW 6106   4.727   3.517   0.916
 1736SOL    HW1 6107   4.821   3.506   0.884
 1736SOL    HW2 6108   4.674   3.435   0.893
 1737SOL     OW 6109   4.922   1.124   4.841
 1737SOL    HW1 6110   4.851   1.191   4.860
 1737SOL    HW2 6111   5.010   1.158   4.873
 1738SOL     OW 6112   1.210   3.323   4.092
 1738SOL    HW1 6113   1.267   3.364   4.163
 1738SOL    HW2 6114   1.169   3.239   4.126
 1739SOL     OW 6115   5.251   0.216   4.102
 1739SOL    HW1 6116   5.161   0.259   4.110
 1739SOL    HW2 6117   5.280   0.214   4.007
 1740SOL     OW 6118   6.550   2.429   4.324
 1740SOL    HW1 6119   6.489   2.414   4.246
 1740SOL    HW2 6120   6.638   2.462   4.291
 1741SOL     OW 6121   1.194   1.869   4.476
 1741SOL    HW1 6122   1.145   1.788   4.509
 1741SOL    HW2 6123   1.137   1.916   4.408
 1742SOL     OW 6124   6.292   5.760   6.329
 1742SOL    HW1 6125   6.269   5.785   6.235
 1742SOL    HW2 6126   6.388   5.735   6.335
 1743SOL     OW 6127   1.514   1.005   3.016
 1743SOL    HW1 6128   1.598   0.970   3.057
 1743SOL    HW2 6129   1.529   1.020   2.918
 1744SOL     OW 6130   4.697   1.986   4.021
 1744SOL    HW1 6131   4.605   2.011   3.992
 1744SOL    HW2 6132   4.692   1.938   4.109
 1745SOL     OW 6133   7.021   6.708   1.416
 1745SOL    HW1 6134   6.954   6.687   1.345
 1745SOL    HW2 6135   0.082   6.655   1.400
 1746SOL     OW 6136   1.760   4.212   3.334
 1746SOL    HW1 6137   1.669   4.200   3.295
 1746SOL    HW2 6138   1.752   4.231   3.432
 1747SOL     OW 6139   3.486   1.020   2.359
 1747SOL    HW1 6140   3.441   1.109   2.370
 1747SOL    HW2 6141   3.428   0.949   2.398
 1748SOL     OW 6142   6.697   1.858   5.170
 1748SOL    HW1 6143   6.736   1.944   5.204
 1748SOL    HW2 6144   6.759   1.818   5.103
 1749SOL     OW 6145   2.021   5.080   0.935
 1749SOL    HW1 6146   2.074   5.025   1.000
 1749SOL    HW2 6147   1.924   5.059   0.945
 1750SOL     OW 6148   4.315   0.264   5.290
 1750SOL    HW1 6149   4.398   0.260   5.345
 1750SOL    HW2 6150   4.239   0.225   5.342
 1751SOL     OW 6151   5.908   2.528   4.912
 1751SOL    HW1 6152   5.999   2.502   4.944
 1751SOL    HW2 6153   5.882   2.616   4.951
 1752SOL     OW 6154   6.873   0.735   1.501
 1752SOL    HW1 6155   6.850   0.638   1.490
 1752SOL    HW2 6156   6.932   0.764   1.425
 1753SOL     OW 6157   6.334   1.395   1.819
 1753SOL    HW1 6158   6.365   1.300   1.807
 1753SOL    HW2 6159   6.272   1.419   1.744
 1754SOL     OW 6160   3.080   5.311   5.748
 1754SOL    HW1 6161   3.118   5.403   5.755
 1754SOL    HW2 6162   3.025   5.303   5.665
 1755SOL     OW 6163   6.387   6.922   5.042
 1755SOL    HW1 6164   6.428   7.004   5.003
 1755SOL    HW2 6165   6.459   6.859   5.071
 1756SOL     OW 6166   5.772   0.786   6.104
 1756SOL    HW1 6167   5.728   0.748   6.023
 1756SOL    HW2 6168   5.705   0.798   6.176
 1757SOL     OW 6169   2.419   5.286   5.211
 1757SOL    HW1 6170   2.472   5.335   5.142
 1757SOL    HW2 6171   2.474   5.274   5.293
 1758SOL     OW 6172   2.124   6.482   4.675
 1758SOL    HW1 6173   2.067   6.554   4.715
 1758SOL    HW2 6174   2.065   6.416   4.628
 1759SOL     OW 6175   1.351   6.762   6.848
 1759SOL    HW1 6176   1.262   6.745   6.891
 1759SOL    HW2 6177   1.360   6.860   6.828
 1760SOL     OW 6178   6.023   1.055   5.229
 1760SOL    HW1 6179   6.022   1.141   5.280
 1760SOL    HW2 6180   5.973   0.985   5.280
 1761SOL     OW 6181   6.262   1.849   2.077
 1761SOL    HW1 6182   6.285   1.761   2.037
 1761SOL    HW2 6183   6.166   1.871   2.058
 1762SOL     OW 6184   0.238   1.475   4.985
 1762SOL    HW1 6185   0.245   1.396   4.923
 1762SOL    HW2 6186   0.324   1.487   5.035
 1763SOL     OW 6187   0.681   4.060   4.525
 1763SOL    HW1 6188   0.745   4.120   4.476
 1763SOL    HW2 6189   0.587   4.092   4.510
 1764SOL     OW 6190   1.143   5.267   2.382
 1764SOL    HW1 6191   1.238   5.281   2.410
 1764SOL    HW2 6192   1.104   5.189   2.432
 1765SOL     OW 6193   5.480   3.459   2.127
 1765SOL    HW1 6194   5.572   3.478   2.160
 1765SOL    HW2 6195   5.415   3.468   2.203
 1766SOL     OW 6196   4.131   4.862   4.299
 1766SOL    HW1 6197   4.188   4.786   4.332
 1766SOL    HW2 6198   4.162   4.947   4.341
 1767SOL     OW 6199   0.587   4.750   2.387
 1767SOL    HW1 6200   0.657   4.701   2.438
 1767SOL    HW2 6201   0.627   4.831   2.345
 1768SOL     OW 6202   5.094   6.573   2.297
 1768SOL    HW1 6203   5.055   6.495   2.346
 1768SOL    HW2 6204   5.059   6.658   2.337
 1769SOL     OW 6205   5.270   0.344   6.970
 1769SOL    HW1 6206   5.220   0.258   6.968
 1769SOL    HW2 6207   5.324   0.353   6.887
 1770SOL     OW 6208   2.201   4.982   6.475
 1770SOL    HW1 6209   2.156   5.031   6.550
 1770SOL    HW2 6210   2.250   4.903   6.511
 1771SOL     OW 6211   0.837   3.513   6.241
 1771SOL    HW1 6212   0.886   3.427   6.229
 1771SOL    HW2 6213   0.896   3.590   6.218
 1772SOL     OW 6214   2.388   4.494   3.847
 1772SOL    HW1 6215   2.300   4.530   3.817
 1772SOL    HW2 6216   2.460   4.559   3.825
 1773SOL     OW 6217   0.750   6.547   5.127
 1773SOL    HW1 6218   0.663   6.498   5.119
 1773SOL    HW2 6219   0.764   6.575   5.222
 1774SOL     OW 6220   5.955   4.901   1.323
 1774SOL    HW1 6221   5.980   4.963   1.249
 1774SOL    HW2 6222   5.878   4.844   1.295
 1775SOL     OW 6223   2.326   5.431   6.209
 1775SOL    HW1 6224   2.316   5.344   6.256
 1775SOL    HW2 6225   2.310   5.506   6.273
 1776SOL     OW 6226   4.528   1.135   6.182
 1776SOL    HW1 6227   4.432   1.157   6.201
 1776SOL    HW2 6228   4.567   1.207   6.125
 1777SOL     OW 6229   4.706   6.726   6.722
 1777SOL    HW1 6230   4.728   6.629   6.707
 1777SOL    HW2 6231   4.629   6.752   6.664
 1778SOL     OW 6232   5.827   0.118   4.069
 1778SOL    HW1 6233   5.828   0.196   4.131
 1778SOL    HW2 6234   5.765   0.049   4.104
 1779SOL     OW 6235   5.453   5.900   3.648
 1779SOL    HW1 6236   5.437   5.824   3.710
 1779SOL    HW2 6237   5.537   5.884   3.596
 1780SOL     OW 6238   2.377   5.654   5.236
 1780SOL    HW1 6239   2.401   5.613   5.324
 1780SOL    HW2 6240   2.409   5.749   5.234
 1781SOL     OW 6241   4.424   0.592   3.848
 1781SOL    HW1 6242   4.495   0.661   3.863
 1781SOL    HW2 6243   4.397   0.552   3.936
 1782SOL     OW 6244   1.703   1.535   2.193
 1782SOL    HW1 6245   1.760   1.481   2.255
 1782SOL    HW2 6246   1.758   1.563   2.114
 1783SOL     OW 6247   1.934   4.221   6.682
 1783SOL    HW1 6248   1.941   4.147   6.616
 1783SOL    HW2 6249   1.986   4.300   6.649
 1784SOL     OW 6250   2.453   0.103   0.862
 1784SOL    HW1 6251   2.372   0.135   0.814
 1784SOL    HW2 6252   2.536   0.132   0.813
 1785SOL     OW 6253   1.112   6.566   4.183
 1785SOL    HW1 6254   1.067   6.586   4.096
 1785SOL    HW2 6255   1.115   6.648   4.239
 1786SOL     OW 6256   0.697   6.072   0.550
 1786SOL    HW1 6257   0.757   6.152   0.548
 1786SOL    HW2 6258   0.688   6.039   0.644
 1787SOL     OW 6259   2.130   3.857   6.170
 1787SOL    HW1 6260   2.128   3.938   6.112
 1787SOL    HW2 6261   2.175   3.782   6.122
 1788SOL     OW 6262   4.785   3.812   0.926
 1788SOL    HW1 6263   4.807   3.715   0.931
 1788SOL    HW2 6264   4.869   3.864   0.906
 1789SOL     OW 6265   6.725   3.921   1.770
 1789SOL    HW1 6266   6.752   3.829   1.799
 1789SOL    HW2 6267   6.674   3.966   1.843
 1790SOL     OW 6268   2.633   2.413   4.263
 1790SOL    HW1 6269   2.728   2.397   4.288
 1790SOL    HW2 6270   2.574   2.387   4.339
 1791SOL     OW 6271   5.261   6.776   3.195
 1791SOL    HW1 6272   5.338   6.713   3.185
 1791SOL    HW2 6273   5.268   6.849   3.127
 1792SOL     OW 6274   6.968   1.513   5.416
 1792SOL    HW1 6275   6.881   1.548   5.381
 1792SOL    HW2 6276   6.970   1.413   5.408
 1793SOL     OW 6277   0.042   1.336   5.900
 1793SOL    HW1 6278   0.012   1.241   5.901
 1793SOL    HW2 6279   0.005   1.384   5.979
 1794SOL     OW 6280   0.729   6.923   6.279
 1794SOL    HW1 6281   0.705   6.953   6.371
 1794SOL    HW2 6282   0.734   6.823   6.277
 1795SOL     OW 6283   6.166   4.526   0.351
 1795SOL    HW1 6284   6.133   4.548   0.443
 1795SOL    HW2 6285   6.216   4.604   0.313
 1796SOL     OW 6286   1.071   7.002   6.303
 1796SOL    HW1 6287   0.973   6.993   6.287
 1796SOL    HW2 6288   1.120   6.996   6.217
 1797SOL     OW 6289   2.882   5.704   4.954
 1797SOL    HW1 6290   2.820   5.639   4.997
 1797SOL    HW2 6291   2.976   5.685   4.983
 1798SOL     OW 6292   3.044   3.979   4.224
 1798SOL    HW1 6293   3.058   3.940   4.133
 1798SOL    HW2 6294   2.946   3.991   4.241
 1799SOL     OW 6295   3.391   1.126   0.415
 1799SOL    HW1 6296   3.389   1.224   0.395
 1799SOL    HW2 6297   3.317   1.103   0.478
 1800SOL     OW 6298   5.483   3.466   4.537
 1800SOL    HW1 6299   5.463   3.554   4.494
 1800SOL    HW2 6300   5.555   3.419   4.486
 1801SOL     OW 6301   1.015   1.763   1.980
 1801SOL    HW1 6302   1.085   1.736   1.914
 1801SOL    HW2 6303   0.956   1.684   1.999
 1802SOL     OW 6304   6.681   5.124   3.410
 1802SOL    HW1 6305   6.678   5.207   3.465
 1802SOL    HW2 6306   6.598   5.117   3.355
 1803SOL     OW 6307   1.113   0.170   3.404
 1803SOL    HW1 6308   1.095   0.081   3.445
 1803SOL    HW2 6309   1.207   0.198   3.425
 1804SOL     OW 6310   2.245   3.323   5.698
 1804SOL    HW1 6311   2.323   3.345   5.756
 1804SOL    HW2 6312   2.247   3.227   5.674
 1805SOL     OW 6313   0.293   6.288   6.752
 1805SOL    HW1 6314   0.356   6.212   6.769
 1805SOL    HW2 6315   0.273   6.292   6.654
 1806SOL     OW 6316   6.861   1.928   2.052
 1806SOL    HW1 6317   6.829   1.923   2.146
 1806SOL    HW2 6318   6.942   1.872   2.041
 1807SOL     OW 6319   6.528   3.270   2.075
 1807SOL    HW1 6320   6.563   3.217   1.998
 1807SOL    HW2 6321   6.463   3.214   2.127
 1808SOL     OW 6322   5.084   2.246   6.062
 1808SOL    HW1 6323   5.033   2.320   6.106
 1808SOL    HW2 6324   5.177   2.244   6.098
 1809SOL     OW 6325   3.954   1.378   5.741
 1809SOL    HW1 6326   3.911   1.457   5.698
 1809SOL    HW2 6327   4.004   1.407   5.823
 1810SOL     OW 6328   0.355   0.260   4.284
 1810SOL    HW1 6329   0.296   0.217   4.216
 1810SOL    HW2 6330   0.358   0.359   4.267
 1811SOL     OW 6331   4.516   5.696   2.109
 1811SOL    HW1 6332   4.591   5.739   2.058
 1811SOL    HW2 6333   4.519   5.597   2.095
 1812SOL     OW 6334   4.348   6.681   5.079
 1812SOL    HW1 6335   4.392   6.710   4.994
 1812SOL    HW2 6336   4.404   6.707   5.157
 1813SOL     OW 6337   4.621   4.447   2.580
 1813SOL    HW1 6338   4.547   4.478   2.520
 1813SOL    HW2 6339   4.656   4.360   2.546
 1814SOL     OW 6340   0.126   6.390   0.440
 1814SOL    HW1 6341   0.138   6.366   0.344
 1814SOL    HW2 6342   0.202   6.448   0.470
 1815SOL     OW 6343   5.968   6.465   1.538
 1815SOL    HW1 6344   6.019   6.523   1.601
 1815SOL    HW2 6345   5.963   6.372   1.574
 1816SOL     OW 6346   4.661   5.240   6.199
 1816SOL    HW1 6347   4.628   5.264   6.108
 1816SOL    HW2 6348   4.639   5.144   6.218
 1817SOL     OW 6349   1.140   1.488   3.562
 1817SOL    HW1 6350   1.106   1.436   3.485
 1817SOL    HW2 6351   1.108   1.583   3.556
 1818SOL     OW 6352   1.802   6.866   1.098
 1818SOL    HW1 6353   1.792   6.848   1.196
 1818SOL    HW2 6354   1.833   6.783   1.052
 1819SOL     OW 6355   2.357   5.076   3.359
 1819SOL    HW1 6356   2.346   5.009   3.432
 1819SOL    HW2 6357   2.268   5.115   3.335
 1820SOL     OW 6358   4.122   0.323   4.204
 1820SOL    HW1 6359   4.045   0.287   4.151
 1820SOL    HW2 6360   4.108   0.303   4.301
 1821SOL     OW 6361   3.639   1.954   2.481
 1821SOL    HW1 6362   3.551   1.989   2.449
 1821SOL    HW2 6363   3.631   1.925   2.576
 1822SOL     OW 6364   6.880   2.640   2.324
 1822SOL    HW1 6365   6.824   2.717   2.356
 1822SOL    HW2 6366   6.977   2.662   2.334
 1823SOL     OW 6367   3.530   6.651   2.497
 1823SOL    HW1 6368   3.594   6.584   2.534
 1823SOL    HW2 6369   3.562   6.683   2.408
 1824SOL     OW 6370   3.656   2.870   1.324
 1824SOL    HW1 6371   3.640   2.918   1.410
 1824SOL    HW2 6372   3.743   2.898   1.285
 1825SOL     OW 6373   1.809   1.456   5.167
 1825SOL    HW1 6374   1.902   1.424   5.145
 1825SOL    HW2 6375   1.742   1.393   5.128
 1826SOL     OW 6376   3.654   2.234   1.588
 1826SOL    HW1 6377   3.644   2.267   1.682
 1826SOL    HW2 6378   3.630   2.307   1.524
 1827SOL     OW 6379   5.709   3.982   1.469
 1827SOL    HW1 6380   5.648   3.993   1.390
 1827SOL    HW2 6381   5.656   3.956   1.549
 1828SOL     OW 6382   1.698   3.409   5.305
 1828SOL    HW1 6383   1.794   3.436   5.295
 1828SOL    HW2 6384   1.691   3.331   5.367
 1829SOL     OW 6385   3.464   0.602   3.512
 1829SOL    HW1 6386   3.511   0.609   3.600
 1829SOL    HW2 6387   3.484   0.513   3.470
 1830SOL     OW 6388   4.793   6.686   5.113
 1830SOL    HW1 6389   4.764   6.605   5.063
 1830SOL    HW2 6390   4.765   6.768   5.064
 1831SOL     OW 6391   4.313   5.636   1.669
 1831SOL    HW1 6392   4.360   5.587   1.743
 1831SOL    HW2 6393   4.380   5.662   1.599
 1832SOL     OW 6394   2.454   3.321   0.261
 1832SOL    HW1 6395   2.539   3.304   0.310
 1832SOL    HW2 6396   2.380   3.266   0.300
 1833SOL     OW 6397   4.982   0.079   0.753
 1833SOL    HW1 6398   5.017   0.103   0.843
 1833SOL    HW2 6399   5.023   7.015   0.723
 1834SOL     OW 6400   2.256   2.406   6.213
 1834SOL    HW1 6401   2.177   2.449   6.170
 1834SOL    HW2 6402   2.243   2.307   6.214
 1835SOL     OW 6403   6.263   5.846   0.833
 1835SOL    HW1 6404   6.285   5.841   0.931
 1835SOL    HW2 6405   6.276   5.756   0.792
 1836SOL     OW 6406   5.338   2.264   1.653
 1836SOL    HW1 6407   5.272   2.198   1.688
 1836SOL    HW2 6408   5.292   2.324   1.586
 1837SOL     OW 6409   3.225   2.425   6.529
 1837SOL    HW1 6410   3.290   2.409   6.455
 1837SOL    HW2 6411   3.173   2.341   6.546
 1838SOL     OW 6412   6.410   0.913   0.400
 1838SOL    HW1 6413   6.353   0.994   0.411
 1838SOL    HW2 6414   6.452   0.914   0.309
 1839SOL     OW 6415   0.550   1.114   6.750
 1839SOL    HW1 6416   0.486   1.038   6.749
 1839SOL    HW2 6417   0.541   1.166   6.665
 1840SOL     OW 6418   4.744   6.406   3.289
 1840SOL    HW1 6419   4.690   6.490   3.291
 1840SOL    HW2 6420   4.841   6.429   3.285
 1841SOL     OW 6421   2.331   1.319   2.269
 1841SOL    HW1 6422   2.243   1.296   2.310
 1841SOL    HW2 6423   2.328   1.299   2.171
 1842SOL     OW 6424   1.531   5.231   0.007
 1842SOL    HW1 6425   1.586   5.166   6.977
 1842SOL    HW2 6426   1.559   5.324   7.005
 1843SOL     OW 6427   3.310   1.183   4.469
 1843SOL    HW1 6428   3.325   1.280   4.487
 1843SOL    HW2 6429   3.216   1.169   4.437
 1844SOL     OW 6430   5.612   2.007   6.683
 1844SOL    HW1 6431   5.541   2.064   6.642
 1844SOL    HW2 6432   5.645   2.050   6.767
 1845SOL     OW 6433   1.398   1.457   3.119
 1845SOL    HW1 6434   1.496   1.474   3.124
 1845SOL    HW2 6435   1.374   1.379   3.177
 1846SOL     OW 6436   4.127   1.354   2.073
 1846SOL    HW1 6437   4.075   1.322   1.995
 1846SOL    HW2 6438   4.090   1.441   2.105
 1847SOL     OW 6439   2.039   0.055   5.489
 1847SOL    HW1 6440   2.005   6.986   5.509
 1847SOL    HW2 6441   2.133   0.050   5.457
 1848SOL     OW 6442   2.750   5.743   4.302
 1848SOL    HW1 6443   2.832   5.747   4.359
 1848SOL    HW2 6444   2.714   5.835   4.288
 1849SOL     OW 6445   4.572   2.808   1.747
 1849SOL    HW1 6446   4.646   2.774   1.806
 1849SOL    HW2 6447   4.562   2.907   1.761
 1850SOL     OW 6448   5.040   1.452   1.164
 1850SOL    HW1 6449   5.023   1.497   1.251
 1850SOL    HW2 6450   4.987   1.496   1.092
 1851SOL     OW 6451   6.999   4.209   5.297
 1851SOL    HW1 6452   0.021   4.149   5.365
 1851SOL    HW2 6453   6.904   4.225   5.323
 1852SOL     OW 6454   1.222   6.012   2.478
 1852SOL    HW1 6455   1.306   5.999   2.425
 1852SOL    HW2 6456   1.159   5.938   2.459
 1853SOL     OW 6457   0.166   2.790   4.470
 1853SOL    HW1 6458   0.251   2.842   4.462
 1853SOL    HW2 6459   0.160   2.750   4.561
 1854SOL     OW 6460   7.006   0.033   3.614
 1854SOL    HW1 6461   6.980   0.023   3.518
 1854SOL    HW2 6462   0.006   6.964   3.651
 1855SOL     OW 6463   4.778   2.735   4.649
 1855SOL    HW1 6464   4.814   2.644   4.668
 1855SOL    HW2 6465   4.773   2.749   4.550
 1856SOL     OW 6466   3.877   2.550   6.682
 1856SOL    HW1 6467   3.958   2.517   6.731
 1856SOL    HW2 6468   3.834   2.475   6.633
 1857SOL     OW 6469   4.306   1.584   1.257
 1857SOL    HW1 6470   4.212   1.555   1.241
 1857SOL    HW2 6471   4.361   1.504   1.284
 1858SOL     OW 6472   4.162   2.319   4.406
 1858SOL    HW1 6473   4.224   2.308   4.484
 1858SOL    HW2 6474   4.208   2.372   4.335
 1859SOL     OW 6475   5.959   2.230   3.869
 1859SOL    HW1 6476   5.909   2.222   3.955
 1859SOL    HW2 6477   5.944   2.149   3.813
 1860SOL     OW 6478   1.069   1.580   4.890
 1860SOL    HW1 6479   1.127   1.640   4.835
 1860SOL    HW2 6480   0.974   1.591   4.861
 1861SOL     OW 6481   6.786   0.319   3.253
 1861SOL    HW1 6482   6.853   0.269   3.199
 1861SOL    HW2 6483   6.706   0.262   3.269
 1862SOL     OW 6484   2.667   5.916   6.516
 1862SOL    HW1 6485   2.728   5.928   6.438
 1862SOL    HW2 6486   2.641   5.820   6.524
 1863SOL     OW 6487   1.097   2.772   0.784
 1863SOL    HW1 6488   1.184   2.807   0.750
 1863SOL    HW2 6489   1.113   2.707   0.858
 1864SOL     OW 6490   3.925   5.545   2.884
 1864SOL    HW1 6491   3.854   5.592   2.937
 1864SOL    HW2 6492   3.957   5.464   2.933
 1865SOL     OW 6493   5.231   1.709   6.628
 1865SOL    HW1 6494   5.192   1.776   6.691
 1865SOL    HW2 6495   5.256   1.626   6.678
 1866SOL     OW 6496   0.675   4.851   3.591
 1866SOL    HW1 6497   0.735   4.794   3.646
 1866SOL    HW2 6498   0.609   4.793   3.543
 1867SOL     OW 6499   1.933   2.384   1.426
 1867SOL    HW1 6500   1.902   2.471   1.464
 1867SOL    HW2 6501   1.989   2.401   1.345
 1868SOL     OW 6502   5.836   4.527   5.687
 1868SOL    HW1 6503   5.753   4.581   5.702
 1868SOL    HW2 6504   5.861   4.478   5.771
 1869SOL     OW 6505   4.836   1.545   4.418
 1869SOL    HW1 6506   4.759   1.545   4.482
 1869SOL    HW2 6507   4.805   1.579   4.329
 1870SOL     OW 6508   0.138   5.906   4.461
 1870SOL    HW1 6509   0.129   5.939   4.555
 1870SOL    HW2 6510   0.050   5.916   4.414
 1871SOL     OW 6511   0.524   6.386   0.785
 1871SOL    HW1 6512   0.467   6.427   0.857
 1871SOL    HW2 6513   0.571   6.305   0.822
 1872SOL     OW 6514   2.535   2.678   1.225
 1872SOL    HW1 6515   2.598   2.649   1.298
 1872SOL    HW2 6516   2.580   2.669   1.137
 1873SOL     OW 6517   0.151   1.647   0.424
 1873SOL    HW1 6518   0.131   1.629   0.328
 1873SOL    HW2 6519   0.207   1.730   0.431
 1874SOL     OW 6520   0.680   6.386   0.183
 1874SOL    HW1 6521   0.608   6.452   0.164
 1874SOL    HW2 6522   0.650   6.295   0.156
 1875SOL     OW 6523   6.460   4.824   0.538
 1875SOL    HW1 6524   6.406   4.871   0.607
 1875SOL    HW2 6525   6.494   4.891   0.472
 1876SOL     OW 6526   0.058   6.115   6.878
 1876SOL    HW1 6527   0.049   6.177   6.800
 1876SOL    HW2 6528   6.997   6.120   6.934
 1877SOL     OW 6529   0.354   0.968   2.722
 1877SOL    HW1 6530   0.391   0.990   2.631
 1877SOL    HW2 6531   0.374   1.044   2.784
 1878SOL     OW 6532   6.528   4.268   3.445
 1878SOL    HW1 6533   6.626   4.258   3.461
 1878SOL    HW2 6534   6.479   4.263   3.532
 1879SOL     OW 6535   4.211   5.632   4.739
 1879SOL    HW1 6536   4.288   5.645   4.801
 1879SOL    HW2 6537   4.160   5.718   4.731
 1880SOL     OW 6538   0.664   1.552   4.137
 1880SOL    HW1 6539   0.576   1.579   4.099
 1880SOL    HW2 6540   0.733   1.620   4.114
 1881SOL     OW 6541   1.199   1.279   4.239
 1881SOL    HW1 6542   1.118   1.221   4.253
 1881SOL    HW2 6543   1.270   1.253   4.303
 1882SOL     OW 6544   1.568   5.638   6.703
 1882SOL    HW1 6545   1.516   5.724   6.702
 1882SOL    HW2 6546   1.626   5.633   6.622
 1883SOL     OW 6547   1.472   2.702   2.610
 1883SOL    HW1 6548   1.540   2.771   2.586
 1883SOL    HW2 6549   1.499   2.657   2.694
 1884SOL     OW 6550   3.117   0.913   0.106
 1884SOL    HW1 6551   3.035   0.901   0.050
 1884SOL    HW2 6552   3.160   1.001   0.084
 1885SOL     OW 6553   0.137   1.966   1.272
 1885SOL    HW1 6554   0.155   2.029   1.196
 1885SOL    HW2 6555   0.124   2.018   1.356
 1886SOL     OW 6556   3.247   3.122   6.205
 1886SOL    HW1 6557   3.239   3.022   6.207
 1886SOL    HW2 6558   3.276   3.154   6.296
 1887SOL     OW 6559   0.499   6.786   5.236
 1887SOL    HW1 6560   0.438   6.709   5.218
 1887SOL    HW2 6561   0.534   6.823   5.150
 1888SOL     OW 6562   2.380   2.182   5.983
 1888SOL    HW1 6563   2.295   2.179   6.035
 1888SOL    HW2 6564   2.431   2.265   6.007
 1889SOL     OW 6565   3.890   2.791   0.350
 1889SOL    HW1 6566   3.865   2.888   0.343
 1889SOL    HW2 6567   3.990   2.783   0.353
 1890SOL     OW 6568   6.444   5.013   6.602
 1890SOL    HW1 6569   6.423   4.931   6.654
 1890SOL    HW2 6570   6.535   5.045   6.627
 1891SOL     OW 6571   6.220   3.994   5.307
 1891SOL    HW1 6572   6.129   4.022   5.276
 1891SOL    HW2 6573   6.267   4.074   5.345
 1892SOL     OW 6574   3.984   5.890   1.352
 1892SOL    HW1 6575   3.890   5.877   1.384
 1892SOL    HW2 6576   4.014   5.983   1.375
 1893SOL     OW 6577   3.821   1.881   4.321
 1893SOL    HW1 6578   3.735   1.875   4.371
 1893SOL    HW2 6579   3.875   1.958   4.355
 1894SOL     OW 6580   3.980   4.186   0.969
 1894SOL    HW1 6581   4.068   4.233   0.976
 1894SOL    HW2 6582   3.985   4.098   1.017
 1895SOL     OW 6583   5.326   0.407   3.390
 1895SOL    HW1 6584   5.374   0.436   3.473
 1895SOL    HW2 6585   5.368   0.449   3.310
 1896SOL     OW 6586   6.650   1.100   5.739
 1896SOL    HW1 6587   6.677   1.164   5.810
 1896SOL    HW2 6588   6.551   1.102   5.728
 1897SOL     OW 6589   5.920   4.782   3.477
 1897SOL    HW1 6590   6.018   4.760   3.484
 1897SOL    HW2 6591   5.877   4.720   3.412
 1898SOL     OW 6592   6.122   4.894   7.000
 1898SOL    HW1 6593   6.118   4.911   6.901
 1898SOL    HW2 6594   6.086   4.803   7.019
 1899SOL     OW 6595   1.325   3.083   2.789
 1899SOL    HW1 6596   1.261   3.126   2.852
 1899SOL    HW2 6597   1.284   3.000   2.751
 1900SOL     OW 6598   2.305   5.673   6.491
 1900SOL    HW1 6599   2.220   5.640   6.532
 1900SOL    HW2 6600   2.305   5.773   6.489
 1901SOL     OW 6601   1.352   1.155   6.619
 1901SOL    HW1 6602   1.299   1.239   6.620
 1901SOL    HW2 6603   1.450   1.176   6.614
 1902SOL     OW 6604   0.787   3.182   4.683
 1902SOL    HW1 6605   0.736   3.195   4.768
 1902SOL    HW2 6606   0.885   3.186   4.703
 1903SOL     OW 6607   6.203   3.041   3.839
 1903SOL    HW1 6608   6.296   3.043   3.802
 1903SOL    HW2 6609   6.143   3.096   3.781
 1904SOL     OW 6610   6.532   6.745   3.653
 1904SOL    HW1 6611   6.522   6.830   3.705
 1904SOL    HW2 6612   6.590   6.682   3.704
 1905SOL     OW 6613   6.704   2.890   3.879
 1905SOL    HW1 6614   6.756   2.976   3.881
 1905SOL    HW2 6615   6.622   2.903   3.824
 1906SOL     OW 6616   2.362   0.301   0.338
 1906SOL    HW1 6617   2.413   0.386   0.349
 1906SOL    HW2 6618   2.271   0.312   0.378
 1907SOL     OW 6619   3.936   5.785   3.534
 1907SOL    HW1 6620   3.957   5.864   3.592
 1907SOL    HW2 6621   4.008   5.774   3.466
 1908SOL     OW 6622   4.380   1.529   6.296
 1908SOL    HW1 6623   4.342   1.468   6.365
 1908SOL    HW2 6624   4.339   1.620   6.306
 1909SOL     OW 6625   2.699   5.178   4.446
 1909SOL    HW1 6626   2.760   5.231   4.388
 1909SOL    HW2 6627   2.717   5.199   4.542
 1910SOL     OW 6628   5.127   1.733   5.656
 1910SOL    HW1 6629   5.131   1.654   5.717
 1910SOL    HW2 6630   5.089   1.704   5.568
 1911SOL     OW 6631   6.515   3.234   5.267
 1911SOL    HW1 6632   6.466   3.271   5.345
 1911SOL    HW2 6633   6.479   3.143   5.244
 1912SOL     OW 6634   3.756   0.172   3.201
 1912SOL    HW1 6635   3.680   0.111   3.179
 1912SOL    HW2 6636   3.804   0.197   3.117
 1913SOL     OW 6637   1.574   4.699   5.502
 1913SOL    HW1 6638   1.594   4.709   5.404
 1913SOL    HW2 6639   1.478   4.719   5.518
 1914SOL     OW 6640   3.741   2.012   5.871
 1914SOL    HW1 6641   3.735   2.103   5.912
 1914SOL    HW2 6642   3.680   1.949   5.919
 1915SOL     OW 6643   3.081   0.064   5.707
 1915SOL    HW1 6644   3.075   0.114   5.793
 1915SOL    HW2 6645   3.142   0.113   5.644
 1916SOL     OW 6646   3.504   6.293   1.496
 1916SOL    HW1 6647   3.532   6.308   1.591
 1916SOL    HW2 6648   3.580   6.254   1.444
 1917SOL     OW 6649   2.868   3.410   3.993
 1917SOL    HW1 6650   2.896   3.504   3.972
 1917SOL    HW2 6651   2.803   3.411   4.069
 1918SOL     OW 6652   5.608   6.751   4.493
 1918SOL    HW1 6653   5.560   6.827   4.449
 1918SOL    HW2 6654   5.592   6.667   4.441
 1919SOL     OW 6655   6.498   6.965   1.766
 1919SOL    HW1 6656   6.468   6.871   1.746
 1919SOL    HW2 6657   6.587   6.962   1.812
 1920SOL     OW 6658   6.657   6.043   4.261
 1920SOL    HW1 6659   6.652   6.129   4.312
 1920SOL    HW2 6660   6.572   5.992   4.274
 1921SOL     OW 6661   1.063   6.908   6.707
 1921SOL    HW1 6662   1.057   6.848   6.788
 1921SOL    HW2 6663   0.974   6.913   6.663
 1922SOL     OW 6664   3.590   4.228   0.716
 1922SOL    HW1 6665   3.638   4.312   0.744
 1922SOL    HW2 6666   3.647   4.149   0.737
 1923SOL     OW 6667   1.777   1.911   0.798
 1923SOL    HW1 6668   1.698   1.968   0.777
 1923SOL    HW2 6669   1.842   1.963   0.853
 1924SOL     OW 6670   0.206   4.573   1.754
 1924SOL    HW1 6671   0.256   4.501   1.706
 1924SOL    HW2 6672   0.121   4.536   1.791
 1925SOL     OW 6673   3.056   4.135   1.168
 1925SOL    HW1 6674   3.153   4.128   1.191
 1925SOL    HW2 6675   3.047   4.173   1.076
 1926SOL     OW 6676   1.204   7.013   4.032
 1926SOL    HW1 6677   1.133   0.005   3.963
 1926SOL    HW2 6678   1.274   6.952   3.996
 1927SOL     OW 6679   4.087   3.800   6.728
 1927SOL    HW1 6680   3.989   3.818   6.729
 1927SOL    HW2 6681   4.105   3.709   6.692
 1928SOL     OW 6682   6.238   4.382   5.741
 1928SOL    HW1 6683   6.256   4.352   5.647
 1928SOL    HW2 6684   6.226   4.301   5.799
 1929SOL     OW 6685   1.282   0.175   1.746
 1929SOL    HW1 6686   1.355   0.242   1.752
 1929SOL    HW2 6687   1.295   0.104   1.816
 1930SOL     OW 6688   5.846   4.040   5.948
 1930SOL    HW1 6689   5.885   3.950   5.970
 1930SOL    HW2 6690   5.751   4.029   5.919
 1931SOL     OW 6691   0.591   2.811   4.434
 1931SOL    HW1 6692   0.648   2.774   4.361
 1931SOL    HW2 6693   0.515   2.748   4.452
 1932SOL     OW 6694   5.833   3.784   1.339
 1932SOL    HW1 6695   5.814   3.864   1.395
 1932SOL    HW2 6696   5.768   3.711   1.360
 1933SOL     OW 6697   3.136   4.465   1.194
 1933SOL    HW1 6698   3.066   4.449   1.264
 1933SOL    HW2 6699   3.109   4.421   1.109
 1934SOL     OW 6700   0.966   6.389   5.561
 1934SOL    HW1 6701   0.947   6.314   5.624
 1934SOL    HW2 6702   0.880   6.426   5.526
 1935SOL     OW 6703   2.565   0.574   3.611
 1935SOL    HW1 6704   2.620   0.571   3.695
 1935SOL    HW2 6705   2.521   0.664   3.604
 1936SOL     OW 6706   6.047   5.747   5.415
 1936SOL    HW1 6707   6.104   5.811   5.362
 1936SOL    HW2 6708   6.106   5.688   5.470
 1937SOL     OW 6709   3.757   6.363   1.733
 1937SOL    HW1 6710   3.693   6.289   1.756
 1937SOL    HW2 6711   3.787   6.353   1.638
 1938SOL     OW 6712   4.540   0.909   3.917
 1938SOL    HW1 6713   4.614   0.859   3.962
 1938SOL    HW2 6714   4.469   0.930   3.985
 1939SOL     OW 6715   1.753   1.004   3.502
 1939SOL    HW1 6716   1.708   0.930   3.451
 1939SOL    HW2 6717   1.756   1.086   3.445
 1940SOL     OW 6718   0.040   5.185   0.207
 1940SOL    HW1 6719   0.117   5.150   0.260
 1940SOL    HW2 6720   0.062   5.181   0.109
 1941SOL     OW 6721   5.011   3.986   2.589
 1941SOL    HW1 6722   4.940   3.916   2.595
 1941SOL    HW2 6723   5.075   3.975   2.666
 1942SOL     OW 6724   6.322   4.959   2.539
 1942SOL    HW1 6725   6.418   4.934   2.522
 1942SOL    HW2 6726   6.299   5.040   2.485
 1943SOL     OW 6727   2.670   4.750   3.122
 1943SOL    HW1 6728   2.640   4.843   3.143
 1943SOL    HW2 6729   2.711   4.709   3.203
 1944SOL     OW 6730   6.647   1.086   1.026
 1944SOL    HW1 6731   6.746   1.092   1.018
 1944SOL    HW2 6732   6.622   1.004   1.078
 1945SOL     OW 6733   3.373   4.942   3.678
 1945SOL    HW1 6734   3.379   5.041   3.665
 1945SOL    HW2 6735   3.289   4.908   3.635
 1946SOL     OW 6736   1.295   0.520   6.776
 1946SOL    HW1 6737   1.214   0.578   6.778
 1946SOL    HW2 6738   1.345   0.534   6.691
 1947SOL     OW 6739   5.583   5.616   3.591
 1947SOL    HW1 6740   5.552   5.601   3.685
 1947SOL    HW2 6741   5.505   5.641   3.534
 1948SOL     OW 6742   6.843   5.486   4.632
 1948SOL    HW1 6743   6.822   5.450   4.723
 1948SOL    HW2 6744   6.763   5.534   4.596
 1949SOL     OW 6745   4.014   4.163   6.811
 1949SOL    HW1 6746   4.083   4.211   6.865
 1949SOL    HW2 6747   3.996   4.073   6.850
 1950SOL     OW 6748   3.438   4.040   6.504
 1950SOL    HW1 6749   3.352   4.042   6.454
 1950SOL    HW2 6750   3.463   4.133   6.531
 1951SOL     OW 6751   6.073   1.528   6.614
 1951SOL    HW1 6752   6.071   1.445   6.558
 1951SOL    HW2 6753   5.991   1.532   6.672
 1952SOL     OW 6754   3.729   2.053   0.127
 1952SOL    HW1 6755   3.776   2.066   0.039
 1952SOL    HW2 6756   3.706   1.957   0.139
 1953SOL     OW 6757   0.323   2.464   6.189
 1953SOL    HW1 6758   0.243   2.421   6.233
 1953SOL    HW2 6759   0.292   2.539   6.130
 1954SOL     OW 6760   3.419   1.957   4.076
 1954SOL    HW1 6761   3.321   1.976   4.076
 1954SOL    HW2 6762   3.462   2.006   4.000
 1955SOL     OW 6763   0.159   6.349   2.788
 1955SOL    HW1 6764   0.222   6.328   2.863
 1955SOL    HW2 6765   0.077   6.393   2.824
 1956SOL     OW 6766   6.007   5.628   2.570
 1956SOL    HW1 6767   6.068   5.593   2.499
 1956SOL    HW2 6768   5.971   5.552   2.624
 1957SOL     OW 6769   0.115   6.644   5.361
 1957SOL    HW1 6770   0.036   6.582   5.363
 1957SOL    HW2 6771   0.083   6.738   5.352
 1958SOL     OW 6772   5.442   3.408   5.622
 1958SOL    HW1 6773   5.400   3.343   5.559
 1958SOL    HW2 6774   5.467   3.361   5.707
 1959SOL     OW 6775   1.790   2.002   6.310
 1959SOL    HW1 6776   1.759   1.946   6.233
 1959SOL    HW2 6777   1.795   2.098   6.282
 1960SOL     OW 6778   5.680   5.459   0.609
 1960SOL    HW1 6779   5.739   5.414   0.542
 1960SOL    HW2 6780   5.626   5.390   0.657
 1961SOL     OW 6781   5.833   4.182   3.758
 1961SOL    HW1 6782   5.848   4.146   3.850
 1961SOL    HW2 6783   5.851   4.109   3.691
 1962SOL     OW 6784   1.256   6.104   3.453
 1962SOL    HW1 6785   1.192   6.032   3.478
 1962SOL    HW2 6786   1.349   6.067   3.448
 1963SOL     OW 6787   1.271   0.150   2.756
 1963SOL    HW1 6788   1.352   0.187   2.712
 1963SOL    HW2 6789   1.245   0.210   2.833
 1964SOL     OW 6790   4.964   3.311   2.781
 1964SOL    HW1 6791   4.906   3.392   2.773
 1964SOL    HW2 6792   5.059   3.339   2.791
 1965SOL     OW 6793   1.007   3.764   3.181
 1965SOL    HW1 6794   1.063   3.702   3.235
 1965SOL    HW2 6795   0.949   3.818   3.242
 1966SOL     OW 6796   6.732   5.447   5.338
 1966SOL    HW1 6797   6.715   5.393   5.256
 1966SOL    HW2 6798   6.726   5.387   5.419
 1967SOL     OW 6799   4.468   2.952   5.368
 1967SOL    HW1 6800   4.444   2.856   5.357
 1967SOL    HW2 6801   4.384   3.007   5.376
 1968SOL     OW 6802   2.752   6.095   0.240
 1968SOL    HW1 6803   2.709   6.048   0.163
 1968SOL    HW2 6804   2.846   6.120   0.216
 1969SOL     OW 6805   0.103   2.176   1.439
 1969SOL    HW1 6806   0.172   2.192   1.509
 1969SOL    HW2 6807   0.019   2.227   1.461
 1970SOL     OW 6808   1.754   0.086   4.535
 1970SOL    HW1 6809   1.829   0.045   4.482
 1970SOL    HW2 6810   1.790   0.127   4.618
 1971SOL     OW 6811   0.452   6.608   0.024
 1971SOL    HW1 6812   0.388   6.586   6.973
 1971SOL    HW2 6813   0.543   6.623   7.008
 1972SOL     OW 6814   1.015   4.565   3.866
 1972SOL    HW1 6815   1.067   4.633   3.918
 1972SOL    HW2 6816   0.931   4.606   3.830
 1973SOL     OW 6817   3.442   2.912   1.750
 1973SOL    HW1 6818   3.370   2.849   1.720
 1973SOL    HW2 6819   3.501   2.934   1.672
 1974SOL     OW 6820   5.551   0.633   3.833
 1974SOL    HW1 6821   5.622   0.581   3.880
 1974SOL    HW2 6822   5.473   0.645   3.894
 1975SOL     OW 6823   3.233   0.435   3.820
 1975SOL    HW1 6824   3.223   0.430   3.721
 1975SOL    HW2 6825   3.261   0.346   3.856
 1976SOL     OW 6826   0.124   5.897   0.354
 1976SOL    HW1 6827   0.051   5.927   0.415
 1976SOL    HW2 6828   0.209   5.888   0.406
 1977SOL     OW 6829   0.876   2.344   4.812
 1977SOL    HW1 6830   0.883   2.440   4.837
 1977SOL    HW2 6831   0.784   2.325   4.778
 1978SOL     OW 6832   6.367   2.048   4.663
 1978SOL    HW1 6833   6.330   2.004   4.745
 1978SOL    HW2 6834   6.411   1.978   4.606
 1979SOL     OW 6835   6.461   4.711   3.995
 1979SOL    HW1 6836   6.369   4.745   4.013
 1979SOL    HW2 6837   6.508   4.773   3.932
 1980SOL     OW 6838   3.625   0.425   1.621
 1980SOL    HW1 6839   3.688   0.474   1.681
 1980SOL    HW2 6840   3.543   0.480   1.606
 1981SOL     OW 6841   4.994   2.912   1.915
 1981SOL    HW1 6842   5.021   2.892   1.820
 1981SOL    HW2 6843   4.919   2.977   1.915
 1982SOL     OW 6844   5.623   5.443   4.688
 1982SOL    HW1 6845   5.618   5.343   4.677
 1982SOL    HW2 6846   5.622   5.486   4.597
 1983SOL     OW 6847   1.221   2.891   3.348
 1983SOL    HW1 6848   1.289   2.952   3.307
 1983SOL    HW2 6849   1.223   2.901   3.447
 1984SOL     OW 6850   3.984   1.853   5.909
 1984SOL    HW1 6851   3.904   1.886   5.860
 1984SOL    HW2 6852   3.964   1.765   5.952
 1985SOL     OW 6853   0.988   1.241   1.505
 1985SOL    HW1 6854   0.944   1.176   1.442
 1985SOL    HW2 6855   1.015   1.193   1.588
 1986SOL     OW 6856   1.637   2.063   6.995
 1986SOL    HW1 6857   1.716   2.008   7.021
 1986SOL    HW2 6858   1.630   2.067   6.895
 1987SOL     OW 6859   2.371   3.570   1.034
 1987SOL    HW1 6860   2.301   3.615   1.089
 1987SOL    HW2 6861   2.432   3.517   1.094
 1988SOL     OW 6862   4.845   3.635   6.973
 1988SOL    HW1 6863   4.773   3.581   7.017
 1988SOL    HW2 6864   4.923   3.576   6.952
 1989SOL     OW 6865   2.327   0.584   4.136
 1989SOL    HW1 6866   2.346   0.494   4.096
 1989SOL    HW2 6867   2.385   0.597   4.217
 1990SOL     OW 6868   2.939   0.740   0.937
 1990SOL    HW1 6869   2.998   0.802   0.989
 1990SOL    HW2 6870   2.978   0.648   0.939
 1991SOL     OW 6871   3.527   5.596   4.482
 1991SOL    HW1 6872   3.512   5.655   4.561
 1991SOL    HW2 6873   3.622   5.564   4.483
 1992SOL     OW 6874   2.370   6.679   5.324
 1992SOL    HW1 6875   2.302   6.614   5.288
 1992SOL    HW2 6876   2.323   6.763   5.352
 1993SOL     OW 6877   3.514   3.722   5.606
 1993SOL    HW1 6878   3.537   3.745   5.701
 1993SOL    HW2 6879   3.489   3.805   5.557
 1994SOL     OW 6880   6.601   1.971   1.939
 1994SOL    HW1 6881   6.573   2.057   1.895
 1994SOL    HW2 6882   6.676   1.990   2.002
 1995SOL     OW 6883   6.056   1.941   1.483
 1995SOL    HW1 6884   6.065   2.004   1.560
 1995SOL    HW2 6885   5.960   1.937   1.454
 1996SOL     OW 6886   3.352   4.200   0.122
 1996SOL    HW1 6887   3.370   4.214   0.024
 1996SOL    HW2 6888   3.439   4.200   0.171
 1997SOL     OW 6889   5.030   0.318   4.273
 1997SOL    HW1 6890   5.020   0.406   4.228
 1997SOL    HW2 6891   4.984   0.320   4.362
 1998SOL     OW 6892   2.373   4.119   6.452
 1998SOL    HW1 6893   2.406   4.198   6.400
 1998SOL    HW2 6894   2.402   4.035   6.406
 1999SOL     OW 6895   2.343   6.986   2.102
 1999SOL    HW1 6896   2.420   7.019   2.047
 1999SOL    HW2 6897   2.370   6.905   2.153
 2000SOL     OW 6898   3.943   0.721   5.066
 2000SOL    HW1 6899   3.949   0.794   5.134
 2000SOL    HW2 6900   4.032   0.709   5.023
 2001SOL     OW 6901   2.926   1.155   1.074
 2001SOL    HW1 6902   2.927   1.069   1.126
 2001SOL    HW2 6903   2.850   1.153   1.009
 2002SOL     OW 6904   2.033   5.770   5.887
 2002SOL    HW1 6905   2.085   5.768   5.973
 2002SOL    HW2 6906   2.091   5.737   5.813
 2003SOL     OW 6907   5.905   6.044   3.628
 2003SOL    HW1 6908   5.965   5.965   3.610
 2003SOL    HW2 6909   5.814   6.012   3.651
 2004SOL     OW 6910   3.067   0.970   5.838
 2004SOL    HW1 6911   3.028   1.043   5.781
 2004SOL    HW2 6912   3.166   0.981   5.842
 2005SOL     OW 6913   2.200   5.857   6.096
 2005SOL    HW1 6914   2.138   5.936   6.101
 2005SOL    HW2 6915   2.263   5.858   6.173
 2006SOL     OW 6916   4.239   5.100   4.429
 2006SOL    HW1 6917   4.296   5.173   4.392
 2006SOL    HW2 6918   4.217   5.119   4.525
 2007SOL     OW 6919   5.135   5.675   0.194
 2007SOL    HW1 6920   5.042   5.706   0.214
 2007SOL    HW2 6921   5.200   5.749   0.215
 2008SOL     OW 6922   6.832   6.356   3.117
 2008SOL    HW1 6923   6.755   6.353   3.053
 2008SOL    HW2 6924   6.821   6.285   3.186
 2009SOL     OW 6925   0.186   0.764   2.205
 2009SOL    HW1 6926   0.161   0.820   2.125
 2009SOL    HW2 6927   0.249   0.692   2.176
 2010SOL     OW 6928   0.715   0.384   0.945
 2010SOL    HW1 6929   0.712   0.476   0.906
 2010SOL    HW2 6930   0.670   0.320   0.883
 2011SOL     OW 6931   6.236   1.922   4.887
 2011SOL    HW1 6932   6.308   1.879   4.942
 2011SOL    HW2 6933   6.192   1.994   4.941
 2012SOL     OW 6934   1.140   4.419   0.848
 2012SOL    HW1 6935   1.114   4.388   0.940
 2012SOL    HW2 6936   1.193   4.503   0.855
 2013SOL     OW 6937   5.744   2.307   2.733
 2013SOL    HW1 6938   5.706   2.308   2.641
 2013SOL    HW2 6939   5.844   2.315   2.728
 2014SOL     OW 6940   1.527   5.626   3.990
 2014SOL    HW1 6941   1.615   5.639   3.946
 2014SOL    HW2 6942   1.457   5.606   3.921
 2015SOL     OW 6943   3.380   0.264   0.191
 2015SOL    HW1 6944   3.443   0.213   0.132
 2015SOL    HW2 6945   3.329   0.329   0.135
 2016SOL     OW 6946   0.822   5.634   4.397
 2016SOL    HW1 6947   0.816   5.718   4.344
 2016SOL    HW2 6948   0.917   5.604   4.401
 2017SOL     OW 6949   2.387   5.619   3.023
 2017SOL    HW1 6950   2.325   5.584   3.093
 2017SOL    HW2 6951   2.469   5.656   3.066
 2018SOL     OW 6952   0.266   5.612   6.043
 2018SOL    HW1 6953   0.265   5.712   6.042
 2018SOL    HW2 6954   0.212   5.579   6.120
 2019SOL     OW 6955   6.267   2.483   1.487
 2019SOL    HW1 6956   6.312   2.394   1.485
 2019SOL    HW2 6957   6.216   2.496   1.402
 2020SOL     OW 6958   2.129   4.973   3.662
 2020SOL    HW1 6959   2.048   4.931   3.621
 2020SOL    HW2 6960   2.211   4.926   3.630
 2021SOL     OW 6961   1.798   0.705   2.533
 2021SOL    HW1 6962   1.863   0.662   2.596
 2021SOL    HW2 6963   1.772   0.795   2.569
 2022SOL     OW 6964   2.344   3.663   1.717
 2022SOL    HW1 6965   2.305   3.734   1.776
 2022SOL    HW2 6966   2.318   3.573   1.753
 2023SOL     OW 6967   6.643   1.167   6.618
 2023SOL    HW1 6968   6.690   1.237   6.673
 2023SOL    HW2 6969   6.560   1.139   6.665
 2024SOL     OW 6970   6.063   0.510   3.503
 2024SOL    HW1 6971   6.152   0.511   3.549
 2024SOL    HW2 6972   5.993   0.478   3.567
 2025SOL     OW 6973   0.398   1.865   1.676
 2025SOL    HW1 6974   0.360   1.952   1.708
 2025SOL    HW2 6975   0.404   1.801   1.753
 2026SOL     OW 6976   2.525   2.003   5.525
 2026SOL    HW1 6977   2.462   2.000   5.603
 2026SOL    HW2 6978   2.565   2.094   5.518
 2027SOL     OW 6979   1.308   1.017   2.484
 2027SOL    HW1 6980   1.251   1.055   2.557
 2027SOL    HW2 6981   1.270   0.930   2.454
 2028SOL     OW 6982   3.614   2.072   0.480
 2028SOL    HW1 6983   3.555   1.998   0.447
 2028SOL    HW2 6984   3.704   2.036   0.502
 2029SOL     OW 6985   1.022   1.377   6.340
 2029SOL    HW1 6986   0.962   1.443   6.383
 2029SOL    HW2 6987   1.052   1.411   6.251
 2030SOL     OW 6988   1.860   2.047   3.580
 2030SOL    HW1 6989   1.835   1.951   3.580
 2030SOL    HW2 6990   1.945   2.060   3.530
 2031SOL     OW 6991   5.861   6.499   1.986
 2031SOL    HW1 6992   5.918   6.418   1.970
 2031SOL    HW2 6993   5.918   6.576   2.014
 2032SOL     OW 6994   4.879   6.070   0.095
 2032SOL    HW1 6995   4.833   6.150   0.057
 2032SOL    HW2 6996   4.946   6.099   0.163
 2033SOL     OW 6997   5.520   4.818   6.467
 2033SOL    HW1 6998   5.620   4.811   6.465
 2033SOL    HW2 6999   5.493   4.913   6.481
 2034SOL     OW 7000   2.343   6.347   3.039
 2034SOL    HW1 7001   2.442   6.340   3.025
 2034SOL    HW2 7002   2.295   6.307   2.961
 2035SOL     OW 7003   0.857   1.578   2.474
 2035SOL    HW1 7004   0.819   1.663   2.437
 2035SOL    HW2 7005   0.799   1.546   2.550
 2036SOL     OW 7006   0.321   5.311   0.969
 2036SOL    HW1 7007   0.273   5.241   1.022
 2036SOL    HW2 7008   0.327   5.284   0.873
 2037SOL     OW 7009   6.636   2.445   5.466
 2037SOL    HW1 7010   6.634   2.351   5.501
 2037SOL    HW2 7011   6.584   2.451   5.381
 2038SOL     OW 7012   0.436   1.609   4.551
 2038SOL    HW1 7013   0.439   1.509   4.554
 2038SOL    HW2 7014   0.483   1.647   4.630
 2039SOL     OW 7015   6.695   5.499   3.309
 2039SOL    HW1 7016   6.757   5.488   3.232
 2039SOL    HW2 7017   6.630   5.573   3.290
 2040SOL     OW 7018   3.684   3.217   4.406
 2040SOL    HW1 7019   3.776   3.204   4.368
 2040SOL    HW2 7020   3.633   3.131   4.399
 2041SOL     OW 7021   5.909   4.852   5.915
 2041SOL    HW1 7022   5.856   4.855   6.000
 2041SOL    HW2 7023   5.961   4.766   5.912
 2042SOL     OW 7024   5.008   4.979   0.457
 2042SOL    HW1 7025   4.927   4.989   0.399
 2042SOL    HW2 7026   5.089   4.971   0.400
 2043SOL     OW 7027   5.666   4.763   2.716
 2043SOL    HW1 7028   5.634   4.854   2.743
 2043SOL    HW2 7029   5.766   4.761   2.718
 2044SOL     OW 7030   5.898   0.135   1.852
 2044SOL    HW1 7031   5.838   0.149   1.773
 2044SOL    HW2 7032   5.993   0.131   1.821
 2045SOL     OW 7033   2.354   4.632   6.165
 2045SOL    HW1 7034   2.429   4.688   6.199
 2045SOL    HW2 7035   2.376   4.601   6.072
 2046SOL     OW 7036   6.184   0.845   4.131
 2046SOL    HW1 7037   6.220   0.825   4.040
 2046SOL    HW2 7038   6.258   0.839   4.199
 2047SOL     OW 7039   5.018   2.479   1.237
 2047SOL    HW1 7040   4.999   2.473   1.139
 2047SOL    HW2 7041   4.962   2.551   1.278
 2048SOL     OW 7042   4.074   0.287   6.899
 2048SOL    HW1 7043   4.115   0.355   6.840
 2048SOL    HW2 7044   4.066   0.323   6.992
 2049SOL     OW 7045   4.521   1.118   0.196
 2049SOL    HW1 7046   4.515   1.076   0.106
 2049SOL    HW2 7047   4.429   1.146   0.225
 2050SOL     OW 7048   6.099   2.579   3.915
 2050SOL    HW1 7049   6.153   2.660   3.890
 2050SOL    HW2 7050   6.152   2.496   3.898
 2051SOL     OW 7051   1.018   6.065   7.018
 2051SOL    HW1 7052   1.115   6.075   6.998
 2051SOL    HW2 7053   0.971   6.152   7.004
 2052SOL     OW 7054   1.013   2.993   6.486
 2052SOL    HW1 7055   1.025   3.020   6.582
 2052SOL    HW2 7056   0.920   2.961   6.472
 2053SOL     OW 7057   6.338   0.908   6.988
 2053SOL    HW1 7058   6.265   0.975   6.979
 2053SOL    HW2 7059   6.303   0.817   6.965
 2054SOL     OW 7060   6.206   2.626   0.653
 2054SOL    HW1 7061   6.198   2.536   0.608
 2054SOL    HW2 7062   6.302   2.654   0.654
 2055SOL     OW 7063   5.310   2.378   3.354
 2055SOL    HW1 7064   5.287   2.462   3.404
 2055SOL    HW2 7065   5.409   2.372   3.345
 2056SOL     OW 7066   2.273   1.049   3.185
 2056SOL    HW1 7067   2.338   1.019   3.115
 2056SOL    HW2 7068   2.217   1.123   3.148
 2057SOL     OW 7069   5.938   2.556   4.140
 2057SOL    HW1 7070   5.997   2.562   4.060
 2057SOL    HW2 7071   5.981   2.605   4.216
 2058SOL     OW 7072   0.454   1.959   2.946
 2058SOL    HW1 7073   0.499   1.919   3.025
 2058SOL    HW2 7074   0.432   2.055   2.965
 2059SOL     OW 7075   2.234   1.279   6.732
 2059SOL    HW1 7076   2.181   1.338   6.794
 2059SOL    HW2 7077   2.199   1.186   6.737
 2060SOL     OW 7078   0.076   4.750   2.014
 2060SOL    HW1 7079   0.060   4.662   2.059
 2060SOL    HW2 7080   0.034   4.823   2.068
 2061SOL     OW 7081   6.970   1.353   2.515
 2061SOL    HW1 7082   7.012   1.262   2.518
 2061SOL    HW2 7083   7.005   1.409   2.590
 2062SOL     OW 7084   4.408   6.953   2.279
 2062SOL    HW1 7085   4.453   6.884   2.336
 2062SOL    HW2 7086   4.403   0.017   2.330
 2063SOL     OW 7087   1.867   2.752   6.128
 2063SOL    HW1 7088   1.935   2.826   6.125
 2063SOL    HW2 7089   1.862   2.715   6.220
 2064SOL     OW 7090   0.780   2.328   5.517
 2064SOL    HW1 7091   0.737   2.258   5.461
 2064SOL    HW2 7092   0.758   2.312   5.613
 2065SOL     OW 7093   6.284   3.255   2.597
 2065SOL    HW1 7094   6.237   3.331   2.553
 2065SOL    HW2 7095   6.220   3.180   2.612
 2066SOL     OW 7096   0.227   6.867   5.025
 2066SOL    HW1 7097   0.266   6.775   5.024
 2066SOL    HW2 7098   0.198   6.892   4.932
 2067SOL     OW 7099   6.489   6.653   0.619
 2067SOL    HW1 7100   6.499   6.749   0.593
 2067SOL    HW2 7101   6.524   6.594   0.546
 2068SOL     OW 7102   1.996   1.806   5.270
 2068SOL    HW1 7103   1.975   1.885   5.213
 2068SOL    HW2 7104   1.918   1.743   5.271
 2069SOL     OW 7105   0.705   2.895   2.398
 2069SOL    HW1 7106   0.654   2.901   2.312
 2069SOL    HW2 7107   0.771   2.970   2.403
 2070SOL     OW 7108   1.562   0.635   2.426
 2070SOL    HW1 7109   1.491   0.650   2.495
 2070SOL    HW2 7110   1.644   0.687   2.450
 2071SOL     OW 7111   0.274   6.785   4.234
 2071SOL    HW1 7112   0.295   6.687   4.242
 2071SOL    HW2 7113   0.178   6.801   4.257
 2072SOL     OW 7114   4.727   6.129   1.734
 2072SOL    HW1 7115   4.634   6.165   1.745
 2072SOL    HW2 7116   4.793   6.202   1.750
 2073SOL     OW 7117   3.592   6.692   5.035
 2073SOL    HW1 7118   3.633   6.625   4.972
 2073SOL    HW2 7119   3.629   6.678   5.127
 2074SOL     OW 7120   6.732   1.538   0.774
 2074SOL    HW1 7121   6.797   1.581   0.712
 2074SOL    HW2 7122   6.723   1.593   0.857
 2075SOL     OW 7123   3.894   3.058   0.834
 2075SOL    HW1 7124   3.882   2.960   0.819
 2075SOL    HW2 7125   3.915   3.103   0.748
 2076SOL     OW 7126   5.333   5.812   0.349
 2076SOL    HW1 7127   5.361   5.761   0.431
 2076SOL    HW2 7128   5.378   5.773   0.269
 2077SOL     OW 7129   5.694   1.639   2.478
 2077SOL    HW1 7130   5.730   1.611   2.567
 2077SOL    HW2 7131   5.639   1.722   2.488
 2078SOL     OW 7132   2.921   5.445   6.498
 2078SOL    HW1 7133   2.919   5.534   6.451
 2078SOL    HW2 7134   3.007   5.436   6.547
 2079SOL     OW 7135   5.868   0.631   3.720
 2079SOL    HW1 7136   5.771   0.656   3.715
 2079SOL    HW2 7137   5.877   0.531   3.718
 2080SOL     OW 7138   2.529   2.186   4.865
 2080SOL    HW1 7139   2.551   2.281   4.843
 2080SOL    HW2 7140   2.547   2.170   4.962
 2081SOL     OW 7141   1.056   6.637   5.170
 2081SOL    HW1 7142   1.050   6.545   5.210
 2081SOL    HW2 7143   1.013   6.637   5.080
 2082SOL     OW 7144   5.395   0.453   0.885
 2082SOL    HW1 7145   5.358   0.384   0.823
 2082SOL    HW2 7146   5.437   0.527   0.833
 2083SOL     OW 7147   3.769   5.476   6.715
 2083SOL    HW1 7148   3.765   5.521   6.626
 2083SOL    HW2 7149   3.679   5.476   6.757
 2084SOL     OW 7150   6.963   2.343   3.381
 2084SOL    HW1 7151   0.008   2.391   3.324
 2084SOL    HW2 7152   6.895   2.299   3.321
 2085SOL     OW 7153   4.632   1.109   6.426
 2085SOL    HW1 7154   4.678   1.193   6.454
 2085SOL    HW2 7155   4.596   1.120   6.334
 2086SOL     OW 7156   3.467   4.652   0.443
 2086SOL    HW1 7157   3.380   4.612   0.417
 2086SOL    HW2 7158   3.536   4.580   0.451
 2087SOL     OW 7159   5.476   6.492   2.790
 2087SOL    HW1 7160   5.504   6.436   2.867
 2087SOL    HW2 7161   5.506   6.449   2.705
 2088SOL     OW 7162   3.368   6.746   1.330
 2088SOL    HW1 7163   3.395   6.769   1.237
 2088SOL    HW2 7164   3.327   6.826   1.373
 2089SOL     OW 7165   4.667   1.500   0.301
 2089SOL    HW1 7166   4.648   1.406   0.329
 2089SOL    HW2 7167   4.687   1.556   0.381
 2090SOL     OW 7168   3.910   4.047   4.400
 2090SOL    HW1 7169   3.959   4.069   4.315
 2090SOL    HW2 7170   3.921   3.950   4.420
 2091SOL     OW 7171   0.443   5.751   0.999
 2091SOL    HW1 7172   0.523   5.692   0.987
 2091SOL    HW2 7173   0.443   5.823   0.930
 2092SOL     OW 7174   5.959   6.320   1.034
 2092SOL    HW1 7175   5.947   6.376   1.116
 2092SOL    HW2 7176   5.931   6.373   0.953
 2093SOL     OW 7177   1.128   2.726   2.332
 2093SOL    HW1 7178   1.217   2.682   2.324
 2093SOL    HW2 7179   1.140   2.826   2.332
 2094SOL     OW 7180   5.962   0.380   1.963
 2094SOL    HW1 7181   5.954   0.293   1.913
 2094SOL    HW2 7182   5.909   0.450   1.916
 2095SOL     OW 7183   5.629   6.059   4.292
 2095SOL    HW1 7184   5.682   6.025   4.370
 2095SOL    HW2 7185   5.679   6.131   4.245
 2096SOL     OW 7186   4.815   3.966   2.349
 2096SOL    HW1 7187   4.787   3.916   2.431
 2096SOL    HW2 7188   4.881   3.910   2.297
 2097SOL     OW 7189   1.090   2.610   7.021
 2097SOL    HW1 7190   1.011   2.556   0.028
 2097SOL    HW2 7191   1.094   2.694   0.052
 2098SOL     OW 7192   4.352   6.468   3.683
 2098SOL    HW1 7193   4.306   6.383   3.710
 2098SOL    HW2 7194   4.451   6.457   3.691
 2099SOL     OW 7195   2.967   1.018   4.839
 2099SOL    HW1 7196   2.990   1.009   4.742
 2099SOL    HW2 7197   2.947   1.114   4.860
 2100SOL     OW 7198   4.280   3.984   6.759
 2100SOL    HW1 7199   4.200   3.927   6.740
 2100SOL    HW2 7200   4.351   3.966   6.691
 2101SOL     OW 7201   0.620   0.393   3.091
 2101SOL    HW1 7202   0.596   0.351   3.178
 2101SOL    HW2 7203   0.539   0.398   3.033
 2102SOL     OW 7204   0.148   5.740   2.843
 2102SOL    HW1 7205   0.102   5.651   2.846
 2102SOL    HW2 7206   0.246   5.727   2.857
 2103SOL     OW 7207   3.608   3.403   6.859
 2103SOL    HW1 7208   3.633   3.498   6.876
 2103SOL    HW2 7209   3.508   3.394   6.860
 2104SOL     OW 7210   1.545   3.286   5.753
 2104SOL    HW1 7211   1.589   3.374   5.770
 2104SOL    HW2 7212   1.606   3.212   5.781
 2105SOL     OW 7213   5.475   5.387   2.720
 2105SOL    HW1 7214   5.519   5.390   2.630
 2105SOL    HW2 7215   5.435   5.296   2.735
 2106SOL     OW 7216   4.544   5.176   6.652
 2106SOL    HW1 7217   4.447   5.179   6.628
 2106SOL    HW2 7218   4.553   5.165   6.751
 2107SOL     OW 7219   3.899   4.300   5.735
 2107SOL    HW1 7220   3.830   4.229   5.752
 2107SOL    HW2 7221   3.986   4.256   5.713
 2108SOL     OW 7222   6.180   5.569   5.569
 2108SOL    HW1 7223   6.236   5.606   5.643
 2108SOL    HW2 7224   6.239   5.542   5.493
 2109SOL     OW 7225   5.505   5.810   2.961
 2109SOL    HW1 7226   5.573   5.878   2.934
 2109SOL    HW2 7227   5.415   5.841   2.931
 2110SOL     OW 7228   2.838   4.691   6.423
 2110SOL    HW1 7229   2.897   4.737   6.490
 2110SOL    HW2 7230   2.852   4.732   6.333
 2111SOL     OW 7231   0.791   2.674   6.438
 2111SOL    HW1 7232   0.717   2.630   6.387
 2111SOL    HW2 7233   0.798   2.635   6.529
 2112SOL     OW 7234   4.027   2.864   1.705
 2112SOL    HW1 7235   4.017   2.922   1.786
 2112SOL    HW2 7236   4.086   2.909   1.639
 2113SOL     OW 7237   2.017   0.376   2.888
 2113SOL    HW1 7238   2.005   0.278   2.902
 2113SOL    HW2 7239   2.057   0.417   2.969
 2114SOL     OW 7240   1.514   4.158   0.493
 2114SOL    HW1 7241   1.415   4.166   0.485
 2114SOL    HW2 7242   1.556   4.158   0.402
 2115SOL     OW 7243   2.373   4.330   3.056
 2115SOL    HW1 7244   2.339   4.238   3.037
 2115SOL    HW2 7245   2.415   4.368   2.974
 2116SOL     OW 7246   6.748   3.839   2.951
 2116SOL    HW1 7247   6.781   3.911   3.013
 2116SOL    HW2 7248   6.825   3.783   2.922
 2117SOL     OW 7249   6.948   4.466   1.763
 2117SOL    HW1 7250   6.856   4.503   1.777
 2117SOL    HW2 7251   6.946   4.397   1.691
 2118SOL     OW 7252   0.128   3.505   2.421
 2118SOL    HW1 7253   0.077   3.559   2.354
 2118SOL    HW2 7254   0.217   3.479   2.382
 2119SOL     OW 7255   1.955   5.694   1.038
 2119SOL    HW1 7256   2.044   5.651   1.023
 2119SOL    HW2 7257   1.899   5.685   0.956
 2120SOL     OW 7258   6.249   4.411   2.704
 2120SOL    HW1 7259   6.252   4.508   2.729
 2120SOL    HW2 7260   6.268   4.355   2.785
 2121SOL     OW 7261   0.532   5.756   5.221
 2121SOL    HW1 7262   0.585   5.676   5.248
 2121SOL    HW2 7263   0.591   5.837   5.223
 2122SOL     OW 7264   5.593   4.296   5.694
 2122SOL    HW1 7265   5.572   4.352   5.774
 2122SOL    HW2 7266   5.599   4.354   5.613
 2123SOL     OW 7267   6.817   4.650   2.598
 2123SOL    HW1 7268   6.790   4.657   2.695
 2123SOL    HW2 7269   6.916   4.661   2.590
 2124SOL     OW 7270   1.842   1.443   1.285
 2124SOL    HW1 7271   1.758   1.425   1.337
 2124SOL    HW2 7272   1.851   1.541   1.269
 2125SOL     OW 7273   2.151   1.160   0.277
 2125SOL    HW1 7274   2.131   1.232   0.211
 2125SOL    HW2 7275   2.138   1.071   0.235
 2126SOL     OW 7276   2.718   1.142   6.495
 2126SOL    HW1 7277   2.794   1.078   6.507
 2126SOL    HW2 7278   2.693   1.180   6.585
 2127SOL     OW 7279   5.966   2.951   4.268
 2127SOL    HW1 7280   5.878   2.954   4.317
 2127SOL    HW2 7281   6.014   2.867   4.292
 2128SOL     OW 7282   0.702   4.451   4.761
 2128SOL    HW1 7283   0.732   4.356   4.764
 2128SOL    HW2 7284   0.720   4.494   4.849
 2129SOL     OW 7285   4.760   2.820   5.717
 2129SOL    HW1 7286   4.709   2.753   5.771
 2129SOL    HW2 7287   4.739   2.808   5.620
 2130SOL     OW 7288   5.263   6.798   2.544
 2130SOL    HW1 7289   5.250   6.761   2.637
 2130SOL    HW2 7290   5.177   6.792   2.494
 2131SOL     OW 7291   6.926   1.080   0.642
 2131SOL    HW1 7292   6.983   1.059   0.562
 2131SOL    HW2 7293   6.975   1.055   0.725
 2132SOL     OW 7294   2.726   3.046   1.392
 2132SOL    HW1 7295   2.662   3.090   1.329
 2132SOL    HW2 7296   2.706   2.948   1.396
 2133SOL     OW 7297   2.748   2.363   5.992
 2133SOL    HW1 7298   2.662   2.408   6.017
 2133SOL    HW2 7299   2.805   2.353   6.074
 2134SOL     OW 7300   6.720   1.571   1.080
 2134SOL    HW1 7301   6.770   1.485   1.095
 2134SOL    HW2 7302   6.627   1.562   1.118
 2135SOL     OW 7303   1.102   4.105   4.492
 2135SOL    HW1 7304   1.098   4.016   4.537
 2135SOL    HW2 7305   1.179   4.106   4.427
 2136SOL     OW 7306   2.414   5.416   1.619
 2136SOL    HW1 7307   2.337   5.367   1.578
 2136SOL    HW2 7308   2.493   5.355   1.623
 2137SOL     OW 7309   3.355   5.991   5.208
 2137SOL    HW1 7310   3.358   5.905   5.156
 2137SOL    HW2 7311   3.433   5.996   5.270
 2138SOL     OW 7312   6.338   1.109   2.770
 2138SOL    HW1 7313   6.273   1.050   2.819
 2138SOL    HW2 7314   6.296   1.140   2.685
 2139SOL     OW 7315   3.338   1.043   5.322
 2139SOL    HW1 7316   3.257   1.029   5.379
 2139SOL    HW2 7317   3.357   1.141   5.314
 2140SOL     OW 7318   2.975   0.938   5.094
 2140SOL    HW1 7319   2.884   0.964   5.129
 2140SOL    HW2 7320   2.994   0.987   5.010
 2141SOL     OW 7321   6.121   4.284   2.276
 2141SOL    HW1 7322   6.158   4.312   2.364
 2141SOL    HW2 7323   6.196   4.280   2.209
 2142SOL     OW 7324   1.800   3.062   4.054
 2142SOL    HW1 7325   1.852   3.146   4.070
 2142SOL    HW2 7326   1.773   3.058   3.958
 2143SOL     OW 7327   2.616   5.549   0.997
 2143SOL    HW1 7328   2.669   5.465   0.988
 2143SOL    HW2 7329   2.665   5.614   1.054
 2144SOL     OW 7330   0.223   5.684   4.682
 2144SOL    HW1 7331   0.196   5.739   4.760
 2144SOL    HW2 7332   0.147   5.678   4.617
 2145SOL     OW 7333   3.894   6.691   4.248
 2145SOL    HW1 7334   3.911   6.667   4.344
 2145SOL    HW2 7335   3.836   6.621   4.206
 2146SOL     OW 7336   2.232   3.015   1.084
 2146SOL    HW1 7337   2.235   3.106   1.043
 2146SOL    HW2 7338   2.160   3.011   1.153
 2147SOL     OW 7339   6.478   1.696   5.465
 2147SOL    HW1 7340   6.398   1.639   5.481
 2147SOL    HW2 7341   6.455   1.769   5.402
 2148SOL     OW 7342   0.037   2.967   6.435
 2148SOL    HW1 7343   0.118   3.025   6.439
 2148SOL    HW2 7344   6.987   3.015   6.385
 2149SOL     OW 7345   0.819   0.767   0.664
 2149SOL    HW1 7346   0.858   0.741   0.575
 2149SOL    HW2 7347   0.883   0.826   0.713
 2150SOL     OW 7348   2.476   2.803   1.726
 2150SOL    HW1 7349   2.447   2.711   1.752
 2150SOL    HW2 7350   2.403   2.868   1.749
 2151SOL     OW 7351   1.039   6.576   0.121
 2151SOL    HW1 7352   1.092   6.523   0.187
 2151SOL    HW2 7353   0.961   6.619   0.167
 2152SOL     OW 7354   4.219   5.622   2.475
 2152SOL    HW1 7355   4.256   5.714   2.460
 2152SOL    HW2 7356   4.295   5.557   2.484
 2153SOL     OW 7357   4.344   0.575   2.738
 2153SOL    HW1 7358   4.334   0.665   2.779
 2153SOL    HW2 7359   4.320   0.579   2.641
 2154SOL     OW 7360   3.472   6.351   3.519
 2154SOL    HW1 7361   3.548   6.368   3.457
 2154SOL    HW2 7362   3.395   6.312   3.468
 2155SOL     OW 7363   4.092   6.691   1.165
 2155SOL    HW1 7364   4.005   6.734   1.140
 2155SOL    HW2 7365   4.119   6.721   1.256
 2156SOL     OW 7366   6.029   1.335   3.391
 2156SOL    HW1 7367   6.116   1.383   3.382
 2156SOL    HW2 7368   6.046   1.236   3.394
 2157SOL     OW 7369   4.403   4.946   3.692
 2157SOL    HW1 7370   4.316   4.958   3.741
 2157SOL    HW2 7371   4.433   5.035   3.657
 2158SOL     OW 7372   3.892   0.086   0.733
 2158SOL    HW1 7373   3.830   0.013   0.762
 2158SOL    HW2 7374   3.867   0.117   0.641
 2159SOL     OW 7375   1.146   0.597   5.861
 2159SOL    HW1 7376   1.224   0.584   5.799
 2159SOL    HW2 7377   1.172   0.566   5.953
 2160SOL     OW 7378   5.202   5.897   6.923
 2160SOL    HW1 7379   5.109   5.867   6.944
 2160SOL    HW2 7380   5.227   5.974   6.982
 2161SOL     OW 7381   1.029   3.989   2.171
 2161SOL    HW1 7382   1.024   3.960   2.075
 2161SOL    HW2 7383   1.107   4.050   2.183
 2162SOL     OW 7384   2.518   6.886   3.184
 2162SOL    HW1 7385   2.545   6.949   3.111
 2162SOL    HW2 7386   2.595   6.825   3.206
 2163SOL     OW 7387   1.498   3.462   0.239
 2163SOL    HW1 7388   1.447   3.504   0.163
 2163SOL    HW2 7389   1.510   3.530   0.311
 2164SOL     OW 7390   2.027   2.790   1.334
 2164SOL    HW1 7391   2.067   2.755   1.419
 2164SOL    HW2 7392   2.063   2.739   1.256
 2165SOL     OW 7393   0.289   1.918   3.478
 2165SOL    HW1 7394   0.217   1.916   3.408
 2165SOL    HW2 7395   0.303   1.826   3.513
 2166SOL     OW 7396   0.582   4.002   4.109
 2166SOL    HW1 7397   0.496   4.015   4.159
 2166SOL    HW2 7398   0.590   3.906   4.080
 2167SOL     OW 7399   1.633   3.020   4.276
 2167SOL    HW1 7400   1.660   3.062   4.363
 2167SOL    HW2 7401   1.700   3.045   4.206
 2168SOL     OW 7402   1.318   1.789   3.232
 2168SOL    HW1 7403   1.261   1.709   3.218
 2168SOL    HW2 7404   1.261   1.871   3.233
 2169SOL     OW 7405   0.244   0.719   1.514
 2169SOL    HW1 7406   0.340   0.695   1.500
 2169SOL    HW2 7407   0.187   0.639   1.498
 2170SOL     OW 7408   1.128   4.194   5.270
 2170SOL    HW1 7409   1.119   4.124   5.341
 2170SOL    HW2 7410   1.200   4.168   5.206
 2171SOL     OW 7411   0.299   5.338   1.405
 2171SOL    HW1 7412   0.361   5.416   1.403
 2171SOL    HW2 7413   0.349   5.255   1.380
 2172SOL     OW 7414   0.123   1.951   5.174
 2172SOL    HW1 7415   0.074   1.908   5.250
 2172SOL    HW2 7416   0.219   1.925   5.176
 2173SOL     OW 7417   5.690   0.343   5.374
 2173SOL    HW1 7418   5.729   0.360   5.464
 2173SOL    HW2 7419   5.705   0.423   5.315
 2174SOL     OW 7420   0.242   6.092   4.967
 2174SOL    HW1 7421   0.288   6.022   5.021
 2174SOL    HW2 7422   0.145   6.068   4.957
 2175SOL     OW 7423   2.441   2.856   5.526
 2175SOL    HW1 7424   2.414   2.952   5.514
 2175SOL    HW2 7425   2.483   2.823   5.442
 2176SOL     OW 7426   5.480   2.652   1.204
 2176SOL    HW1 7427   5.467   2.562   1.245
 2176SOL    HW2 7428   5.513   2.717   1.273
 2177SOL     OW 7429   0.020   0.755   3.144
 2177SOL    HW1 7430   0.041   0.702   3.227
 2177SOL    HW2 7431   6.988   0.835   3.169
 2178SOL     OW 7432   1.015   1.253   2.182
 2178SOL    HW1 7433   1.091   1.313   2.207
 2178SOL    HW2 7434   1.023   1.167   2.232
 2179SOL     OW 7435   2.069   4.439   6.609
 2179SOL    HW1 7436   2.164   4.413   6.621
 2179SOL    HW2 7437   2.064   4.525   6.557
 2180SOL     OW 7438   1.404   4.641   1.882
 2180SOL    HW1 7439   1.344   4.675   1.954
 2180SOL    HW2 7440   1.359   4.566   1.833
 2181SOL     OW 7441   5.105   4.632   4.787
 2181SOL    HW1 7442   5.198   4.658   4.811
 2181SOL    HW2 7443   5.084   4.543   4.828
 2182SOL     OW 7444   0.843   4.491   3.445
 2182SOL    HW1 7445   0.922   4.549   3.465
 2182SOL    HW2 7446   0.874   4.397   3.429
 2183SOL     OW 7447   3.642   3.654   6.912
 2183SOL    HW1 7448   3.703   3.672   6.990
 2183SOL    HW2 7449   3.589   3.737   6.892
 2184SOL     OW 7450   6.189   0.393   0.292
 2184SOL    HW1 7451   6.265   0.441   0.249
 2184SOL    HW2 7452   6.150   0.327   0.228
 2185SOL     OW 7453   0.680   1.411   6.709
 2185SOL    HW1 7454   0.728   1.330   6.673
 2185SOL    HW2 7455   0.708   1.492   6.657
 2186SOL     OW 7456   6.314   4.863   5.026
 2186SOL    HW1 7457   6.412   4.872   5.007
 2186SOL    HW2 7458   6.267   4.948   5.002
 2187SOL     OW 7459   0.632   5.385   2.964
 2187SOL    HW1 7460   0.672   5.434   2.886
 2187SOL    HW2 7461   0.539   5.357   2.942
 2188SOL     OW 7462   1.957   6.245   0.103
 2188SOL    HW1 7463   2.022   6.272   0.175
 2188SOL    HW2 7464   1.965   6.308   0.026
 2189SOL     OW 7465   2.272   1.257   2.024
 2189SOL    HW1 7466   2.342   1.321   1.990
 2189SOL    HW2 7467   2.209   1.235   1.950
 2190SOL     OW 7468   6.802   3.859   2.590
 2190SOL    HW1 7469   6.798   3.760   2.606
 2190SOL    HW2 7470   6.731   3.885   2.525
 2191SOL     OW 7471   2.001   1.351   5.431
 2191SOL    HW1 7472   1.947   1.431   5.404
 2191SOL    HW2 7473   2.013   1.290   5.352
 2192SOL     OW 7474   5.175   0.655   2.177
 2192SOL    HW1 7475   5.108   0.593   2.137
 2192SOL    HW2 7476   5.132   0.743   2.197
 2193SOL     OW 7477   6.028   6.774   6.548
 2193SOL    HW1 7478   5.998   6.708   6.616
 2193SOL    HW2 7479   6.121   6.804   6.569
 2194SOL     OW 7480   0.590   4.364   5.243
 2194SOL    HW1 7481   0.652   4.356   5.164
 2194SOL    HW2 7482   0.609   4.289   5.307
 2195SOL     OW 7483   0.460   5.298   6.459
 2195SOL    HW1 7484   0.419   5.222   6.509
 2195SOL    HW2 7485   0.391   5.340   6.400
 2196SOL     OW 7486   2.634   6.636   5.427
 2196SOL    HW1 7487   2.626   6.536   5.421
 2196SOL    HW2 7488   2.544   6.677   5.414
 2197SOL     OW 7489   2.822   2.992   6.027
 2197SOL    HW1 7490   2.839   2.968   6.123
 2197SOL    HW2 7491   2.881   3.068   6.001
 2198SOL     OW 7492   0.162   6.937   6.926
 2198SOL    HW1 7493   0.095   6.864   6.935
 2198SOL    HW2 7494   0.252   6.898   6.908
 2199SOL     OW 7495   4.906   6.700   4.265
 2199SOL    HW1 7496   4.953   6.763   4.203
 2199SOL    HW2 7497   4.839   6.752   4.319
 2200SOL     OW 7498   3.451   1.030   3.854
 2200SOL    HW1 7499   3.448   1.061   3.949
 2200SOL    HW2 7500   3.359   1.006   3.824
 2201SOL     OW 7501   6.546   2.568   3.353
 2201SOL    HW1 7502   6.501   2.511   3.284
 2201SOL    HW2 7503   6.534   2.526   3.443
 2202SOL     OW 7504   3.444   5.475   2.929
 2202SOL    HW1 7505   3.387   5.393   2.919
 2202SOL    HW2 7506   3.386   5.556   2.922
 2203SOL     OW 7507   2.551   4.135   1.106
 2203SOL    HW1 7508   2.626   4.077   1.074
 2203SOL    HW2 7509   2.533   4.117   1.203
 2204SOL     OW 7510   4.185   2.893   1.130
 2204SOL    HW1 7511   4.239   2.973   1.105
 2204SOL    HW2 7512   4.237   2.838   1.196
 2205SOL     OW 7513   1.666   6.760   0.796
 2205SOL    HW1 7514   1.619   6.673   0.811
 2205SOL    HW2 7515   1.742   6.746   0.732
 2206SOL     OW 7516   2.729   3.922   6.342
 2206SOL    HW1 7517   2.705   4.019   6.334
 2206SOL    HW2 7518   2.794   3.909   6.417
 2207SOL     OW 7519   3.908   5.582   0.499
 2207SOL    HW1 7520   3.983   5.562   0.436
 2207SOL    HW2 7521   3.939   5.570   0.593
 2208SOL     OW 7522   0.896   5.930   3.544
 2208SOL    HW1 7523   0.857   5.840   3.529
 2208SOL    HW2 7524   0.984   5.921   3.591
 2209SOL     OW 7525   2.833   5.527   4.739
 2209SOL    HW1 7526   2.845   5.609   4.795
 2209SOL    HW2 7527   2.764   5.545   4.668
 2210SOL     OW 7528   6.126   6.041   1.876
 2210SOL    HW1 7529   6.215   6.016   1.916
 2210SOL    HW2 7530   6.065   5.962   1.877
 2211SOL     OW 7531   6.326   0.452   0.753
 2211SOL    HW1 7532   6.326   0.532   0.813
 2211SOL    HW2 7533   6.276   0.473   0.669
 2212SOL     OW 7534   1.928   6.063   6.739
 2212SOL    HW1 7535   1.991   6.135   6.768
 2212SOL    HW2 7536   1.843   6.105   6.705
 2213SOL     OW 7537   4.465   2.573   4.505
 2213SOL    HW1 7538   4.381   2.549   4.553
 2213SOL    HW2 7539   4.544   2.534   4.553
 2214SOL     OW 7540   4.025   2.993   5.578
 2214SOL    HW1 7541   4.016   2.982   5.479
 2214SOL    HW2 7542   3.973   3.074   5.607
 2215SOL     OW 7543   5.347   1.540   6.434
 2215SOL    HW1 7544   5.303   1.609   6.492
 2215SOL    HW2 7545   5.381   1.466   6.492
 2216SOL     OW 7546   0.292   6.174   5.832
 2216SOL    HW1 7547   0.246   6.125   5.758
 2216SOL    HW2 7548   0.344   6.251   5.795
 2217SOL     OW 7549   4.674   0.515   3.699
 2217SOL    HW1 7550   4.674   0.510   3.600
 2217SOL    HW2 7551   4.585   0.484   3.735
 2218SOL     OW 7552   0.241   5.642   6.817
 2218SOL    HW1 7553   0.318   5.682   6.767
 2218SOL    HW2 7554   0.275   5.572   6.880
 2219SOL     OW 7555   6.123   1.592   1.172
 2219SOL    HW1 7556   6.169   1.523   1.116
 2219SOL    HW2 7557   6.184   1.669   1.188
 2220SOL     OW 7558   1.996   6.122   5.448
 2220SOL    HW1 7559   1.976   6.094   5.542
 2220SOL    HW2 7560   2.000   6.042   5.389
 2221SOL     OW 7561   6.383   1.696   4.700
 2221SOL    HW1 7562   6.292   1.706   4.661
 2221SOL    HW2 7563   6.389   1.610   4.750
 2222SOL     OW 7564   6.511   0.044   1.044
 2222SOL    HW1 7565   6.549   0.124   1.092
 2222SOL    HW2 7566   6.584   7.001   1.024
 2223SOL     OW 7567   6.681   0.780   5.830
 2223SOL    HW1 7568   6.741   0.861   5.830
 2223SOL    HW2 7569   6.600   0.799   5.774
 2224SOL     OW 7570   5.945   3.642   2.083
 2224SOL    HW1 7571   5.966   3.731   2.042
 2224SOL    HW2 7572   5.997   3.571   2.035
 2225SOL     OW 7573   6.946   6.626   3.656
 2225SOL    HW1 7574   6.889   6.676   3.590
 2225SOL    HW2 7575   6.912   6.641   3.748
 2226SOL     OW 7576   3.405   5.463   0.659
 2226SOL    HW1 7577   3.450   5.529   0.599
 2226SOL    HW2 7578   3.309   5.455   0.633
 2227SOL     OW 7579   4.357   2.749   1.304
 2227SOL    HW1 7580   4.281   2.733   1.367
 2227SOL    HW2 7581   4.443   2.741   1.354
 2228SOL     OW 7582   4.607   5.241   0.309
 2228SOL    HW1 7583   4.627   5.271   0.215
 2228SOL    HW2 7584   4.508   5.231   0.320
 2229SOL     OW 7585   3.481   3.458   4.653
 2229SOL    HW1 7586   3.486   3.557   4.670
 2229SOL    HW2 7587   3.494   3.441   4.555
 2230SOL     OW 7588   5.243   6.283   1.270
 2230SOL    HW1 7589   5.311   6.218   1.304
 2230SOL    HW2 7590   5.183   6.310   1.346
 2231SOL     OW 7591   0.798   1.304   6.196
 2231SOL    HW1 7592   0.805   1.212   6.232
 2231SOL    HW2 7593   0.861   1.365   6.244
 2232SOL     OW 7594   0.516   0.539   4.853
 2232SOL    HW1 7595   0.550   0.464   4.909
 2232SOL    HW2 7596   0.585   0.565   4.786
 2233SOL     OW 7597   3.438   3.399   0.699
 2233SOL    HW1 7598   3.349   3.414   0.741
 2233SOL    HW2 7599   3.490   3.333   0.753
 2234SOL     OW 7600   3.769   1.646   0.823
 2234SOL    HW1 7601   3.694   1.609   0.877
 2234SOL    HW2 7602   3.853   1.594   0.841
 2235SOL     OW 7603   2.715   0.735   2.526
 2235SOL    HW1 7604   2.631   0.791   2.526
 2235SOL    HW2 7605   2.711   0.669   2.452
 2236SOL     OW 7606   2.146   4.030   5.980
 2236SOL    HW1 7607   2.240   4.011   5.954
 2236SOL    HW2 7608   2.099   4.077   5.906
 2237SOL     OW 7609   5.978   5.265   4.473
 2237SOL    HW1 7610   5.997   5.216   4.558
 2237SOL    HW2 7611   6.064   5.289   4.428
 2238SOL     OW 7612   4.816   4.969   2.710
 2238SOL    HW1 7613   4.730   4.922   2.726
 2238SOL    HW2 7614   4.808   5.065   2.735
 2239SOL     OW 7615   3.806   5.274   4.255
 2239SOL    HW1 7616   3.813   5.265   4.354
 2239SOL    HW2 7617   3.895   5.256   4.213
 2240SOL     OW 7618   3.802   5.652   2.518
 2240SOL    HW1 7619   3.766   5.668   2.609
 2240SOL    HW2 7620   3.841   5.736   2.482
 2241SOL     OW 7621   6.732   6.987   1.882
 2241SOL    HW1 7622   6.740   0.065   1.874
 2241SOL    HW2 7623   6.820   6.944   1.861
 2242SOL     OW 7624   5.633   3.044   2.217
 2242SOL    HW1 7625   5.656   2.974   2.149
 2242SOL    HW2 7626   5.534   3.053   2.224
 2243SOL     OW 7627   2.604   6.523   6.998
 2243SOL    HW1 7628   2.664   6.568   0.042
 2243SOL    HW2 7629   2.529   6.479   0.024
 2244SOL     OW 7630   2.995   0.166   1.496
 2244SOL    HW1 7631   2.984   0.072   1.463
 2244SOL    HW2 7632   2.935   0.181   1.574
 2245SOL     OW 7633   0.197   1.385   0.714
 2245SOL    HW1 7634   0.218   1.479   0.741
 2245SOL    HW2 7635   0.139   1.342   0.783
 2246SOL     OW 7636   1.969   0.435   3.775
 2246SOL    HW1 7637   2.000   0.517   3.823
 2246SOL    HW2 7638   1.870   0.442   3.758
 2247SOL     OW 7639   3.157   3.676   2.449
 2247SOL    HW1 7640   3.089   3.632   2.391
 2247SOL    HW2 7641   3.216   3.734   2.392
 2248SOL     OW 7642   6.712   4.169   4.059
 2248SOL    HW1 7643   6.627   4.218   4.038
 2248SOL    HW2 7644   6.690   4.086   4.111
 2249SOL     OW 7645   3.555   6.622   3.829
 2249SOL    HW1 7646   3.624   6.684   3.865
 2249SOL    HW2 7647   3.505   6.667   3.754
 2250SOL     OW 7648   3.206   3.859   5.640
 2250SOL    HW1 7649   3.239   3.806   5.718
 2250SOL    HW2 7650   3.284   3.894   5.588
 2251SOL     OW 7651   5.217   0.070   5.912
 2251SOL    HW1 7652   5.188   0.041   6.004
 2251SOL    HW2 7653   5.183   0.162   5.895
 2252SOL     OW 7654   5.230   1.458   3.095
 2252SOL    HW1 7655   5.183   1.377   3.131
 2252SOL    HW2 7656   5.224   1.458   2.995
 2253SOL     OW 7657   0.533   3.120   0.285
 2253SOL    HW1 7658   0.569   3.179   0.213
 2253SOL    HW2 7659   0.438   3.144   0.304
 2254SOL     OW 7660   3.840   3.428   3.326
 2254SOL    HW1 7661   3.940   3.433   3.330
 2254SOL    HW2 7662   3.810   3.339   3.362
 2255SOL     OW 7663   2.823   3.605   5.621
 2255SOL    HW1 7664   2.780   3.538   5.562
 2255SOL    HW2 7665   2.880   3.666   5.566
 2256SOL     OW 7666   4.250   6.375   2.079
 2256SOL    HW1 7667   4.170   6.318   2.061
 2256SOL    HW2 7668   4.264   6.438   2.002
 2257SOL     OW 7669   0.574   1.407   4.328
 2257SOL    HW1 7670   0.613   1.479   4.270
 2257SOL    HW2 7671   0.475   1.415   4.329
 2258SOL     OW 7672   2.185   6.131   4.062
 2258SOL    HW1 7673   2.200   6.071   4.140
 2258SOL    HW2 7674   2.211   6.225   4.087
 2259SOL     OW 7675   5.570   2.657   4.584
 2259SOL    HW1 7676   5.659   2.625   4.615
 2259SOL    HW2 7677   5.563   2.756   4.598
 2260SOL     OW 7678   1.028   3.557   1.129
 2260SOL    HW1 7679   1.112   3.503   1.126
 2260SOL    HW2 7680   1.011   3.587   1.223
 2261SOL     OW 7681   6.380   4.092   0.869
 2261SOL    HW1 7682   6.479   4.078   0.857
 2261SOL    HW2 7683   6.352   4.056   0.958
 2262SOL     OW 7684   6.313   0.748   2.942
 2262SOL    HW1 7685   6.262   0.673   2.983
 2262SOL    HW2 7686   6.255   0.828   2.935
 2263SOL     OW 7687   1.852   5.725   0.789
 2263SOL    HW1 7688   1.828   5.818   0.817
 2263SOL    HW2 7689   1.948   5.723   0.760
 2264SOL     OW 7690   2.468   6.725   6.799
 2264SOL    HW1 7691   2.566   6.725   6.777
 2264SOL    HW2 7692   2.421   6.794   6.743
 2265SOL     OW 7693   1.876   0.683   4.251
 2265SOL    HW1 7694   1.827   0.686   4.338
 2265SOL    HW2 7695   1.949   0.752   4.251
 2266SOL     OW 7696   4.641   1.514   6.242
 2266SOL    HW1 7697   4.545   1.519   6.271
 2266SOL    HW2 7698   4.648   1.458   6.160
 2267SOL     OW 7699   4.688   2.858   4.868
 2267SOL    HW1 7700   4.706   2.798   4.790
 2267SOL    HW2 7701   4.692   2.953   4.838
 2268SOL     OW 7702   6.049   3.463   6.281
 2268SOL    HW1 7703   6.027   3.555   6.311
 2268SOL    HW2 7704   5.980   3.399   6.315
 2269SOL     OW 7705   0.919   3.481   4.921
 2269SOL    HW1 7706   0.862   3.427   4.982
 2269SOL    HW2 7707   0.872   3.567   4.899
 2270SOL     OW 7708   4.138   3.227   6.173
 2270SOL    HW1 7709   4.080   3.307   6.187
 2270SOL    HW2 7710   4.229   3.245   6.211
 2271SOL     OW 7711   5.663   4.497   6.908
 2271SOL    HW1 7712   5.617   4.525   6.824
 2271SOL    HW2 7713   5.734   4.430   6.887
 2272SOL     OW 7714   6.700   1.571   6.340
 2272SOL    HW1 7715   6.661   1.637   6.275
 2272SOL    HW2 7716   6.658   1.584   6.430
 2273SOL     OW 7717   1.642   2.424   2.590
 2273SOL    HW1 7718   1.623   2.487   2.665
 2273SOL    HW2 7719   1.560   2.370   2.570
 2274SOL     OW 7720   0.768   1.660   6.655
 2274SOL    HW1 7721   0.826   1.677   6.735
 2274SOL    HW2 7722   0.686   1.717   6.661
 2275SOL     OW 7723   5.848   5.807   2.674
 2275SOL    HW1 7724   5.884   5.841   2.760
 2275SOL    HW2 7725   5.904   5.731   2.641
 2276SOL     OW 7726   1.640   6.047   1.552
 2276SOL    HW1 7727   1.729   6.031   1.596
 2276SOL    HW2 7728   1.578   6.091   1.617
 2277SOL     OW 7729   3.337   3.745   4.547
 2277SOL    HW1 7730   3.431   3.757   4.580
 2277SOL    HW2 7731   3.289   3.680   4.605
 2278SOL     OW 7732   6.324   2.778   3.913
 2278SOL    HW1 7733   6.370   2.751   3.998
 2278SOL    HW2 7734   6.339   2.876   3.897
 2279SOL     OW 7735   6.507   6.367   5.909
 2279SOL    HW1 7736   6.550   6.284   5.945
 2279SOL    HW2 7737   6.573   6.417   5.854
 2280SOL     OW 7738   6.408   0.788   4.799
 2280SOL    HW1 7739   6.479   0.853   4.773
 2280SOL    HW2 7740   6.401   0.717   4.729
 2281SOL     OW 7741   3.628   0.768   2.227
 2281SOL    HW1 7742   3.654   0.824   2.148
 2281SOL    HW2 7743   3.687   0.791   2.305
 2282SOL     OW 7744   4.896   6.310   5.699
 2282SOL    HW1 7745   4.833   6.289   5.625
 2282SOL    HW2 7746   4.979   6.351   5.661
 2283SOL     OW 7747   1.689   0.595   1.989
 2283SOL    HW1 7748   1.702   0.501   2.020
 2283SOL    HW2 7749   1.614   0.637   2.041
 2284SOL     OW 7750   0.948   3.673   5.809
 2284SOL    HW1 7751   0.976   3.729   5.731
 2284SOL    HW2 7752   0.970   3.577   5.791
 2285SOL     OW 7753   1.301   3.282   0.213
 2285SOL    HW1 7754   1.381   3.328   0.252
 2285SOL    HW2 7755   1.254   3.345   0.152
 2286SOL     OW 7756   5.446   6.803   3.567
 2286SOL    HW1 7757   5.423   6.706   3.574
 2286SOL    HW2 7758   5.381   6.857   3.620
 2287SOL     OW 7759   2.797   0.782   3.486
 2287SOL    HW1 7760   2.806   0.876   3.453
 2287SOL    HW2 7761   2.708   0.771   3.531
 2288SOL     OW 7762   0.519   5.548   4.077
 2288SOL    HW1 7763   0.464   5.528   4.158
 2288SOL    HW2 7764   0.603   5.594   4.104
 2289SOL     OW 7765   6.621   4.739   1.009
 2289SOL    HW1 7766   6.622   4.815   0.943
 2289SOL    HW2 7767   6.668   4.767   1.092
 2290SOL     OW 7768   0.833   4.297   1.213
 2290SOL    HW1 7769   0.865   4.343   1.296
 2290SOL    HW2 7770   0.824   4.199   1.231
 2291SOL     OW 7771   2.728   2.176   5.790
 2291SOL    HW1 7772   2.742   2.243   5.863
 2291SOL    HW2 7773   2.684   2.221   5.712
 2292SOL     OW 7774   1.581   1.136   4.742
 2292SOL    HW1 7775   1.521   1.212   4.720
 2292SOL    HW2 7776   1.642   1.163   4.817
 2293SOL     OW 7777   5.493   5.713   1.940
 2293SOL    HW1 7778   5.443   5.679   2.020
 2293SOL    HW2 7779   5.480   5.812   1.932
 2294SOL     OW 7780   3.488   6.844   0.602
 2294SOL    HW1 7781   3.572   6.792   0.591
 2294SOL    HW2 7782   3.454   6.872   0.512
 2295SOL     OW 7783   0.431   1.802   2.582
 2295SOL    HW1 7784   0.358   1.826   2.646
 2295SOL    HW2 7785   0.508   1.762   2.633
 2296SOL     OW 7786   3.095   6.744   1.002
 2296SOL    HW1 7787   3.087   6.843   0.985
 2296SOL    HW2 7788   3.188   6.714   0.978
 2297SOL     OW 7789   3.777   4.219   5.463
 2297SOL    HW1 7790   3.818   4.258   5.545
 2297SOL    HW2 7791   3.831   4.140   5.433
 2298SOL     OW 7792   3.370   2.472   1.322
 2298SOL    HW1 7793   3.387   2.540   1.251
 2298SOL    HW2 7794   3.457   2.438   1.357
 2299SOL     OW 7795   5.421   0.317   6.745
 2299SOL    HW1 7796   5.333   0.357   6.720
 2299SOL    HW2 7797   5.494   0.385   6.734
 2300SOL     OW 7798   1.750   5.172   1.847
 2300SOL    HW1 7799   1.727   5.253   1.902
 2300SOL    HW2 7800   1.840   5.139   1.873
 2301SOL     OW 7801   2.973   3.808   2.991
 2301SOL    HW1 7802   2.936   3.718   2.964
 2301SOL    HW2 7803   2.975   3.868   2.911
 2302SOL     OW 7804   3.850   6.850   2.397
 2302SOL    HW1 7805   3.758   6.812   2.405
 2302SOL    HW2 7806   3.871   6.869   2.301
 2303SOL     OW 7807   1.717   3.704   5.585
 2303SOL    HW1 7808   1.661   3.666   5.512
 2303SOL    HW2 7809   1.803   3.653   5.590
 2304SOL     OW 7810   2.539   0.276   3.659
 2304SOL    HW1 7811   2.500   0.368   3.654
 2304SOL    HW2 7812   2.636   0.282   3.680
 2305SOL     OW 7813   3.729   5.919   3.365
 2305SOL    HW1 7814   3.648   5.864   3.383
 2305SOL    HW2 7815   3.806   5.883   3.419
 2306SOL     OW 7816   2.454   5.714   1.527
 2306SOL    HW1 7817   2.453   5.614   1.525
 2306SOL    HW2 7818   2.462   5.745   1.622
 2307SOL     OW 7819   2.163   4.032   2.645
 2307SOL    HW1 7820   2.126   4.110   2.694
 2307SOL    HW2 7821   2.096   3.998   2.579
 2308SOL     OW 7822   1.377   0.257   6.743
 2308SOL    HW1 7823   1.403   0.256   6.647
 2308SOL    HW2 7824   1.363   0.352   6.773
 2309SOL     OW 7825   2.757   6.549   0.226
 2309SOL    HW1 7826   2.853   6.531   0.204
 2309SOL    HW2 7827   2.745   6.647   0.242
 2310SOL     OW 7828   6.298   6.870   1.055
 2310SOL    HW1 7829   6.344   6.804   0.996
 2310SOL    HW2 7830   6.356   6.951   1.067
 2311SOL     OW 7831   2.479   6.969   2.465
 2311SOL    HW1 7832   2.526   6.948   2.551
 2311SOL    HW2 7833   2.416   0.024   2.479
 2312SOL     OW 7834   3.071   6.825   3.326
 2312SOL    HW1 7835   3.027   6.746   3.368
 2312SOL    HW2 7836   3.009   6.865   3.258
 2313SOL     OW 7837   4.471   4.998   1.900
 2313SOL    HW1 7838   4.482   4.924   1.967
 2313SOL    HW2 7839   4.468   4.958   1.808
 2314SOL     OW 7840   5.805   0.831   2.996
 2314SOL    HW1 7841   5.735   0.788   3.053
 2314SOL    HW2 7842   5.807   0.929   3.016
 2315SOL     OW 7843   5.075   3.270   5.369
 2315SOL    HW1 7844   5.075   3.299   5.465
 2315SOL    HW2 7845   4.993   3.304   5.324
 2316SOL     OW 7846   2.477   1.590   5.186
 2316SOL    HW1 7847   2.463   1.502   5.141
 2316SOL    HW2 7848   2.519   1.575   5.276
 2317SOL     OW 7849   6.401   6.438   3.735
 2317SOL    HW1 7850   6.410   6.528   3.694
 2317SOL    HW2 7851   6.368   6.448   3.829
 2318SOL     OW 7852   2.085   3.527   4.308
 2318SOL    HW1 7853   2.125   3.443   4.272
 2318SOL    HW2 7854   2.050   3.510   4.400
 2319SOL     OW 7855   3.430   5.502   5.106
 2319SOL    HW1 7856   3.337   5.478   5.134
 2319SOL    HW2 7857   3.485   5.420   5.098
 2320SOL     OW 7858   0.896   2.153   5.253
 2320SOL    HW1 7859   0.922   2.084   5.185
 2320SOL    HW2 7860   0.804   2.132   5.288
 2321SOL     OW 7861   2.363   5.912   6.337
 2321SOL    HW1 7862   2.407   5.827   6.308
 2321SOL    HW2 7863   2.433   5.983   6.350
 2322SOL     OW 7864   1.887   4.194   2.034
 2322SOL    HW1 7865   1.889   4.291   2.010
 2322SOL    HW2 7866   1.819   4.148   1.978
 2323SOL     OW 7867   3.364   4.720   1.708
 2323SOL    HW1 7868   3.455   4.704   1.746
 2323SOL    HW2 7869   3.319   4.633   1.691
 2324SOL     OW 7870   6.493   5.846   1.045
 2324SOL    HW1 7871   6.581   5.803   1.065
 2324SOL    HW2 7872   6.503   5.946   1.049
 2325SOL     OW 7873   0.196   4.624   1.208
 2325SOL    HW1 7874   0.130   4.671   1.149
 2325SOL    HW2 7875   0.151   4.598   1.294
 2326SOL     OW 7876   1.351   6.247   6.256
 2326SOL    HW1 7877   1.426   6.304   6.287
 2326SOL    HW2 7878   1.365   6.153   6.288
 2327SOL     OW 7879   0.360   1.111   3.527
 2327SOL    HW1 7880   0.358   1.060   3.441
 2327SOL    HW2 7881   0.383   1.049   3.602
 2328SOL     OW 7882   1.646   2.059   3.011
 2328SOL    HW1 7883   1.718   2.016   3.065
 2328SOL    HW2 7884   1.595   1.988   2.961
 2329SOL     OW 7885   0.943   4.676   4.879
 2329SOL    HW1 7886   0.856   4.630   4.896
 2329SOL    HW2 7887   0.939   4.723   4.791
 2330SOL     OW 7888   0.417   2.666   0.445
 2330SOL    HW1 7889   0.472   2.660   0.529
 2330SOL    HW2 7890   0.336   2.722   0.463
 2331SOL     OW 7891   3.404   5.506   0.233
 2331SOL    HW1 7892   3.305   5.504   0.217
 2331SOL    HW2 7893   3.437   5.413   0.248
 2332SOL     OW 7894   6.968   0.103   5.817
 2332SOL    HW1 7895   0.017   0.092   5.887
 2332SOL    HW2 7896   7.011   0.101   5.726
 2333SOL     OW 7897   0.183   4.848   2.868
 2333SOL    HW1 7898   0.106   4.784   2.878
 2333SOL    HW2 7899   0.268   4.796   2.860
 2334SOL     OW 7900   1.606   1.041   6.916
 2334SOL    HW1 7901   1.583   1.133   6.885
 2334SOL    HW2 7902   1.689   1.010   6.868
 2335SOL     OW 7903   5.538   7.013   3.902
 2335SOL    HW1 7904   5.490   6.977   3.982
 2335SOL    HW2 7905   5.530   0.090   3.899
 2336SOL     OW 7906   3.192   1.267   4.161
 2336SOL    HW1 7907   3.128   1.246   4.235
 2336SOL    HW2 7908   3.279   1.298   4.200
 2337SOL     OW 7909   3.809   0.494   1.823
 2337SOL    HW1 7910   3.885   0.450   1.870
 2337SOL    HW2 7911   3.727   0.490   1.880
 2338SOL     OW 7912   0.633   3.342   4.176
 2338SOL    HW1 7913   0.706   3.405   4.148
 2338SOL    HW2 7914   0.655   3.305   4.266
 2339SOL     OW 7915   3.657   4.104   3.382
 2339SOL    HW1 7916   3.699   4.017   3.359
 2339SOL    HW2 7917   3.615   4.144   3.300
 2340SOL     OW 7918   0.492   4.336   6.957
 2340SOL    HW1 7919   0.473   4.330   6.859
 2340SOL    HW2 7920   0.538   4.252   6.987
 2341SOL     OW 7921   2.978   4.835   2.139
 2341SOL    HW1 7922   2.890   4.795   2.165
 2341SOL    HW2 7923   3.008   4.795   2.052
 2342SOL     OW 7924   1.787   0.192   4.818
 2342SOL    HW1 7925   1.790   0.092   4.824
 2342SOL    HW2 7926   1.876   0.226   4.786
 2343SOL     OW 7927   1.719   5.345   2.646
 2343SOL    HW1 7928   1.666   5.268   2.683
 2343SOL    HW2 7929   1.657   5.419   2.621
 2344SOL     OW 7930   0.457   6.059   6.775
 2344SOL    HW1 7931   0.543   6.075   6.824
 2344SOL    HW2 7932   0.470   5.984   6.710
 2345SOL     OW 7933   2.535   5.714   4.775
 2345SOL    HW1 7934   2.442   5.693   4.744
 2345SOL    HW2 7935   2.579   5.775   4.709
 2346SOL     OW 7936   3.743   3.370   5.636
 2346SOL    HW1 7937   3.769   3.372   5.540
 2346SOL    HW2 7938   3.659   3.317   5.647
 2347SOL     OW 7939   2.446   2.389   1.463
 2347SOL    HW1 7940   2.389   2.345   1.532
 2347SOL    HW2 7941   2.528   2.427   1.507
 2348SOL     OW 7942   1.621   6.433   3.702
 2348SOL    HW1 7943   1.702   6.375   3.702
 2348SOL    HW2 7944   1.621   6.491   3.621
 2349SOL     OW 7945   0.830   4.781   5.939
 2349SOL    HW1 7946   0.861   4.854   5.878
 2349SOL    HW2 7947   0.895   4.705   5.935
 2350SOL     OW 7948   6.344   5.416   6.363
 2350SOL    HW1 7949   6.288   5.442   6.285
 2350SOL    HW2 7950   6.338   5.317   6.376
 2351SOL     OW 7951   3.219   4.982   4.308
 2351SOL    HW1 7952   3.178   5.049   4.370
 2351SOL    HW2 7953   3.146   4.929   4.265
 2352SOL     OW 7954   0.304   3.545   2.670
 2352SOL    HW1 7955   0.253   3.517   2.588
 2352SOL    HW2 7956   0.353   3.630   2.651
 2353SOL     OW 7957   3.506   5.058   4.419
 2353SOL    HW1 7958   3.417   5.013   4.422
 2353SOL    HW2 7959   3.554   5.045   4.506
 2354SOL     OW 7960   2.158   2.055   4.553
 2354SOL    HW1 7961   2.218   2.082   4.479
 2354SOL    HW2 7962   2.063   2.063   4.524
 2355SOL     OW 7963   1.977   6.869   5.753
 2355SOL    HW1 7964   1.992   6.861   5.851
 2355SOL    HW2 7965   1.880   6.885   5.734
 2356SOL     OW 7966   1.262   2.993   6.063
 2356SOL    HW1 7967   1.296   2.959   6.151
 2356SOL    HW2 7968   1.246   2.916   6.001
 2357SOL     OW 7969   4.547   0.408   2.474
 2357SOL    HW1 7970   4.625   0.371   2.524
 2357SOL    HW2 7971   4.576   0.431   2.381
 2358SOL     OW 7972   3.190   5.446   5.258
 2358SOL    HW1 7973   3.244   5.426   5.340
 2358SOL    HW2 7974   3.104   5.488   5.285
 2359SOL     OW 7975   6.689   0.947   5.517
 2359SOL    HW1 7976   6.599   0.951   5.473
 2359SOL    HW2 7977   6.686   1.000   5.602
 2360SOL     OW 7978   5.536   3.410   6.864
 2360SOL    HW1 7979   5.530   3.394   6.765
 2360SOL    HW2 7980   5.583   3.334   6.907
 2361SOL     OW 7981   2.174   0.712   6.581
 2361SOL    HW1 7982   2.076   0.708   6.599
 2361SOL    HW2 7983   2.190   0.743   6.488
 2362SOL     OW 7984   2.499   5.563   3.932
 2362SOL    HW1 7985   2.494   5.474   3.977
 2362SOL    HW2 7986   2.511   5.550   3.834
 2363SOL     OW 7987   4.326   2.294   4.617
 2363SOL    HW1 7988   4.416   2.279   4.576
 2363SOL    HW2 7989   4.328   2.267   4.713
 2364SOL     OW 7990   0.853   2.639   2.360
 2364SOL    HW1 7991   0.935   2.696   2.354
 2364SOL    HW2 7992   0.775   2.696   2.385
 2365SOL     OW 7993   6.516   2.484   7.012
 2365SOL    HW1 7994   6.470   2.500   0.078
 2365SOL    HW2 7995   6.547   2.571   6.974
 2366SOL     OW 7996   2.059   5.592   6.613
 2366SOL    HW1 7997   2.018   5.683   6.614
 2366SOL    HW2 7998   2.005   5.531   6.555
 2367SOL     OW 7999   2.565   3.778   1.043
 2367SOL    HW1 8000   2.569   3.747   1.138
 2367SOL    HW2 8001   2.517   3.710   0.988
 2368SOL     OW 8002   4.648   6.353   4.445
 2368SOL    HW1 8003   4.713   6.369   4.520
 2368SOL    HW2 8004   4.698   6.323   4.364
 2369SOL     OW 8005   2.008   0.943   4.611
 2369SOL    HW1 8006   1.963   0.855   4.624
 2369SOL    HW2 8007   2.095   0.944   4.661
 2370SOL     OW 8008   5.171   3.096   0.133
 2370SOL    HW1 8009   5.074   3.078   0.147
 2370SOL    HW2 8010   5.226   3.022   0.172
 2371SOL     OW 8011   1.212   7.017   1.575
 2371SOL    HW1 8012   1.113   7.017   1.578
 2371SOL    HW2 8013   1.247   0.074   1.625
 2372SOL     OW 8014   0.073   2.665   2.024
 2372SOL    HW1 8015   0.012   2.732   2.066
 2372SOL    HW2 8016   0.021   2.608   1.961
 2373SOL     OW 8017   0.905   2.881   5.887
 2373SOL    HW1 8018   0.891   2.782   5.893
 2373SOL    HW2 8019   0.824   2.928   5.923
 2374SOL     OW 8020   6.070   1.714   3.933
 2374SOL    HW1 8021   6.011   1.675   4.003
 2374SOL    HW2 8022   6.019   1.724   3.847
 2375SOL     OW 8023   3.387   6.307   4.709
 2375SOL    HW1 8024   3.428   6.254   4.783
 2375SOL    HW2 8025   3.459   6.348   4.654
 2376SOL     OW 8026   6.272   2.906   4.496
 2376SOL    HW1 8027   6.236   2.973   4.561
 2376SOL    HW2 8028   6.243   2.814   4.523
 2377SOL     OW 8029   3.580   3.766   3.885
 2377SOL    HW1 8030   3.609   3.837   3.821
 2377SOL    HW2 8031   3.494   3.792   3.928
 2378SOL     OW 8032   4.747   1.532   0.786
 2378SOL    HW1 8033   4.823   1.566   0.731
 2378SOL    HW2 8034   4.758   1.433   0.800
 2379SOL     OW 8035   0.023   1.381   0.470
 2379SOL    HW1 8036   0.074   1.463   0.442
 2379SOL    HW2 8037   0.065   1.342   0.552
 2380SOL     OW 8038   0.421   2.010   6.512
 2380SOL    HW1 8039   0.399   2.075   6.585
 2380SOL    HW2 8040   0.343   2.003   6.450
 2381SOL     OW 8041   1.790   5.046   4.616
 2381SOL    HW1 8042   1.800   5.129   4.671
 2381SOL    HW2 8043   1.878   5.024   4.573
 2382SOL     OW 8044   2.167   3.915   4.563
 2382SOL    HW1 8045   2.187   4.009   4.536
 2382SOL    HW2 8046   2.196   3.901   4.658
 2383SOL     OW 8047   5.063   6.468   0.247
 2383SOL    HW1 8048   5.142   6.441   0.192
 2383SOL    HW2 8049   5.087   6.549   0.301
 2384SOL     OW 8050   5.651   0.940   2.781
 2384SOL    HW1 8051   5.608   0.990   2.856
 2384SOL    HW2 8052   5.720   0.878   2.818
 2385SOL     OW 8053   1.307   0.058   0.629
 2385SOL    HW1 8054   1.383   7.016   0.619
 2385SOL    HW2 8055   1.327   0.142   0.579
 2386SOL     OW 8056   6.026   5.862   4.297
 2386SOL    HW1 8057   6.045   5.880   4.394
 2386SOL    HW2 8058   6.100   5.808   4.258
 2387SOL     OW 8059   1.334   2.113   3.982
 2387SOL    HW1 8060   1.406   2.148   3.922
 2387SOL    HW2 8061   1.278   2.047   3.932
 2388SOL     OW 8062   0.539   1.940   3.930
 2388SOL    HW1 8063   0.482   1.969   3.853
 2388SOL    HW2 8064   0.595   2.017   3.960
 2389SOL     OW 8065   4.697   4.323   2.812
 2389SOL    HW1 8066   4.649   4.365   2.736
 2389SOL    HW2 8067   4.720   4.229   2.789
 2390SOL     OW 8068   3.511   2.880   3.408
 2390SOL    HW1 8069   3.525   2.846   3.315
 2390SOL    HW2 8070   3.413   2.888   3.426
 2391SOL     OW 8071   5.437   4.115   5.537
 2391SOL    HW1 8072   5.495   4.186   5.578
 2391SOL    HW2 8073   5.342   4.146   5.538
 2392SOL     OW 8074   3.704   6.295   5.013
 2392SOL    HW1 8075   3.655   6.324   5.095
 2392SOL    HW2 8076   3.793   6.258   5.039
 2393SOL     OW 8077   5.144   3.970   6.058
 2393SOL    HW1 8078   5.123   3.975   6.156
 2393SOL    HW2 8079   5.237   4.002   6.042
 2394SOL     OW 8080   1.129   4.139   4.783
 2394SOL    HW1 8081   1.161   4.188   4.702
 2394SOL    HW2 8082   1.116   4.204   4.859
 2395SOL     OW 8083   5.208   1.320   5.975
 2395SOL    HW1 8084   5.200   1.389   5.902
 2395SOL    HW2 8085   5.230   1.366   6.061
 2396SOL     OW 8086   3.963   5.099   1.175
 2396SOL    HW1 8087   3.975   5.185   1.125
 2396SOL    HW2 8088   3.870   5.065   1.161
 2397SOL     OW 8089   0.369   3.510   5.770
 2397SOL    HW1 8090   0.467   3.501   5.753
 2397SOL    HW2 8091   0.342   3.450   5.845
 2398SOL     OW 8092   4.210   4.251   0.006
 2398SOL    HW1 8093   4.180   4.172   0.060
 2398SOL    HW2 8094   4.292   4.227   6.976
 2399SOL     OW 8095   3.932   0.728   1.734
 2399SOL    HW1 8096   3.994   0.729   1.812
 2399SOL    HW2 8097   3.870   0.650   1.741
 2400SOL     OW 8098   2.752   4.245   0.905
 2400SOL    HW1 8099   2.743   4.145   0.908
 2400SOL    HW2 8100   2.849   4.270   0.905
 2401SOL     OW 8101   4.924   6.654   6.387
 2401SOL    HW1 8102   5.012   6.622   6.423
 2401SOL    HW2 8103   4.893   6.591   6.316
 2402SOL     OW 8104   0.614   0.866   3.464
 2402SOL    HW1 8105   0.541   0.816   3.510
 2402SOL    HW2 8106   0.630   0.953   3.512
 2403SOL     OW 8107   2.047   2.234   6.583
 2403SOL    HW1 8108   1.988   2.154   6.573
 2403SOL    HW2 8109   2.142   2.206   6.574
 2404SOL     OW 8110   2.724   0.686   0.734
 2404SOL    HW1 8111   2.704   0.782   0.711
 2404SOL    HW2 8112   2.785   0.683   0.813
 2405SOL     OW 8113   3.467   3.551   2.364
 2405SOL    HW1 8114   3.469   3.597   2.275
 2405SOL    HW2 8115   3.461   3.619   2.437
 2406SOL     OW 8116   2.757   0.352   2.276
 2406SOL    HW1 8117   2.753   0.379   2.180
 2406SOL    HW2 8118   2.669   0.371   2.320
 2407SOL     OW 8119   5.678   1.704   3.004
 2407SOL    HW1 8120   5.650   1.620   3.049
 2407SOL    HW2 8121   5.750   1.684   2.937
 2408SOL     OW 8122   4.632   4.382   3.350
 2408SOL    HW1 8123   4.596   4.401   3.442
 2408SOL    HW2 8124   4.694   4.455   3.324
 2409SOL     OW 8125   2.319   4.979   1.406
 2409SOL    HW1 8126   2.342   5.032   1.488
 2409SOL    HW2 8127   2.283   4.890   1.433
 2410SOL     OW 8128   3.905   3.320   5.036
 2410SOL    HW1 8129   3.963   3.401   5.047
 2410SOL    HW2 8130   3.824   3.344   4.984
 2411SOL     OW 8131   4.780   5.933   4.701
 2411SOL    HW1 8132   4.848   5.864   4.729
 2411SOL    HW2 8133   4.801   5.965   4.609
 2412SOL     OW 8134   5.646   4.395   1.095
 2412SOL    HW1 8135   5.618   4.326   1.162
 2412SOL    HW2 8136   5.733   4.436   1.124
 2413SOL     OW 8137   6.598   0.868   1.195
 2413SOL    HW1 8138   6.661   0.892   1.269
 2413SOL    HW2 8139   6.574   0.771   1.200
 2414SOL     OW 8140   4.994   4.260   3.019
 2414SOL    HW1 8141   4.909   4.208   3.016
 2414SOL    HW2 8142   4.982   4.347   2.971
 2415SOL     OW 8143   6.407   1.213   3.013
 2415SOL    HW1 8144   6.321   1.163   3.021
 2415SOL    HW2 8145   6.445   1.200   2.922
 2416SOL     OW 8146   5.123   2.574   4.718
 2416SOL    HW1 8147   5.140   2.525   4.804
 2416SOL    HW2 8148   5.033   2.548   4.682
 2417SOL     OW 8149   3.775   3.865   4.669
 2417SOL    HW1 8150   3.857   3.855   4.612
 2417SOL    HW2 8151   3.774   3.957   4.709
 2418SOL     OW 8152   3.834   3.015   4.705
 2418SOL    HW1 8153   3.841   2.974   4.796
 2418SOL    HW2 8154   3.749   3.066   4.697
 2419SOL     OW 8155   6.828   0.059   4.116
 2419SOL    HW1 8156   6.919   0.092   4.143
 2419SOL    HW2 8157   6.764   0.072   4.192
 2420SOL     OW 8158   3.531   0.619   3.036
 2420SOL    HW1 8159   3.486   0.589   2.952
 2420SOL    HW2 8160   3.489   0.704   3.068
 2421SOL     OW 8161   2.189   2.608   4.906
 2421SOL    HW1 8162   2.156   2.683   4.963
 2421SOL    HW2 8163   2.244   2.645   4.831
 2422SOL     OW 8164   5.107   1.482   0.784
 2422SOL    HW1 8165   5.031   1.417   0.779
 2422SOL    HW2 8166   5.168   1.468   0.706
 2423SOL     OW 8167   1.595   5.837   2.746
 2423SOL    HW1 8168   1.565   5.812   2.654
 2423SOL    HW2 8169   1.639   5.927   2.743
 2424SOL     OW 8170   6.399   6.673   6.348
 2424SOL    HW1 8171   6.352   6.595   6.390
 2424SOL    HW2 8172   6.366   6.685   6.255
 2425SOL     OW 8173   5.881   0.390   4.180
 2425SOL    HW1 8174   5.891   0.479   4.136
 2425SOL    HW2 8175   5.939   0.386   4.261
 2426SOL     OW 8176   1.477   5.675   5.143
 2426SOL    HW1 8177   1.539   5.749   5.173
 2426SOL    HW2 8178   1.532   5.598   5.109
 2427SOL     OW 8179   5.193   6.203   5.362
 2427SOL    HW1 8180   5.263   6.230   5.429
 2427SOL    HW2 8181   5.231   6.133   5.302
 2428SOL     OW 8182   0.187   0.164   2.530
 2428SOL    HW1 8183   0.133   0.181   2.613
 2428SOL    HW2 8184   0.195   0.249   2.478
 2429SOL     OW 8185   5.814   5.397   2.660
 2429SOL    HW1 8186   5.814   5.374   2.757
 2429SOL    HW2 8187   5.760   5.330   2.610
 2430SOL     OW 8188   6.412   1.126   1.850
 2430SOL    HW1 8189   6.456   1.140   1.939
 2430SOL    HW2 8190   6.353   1.046   1.855
 2431SOL     OW 8191   3.858   0.204   2.186
 2431SOL    HW1 8192   3.890   0.202   2.280
 2431SOL    HW2 8193   3.773   0.151   2.178
 2432SOL     OW 8194   4.045   6.654   2.729
 2432SOL    HW1 8195   4.065   6.557   2.715
 2432SOL    HW2 8196   4.112   6.709   2.679
 2433SOL     OW 8197   4.187   1.872   0.294
 2433SOL    HW1 8198   4.091   1.896   0.308
 2433SOL    HW2 8199   4.235   1.878   0.381
 2434SOL     OW 8200   4.130   1.472   5.948
 2434SOL    HW1 8201   4.226   1.501   5.953
 2434SOL    HW2 8202   4.118   1.388   6.000
 2435SOL     OW 8203   5.043   5.466   5.368
 2435SOL    HW1 8204   5.021   5.499   5.276
 2435SOL    HW2 8205   5.122   5.405   5.363
 2436SOL     OW 8206   1.520   5.429   6.209
 2436SOL    HW1 8207   1.600   5.482   6.181
 2436SOL    HW2 8208   1.523   5.413   6.308
 2437SOL     OW 8209   5.953   6.806   6.857
 2437SOL    HW1 8210   5.891   6.831   6.783
 2437SOL    HW2 8211   5.999   6.888   6.892
 2438SOL     OW 8212   3.266   1.972   0.122
 2438SOL    HW1 8213   3.192   2.003   0.182
 2438SOL    HW2 8214   3.334   2.045   0.114
 2439SOL     OW 8215   0.803   4.215   6.321
 2439SOL    HW1 8216   0.780   4.158   6.242
 2439SOL    HW2 8217   0.724   4.271   6.346
 2440SOL     OW 8218   4.488   5.688   5.960
 2440SOL    HW1 8219   4.497   5.785   5.983
 2440SOL    HW2 8220   4.427   5.678   5.882
 2441SOL     OW 8221   6.961   2.606   6.963
 2441SOL    HW1 8222   6.932   2.614   0.036
 2441SOL    HW2 8223   6.923   2.523   6.922
 2442SOL     OW 8224   1.332   3.843   5.832
 2442SOL    HW1 8225   1.271   3.796   5.897
 2442SOL    HW2 8226   1.321   3.803   5.741
 2443SOL     OW 8227   3.275   4.730   6.415
 2443SOL    HW1 8228   3.227   4.789   6.350
 2443SOL    HW2 8229   3.316   4.785   6.487
 2444SOL     OW 8230   2.725   5.040   6.287
 2444SOL    HW1 8231   2.699   4.943   6.286
 2444SOL    HW2 8232   2.817   5.050   6.249
 2445SOL     OW 8233   0.291   0.862   1.088
 2445SOL    HW1 8234   0.304   0.949   1.040
 2445SOL    HW2 8235   0.313   0.873   1.185
 2446SOL     OW 8236   5.968   4.106   4.240
 2446SOL    HW1 8237   5.999   4.111   4.335
 2446SOL    HW2 8238   5.985   4.014   4.203
 2447SOL     OW 8239   1.960   2.393   6.791
 2447SOL    HW1 8240   1.867   2.362   6.769
 2447SOL    HW2 8241   2.024   2.357   6.722
 2448SOL     OW 8242   0.382   0.810   4.220
 2448SOL    HW1 8243   0.314   0.866   4.173
 2448SOL    HW2 8244   0.431   0.754   4.154
 2449SOL     OW 8245   6.967   3.655   0.012
 2449SOL    HW1 8246   6.991   3.668   0.108
 2449SOL    HW2 8247   0.029   3.644   6.980
 2450SOL     OW 8248   2.525   4.569   2.806
 2450SOL    HW1 8249   2.444   4.583   2.863
 2450SOL    HW2 8250   2.539   4.471   2.792
 2451SOL     OW 8251   2.019   6.755   4.020
 2451SOL    HW1 8252   2.080   6.829   3.993
 2451SOL    HW2 8253   1.924   6.786   4.013
 2452SOL     OW 8254   1.354   3.873   2.761
 2452SOL    HW1 8255   1.387   3.784   2.731
 2452SOL    HW2 8256   1.278   3.861   2.825
 2453SOL     OW 8257   6.724   4.404   1.120
 2453SOL    HW1 8258   6.717   4.425   1.023
 2453SOL    HW2 8259   6.636   4.370   1.153
 2454SOL     OW 8260   3.415   0.903   2.707
 2454SOL    HW1 8261   3.365   0.868   2.628
 2454SOL    HW2 8262   3.499   0.851   2.719
 2455SOL     OW 8263   5.465   5.465   1.060
 2455SOL    HW1 8264   5.519   5.442   1.141
 2455SOL    HW2 8265   5.502   5.549   1.018
 2456SOL     OW 8266   5.196   6.446   1.707
 2456SOL    HW1 8267   5.263   6.453   1.780
 2456SOL    HW2 8268   5.141   6.530   1.704
 2457SOL     OW 8269   6.134   6.940   0.828
 2457SOL    HW1 8270   6.177   6.946   0.918
 2457SOL    HW2 8271   6.091   6.851   0.817
 2458SOL     OW 8272   2.156   6.046   3.299
 2458SOL    HW1 8273   2.223   6.091   3.240
 2458SOL    HW2 8274   2.092   5.994   3.243
 2459SOL     OW 8275   2.465   0.124   0.524
 2459SOL    HW1 8276   2.374   0.147   0.559
 2459SOL    HW2 8277   2.479   0.169   0.436
 2460SOL     OW 8278   2.799   5.842   2.293
 2460SOL    HW1 8279   2.784   5.883   2.203
 2460SOL    HW2 8280   2.826   5.747   2.282
 2461SOL     OW 8281   5.535   0.315   2.023
 2461SOL    HW1 8282   5.476   0.273   1.954
 2461SOL    HW2 8283   5.587   0.244   2.070
 2462SOL     OW 8284   2.402   5.316   6.780
 2462SOL    HW1 8285   2.471   5.340   6.849
 2462SOL    HW2 8286   2.424   5.227   6.741
 2463SOL     OW 8287   6.484   1.821   3.441
 2463SOL    HW1 8288   6.554   1.757   3.474
 2463SOL    HW2 8289   6.486   1.823   3.341
 2464SOL     OW 8290   1.240   3.403   1.091
 2464SOL    HW1 8291   1.250   3.326   1.154
 2464SOL    HW2 8292   1.329   3.448   1.079
 2465SOL     OW 8293   0.164   5.802   2.111
 2465SOL    HW1 8294   0.166   5.801   2.211
 2465SOL    HW2 8295   0.223   5.729   2.076
 2466SOL     OW 8296   4.057   1.983   2.746
 2466SOL    HW1 8297   4.057   1.922   2.667
 2466SOL    HW2 8298   4.140   2.038   2.745
 2467SOL     OW 8299   0.038   0.992   6.059
 2467SOL    HW1 8300   7.001   0.914   6.082
 2467SOL    HW2 8301   0.011   1.028   5.970
 2468SOL     OW 8302   6.852   6.359   1.335
 2468SOL    HW1 8303   6.865   6.389   1.430
 2468SOL    HW2 8304   6.858   6.260   1.330
 2469SOL     OW 8305   2.922   3.961   5.251
 2469SOL    HW1 8306   2.930   3.944   5.153
 2469SOL    HW2 8307   2.938   3.876   5.301
 2470SOL     OW 8308   4.162   3.572   6.614
 2470SOL    HW1 8309   4.129   3.478   6.604
 2470SOL    HW2 8310   4.251   3.580   6.569
 2471SOL     OW 8311   0.436   6.426   2.817
 2471SOL    HW1 8312   0.412   6.523   2.809
 2471SOL    HW2 8313   0.400   6.390   2.903
 2472SOL     OW 8314   5.424   2.595   4.291
 2472SOL    HW1 8315   5.408   2.587   4.390
 2472SOL    HW2 8316   5.492   2.666   4.274
 2473SOL     OW 8317   0.936   5.907   4.528
 2473SOL    HW1 8318   0.919   6.001   4.500
 2473SOL    HW2 8319   0.907   5.894   4.623
 2474SOL     OW 8320   6.476   4.772   5.483
 2474SOL    HW1 8321   6.414   4.745   5.410
 2474SOL    HW2 8322   6.507   4.866   5.468
 2475SOL     OW 8323   4.209   2.626   0.642
 2475SOL    HW1 8324   4.191   2.543   0.590
 2475SOL    HW2 8325   4.168   2.618   0.732
 2476SOL     OW 8326   0.784   1.633   3.783
 2476SOL    HW1 8327   0.696   1.619   3.829
 2476SOL    HW2 8328   0.835   1.547   3.782
 2477SOL     OW 8329   5.302   5.330   1.389
 2477SOL    HW1 8330   5.375   5.263   1.402
 2477SOL    HW2 8331   5.260   5.316   1.299
 2478SOL     OW 8332   5.827   6.610   2.720
 2478SOL    HW1 8333   5.903   6.675   2.722
 2478SOL    HW2 8334   5.742   6.658   2.742
 2479SOL     OW 8335   0.500   2.607   0.694
 2479SOL    HW1 8336   0.599   2.591   0.696
 2479SOL    HW2 8337   0.456   2.555   0.768
 2480SOL     OW 8338   0.456   3.523   1.099
 2480SOL    HW1 8339   0.462   3.423   1.096
 2480SOL    HW2 8340   0.507   3.561   1.022
 2481SOL     OW 8341   4.221   5.238   2.308
 2481SOL    HW1 8342   4.314   5.268   2.288
 2481SOL    HW2 8343   4.188   5.284   2.391
 2482SOL     OW 8344   5.132   2.857   4.819
 2482SOL    HW1 8345   5.110   2.768   4.778
 2482SOL    HW2 8346   5.137   2.848   4.918
 2483SOL     OW 8347   1.097   1.305   6.873
 2483SOL    HW1 8348   1.016   1.247   6.860
 2483SOL    HW2 8349   1.070   1.389   6.921
 2484SOL     OW 8350   3.301   1.382   0.388
 2484SOL    HW1 8351   3.278   1.479   0.382
 2484SOL    HW2 8352   3.216   1.328   0.392
 2485SOL     OW 8353   0.272   5.492   2.361
 2485SOL    HW1 8354   0.370   5.470   2.369
 2485SOL    HW2 8355   0.240   5.530   2.447
 2486SOL     OW 8356   1.450   5.655   2.905
 2486SOL    HW1 8357   1.464   5.651   3.004
 2486SOL    HW2 8358   1.503   5.731   2.866
 2487SOL     OW 8359   3.739   0.106   1.155
 2487SOL    HW1 8360   3.700   0.141   1.070
 2487SOL    HW2 8361   3.826   0.151   1.173
 2488SOL     OW 8362   2.921   5.201   1.599
 2488SOL    HW1 8363   2.966   5.185   1.511
 2488SOL    HW2 8364   2.991   5.218   1.669
 2489SOL     OW 8365   1.590   5.543   4.766
 2489SOL    HW1 8366   1.504   5.594   4.763
 2489SOL    HW2 8367   1.615   5.515   4.673
 2490SOL     OW 8368   5.885   3.697   1.066
 2490SOL    HW1 8369   5.984   3.685   1.055
 2490SOL    HW2 8370   5.865   3.726   1.160
 2491SOL     OW 8371   2.869   5.466   2.952
 2491SOL    HW1 8372   2.808   5.413   3.011
 2491SOL    HW2 8373   2.821   5.546   2.916
 2492SOL     OW 8374   5.244   3.404   6.447
 2492SOL    HW1 8375   5.221   3.383   6.542
 2492SOL    HW2 8376   5.242   3.503   6.433
 2493SOL     OW 8377   6.020   1.814   3.064
 2493SOL    HW1 8378   6.032   1.741   2.996
 2493SOL    HW2 8379   6.109   1.842   3.099
 2494SOL     OW 8380   4.972   2.767   2.512
 2494SOL    HW1 8381   4.874   2.760   2.530
 2494SOL    HW2 8382   5.003   2.684   2.465
 2495SOL     OW 8383   5.510   1.105   5.194
 2495SOL    HW1 8384   5.602   1.096   5.156
 2495SOL    HW2 8385   5.479   1.017   5.229
 2496SOL     OW 8386   0.904   6.399   6.942
 2496SOL    HW1 8387   0.922   6.434   6.850
 2496SOL    HW2 8388   0.945   6.460   7.010
 2497SOL     OW 8389   6.699   1.389   6.779
 2497SOL    HW1 8390   6.711   1.487   6.791
 2497SOL    HW2 8391   6.691   1.346   6.869
 2498SOL     OW 8392   1.743   3.005   4.871
 2498SOL    HW1 8393   1.804   2.944   4.922
 2498SOL    HW2 8394   1.677   2.950   4.820
 2499SOL     OW 8395   5.697   0.508   4.638
 2499SOL    HW1 8396   5.753   0.432   4.607
 2499SOL    HW2 8397   5.729   0.539   4.728
 2500SOL     OW 8398   4.837   2.871   6.801
 2500SOL    HW1 8399   4.918   2.817   6.827
 2500SOL    HW2 8400   4.788   2.897   6.884
 2501SOL     OW 8401   6.888   4.237   0.243
 2501SOL    HW1 8402   6.889   4.336   0.259
 2501SOL    HW2 8403   6.885   4.189   0.330
 2502SOL     OW 8404   2.863   0.002   2.779
 2502SOL    HW1 8405   2.827   0.046   2.861
 2502SOL    HW2 8406   2.890   6.930   2.801
 2503SOL     OW 8407   4.244   4.903   5.635
 2503SOL    HW1 8408   4.282   4.947   5.716
 2503SOL    HW2 8409   4.309   4.836   5.599
 2504SOL     OW 8410   1.598   4.593   4.011
 2504SOL    HW1 8411   1.615   4.506   3.965
 2504SOL    HW2 8412   1.507   4.590   4.053
 2505SOL     OW 8413   4.690   5.078   4.151
 2505SOL    HW1 8414   4.697   5.172   4.186
 2505SOL    HW2 8415   4.740   5.017   4.213
 2506SOL     OW 8416   6.888   2.429   6.278
 2506SOL    HW1 8417   6.809   2.488   6.297
 2506SOL    HW2 8418   6.949   2.475   6.214
 2507SOL     OW 8419   6.836   6.114   0.250
 2507SOL    HW1 8420   6.832   6.034   0.309
 2507SOL    HW2 8421   6.761   6.177   0.273
 2508SOL     OW 8422   2.602   2.161   2.357
 2508SOL    HW1 8423   2.560   2.078   2.395
 2508SOL    HW2 8424   2.686   2.181   2.407
 2509SOL     OW 8425   4.891   2.904   3.893
 2509SOL    HW1 8426   4.935   2.993   3.907
 2509SOL    HW2 8427   4.894   2.852   3.978
 2510SOL     OW 8428   3.974   5.216   0.399
 2510SOL    HW1 8429   4.000   5.308   0.431
 2510SOL    HW2 8430   4.033   5.148   0.441
 2511SOL     OW 8431   0.827   0.802   4.826
 2511SOL    HW1 8432   0.813   0.896   4.795
 2511SOL    HW2 8433   0.854   0.803   4.923
 2512SOL     OW 8434   5.151   3.509   4.905
 2512SOL    HW1 8435   5.235   3.536   4.953
 2512SOL    HW2 8436   5.086   3.471   4.971
 2513SOL     OW 8437   1.087   2.804   0.171
 2513SOL    HW1 8438   1.043   2.749   0.243
 2513SOL    HW2 8439   1.149   2.871   0.213
 2514SOL     OW 8440   1.193   0.418   3.666
 2514SOL    HW1 8441   1.194   0.485   3.592
 2514SOL    HW2 8442   1.274   0.431   3.724
 2515SOL     OW 8443   0.639   5.740   0.800
 2515SOL    HW1 8444   0.654   5.837   0.819
 2515SOL    HW2 8445   0.720   5.687   0.828
 2516SOL     OW 8446   5.358   6.537   3.568
 2516SOL    HW1 8447   5.294   6.469   3.603
 2516SOL    HW2 8448   5.441   6.537   3.625
 2517SOL     OW 8449   2.004   4.732   0.293
 2517SOL    HW1 8450   1.969   4.649   0.336
 2517SOL    HW2 8451   2.004   4.720   0.194
 2518SOL     OW 8452   2.634   2.511   6.782
 2518SOL    HW1 8453   2.543   2.482   6.751
 2518SOL    HW2 8454   2.624   2.585   6.848
 2519SOL     OW 8455   4.651   4.746   4.714
 2519SOL    HW1 8456   4.587   4.671   4.732
 2519SOL    HW2 8457   4.616   4.802   4.639
 2520SOL     OW 8458   2.240   4.137   1.793
 2520SOL    HW1 8459   2.339   4.147   1.796
 2520SOL    HW2 8460   2.204   4.182   1.712
 2521SOL     OW 8461   5.674   6.789   5.351
 2521SOL    HW1 8462   5.655   6.826   5.260
 2521SOL    HW2 8463   5.663   6.862   5.419
 2522SOL     OW 8464   0.757   3.322   4.455
 2522SOL    HW1 8465   0.748   3.267   4.538
 2522SOL    HW2 8466   0.744   3.419   4.479
 2523SOL     OW 8467   0.907   3.586   6.887
 2523SOL    HW1 8468   0.860   3.552   6.969
 2523SOL    HW2 8469   0.882   3.681   6.872
 2524SOL     OW 8470   1.649   6.829   4.045
 2524SOL    HW1 8471   1.663   6.738   4.005
 2524SOL    HW2 8472   1.585   6.881   3.989
 2525SOL     OW 8473   1.475   3.558   3.696
 2525SOL    HW1 8474   1.504   3.517   3.610
 2525SOL    HW2 8475   1.429   3.489   3.752
 2526SOL     OW 8476   6.621   1.795   4.760
 2526SOL    HW1 8477   6.536   1.745   4.745
 2526SOL    HW2 8478   6.654   1.778   4.853
 2527SOL     OW 8479   5.515   6.457   4.072
 2527SOL    HW1 8480   5.565   6.395   4.012
 2527SOL    HW2 8481   5.417   6.454   4.049
 2528SOL     OW 8482   6.510   5.634   6.973
 2528SOL    HW1 8483   6.593   5.681   7.006
 2528SOL    HW2 8484   6.473   5.577   0.024
 2529SOL     OW 8485   4.736   4.108   4.291
 2529SOL    HW1 8486   4.715   4.033   4.228
 2529SOL    HW2 8487   4.809   4.164   4.252
 2530SOL     OW 8488   0.924   0.607   3.681
 2530SOL    HW1 8489   0.979   0.536   3.725
 2530SOL    HW2 8490   0.984   0.673   3.636
 2531SOL     OW 8491   3.823   1.795   6.663
 2531SOL    HW1 8492   3.867   1.844   6.738
 2531SOL    HW2 8493   3.884   1.792   6.584
 2532SOL     OW 8494   1.061   5.022   6.748
 2532SOL    HW1 8495   1.023   4.938   6.710
 2532SOL    HW2 8496   1.010   5.048   6.830
 2533SOL     OW 8497   5.223   6.823   5.864
 2533SOL    HW1 8498   5.269   6.789   5.947
 2533SOL    HW2 8499   5.210   6.922   5.872
 2534SOL     OW 8500   0.938   1.076   3.364
 2534SOL    HW1 8501   0.988   1.030   3.290
 2534SOL    HW2 8502   0.912   1.008   3.433
 2535SOL     OW 8503   2.135   1.326   3.817
 2535SOL    HW1 8504   2.093   1.362   3.734
 2535SOL    HW2 8505   2.188   1.244   3.794
 2536SOL     OW 8506   5.802   0.838   3.966
 2536SOL    HW1 8507   5.849   0.859   3.880
 2536SOL    HW2 8508   5.745   0.916   3.992
 2537SOL     OW 8509   5.036   5.473   1.226
 2537SOL    HW1 8510   4.937   5.488   1.227
 2537SOL    HW2 8511   5.081   5.544   1.281
 2538SOL     OW 8512   2.319   4.592   4.368
 2538SOL    HW1 8513   2.224   4.622   4.380
 2538SOL    HW2 8514   2.352   4.620   4.278
 2539SOL     OW 8515   3.953   6.953   5.341
 2539SOL    HW1 8516   3.926   6.864   5.378
 2539SOL    HW2 8517   3.875   7.016   5.347
 2540SOL     OW 8518   5.770   1.632   2.225
 2540SOL    HW1 8519   5.769   1.622   2.325
 2540SOL    HW2 8520   5.676   1.632   2.191
 2541SOL     OW 8521   0.958   6.590   5.835
 2541SOL    HW1 8522   1.021   6.512   5.836
 2541SOL    HW2 8523   1.009   6.674   5.856
 2542SOL     OW 8524   3.199   2.041   4.630
 2542SOL    HW1 8525   3.174   1.945   4.644
 2542SOL    HW2 8526   3.251   2.073   4.709
 2543SOL     OW 8527   0.498   1.581   3.618
 2543SOL    HW1 8528   0.534   1.615   3.705
 2543SOL    HW2 8529   0.452   1.494   3.634
 2544SOL     OW 8530   6.647   4.946   1.562
 2544SOL    HW1 8531   6.706   5.025   1.579
 2544SOL    HW2 8532   6.613   4.910   1.649
 2545SOL     OW 8533   0.519   1.698   1.204
 2545SOL    HW1 8534   0.619   1.703   1.208
 2545SOL    HW2 8535   0.480   1.772   1.260
 2546SOL     OW 8536   0.055   4.059   2.197
 2546SOL    HW1 8537   6.978   4.050   2.184
 2546SOL    HW2 8538   0.077   4.047   2.294
 2547SOL     OW 8539   5.591   3.487   0.766
 2547SOL    HW1 8540   5.539   3.506   0.682
 2547SOL    HW2 8541   5.689   3.490   0.747
 2548SOL     OW 8542   6.749   0.132   4.999
 2548SOL    HW1 8543   6.709   0.077   4.926
 2548SOL    HW2 8544   6.845   0.148   4.981
 2549SOL     OW 8545   2.400   2.610   0.815
 2549SOL    HW1 8546   2.363   2.701   0.795
 2549SOL    HW2 8547   2.484   2.596   0.763
 2550SOL     OW 8548   4.277   6.839   6.133
 2550SOL    HW1 8549   4.340   6.878   6.066
 2550SOL    HW2 8550   4.208   6.785   6.085
 2551SOL     OW 8551   3.090   5.869   0.190
 2551SOL    HW1 8552   3.084   5.849   0.092
 2551SOL    HW2 8553   3.026   5.811   0.240
 2552SOL     OW 8554   2.140   5.918   1.084
 2552SOL    HW1 8555   2.131   6.016   1.066
 2552SOL    HW2 8556   2.049   5.877   1.088
 2553SOL     OW 8557   4.223   1.242   0.006
 2553SOL    HW1 8558   4.133   1.281   7.011
 2553SOL    HW2 8559   4.233   1.157   6.977
 2554SOL     OW 8560   1.431   5.744   1.462
 2554SOL    HW1 8561   1.358   5.805   1.494
 2554SOL    HW2 8562   1.457   5.770   1.369
 2555SOL     OW 8563   5.659   5.894   5.378
 2555SOL    HW1 8564   5.615   5.842   5.305
 2555SOL    HW2 8565   5.695   5.980   5.340
 2556SOL     OW 8566   3.818   6.753   1.565
 2556SOL    HW1 8567   3.757   6.705   1.502
 2556SOL    HW2 8568   3.768   6.782   1.646
 2557SOL     OW 8569   3.770   6.977   0.110
 2557SOL    HW1 8570   3.770   6.878   0.094
 2557SOL    HW2 8571   3.858   7.015   0.081
 2558SOL     OW 8572   6.064   4.036   6.147
 2558SOL    HW1 8573   5.989   3.982   6.109
 2558SOL    HW2 8574   6.038   4.070   6.237
 2559SOL     OW 8575   1.085   4.710   4.132
 2559SOL    HW1 8576   1.000   4.763   4.130
 2559SOL    HW2 8577   1.096   4.668   4.222
 2560SOL     OW 8578   5.055   1.875   3.152
 2560SOL    HW1 8579   5.065   1.969   3.122
 2560SOL    HW2 8580   5.144   1.840   3.183
 2561SOL     OW 8581   3.688   0.628   4.022
 2561SOL    HW1 8582   3.697   0.541   4.071
 2561SOL    HW2 8583   3.780   0.665   4.003
 2562SOL     OW 8584   3.218   0.062   3.366
 2562SOL    HW1 8585   3.189   6.989   3.352
 2562SOL    HW2 8586   3.157   0.107   3.431
 2563SOL     OW 8587   3.563   1.439   0.466
 2563SOL    HW1 8588   3.616   1.389   0.397
 2563SOL    HW2 8589   3.466   1.427   0.448
 2564SOL     OW 8590   1.378   1.297   0.580
 2564SOL    HW1 8591   1.442   1.227   0.612
 2564SOL    HW2 8592   1.375   1.297   0.480
 2565SOL     OW 8593   1.714   2.325   6.716
 2565SOL    HW1 8594   1.698   2.227   6.715
 2565SOL    HW2 8595   1.641   2.372   6.665
 2566SOL     OW 8596   2.514   0.806   1.099
 2566SOL    HW1 8597   2.508   0.870   1.022
 2566SOL    HW2 8598   2.607   0.805   1.135
 2567SOL     OW 8599   1.501   0.506   0.681
 2567SOL    HW1 8600   1.455   0.489   0.768
 2567SOL    HW2 8601   1.588   0.455   0.679
 2568SOL     OW 8602   2.865   6.275   1.740
 2568SOL    HW1 8603   2.837   6.180   1.753
 2568SOL    HW2 8604   2.962   6.278   1.716
 2569SOL     OW 8605   0.505   0.680   1.451
 2569SOL    HW1 8606   0.564   0.609   1.411
 2569SOL    HW2 8607   0.559   0.762   1.469
 2570SOL     OW 8608   5.520   6.547   6.083
 2570SOL    HW1 8609   5.525   6.474   6.152
 2570SOL    HW2 8610   5.562   6.515   5.998
 2571SOL     OW 8611   3.534   3.108   4.672
 2571SOL    HW1 8612   3.522   3.202   4.638
 2571SOL    HW2 8613   3.538   3.109   4.772
 2572SOL     OW 8614   2.258   6.233   1.759
 2572SOL    HW1 8615   2.342   6.269   1.800
 2572SOL    HW2 8616   2.266   6.237   1.660
 2573SOL     OW 8617   6.741   2.103   4.179
 2573SOL    HW1 8618   6.826   2.153   4.195
 2573SOL    HW2 8619   6.762   2.007   4.157
 2574SOL     OW 8620   0.907   3.945   1.666
 2574SOL    HW1 8621   0.860   3.926   1.580
 2574SOL    HW2 8622   1.003   3.968   1.647
 2575SOL     OW 8623   5.918   3.908   0.373
 2575SOL    HW1 8624   5.885   3.953   0.290
 2575SOL    HW2 8625   5.987   3.839   0.348
 2576SOL     OW 8626   2.088   6.778   3.070
 2576SOL    HW1 8627   2.017   6.843   3.098
 2576SOL    HW2 8628   2.126   6.807   2.982
 2577SOL     OW 8629   2.355   6.109   2.809
 2577SOL    HW1 8630   2.275   6.056   2.780
 2577SOL    HW2 8631   2.391   6.070   2.895
 2578SOL     OW 8632   5.271   2.839   4.422
 2578SOL    HW1 8633   5.251   2.887   4.507
 2578SOL    HW2 8634   5.269   2.740   4.438
 2579SOL     OW 8635   0.107   2.599   6.642
 2579SOL    HW1 8636   0.090   2.666   6.569
 2579SOL    HW2 8637   0.023   2.548   6.661
 2580SOL     OW 8638   1.740   2.878   6.442
 2580SOL    HW1 8639   1.666   2.909   6.502
 2580SOL    HW2 8640   1.750   2.942   6.366
 2581SOL     OW 8641   6.320   6.469   2.831
 2581SOL    HW1 8642   6.281   6.515   2.751
 2581SOL    HW2 8643   6.259   6.480   2.909
 2582SOL     OW 8644   0.780   5.315   2.074
 2582SOL    HW1 8645   0.863   5.293   2.022
 2582SOL    HW2 8646   0.806   5.349   2.165
 2583SOL     OW 8647   1.524   6.888   0.516
 2583SOL    HW1 8648   1.561   6.819   0.454
 2583SOL    HW2 8649   1.585   6.966   0.520
 2584SOL     OW 8650   3.661   6.059   1.049
 2584SOL    HW1 8651   3.747   6.017   1.019
 2584SOL    HW2 8652   3.585   5.997   1.030
 2585SOL     OW 8653   3.521   0.163   1.570
 2585SOL    HW1 8654   3.423   0.174   1.550
 2585SOL    HW2 8655   3.558   0.249   1.603
 2586SOL     OW 8656   6.336   2.053   3.769
 2586SOL    HW1 8657   6.294   1.963   3.780
 2586SOL    HW2 8658   6.434   2.042   3.750
 2587SOL     OW 8659   5.780   6.235   4.134
 2587SOL    HW1 8660   5.731   6.222   4.048
 2587SOL    HW2 8661   5.856   6.298   4.119
 2588SOL     OW 8662   5.405   0.286   1.758
 2588SOL    HW1 8663   5.477   0.324   1.699
 2588SOL    HW2 8664   5.408   0.187   1.755
 2589SOL     OW 8665   6.596   6.124   5.996
 2589SOL    HW1 8666   6.564   6.051   5.935
 2589SOL    HW2 8667   6.552   6.113   6.086
 2590SOL     OW 8668   5.006   6.885   2.983
 2590SOL    HW1 8669   4.952   6.802   2.996
 2590SOL    HW2 8670   4.951   6.964   3.008
 2591SOL     OW 8671   5.436   6.394   1.554
 2591SOL    HW1 8672   5.390   6.414   1.641
 2591SOL    HW2 8673   5.452   6.479   1.504
 2592SOL     OW 8674   3.611   5.215   2.008
 2592SOL    HW1 8675   3.535   5.264   2.052
 2592SOL    HW2 8676   3.626   5.129   2.056
 2593SOL     OW 8677   2.974   6.391   2.694
 2593SOL    HW1 8678   2.899   6.443   2.735
 2593SOL    HW2 8679   3.014   6.443   2.618
 2594SOL     OW 8680   0.697   6.681   6.551
 2594SOL    HW1 8681   0.654   6.702   6.464
 2594SOL    HW2 8682   0.733   6.587   6.550
 2595SOL     OW 8683   6.127   3.566   4.689
 2595SOL    HW1 8684   6.224   3.563   4.665
 2595SOL    HW2 8685   6.076   3.613   4.616
 2596SOL     OW 8686   3.942   2.063   1.903
 2596SOL    HW1 8687   4.007   2.044   1.977
 2596SOL    HW2 8688   3.877   2.133   1.933
 2597SOL     OW 8689   2.451   3.868   0.423
 2597SOL    HW1 8690   2.460   3.860   0.523
 2597SOL    HW2 8691   2.372   3.925   0.402
 2598SOL     OW 8692   6.561   3.117   3.382
 2598SOL    HW1 8693   6.630   3.058   3.340
 2598SOL    HW2 8694   6.600   3.161   3.463
 2599SOL     OW 8695   3.673   5.339   0.089
 2599SOL    HW1 8696   3.753   5.327   0.029
 2599SOL    HW2 8697   3.699   5.393   0.169
 2600SOL     OW 8698   5.823   3.604   3.265
 2600SOL    HW1 8699   5.744   3.565   3.312
 2600SOL    HW2 8700   5.867   3.532   3.211
 2601SOL     OW 8701   3.610   3.660   6.286
 2601SOL    HW1 8702   3.512   3.638   6.293
 2601SOL    HW2 8703   3.626   3.715   6.204
 2602SOL     OW 8704   6.666   5.321   4.125
 2602SOL    HW1 8705   6.635   5.334   4.219
 2602SOL    HW2 8706   6.716   5.234   4.118
 2603SOL     OW 8707   2.839   1.959   1.309
 2603SOL    HW1 8708   2.910   1.889   1.311
 2603SOL    HW2 8709   2.810   1.980   1.402
 2604SOL     OW 8710   5.623   0.535   1.419
 2604SOL    HW1 8711   5.593   0.466   1.354
 2604SOL    HW2 8712   5.551   0.603   1.432
 2605SOL     OW 8713   4.447   5.031   4.735
 2605SOL    HW1 8714   4.414   5.122   4.711
 2605SOL    HW2 8715   4.477   4.984   4.652
 2606SOL     OW 8716   6.629   4.393   0.380
 2606SOL    HW1 8717   6.619   4.319   0.313
 2606SOL    HW2 8718   6.721   4.390   0.419
 2607SOL     OW 8719   0.807   0.244   3.476
 2607SOL    HW1 8720   0.870   0.317   3.452
 2607SOL    HW2 8721   0.822   0.165   3.417
 2608SOL     OW 8722   4.550   0.860   1.168
 2608SOL    HW1 8723   4.492   0.856   1.087
 2608SOL    HW2 8724   4.643   0.885   1.141
 2609SOL     OW 8725   0.747   2.329   2.491
 2609SOL    HW1 8726   0.719   2.247   2.540
 2609SOL    HW2 8727   0.666   2.381   2.463
 2610SOL     OW 8728   6.250   5.936   4.765
 2610SOL    HW1 8729   6.175   5.934   4.700
 2610SOL    HW2 8730   6.314   5.861   4.745
 2611SOL     OW 8731   5.332   6.618   1.353
 2611SOL    HW1 8732   5.312   6.576   1.265
 2611SOL    HW2 8733   5.246   6.635   1.402
 2612SOL     OW 8734   5.489   6.621   3.138
 2612SOL    HW1 8735   5.565   6.628   3.073
 2612SOL    HW2 8736   5.480   6.526   3.168
 2613SOL     OW 8737   3.740   0.354   2.431
 2613SOL    HW1 8738   3.697   0.266   2.451
 2613SOL    HW2 8739   3.683   0.405   2.368
 2614SOL     OW 8740   6.377   6.483   6.146
 2614SOL    HW1 8741   6.439   6.437   6.082
 2614SOL    HW2 8742   6.290   6.433   6.149
 2615SOL     OW 8743   5.003   5.173   2.504
 2615SOL    HW1 8744   4.941   5.203   2.577
 2615SOL    HW2 8745   4.951   5.159   2.420
 2616SOL     OW 8746   3.860   3.197   2.991
 2616SOL    HW1 8747   3.936   3.249   3.030
 2616SOL    HW2 8748   3.780   3.208   3.050
 2617SOL     OW 8749   3.603   6.311   1.145
 2617SOL    HW1 8750   3.635   6.222   1.113
 2617SOL    HW2 8751   3.503   6.311   1.151
 2618SOL     OW 8752   0.031   0.470   0.877
 2618SOL    HW1 8753   0.061   0.409   0.803
 2618SOL    HW2 8754   0.077   0.445   0.962
 2619SOL     OW 8755   4.475   2.124   2.266
 2619SOL    HW1 8756   4.550   2.111   2.331
 2619SOL    HW2 8757   4.496   2.079   2.180
 2620SOL     OW 8758   0.967   5.017   3.826
 2620SOL    HW1 8759   0.881   5.052   3.791
 2620SOL    HW2 8760   1.043   5.052   3.770
 2621SOL     OW 8761   0.708   5.490   3.602
 2621SOL    HW1 8762   0.656   5.493   3.688
 2621SOL    HW2 8763   0.726   5.394   3.579
 2622SOL     OW 8764   2.573   2.735   6.939
 2622SOL    HW1 8765   2.640   2.809   6.935
 2622SOL    HW2 8766   2.482   2.772   6.956
 2623SOL     OW 8767   3.660   1.079   5.485
 2623SOL    HW1 8768   3.727   1.095   5.558
 2623SOL    HW2 8769   3.640   0.981   5.480
 2624SOL     OW 8770   5.626   2.611   3.275
 2624SOL    HW1 8771   5.690   2.603   3.351
 2624SOL    HW2 8772   5.543   2.658   3.306
 2625SOL     OW 8773   2.676   2.501   5.403
 2625SOL    HW1 8774   2.757   2.556   5.425
 2625SOL    HW2 8775   2.594   2.556   5.414
 2626SOL     OW 8776   1.960   6.406   3.211
 2626SOL    HW1 8777   2.001   6.330   3.161
 2626SOL    HW2 8778   2.031   6.463   3.251
 2627SOL     OW 8779   0.403   0.049   4.751
 2627SOL    HW1 8780   0.480   7.008   4.742
 2627SOL    HW2 8781   0.322   7.020   4.779
 2628SOL     OW 8782   4.017   6.382   6.851
 2628SOL    HW1 8783   3.947   6.367   6.781
 2628SOL    HW2 8784   4.015   6.306   6.916
 2629SOL     OW 8785   4.036   4.133   1.363
 2629SOL    HW1 8786   3.997   4.110   1.274
 2629SOL    HW2 8787   4.049   4.049   1.416
 2630SOL     OW 8788   3.402   1.772   2.413
 2630SOL    HW1 8789   3.362   1.849   2.362
 2630SOL    HW2 8790   3.492   1.751   2.375
 2631SOL     OW 8791   4.505   6.967   4.126
 2631SOL    HW1 8792   4.436   0.015   4.143
 2631SOL    HW2 8793   4.465   6.876   4.138
 2632SOL     OW 8794   3.479   1.875   0.370
 2632SOL    HW1 8795   3.481   1.856   0.272
 2632SOL    HW2 8796   3.494   1.790   0.420
 2633SOL     OW 8797   6.010   2.450   6.813
 2633SOL    HW1 8798   5.911   2.459   6.818
 2633SOL    HW2 8799   6.037   2.359   6.844
 2634SOL     OW 8800   1.935   4.225   1.244
 2634SOL    HW1 8801   1.875   4.147   1.263
 2634SOL    HW2 8802   2.022   4.212   1.291
 2635SOL     OW 8803   5.623   4.723   4.529
 2635SOL    HW1 8804   5.543   4.723   4.469
 2635SOL    HW2 8805   5.671   4.636   4.520
 2636SOL     OW 8806   5.046   0.521   5.686
 2636SOL    HW1 8807   4.980   0.450   5.708
 2636SOL    HW2 8808   5.082   0.506   5.593
 2637SOL     OW 8809   5.509   6.348   3.206
 2637SOL    HW1 8810   5.587   6.355   3.269
 2637SOL    HW2 8811   5.430   6.311   3.255
 2638SOL     OW 8812   5.679   5.970   0.790
 2638SOL    HW1 8813   5.596   6.024   0.776
 2638SOL    HW2 8814   5.693   5.908   0.712
 2639SOL     OW 8815   6.264   6.392   1.257
 2639SOL    HW1 8816   6.346   6.440   1.225
 2639SOL    HW2 8817   6.202   6.457   1.300
 2640SOL     OW 8818   6.813   6.219   5.388
 2640SOL    HW1 8819   6.737   6.277   5.361
 2640SOL    HW2 8820   6.856   6.179   5.307
 2641SOL     OW 8821   5.138   4.029   6.310
 2641SOL    HW1 8822   5.089   3.988   6.387
 2641SOL    HW2 8823   5.235   4.040   6.334
 2642SOL     OW 8824   5.154   0.456   3.938
 2642SOL    HW1 8825   5.082   0.388   3.922
 2642SOL    HW2 8826   5.161   0.516   3.858
 2643SOL     OW 8827   0.038   6.792   3.332
 2643SOL    HW1 8828   6.974   6.748   3.355
 2643SOL    HW2 8829   0.024   6.891   3.323
 2644SOL     OW 8830   0.596   4.907   5.640
 2644SOL    HW1 8831   0.633   4.815   5.644
 2644SOL    HW2 8832   0.521   4.916   5.706
 2645SOL     OW 8833   5.354   6.203   5.831
 2645SOL    HW1 8834   5.424   6.172   5.896
 2645SOL    HW2 8835   5.348   6.303   5.834
 2646SOL     OW 8836   0.087   0.059   6.278
 2646SOL    HW1 8837   7.013   0.062   6.304
 2646SOL    HW2 8838   0.099   7.016   6.202
 2647SOL     OW 8839   4.053   1.938   1.402
 2647SOL    HW1 8840   3.994   1.994   1.460
 2647SOL    HW2 8841   4.000   1.900   1.326
 2648SOL     OW 8842   5.961   0.032   2.316
 2648SOL    HW1 8843   5.967   6.966   2.364
 2648SOL    HW2 8844   5.906   0.021   2.233
 2649SOL     OW 8845   3.553   1.484   6.326
 2649SOL    HW1 8846   3.464   1.474   6.370
 2649SOL    HW2 8847   3.618   1.526   6.389
 2650SOL     OW 8848   0.281   5.160   3.532
 2650SOL    HW1 8849   0.212   5.098   3.494
 2650SOL    HW2 8850   0.363   5.156   3.476
 2651SOL     OW 8851   0.072   1.482   1.821
 2651SOL    HW1 8852   0.158   1.459   1.866
 2651SOL    HW2 8853   0.038   1.404   1.769
 2652SOL     OW 8854   3.005   3.487   3.178
 2652SOL    HW1 8855   2.983   3.497   3.081
 2652SOL    HW2 8856   2.978   3.570   3.227
 2653SOL     OW 8857   5.602   7.006   6.248
 2653SOL    HW1 8858   5.610   6.941   6.172
 2653SOL    HW2 8859   5.689   7.010   6.297
 2654SOL     OW 8860   4.748   2.285   6.009
 2654SOL    HW1 8861   4.844   2.279   6.036
 2654SOL    HW2 8862   4.740   2.263   5.912
 2655SOL     OW 8863   4.191   6.101   4.534
 2655SOL    HW1 8864   4.269   6.145   4.488
 2655SOL    HW2 8865   4.151   6.166   4.599
 2656SOL     OW 8866   5.454   3.705   3.289
 2656SOL    HW1 8867   5.358   3.675   3.298
 2656SOL    HW2 8868   5.461   3.802   3.314
 2657SOL     OW 8869   1.958   4.702   7.011
 2657SOL    HW1 8870   1.874   4.653   0.011
 2657SOL    HW2 8871   2.032   4.636   6.996
 2658SOL     OW 8872   6.193   4.184   5.912
 2658SOL    HW1 8873   6.150   4.105   5.867
 2658SOL    HW2 8874   6.179   4.177   6.011
 2659SOL     OW 8875   6.826   2.545   4.619
 2659SOL    HW1 8876   6.738   2.499   4.611
 2659SOL    HW2 8877   6.861   2.566   4.528
 2660SOL     OW 8878   6.530   2.120   2.502
 2660SOL    HW1 8879   6.452   2.085   2.554
 2660SOL    HW2 8880   6.502   2.139   2.408
 2661SOL     OW 8881   3.892   5.723   1.104
 2661SOL    HW1 8882   3.906   5.822   1.093
 2661SOL    HW2 8883   3.800   5.706   1.138
 2662SOL     OW 8884   4.217   6.728   4.567
 2662SOL    HW1 8885   4.309   6.701   4.537
 2662SOL    HW2 8886   4.214   6.827   4.580
 2663SOL     OW 8887   1.925   4.946   2.258
 2663SOL    HW1 8888   1.996   5.017   2.254
 2663SOL    HW2 8889   1.837   4.987   2.233
 2664SOL     OW 8890   4.071   3.788   2.797
 2664SOL    HW1 8891   4.020   3.756   2.877
 2664SOL    HW2 8892   4.128   3.713   2.763
 2665SOL     OW 8893   3.404   1.256   5.148
 2665SOL    HW1 8894   3.499   1.232   5.166
 2665SOL    HW2 8895   3.395   1.356   5.142
 2666SOL     OW 8896   5.151   4.158   1.071
 2666SOL    HW1 8897   5.199   4.082   1.114
 2666SOL    HW2 8898   5.214   4.234   1.057
 2667SOL     OW 8899   1.791   5.931   4.902
 2667SOL    HW1 8900   1.866   5.972   4.954
 2667SOL    HW2 8901   1.815   5.837   4.877
 2668SOL     OW 8902   6.903   3.299   5.073
 2668SOL    HW1 8903   6.873   3.274   5.166
 2668SOL    HW2 8904   6.862   3.386   5.047
 2669SOL     OW 8905   4.399   5.313   5.460
 2669SOL    HW1 8906   4.333   5.314   5.385
 2669SOL    HW2 8907   4.457   5.394   5.454
 2670SOL     OW 8908   0.961   1.008   0.080
 2670SOL    HW1 8909   0.942   0.911   0.095
 2670SOL    HW2 8910   0.929   1.061   0.159
 2671SOL     OW 8911   2.453   3.864   6.369
 2671SOL    HW1 8912   2.426   3.781   6.322
 2671SOL    HW2 8913   2.552   3.863   6.387
 2672SOL     OW 8914   2.305   5.507   0.245
 2672SOL    HW1 8915   2.235   5.512   0.173
 2672SOL    HW2 8916   2.363   5.588   0.241
 2673SOL     OW 8917   4.040   2.256   3.014
 2673SOL    HW1 8918   3.952   2.216   3.041
 2673SOL    HW2 8919   4.040   2.270   2.915
 2674SOL     OW 8920   0.280   5.707   4.322
 2674SOL    HW1 8921   0.209   5.768   4.358
 2674SOL    HW2 8922   0.369   5.736   4.357
 2675SOL     OW 8923   0.510   4.493   5.463
 2675SOL    HW1 8924   0.535   4.450   5.376
 2675SOL    HW2 8925   0.582   4.558   5.489
 2676SOL     OW 8926   4.737   1.710   1.832
 2676SOL    HW1 8927   4.773   1.771   1.761
 2676SOL    HW2 8928   4.675   1.644   1.790
 2677SOL     OW 8929   1.850   4.504   1.266
 2677SOL    HW1 8930   1.878   4.408   1.259
 2677SOL    HW2 8931   1.900   4.547   1.342
 2678SOL     OW 8932   1.116   5.224   6.134
 2678SOL    HW1 8933   1.066   5.306   6.163
 2678SOL    HW2 8934   1.181   5.197   6.205
 2679SOL     OW 8935   3.171   5.122   0.916
 2679SOL    HW1 8936   3.168   5.148   1.013
 2679SOL    HW2 8937   3.113   5.042   0.902
 2680SOL     OW 8938   2.225   1.773   1.023
 2680SOL    HW1 8939   2.195   1.703   1.088
 2680SOL    HW2 8940   2.217   1.738   0.930
 2681SOL     OW 8941   1.193   2.957   4.012
 2681SOL    HW1 8942   1.174   2.888   4.082
 2681SOL    HW2 8943   1.282   2.999   4.030
 2682SOL     OW 8944   5.344   3.078   2.237
 2682SOL    HW1 8945   5.363   3.165   2.191
 2682SOL    HW2 8946   5.272   3.029   2.188
 2683SOL     OW 8947   0.684   5.631   1.083
 2683SOL    HW1 8948   0.716   5.666   1.171
 2683SOL    HW2 8949   0.760   5.627   1.019
 2684SOL     OW 8950   2.991   6.754   2.805
 2684SOL    HW1 8951   3.026   6.762   2.712
 2684SOL    HW2 8952   2.899   6.714   2.803
 2685SOL     OW 8953   4.911   6.048   4.913
 2685SOL    HW1 8954   4.840   6.079   4.977
 2685SOL    HW2 8955   4.869   6.018   4.828
 2686SOL     OW 8956   2.284   2.817   4.206
 2686SOL    HW1 8957   2.285   2.846   4.302
 2686SOL    HW2 8958   2.368   2.767   4.186
 2687SOL     OW 8959   3.779   5.225   2.408
 2687SOL    HW1 8960   3.783   5.262   2.501
 2687SOL    HW2 8961   3.684   5.206   2.384
 2688SOL     OW 8962   4.840   4.777   6.518
 2688SOL    HW1 8963   4.763   4.840   6.529
 2688SOL    HW2 8964   4.924   4.820   6.550
 2689SOL     OW 8965   0.927   2.293   3.570
 2689SOL    HW1 8966   0.845   2.238   3.584
 2689SOL    HW2 8967   0.981   2.293   3.655
 2690SOL     OW 8968   3.862   3.188   3.964
 2690SOL    HW1 8969   3.863   3.109   3.902
 2690SOL    HW2 8970   3.797   3.256   3.930
 2691SOL     OW 8971   1.605   5.624   2.224
 2691SOL    HW1 8972   1.700   5.639   2.197
 2691SOL    HW2 8973   1.548   5.616   2.142
 2692SOL     OW 8974   0.331   5.404   3.668
 2692SOL    HW1 8975   0.289   5.314   3.682
 2692SOL    HW2 8976   0.406   5.417   3.733
 2693SOL     OW 8977   1.797   3.730   3.633
 2693SOL    HW1 8978   1.884   3.757   3.674
 2693SOL    HW2 8979   1.746   3.812   3.607
 2694SOL     OW 8980   2.750   6.752   3.213
 2694SOL    HW1 8981   2.833   6.796   3.179
 2694SOL    HW2 8982   2.737   6.664   3.168
 2695SOL     OW 8983   5.104   2.224   2.599
 2695SOL    HW1 8984   5.029   2.262   2.653
 2695SOL    HW2 8985   5.185   2.282   2.611
 2696SOL     OW 8986   4.002   3.834   5.666
 2696SOL    HW1 8987   3.927   3.823   5.732
 2696SOL    HW2 8988   4.004   3.755   5.605
 2697SOL     OW 8989   3.871   2.117   3.879
 2697SOL    HW1 8990   3.938   2.132   3.807
 2697SOL    HW2 8991   3.781   2.147   3.847
 2698SOL     OW 8992   0.957   3.817   0.495
 2698SOL    HW1 8993   0.926   3.891   0.435
 2698SOL    HW2 8994   0.927   3.730   0.457
 2699SOL     OW 8995   3.727   5.490   1.621
 2699SOL    HW1 8996   3.726   5.470   1.719
 2699SOL    HW2 8997   3.816   5.465   1.582
 2700SOL     OW 8998   1.719   3.281   2.711
 2700SOL    HW1 8999   1.738   3.379   2.715
 2700SOL    HW2 9000   1.791   3.231   2.759
 2701SOL     OW 9001   3.587   0.249   6.426
 2701SOL    HW1 9002   3.671   0.197   6.441
 2701SOL    HW2 9003   3.511   0.186   6.410
 2702SOL     OW 9004   6.970   1.568   3.101
 2702SOL    HW1 9005   6.955   1.478   3.060
 2702SOL    HW2 9006   6.928   1.570   3.192
 2703SOL     OW 9007   2.620   1.680   2.624
 2703SOL    HW1 9008   2.705   1.678   2.572
 2703SOL    HW2 9009   2.542   1.679   2.561
 2704SOL     OW 9010   3.081   5.227   1.823
 2704SOL    HW1 9011   3.039   5.304   1.870
 2704SOL    HW2 9012   3.181   5.235   1.827
 2705SOL     OW 9013   6.156   6.008   3.881
 2705SOL    HW1 9014   6.082   6.043   3.939
 2705SOL    HW2 9015   6.120   5.940   3.818
 2706SOL     OW 9016   6.710   1.459   2.132
 2706SOL    HW1 9017   6.714   1.435   2.229
 2706SOL    HW2 9018   6.654   1.541   2.120
 2707SOL     OW 9019   1.705   2.057   6.735
 2707SOL    HW1 9020   1.781   1.992   6.742
 2707SOL    HW2 9021   1.634   2.019   6.676
 2708SOL     OW 9022   2.089   2.603   2.161
 2708SOL    HW1 9023   2.114   2.517   2.117
 2708SOL    HW2 9024   2.063   2.586   2.256
 2709SOL     OW 9025   5.376   5.917   0.883
 2709SOL    HW1 9026   5.396   5.977   0.961
 2709SOL    HW2 9027   5.326   5.837   0.916
 2710SOL     OW 9028   0.044   3.803   2.492
 2710SOL    HW1 9029   0.026   3.738   2.418
 2710SOL    HW2 9030   6.980   3.847   2.519
 2711SOL     OW 9031   1.107   0.306   1.947
 2711SOL    HW1 9032   1.120   0.209   1.925
 2711SOL    HW2 9033   1.184   0.359   1.911
 2712SOL     OW 9034   2.299   4.545   0.534
 2712SOL    HW1 9035   2.292   4.612   0.607
 2712SOL    HW2 9036   2.362   4.579   0.464
 2713SOL     OW 9037   2.272   3.195   5.206
 2713SOL    HW1 9038   2.322   3.119   5.164
 2713SOL    HW2 9039   2.245   3.261   5.136
 2714SOL     OW 9040   4.952   0.943   5.733
 2714SOL    HW1 9041   4.923   0.885   5.810
 2714SOL    HW2 9042   5.030   0.999   5.760
 2715SOL     OW 9043   5.825   1.550   6.764
 2715SOL    HW1 9044   5.875   1.485   6.822
 2715SOL    HW2 9045   5.790   1.624   6.821
 2716SOL     OW 9046   6.513   5.779   2.314
 2716SOL    HW1 9047   6.536   5.760   2.410
 2716SOL    HW2 9048   6.588   5.827   2.270
 2717SOL     OW 9049   0.841   6.443   2.601
 2717SOL    HW1 9050   0.805   6.427   2.693
 2717SOL    HW2 9051   0.829   6.540   2.577
 2718SOL     OW 9052   1.873   3.898   4.166
 2718SOL    HW1 9053   1.964   3.858   4.162
 2718SOL    HW2 9054   1.823   3.877   4.082
 2719SOL     OW 9055   4.486   5.272   2.237
 2719SOL    HW1 9056   4.490   5.279   2.137
 2719SOL    HW2 9057   4.578   5.261   2.273
 2720SOL     OW 9058   2.026   6.472   3.954
 2720SOL    HW1 9059   2.085   6.404   3.998
 2720SOL    HW2 9060   2.034   6.559   4.002
 2721SOL     OW 9061   2.845   0.114   4.471
 2721SOL    HW1 9062   2.914   0.183   4.493
 2721SOL    HW2 9063   2.770   0.156   4.420
 2722SOL     OW 9064   0.513   5.552   3.312
 2722SOL    HW1 9065   0.434   5.508   3.354
 2722SOL    HW2 9066   0.574   5.483   3.274
 2723SOL     OW 9067   2.273   1.346   5.600
 2723SOL    HW1 9068   2.193   1.354   5.540
 2723SOL    HW2 9069   2.295   1.249   5.614
 2724SOL     OW 9070   3.912   5.762   6.774
 2724SOL    HW1 9071   3.823   5.717   6.762
 2724SOL    HW2 9072   3.976   5.730   6.705
 2725SOL     OW 9073   4.239   4.661   3.246
 2725SOL    HW1 9074   4.158   4.691   3.195
 2725SOL    HW2 9075   4.220   4.662   3.344
 2726SOL     OW 9076   5.056   4.910   1.649
 2726SOL    HW1 9077   4.980   4.862   1.692
 2726SOL    HW2 9078   5.142   4.871   1.681
 2727SOL     OW 9079   0.891   4.833   2.545
 2727SOL    HW1 9080   0.847   4.747   2.569
 2727SOL    HW2 9081   0.831   4.909   2.570
 2728SOL     OW 9082   2.755   6.607   5.674
 2728SOL    HW1 9083   2.746   6.697   5.716
 2728SOL    HW2 9084   2.704   6.605   5.588
 2729SOL     OW 9085   6.209   4.863   3.200
 2729SOL    HW1 9086   6.251   4.779   3.165
 2729SOL    HW2 9087   6.129   4.885   3.143
 2730SOL     OW 9088   2.231   0.176   0.720
 2730SOL    HW1 9089   2.156   0.184   0.653
 2730SOL    HW2 9090   2.205   0.112   0.791
 2731SOL     OW 9091   2.940   3.823   1.871
 2731SOL    HW1 9092   2.979   3.909   1.907
 2731SOL    HW2 9093   2.958   3.749   1.936
 2732SOL     OW 9094   5.490   2.552   2.626
 2732SOL    HW1 9095   5.560   2.611   2.584
 2732SOL    HW2 9096   5.470   2.586   2.718
 2733SOL     OW 9097   1.128   6.916   5.438
 2733SOL    HW1 9098   1.184   6.853   5.493
 2733SOL    HW2 9099   1.043   6.870   5.412
 2734SOL     OW 9100   1.819   6.722   3.842
 2734SOL    HW1 9101   1.906   6.675   3.857
 2734SOL    HW2 9102   1.744   6.662   3.870
 2735SOL     OW 9103   1.483   4.825   2.191
 2735SOL    HW1 9104   1.402   4.770   2.172
 2735SOL    HW2 9105   1.516   4.805   2.283
 2736SOL     OW 9106   3.849   0.380   5.181
 2736SOL    HW1 9107   3.920   0.432   5.228
 2736SOL    HW2 9108   3.856   0.396   5.082
 2737SOL     OW 9109   4.256   3.667   6.251
 2737SOL    HW1 9110   4.181   3.730   6.273
 2737SOL    HW2 9111   4.312   3.706   6.178
 2738SOL     OW 9112   5.741   5.141   4.847
 2738SOL    HW1 9113   5.675   5.134   4.921
 2738SOL    HW2 9114   5.726   5.068   4.781
 2739SOL     OW 9115   5.503   3.524   1.199
 2739SOL    HW1 9116   5.514   3.561   1.107
 2739SOL    HW2 9117   5.507   3.424   1.195
 2740SOL     OW 9118   6.021   2.297   2.711
 2740SOL    HW1 9119   6.099   2.325   2.654
 2740SOL    HW2 9120   6.048   2.220   2.768
 2741SOL     OW 9121   0.225   2.130   5.416
 2741SOL    HW1 9122   0.134   2.106   5.383
 2741SOL    HW2 9123   0.254   2.216   5.375
 2742SOL     OW 9124   1.689   6.208   6.686
 2742SOL    HW1 9125   1.660   6.148   6.761
 2742SOL    HW2 9126   1.681   6.303   6.715
 2743SOL     OW 9127   5.339   4.978   1.295
 2743SOL    HW1 9128   5.369   4.887   1.324
 2743SOL    HW2 9129   5.342   4.983   1.195
 2744SOL     OW 9130   3.774   2.340   6.234
 2744SOL    HW1 9131   3.799   2.389   6.150
 2744SOL    HW2 9132   3.721   2.259   6.210
 2745SOL     OW 9133   2.443   6.111   1.000
 2745SOL    HW1 9134   2.387   6.100   1.082
 2745SOL    HW2 9135   2.390   6.156   0.929
 2746SOL     OW 9136   2.061   1.800   5.648
 2746SOL    HW1 9137   2.046   1.861   5.725
 2746SOL    HW2 9138   2.100   1.714   5.681
 2747SOL     OW 9139   5.291   6.637   4.356
 2747SOL    HW1 9140   5.243   6.549   4.361
 2747SOL    HW2 9141   5.389   6.620   4.343
 2748SOL     OW 9142   4.372   1.394   2.761
 2748SOL    HW1 9143   4.405   1.319   2.704
 2748SOL    HW2 9144   4.313   1.358   2.833
 2749SOL     OW 9145   4.470   4.759   3.955
 2749SOL    HW1 9146   4.448   4.781   4.050
 2749SOL    HW2 9147   4.389   4.721   3.911
 2750SOL     OW 9148   0.757   5.657   2.381
 2750SOL    HW1 9149   0.751   5.733   2.316
 2750SOL    HW2 9150   0.756   5.693   2.475
 2751SOL     OW 9151   2.103   6.786   6.461
 2751SOL    HW1 9152   2.087   6.856   6.529
 2751SOL    HW2 9153   2.018   6.735   6.445
 2752SOL     OW 9154   5.785   6.127   5.256
 2752SOL    HW1 9155   5.859   6.094   5.197
 2752SOL    HW2 9156   5.704   6.146   5.201
 2753SOL     OW 9157   3.891   5.969   6.474
 2753SOL    HW1 9158   3.918   5.879   6.507
 2753SOL    HW2 9159   3.956   6.000   6.404
 2754SOL     OW 9160   0.341   0.616   4.402
 2754SOL    HW1 9161   0.327   0.676   4.323
 2754SOL    HW2 9162   0.428   0.638   4.446
 2755SOL     OW 9163   3.072   6.256   2.310
 2755SOL    HW1 9164   3.132   6.179   2.325
 2755SOL    HW2 9165   2.977   6.225   2.307
 2756SOL     OW 9166   6.391   3.287   5.674
 2756SOL    HW1 9167   6.383   3.264   5.771
 2756SOL    HW2 9168   6.482   3.323   5.655
 2757SOL     OW 9169   4.463   2.668   6.903
 2757SOL    HW1 9170   4.415   2.750   6.872
 2757SOL    HW2 9171   4.531   2.641   6.836
 2758SOL     OW 9172   5.979   5.138   2.695
 2758SOL    HW1 9173   5.902   5.201   2.702
 2758SOL    HW2 9174   6.019   5.122   2.785
 2759SOL     OW 9175   3.103   4.501   6.452
 2759SOL    HW1 9176   3.159   4.569   6.404
 2759SOL    HW2 9177   3.064   4.542   6.535
 2760SOL     OW 9178   5.274   5.604   3.644
 2760SOL    HW1 9179   5.290   5.512   3.609
 2760SOL    HW2 9180   5.284   5.671   3.570
 2761SOL     OW 9181   2.136   3.444   2.480
 2761SOL    HW1 9182   2.154   3.363   2.536
 2761SOL    HW2 9183   2.160   3.425   2.385
 2762SOL     OW 9184   2.078   1.855   0.390
 2762SOL    HW1 9185   2.112   1.917   0.461
 2762SOL    HW2 9186   1.985   1.825   0.412
 2763SOL     OW 9187   4.584   1.436   5.352
 2763SOL    HW1 9188   4.612   1.529   5.330
 2763SOL    HW2 9189   4.615   1.373   5.281
 2764SOL     OW 9190   0.921   4.223   1.932
 2764SOL    HW1 9191   1.014   4.256   1.920
 2764SOL    HW2 9192   0.914   4.129   1.901
 2765SOL     OW 9193   6.188   6.665   6.826
 2765SOL    HW1 9194   6.254   6.696   6.757
 2765SOL    HW2 9195   6.105   6.720   6.820
 2766SOL     OW 9196   5.770   0.860   7.013
 2766SOL    HW1 9197   5.782   0.870   6.914
 2766SOL    HW2 9198   5.823   0.781   0.023
 2767SOL     OW 9199   6.967   5.027   6.474
 2767SOL    HW1 9200   6.958   4.935   6.514
 2767SOL    HW2 9201   7.020   5.021   6.389
 2768SOL     OW 9202   4.592   0.066   1.167
 2768SOL    HW1 9203   4.514   0.032   1.220
 2768SOL    HW2 9204   4.606   0.163   1.188
 2769SOL     OW 9205   2.090   4.498   5.708
 2769SOL    HW1 9206   2.189   4.489   5.718
 2769SOL    HW2 9207   2.069   4.575   5.647
 2770SOL     OW 9208   2.470   6.650   0.469
 2770SOL    HW1 9209   2.473   6.742   0.509
 2770SOL    HW2 9210   2.456   6.583   0.542
 2771SOL     OW 9211   4.514   0.277   4.859
 2771SOL    HW1 9212   4.434   0.218   4.845
 2771SOL    HW2 9213   4.543   0.314   4.772
 2772SOL     OW 9214   3.819   0.768   2.975
 2772SOL    HW1 9215   3.881   0.823   2.920
 2772SOL    HW2 9216   3.838   0.671   2.960
 2773SOL     OW 9217   5.790   2.708   3.940
 2773SOL    HW1 9218   5.832   2.795   3.913
 2773SOL    HW2 9219   5.846   2.664   4.010
 2774SOL     OW 9220   5.260   1.553   3.632
 2774SOL    HW1 9221   5.163   1.534   3.623
 2774SOL    HW2 9222   5.274   1.651   3.646
 2775SOL     OW 9223   0.870   4.496   4.538
 2775SOL    HW1 9224   0.965   4.520   4.557
 2775SOL    HW2 9225   0.819   4.493   4.623
 2776SOL     OW 9226   5.033   4.292   6.092
 2776SOL    HW1 9227   5.060   4.256   6.003
 2776SOL    HW2 9228   4.961   4.235   6.131
 2777SOL     OW 9229   3.126   2.243   6.131
 2777SOL    HW1 9230   3.047   2.303   6.147
 2777SOL    HW2 9231   3.133   2.223   6.034
 2778SOL     OW 9232   2.924   6.199   6.531
 2778SOL    HW1 9233   2.900   6.120   6.473
 2778SOL    HW2 9234   2.871   6.195   6.615
 2779SOL     OW 9235   6.027   6.743   2.042
 2779SOL    HW1 9236   6.090   6.805   2.088
 2779SOL    HW2 9237   6.079   6.670   1.997
 2780SOL     OW 9238   0.087   1.933   5.839
 2780SOL    HW1 9239   0.148   1.894   5.770
 2780SOL    HW2 9240   0.130   1.929   5.929
 2781SOL     OW 9241   6.442   0.374   2.680
 2781SOL    HW1 9242   6.414   0.467   2.705
 2781SOL    HW2 9243   6.362   0.321   2.654
 2782SOL     OW 9244   4.211   0.963   6.938
 2782SOL    HW1 9245   4.149   0.924   7.006
 2782SOL    HW2 9246   4.179   0.939   6.846
 2783SOL     OW 9247   5.550   4.004   1.751
 2783SOL    HW1 9248   5.543   3.909   1.719
 2783SOL    HW2 9249   5.622   4.010   1.820
 2784SOL     OW 9250   1.225   1.826   0.812
 2784SOL    HW1 9251   1.246   1.923   0.827
 2784SOL    HW2 9252   1.258   1.773   0.890
 2785SOL     OW 9253   5.483   2.890   1.661
 2785SOL    HW1 9254   5.399   2.844   1.690
 2785SOL    HW2 9255   5.556   2.870   1.726
 2786SOL     OW 9256   6.844   6.193   0.004
 2786SOL    HW1 9257   6.845   6.151   0.095
 2786SOL    HW2 9258   6.782   6.272   0.005
 2787SOL     OW 9259   6.142   4.989   6.250
 2787SOL    HW1 9260   6.194   5.046   6.314
 2787SOL    HW2 9261   6.189   4.987   6.162
 2788SOL     OW 9262   3.197   6.209   5.771
 2788SOL    HW1 9263   3.278   6.210   5.713
 2788SOL    HW2 9264   3.115   6.203   5.715
 2789SOL     OW 9265   0.673   2.455   5.175
 2789SOL    HW1 9266   0.677   2.545   5.131
 2789SOL    HW2 9267   0.682   2.383   5.106
 2790SOL     OW 9268   1.849   5.903   1.209
 2790SOL    HW1 9269   1.866   5.812   1.171
 2790SOL    HW2 9270   1.928   5.932   1.263
 2791SOL     OW 9271   0.114   3.791   3.225
 2791SOL    HW1 9272   0.045   3.718   3.230
 2791SOL    HW2 9273   0.200   3.753   3.191
 2792SOL     OW 9274   3.057   1.619   5.282
 2792SOL    HW1 9275   2.980   1.637   5.343
 2792SOL    HW2 9276   3.141   1.612   5.336
 2793SOL     OW 9277   3.586   4.218   1.345
 2793SOL    HW1 9278   3.610   4.276   1.423
 2793SOL    HW2 9279   3.536   4.273   1.277
 2794SOL     OW 9280   0.728   2.118   6.034
 2794SOL    HW1 9281   0.776   2.089   6.117
 2794SOL    HW2 9282   0.661   2.189   6.058
 2795SOL     OW 9283   1.190   4.752   1.626
 2795SOL    HW1 9284   1.263   4.807   1.585
 2795SOL    HW2 9285   1.230   4.671   1.670
 2796SOL     OW 9286   1.343   6.096   5.550
 2796SOL    HW1 9287   1.349   6.002   5.585
 2796SOL    HW2 9288   1.368   6.097   5.453
 2797SOL     OW 9289   5.720   6.852   3.782
 2797SOL    HW1 9290   5.663   6.795   3.722
 2797SOL    HW2 9291   5.661   6.911   3.837
 2798SOL     OW 9292   5.825   6.846   1.788
 2798SOL    HW1 9293   5.781   6.878   1.704
 2798SOL    HW2 9294   5.923   6.839   1.774
 2799SOL     OW 9295   3.703   6.136   4.600
 2799SOL    HW1 9296   3.775   6.080   4.642
 2799SOL    HW2 9297   3.657   6.083   4.529
 2800SOL     OW 9298   6.537   0.830   6.745
 2800SOL    HW1 9299   6.593   0.812   6.826
 2800SOL    HW2 9300   6.561   0.765   6.673
 2801SOL     OW 9301   0.739   4.958   5.401
 2801SOL    HW1 9302   0.671   4.925   5.466
 2801SOL    HW2 9303   0.703   5.036   5.350
 2802SOL     OW 9304   6.773   5.306   5.576
 2802SOL    HW1 9305   6.775   5.325   5.674
 2802SOL    HW2 9306   6.866   5.293   5.543
 2803SOL     OW 9307   3.926   2.951   6.831
 2803SOL    HW1 9308   3.840   2.912   6.799
 2803SOL    HW2 9309   4.000   2.886   6.815
 2804SOL     OW 9310   0.168   2.666   3.756
 2804SOL    HW1 9311   0.122   2.578   3.754
 2804SOL    HW2 9312   0.242   2.664   3.823
 2805SOL     OW 9313   4.262   3.275   1.081
 2805SOL    HW1 9314   4.222   3.206   1.020
 2805SOL    HW2 9315   4.320   3.336   1.027
 2806SOL     OW 9316   0.364   4.622   5.673
 2806SOL    HW1 9317   0.411   4.534   5.663
 2806SOL    HW2 9318   0.321   4.647   5.587
 2807SOL     OW 9319   3.018   0.251   3.457
 2807SOL    HW1 9320   2.987   0.330   3.405
 2807SOL    HW2 9321   3.103   0.273   3.505
 2808SOL     OW 9322   6.558   4.699   0.086
 2808SOL    HW1 9323   6.602   4.785   0.060
 2808SOL    HW2 9324   6.612   4.656   0.159
 2809SOL     OW 9325   6.518   5.046   2.210
 2809SOL    HW1 9326   6.566   5.097   2.281
 2809SOL    HW2 9327   6.419   5.058   2.222
 2810SOL     OW 9328   2.375   5.342   3.474
 2810SOL    HW1 9329   2.279   5.367   3.465
 2810SOL    HW2 9330   2.390   5.252   3.432
 2811SOL     OW 9331   0.723   0.717   2.099
 2811SOL    HW1 9332   0.712   0.815   2.115
 2811SOL    HW2 9333   0.682   0.692   2.011
 2812SOL     OW 9334   0.876   3.079   1.181
 2812SOL    HW1 9335   0.911   3.097   1.089
 2812SOL    HW2 9336   0.948   3.037   1.237
 2813SOL     OW 9337   1.019   2.289   1.671
 2813SOL    HW1 9338   1.016   2.379   1.628
 2813SOL    HW2 9339   0.983   2.221   1.608
 2814SOL     OW 9340   2.125   4.152   0.158
 2814SOL    HW1 9341   2.171   4.124   0.074
 2814SOL    HW2 9342   2.063   4.229   0.138
 2815SOL     OW 9343   0.413   5.863   5.546
 2815SOL    HW1 9344   0.360   5.860   5.631
 2815SOL    HW2 9345   0.506   5.895   5.567
 2816SOL     OW 9346   0.538   6.032   5.969
 2816SOL    HW1 9347   0.468   6.081   5.917
 2816SOL    HW2 9348   0.540   5.936   5.940
 2817SOL     OW 9349   4.493   0.652   2.146
 2817SOL    HW1 9350   4.461   0.712   2.220
 2817SOL    HW2 9351   4.418   0.635   2.082
 2818SOL     OW 9352   1.016   0.282   1.308
 2818SOL    HW1 9353   0.980   0.351   1.245
 2818SOL    HW2 9354   0.998   0.191   1.272
 2819SOL     OW 9355   0.875   0.349   0.464
 2819SOL    HW1 9356   0.785   0.387   0.487
 2819SOL    HW2 9357   0.927   0.416   0.411
 2820SOL     OW 9358   1.073   2.986   1.337
 2820SOL    HW1 9359   1.025   2.900   1.357
 2820SOL    HW2 9360   1.121   3.017   1.419
 2821SOL     OW 9361   3.008   4.210   6.504
 2821SOL    HW1 9362   3.097   4.235   6.541
 2821SOL    HW2 9363   3.000   4.110   6.499
 2822SOL     OW 9364   4.799   2.665   1.071
 2822SOL    HW1 9365   4.726   2.608   1.110
 2822SOL    HW2 9366   4.773   2.761   1.077
 2823SOL     OW 9367   5.555   2.136   1.226
 2823SOL    HW1 9368   5.632   2.167   1.282
 2823SOL    HW2 9369   5.525   2.046   1.256
 2824SOL     OW 9370   1.273   3.662   5.279
 2824SOL    HW1 9371   1.267   3.762   5.272
 2824SOL    HW2 9372   1.229   3.621   5.199
 2825SOL     OW 9373   5.049   1.420   6.534
 2825SOL    HW1 9374   5.079   1.375   6.618
 2825SOL    HW2 9375   5.037   1.518   6.552
 2826SOL     OW 9376   2.093   3.403   6.391
 2826SOL    HW1 9377   2.156   3.336   6.430
 2826SOL    HW2 9378   2.057   3.462   6.464
 2827SOL     OW 9379   6.740   0.970   6.214
 2827SOL    HW1 9380   6.813   0.911   6.178
 2827SOL    HW2 9381   6.777   1.030   6.285
 2828SOL     OW 9382   1.682   3.998   0.948
 2828SOL    HW1 9383   1.620   4.039   0.882
 2828SOL    HW2 9384   1.770   3.980   0.904
 2829SOL     OW 9385   3.944   3.833   3.355
 2829SOL    HW1 9386   3.860   3.780   3.345
 2829SOL    HW2 9387   3.943   3.879   3.444
 2830SOL     OW 9388   3.328   5.124   5.701
 2830SOL    HW1 9389   3.349   5.068   5.621
 2830SOL    HW2 9390   3.246   5.179   5.683
 2831SOL     OW 9391   6.197   1.873   2.341
 2831SOL    HW1 9392   6.210   1.856   2.243
 2831SOL    HW2 9393   6.109   1.837   2.370
 2832SOL     OW 9394   0.739   3.247   0.939
 2832SOL    HW1 9395   0.650   3.214   0.971
 2832SOL    HW2 9396   0.789   3.172   0.895
 2833SOL     OW 9397   1.684   2.187   2.082
 2833SOL    HW1 9398   1.665   2.094   2.113
 2833SOL    HW2 9399   1.658   2.196   1.986
 2834SOL     OW 9400   3.905   6.109   5.101
 2834SOL    HW1 9401   3.926   6.110   5.199
 2834SOL    HW2 9402   3.915   6.016   5.066
 2835SOL     OW 9403   0.311   6.847   0.692
 2835SOL    HW1 9404   0.274   6.931   0.653
 2835SOL    HW2 9405   0.408   6.861   0.715
 2836SOL     OW 9406   3.439   6.497   3.050
 2836SOL    HW1 9407   3.405   6.404   3.041
 2836SOL    HW2 9408   3.407   6.536   3.137
 2837SOL     OW 9409   5.290   4.248   2.412
 2837SOL    HW1 9410   5.319   4.298   2.493
 2837SOL    HW2 9411   5.191   4.254   2.403
 2838SOL     OW 9412   5.376   4.368   6.136
 2838SOL    HW1 9413   5.369   4.436   6.208
 2838SOL    HW2 9414   5.290   4.362   6.086
 2839SOL     OW 9415   5.899   2.757   5.062
 2839SOL    HW1 9416   5.933   2.720   5.149
 2839SOL    HW2 9417   5.960   2.829   5.029
 2840SOL     OW 9418   0.173   6.443   3.620
 2840SOL    HW1 9419   0.090   6.498   3.606
 2840SOL    HW2 9420   0.169   6.363   3.561
 2841SOL     OW 9421   6.192   2.749   2.171
 2841SOL    HW1 9422   6.287   2.775   2.192
 2841SOL    HW2 9423   6.183   2.650   2.176
 2842SOL     OW 9424   1.391   6.746   3.083
 2842SOL    HW1 9425   1.460   6.699   3.139
 2842SOL    HW2 9426   1.437   6.813   3.025
 2843SOL     OW 9427   2.334   2.804   3.375
 2843SOL    HW1 9428   2.330   2.760   3.464
 2843SOL    HW2 9429   2.387   2.748   3.312
 2844SOL     OW 9430   4.855   4.662   1.327
 2844SOL    HW1 9431   4.862   4.609   1.243
 2844SOL    HW2 9432   4.803   4.746   1.309
 2845SOL     OW 9433   3.641   1.924   2.770
 2845SOL    HW1 9434   3.690   2.009   2.748
 2845SOL    HW2 9435   3.704   1.847   2.763
 2846SOL     OW 9436   5.637   0.597   0.284
 2846SOL    HW1 9437   5.646   0.563   0.378
 2846SOL    HW2 9438   5.542   0.619   0.265
 2847SOL     OW 9439   4.793   4.633   2.371
 2847SOL    HW1 9440   4.744   4.572   2.433
 2847SOL    HW2 9441   4.882   4.593   2.349
 2848SOL     OW 9442   0.959   4.374   5.195
 2848SOL    HW1 9443   1.037   4.315   5.218
 2848SOL    HW2 9444   0.887   4.319   5.155
 2849SOL     OW 9445   4.959   0.528   2.748
 2849SOL    HW1 9446   4.893   0.454   2.757
 2849SOL    HW2 9447   4.961   0.560   2.653
 2850SOL     OW 9448   2.392   6.495   2.775
 2850SOL    HW1 9449   2.428   6.574   2.826
 2850SOL    HW2 9450   2.297   6.480   2.801
 2851SOL     OW 9451   3.831   3.662   0.808
 2851SOL    HW1 9452   3.800   3.599   0.880
 2851SOL    HW2 9453   3.835   3.755   0.844
 2852SOL     OW 9454   6.107   3.968   5.768
 2852SOL    HW1 9455   6.105   3.869   5.759
 2852SOL    HW2 9456   6.015   4.004   5.750
 2853SOL     OW 9457   0.504   3.848   6.530
 2853SOL    HW1 9458   0.412   3.862   6.494
 2853SOL    HW2 9459   0.569   3.843   6.454
 2854SOL     OW 9460   3.371   1.642   6.078
 2854SOL    HW1 9461   3.313   1.692   6.142
 2854SOL    HW2 9462   3.462   1.629   6.118
 2855SOL     OW 9463   2.154   1.576   4.750
 2855SOL    HW1 9464   2.173   1.524   4.666
 2855SOL    HW2 9465   2.179   1.521   4.830
 2856SOL     OW 9466   0.477   4.731   3.453
 2856SOL    HW1 9467   0.414   4.805   3.427
 2856SOL    HW2 9468   0.425   4.653   3.486
 2857SOL     OW 9469   7.012   3.353   0.336
 2857SOL    HW1 9470   6.917   3.367   0.307
 2857SOL    HW2 9471   0.052   3.389   0.265
 2858SOL     OW 9472   4.551   5.285   2.772
 2858SOL    HW1 9473   4.466   5.301   2.823
 2858SOL    HW2 9474   4.530   5.245   2.683
 2859SOL     OW 9475   5.407   4.729   1.408
 2859SOL    HW1 9476   5.429   4.674   1.327
 2859SOL    HW2 9477   5.320   4.699   1.446
 2860SOL     OW 9478   1.091   6.030   2.107
 2860SOL    HW1 9479   1.007   6.080   2.086
 2860SOL    HW2 9480   1.070   5.934   2.124
 2861SOL     OW 9481   4.630   5.393   0.038
 2861SOL    HW1 9482   4.559   5.376   6.991
 2861SOL    HW2 9483   4.710   5.337   0.018
 2862SOL     OW 9484   3.801   3.069   0.427
 2862SOL    HW1 9485   3.769   3.136   0.360
 2862SOL    HW2 9486   3.891   3.096   0.460
 2863SOL     OW 9487   5.667   7.014   5.522
 2863SOL    HW1 9488   5.763   0.014   5.507
 2863SOL    HW2 9489   5.624   0.063   5.578
 2864SOL     OW 9490   4.457   3.965   0.477
 2864SOL    HW1 9491   4.439   3.971   0.575
 2864SOL    HW2 9492   4.519   3.889   0.459
 2865SOL     OW 9493   4.918   5.398   4.699
 2865SOL    HW1 9494   4.948   5.358   4.613
 2865SOL    HW2 9495   4.998   5.417   4.756
 2866SOL     OW 9496   4.348   4.545   6.999
 2866SOL    HW1 9497   4.301   4.484   0.041
 2866SOL    HW2 9498   4.446   4.528   7.004
 2867SOL     OW 9499   5.585   6.124   1.662
 2867SOL    HW1 9500   5.613   6.182   1.739
 2867SOL    HW2 9501   5.521   6.173   1.604
 2868SOL     OW 9502   1.305   1.568   6.301
 2868SOL    HW1 9503   1.215   1.595   6.268
 2868SOL    HW2 9504   1.361   1.649   6.318
 2869SOL     OW 9505   5.619   5.802   4.478
 2869SOL    HW1 9506   5.580   5.723   4.431
 2869SOL    HW2 9507   5.545   5.859   4.514
 2870SOL     OW 9508   6.747   1.960   1.362
 2870SOL    HW1 9509   6.841   1.926   1.368
 2870SOL    HW2 9510   6.698   1.909   1.292
 2871SOL     OW 9511   4.982   1.840   1.479
 2871SOL    HW1 9512   4.948   1.829   1.385
 2871SOL    HW2 9513   4.911   1.883   1.535
 2872SOL     OW 9514   2.857   2.178   2.453
 2872SOL    HW1 9515   2.930   2.188   2.386
 2872SOL    HW2 9516   2.841   2.081   2.471
 2873SOL     OW 9517   0.836   6.285   1.429
 2873SOL    HW1 9518   0.852   6.189   1.453
 2873SOL    HW2 9519   0.741   6.296   1.399
 2874SOL     OW 9520   2.600   0.948   2.880
 2874SOL    HW1 9521   2.595   1.045   2.903
 2874SOL    HW2 9522   2.514   0.903   2.904
 2875SOL     OW 9523   3.235   6.688   3.157
 2875SOL    HW1 9524   3.255   6.758   3.087
 2875SOL    HW2 9525   3.199   6.733   3.239
 2876SOL     OW 9526   1.390   6.009   2.035
 2876SOL    HW1 9527   1.303   5.966   2.010
 2876SOL    HW2 9528   1.390   6.027   2.134
 2877SOL     OW 9529   1.088   1.519   6.115
 2877SOL    HW1 9530   1.000   1.566   6.118
 2877SOL    HW2 9531   1.156   1.581   6.076
 2878SOL     OW 9532   4.121   3.455   4.137
 2878SOL    HW1 9533   4.146   3.458   4.040
 2878SOL    HW2 9534   4.144   3.366   4.175
 2879SOL     OW 9535   4.696   4.201   0.355
 2879SOL    HW1 9536   4.700   4.179   0.452
 2879SOL    HW2 9537   4.622   4.267   0.339
 2880SOL     OW 9538   1.228   1.218   4.823
 2880SOL    HW1 9539   1.302   1.283   4.801
 2880SOL    HW2 9540   1.140   1.265   4.814
 2881SOL     OW 9541   4.195   6.204   6.639
 2881SOL    HW1 9542   4.211   6.196   6.737
 2881SOL    HW2 9543   4.111   6.256   6.622
 2882SOL     OW 9544   4.861   6.517   0.069
 2882SOL    HW1 9545   4.931   6.515   0.141
 2882SOL    HW2 9546   4.894   6.571   7.014
 2883SOL     OW 9547   6.408   6.178   3.654
 2883SOL    HW1 9548   6.391   6.115   3.729
 2883SOL    HW2 9549   6.416   6.271   3.690
 2884SOL     OW 9550   0.415   5.235   2.874
 2884SOL    HW1 9551   0.460   5.164   2.819
 2884SOL    HW2 9552   0.316   5.224   2.868
 2885SOL     OW 9553   0.676   2.917   3.042
 2885SOL    HW1 9554   0.599   2.969   3.006
 2885SOL    HW2 9555   0.746   2.981   3.076
 2886SOL     OW 9556   2.598   4.419   5.864
 2886SOL    HW1 9557   2.520   4.478   5.886
 2886SOL    HW2 9558   2.623   4.432   5.768
 2887SOL     OW 9559   1.355   5.841   3.481
 2887SOL    HW1 9560   1.320   5.792   3.401
 2887SOL    HW2 9561   1.454   5.827   3.488
 2888SOL     OW 9562   6.336   6.837   0.360
 2888SOL    HW1 9563   6.263   6.768   0.360
 2888SOL    HW2 9564   6.330   6.892   0.444
 2889SOL     OW 9565   3.594   6.331   3.252
 2889SOL    HW1 9566   3.648   6.250   3.228
 2889SOL    HW2 9567   3.521   6.343   3.185
 2890SOL     OW 9568   2.852   0.445   1.487
 2890SOL    HW1 9569   2.761   0.484   1.477
 2890SOL    HW2 9570   2.846   0.351   1.519
 2891SOL     OW 9571   0.552   2.691   3.599
 2891SOL    HW1 9572   0.627   2.656   3.655
 2891SOL    HW2 9573   0.536   2.787   3.621
 2892SOL     OW 9574   6.993   3.674   2.256
 2892SOL    HW1 9575   6.901   3.713   2.250
 2892SOL    HW2 9576   0.012   3.670   2.165
 2893SOL     OW 9577   0.003   5.631   4.510
 2893SOL    HW1 9578   6.968   5.566   4.561
 2893SOL    HW2 9579   6.971   5.674   4.438
 2894SOL     OW 9580   1.368   5.252   2.545
 2894SOL    HW1 9581   1.445   5.219   2.491
 2894SOL    HW2 9582   1.398   5.328   2.603
 2895SOL     OW 9583   3.968   6.592   6.205
 2895SOL    HW1 9584   3.999   6.632   6.119
 2895SOL    HW2 9585   4.034   6.613   6.278
 2896SOL     OW 9586   5.788   6.008   4.984
 2896SOL    HW1 9587   5.776   5.921   4.936
 2896SOL    HW2 9588   5.797   6.082   4.918
 2897SOL     OW 9589   3.999   4.823   2.952
 2897SOL    HW1 9590   4.082   4.768   2.946
 2897SOL    HW2 9591   3.990   4.859   3.045
 2898SOL     OW 9592   5.624   3.741   2.394
 2898SOL    HW1 9593   5.634   3.759   2.296
 2898SOL    HW2 9594   5.629   3.827   2.444
 2899SOL     OW 9595   0.237   3.220   0.932
 2899SOL    HW1 9596   0.189   3.191   1.015
 2899SOL    HW2 9597   0.179   3.282   0.880
 2900SOL     OW 9598   2.779   4.129   6.839
 2900SOL    HW1 9599   2.749   4.222   6.859
 2900SOL    HW2 9600   2.699   4.068   6.836
 2901SOL     OW 9601   1.311   3.843   3.341
 2901SOL    HW1 9602   1.275   3.924   3.296
 2901SOL    HW2 9603   1.408   3.831   3.316
 2902SOL     OW 9604   0.728   5.883   3.816
 2902SOL    HW1 9605   0.636   5.849   3.798
 2902SOL    HW2 9606   0.737   5.976   3.780
 2903SOL     OW 9607   4.924   5.820   0.928
 2903SOL    HW1 9608   4.909   5.788   0.835
 2903SOL    HW2 9609   5.020   5.808   0.953
 2904SOL     OW 9610   2.242   4.413   5.097
 2904SOL    HW1 9611   2.272   4.339   5.157
 2904SOL    HW2 9612   2.176   4.379   5.030
 2905SOL     OW 9613   0.359   4.834   1.750
 2905SOL    HW1 9614   0.399   4.863   1.663
 2905SOL    HW2 9615   0.294   4.760   1.734
 2906SOL     OW 9616   6.052   5.800   3.109
 2906SOL    HW1 9617   6.142   5.806   3.067
 2906SOL    HW2 9618   6.061   5.796   3.209
 2907SOL     OW 9619   0.594   0.531   3.655
 2907SOL    HW1 9620   0.687   0.528   3.692
 2907SOL    HW2 9621   0.598   0.545   3.557
 2908SOL     OW 9622   4.262   0.029   2.658
 2908SOL    HW1 9623   4.325   0.038   2.735
 2908SOL    HW2 9624   4.258   6.955   2.629
 2909SOL     OW 9625   1.078   5.785   2.456
 2909SOL    HW1 9626   1.039   5.799   2.364
 2909SOL    HW2 9627   1.014   5.730   2.510
 2910SOL     OW 9628   0.043   0.912   3.453
 2910SOL    HW1 9629   0.124   0.921   3.395
 2910SOL    HW2 9630   6.983   0.913   3.396
 2911SOL     OW 9631   6.912   4.064   4.634
 2911SOL    HW1 9632   6.935   4.028   4.543
 2911SOL    HW2 9633   6.962   4.148   4.651
 2912SOL     OW 9634   0.127   6.917   1.349
 2912SOL    HW1 9635   0.069   6.839   1.374
 2912SOL    HW2 9636   0.212   6.883   1.308
 2913SOL     OW 9637   2.349   5.736   1.143
 2913SOL    HW1 9638   2.276   5.805   1.147
 2913SOL    HW2 9639   2.354   5.698   1.051
 2914SOL     OW 9640   4.979   5.106   0.155
 2914SOL    HW1 9641   4.893   5.085   0.202
 2914SOL    HW2 9642   5.000   5.035   0.089
 2915SOL     OW 9643   3.145   1.101   3.001
 2915SOL    HW1 9644   3.119   1.187   3.044
 2915SOL    HW2 9645   3.163   1.115   2.904
 2916SOL     OW 9646   1.110   5.704   0.149
 2916SOL    HW1 9647   1.180   5.666   0.210
 2916SOL    HW2 9648   1.039   5.750   0.203
 2917SOL     OW 9649   2.868   6.690   4.062
 2917SOL    HW1 9650   2.964   6.698   4.035
 2917SOL    HW2 9651   2.862   6.639   4.148
 2918SOL     OW 9652   6.017   3.465   1.598
 2918SOL    HW1 9653   6.001   3.553   1.644
 2918SOL    HW2 9654   6.093   3.418   1.644
 2919SOL     OW 9655   1.251   5.492   4.109
 2919SOL    HW1 9656   1.328   5.498   4.171
 2919SOL    HW2 9657   1.216   5.583   4.089
 2920SOL     OW 9658   1.893   1.928   2.251
 2920SOL    HW1 9659   1.873   1.939   2.154
 2920SOL    HW2 9660   1.808   1.908   2.300
 2921SOL     OW 9661   0.587   0.477   5.324
 2921SOL    HW1 9662   0.665   0.501   5.266
 2921SOL    HW2 9663   0.616   0.409   5.392
 2922SOL     OW 9664   3.731   0.592   3.240
 2922SOL    HW1 9665   3.719   0.493   3.248
 2922SOL    HW2 9666   3.656   0.631   3.187
 2923SOL     OW 9667   5.861   5.541   4.500
 2923SOL    HW1 9668   5.860   5.556   4.401
 2923SOL    HW2 9669   5.880   5.444   4.519
 2924SOL     OW 9670   6.004   2.688   5.334
 2924SOL    HW1 9671   6.017   2.642   5.423
 2924SOL    HW2 9672   5.946   2.768   5.346
 2925SOL     OW 9673   4.856   0.144   5.976
 2925SOL    HW1 9674   4.866   0.093   6.062
 2925SOL    HW2 9675   4.849   0.080   5.900
 2926SOL     OW 9676   0.220   2.061   4.425
 2926SOL    HW1 9677   0.271   1.975   4.419
 2926SOL    HW2 9678   0.128   2.048   4.389
 2927SOL     OW 9679   1.240   2.507   1.950
 2927SOL    HW1 9680   1.196   2.447   2.018
 2927SOL    HW2 9681   1.328   2.538   1.986
 2928SOL     OW 9682   0.329   2.852   0.666
 2928SOL    HW1 9683   0.245   2.836   0.614
 2928SOL    HW2 9684   0.348   2.772   0.723
 2929SOL     OW 9685   1.883   2.573   5.015
 2929SOL    HW1 9686   1.955   2.504   5.007
 2929SOL    HW2 9687   1.794   2.528   5.024
 2930SOL     OW 9688   6.650   5.077   5.636
 2930SOL    HW1 9689   6.559   5.109   5.609
 2930SOL    HW2 9690   6.718   5.147   5.614
 2931SOL     OW 9691   4.700   4.156   5.720
 2931SOL    HW1 9692   4.662   4.248   5.709
 2931SOL    HW2 9693   4.706   4.134   5.817
 2932SOL     OW 9694   6.630   5.529   0.519
 2932SOL    HW1 9695   6.687   5.464   0.468
 2932SOL    HW2 9696   6.546   5.484   0.548
 2933SOL     OW 9697   1.661   0.395   0.986
 2933SOL    HW1 9698   1.673   0.486   1.026
 2933SOL    HW2 9699   1.572   0.359   1.012
 2934SOL     OW 9700   4.126   4.655   0.537
 2934SOL    HW1 9701   4.168   4.685   0.623
 2934SOL    HW2 9702   4.197   4.642   0.468
 2935SOL     OW 9703   6.746   2.326   5.974
 2935SOL    HW1 9704   6.683   2.258   6.012
 2935SOL    HW2 9705   6.832   2.281   5.949
 2936SOL     OW 9706   4.684   6.830   1.465
 2936SOL    HW1 9707   4.606   6.881   1.430
 2936SOL    HW2 9708   4.706   6.755   1.401
 2937SOL     OW 9709   4.851   5.320   2.178
 2937SOL    HW1 9710   4.848   5.245   2.112
 2937SOL    HW2 9711   4.816   5.288   2.266
 2938SOL     OW 9712   6.172   5.724   6.699
 2938SOL    HW1 9713   6.185   5.740   6.797
 2938SOL    HW2 9714   6.166   5.812   6.652
 2939SOL     OW 9715   0.039   5.819   0.765
 2939SOL    HW1 9716   6.965   5.815   0.793
 2939SOL    HW2 9717   0.047   5.877   0.683
 2940SOL     OW 9718   4.415   6.024   3.787
 2940SOL    HW1 9719   4.499   6.014   3.734
 2940SOL    HW2 9720   4.343   5.969   3.746
 2941SOL     OW 9721   1.668   3.379   3.938
 2941SOL    HW1 9722   1.590   3.435   3.965
 2941SOL    HW2 9723   1.710   3.339   4.020
 2942SOL     OW 9724   3.678   1.819   1.058
 2942SOL    HW1 9725   3.633   1.731   1.043
 2942SOL    HW2 9726   3.610   1.889   1.080
 2943SOL     OW 9727   5.969   4.186   3.484
 2943SOL    HW1 9728   6.029   4.111   3.457
 2943SOL    HW2 9729   6.022   4.271   3.491
 2944SOL     OW 9730   1.759   6.032   3.280
 2944SOL    HW1 9731   1.673   6.084   3.274
 2944SOL    HW2 9732   1.835   6.096   3.289
 2945SOL     OW 9733   5.114   4.699   1.440
 2945SOL    HW1 9734   5.112   4.764   1.515
 2945SOL    HW2 9735   5.026   4.700   1.392
 2946SOL     OW 9736   3.158   3.886   6.063
 2946SOL    HW1 9737   3.161   3.787   6.054
 2946SOL    HW2 9738   3.217   3.927   5.993
 2947SOL     OW 9739   5.852   6.888   0.661
 2947SOL    HW1 9740   5.868   6.820   0.589
 2947SOL    HW2 9741   5.882   6.978   0.630
 2948SOL     OW 9742   6.566   3.892   2.443
 2948SOL    HW1 9743   6.505   3.953   2.495
 2948SOL    HW2 9744   6.536   3.888   2.348
 2949SOL     OW 9745   1.498   6.871   0.971
 2949SOL    HW1 9746   1.569   6.845   0.906
 2949SOL    HW2 9747   1.432   6.797   0.981
 2950SOL     OW 9748   5.549   5.022   2.801
 2950SOL    HW1 9749   5.599   5.079   2.736
 2950SOL    HW2 9750   5.460   5.063   2.819
 2951SOL     OW 9751   6.237   1.777   1.711
 2951SOL    HW1 9752   6.148   1.809   1.742
 2951SOL    HW2 9753   6.224   1.708   1.640
 2952SOL     OW 9754   5.613   1.551   4.289
 2952SOL    HW1 9755   5.597   1.453   4.278
 2952SOL    HW2 9756   5.709   1.567   4.311
 2953SOL     OW 9757   0.855   5.815   4.201
 2953SOL    HW1 9758   0.792   5.890   4.179
 2953SOL    HW2 9759   0.833   5.735   4.145
 2954SOL     OW 9760   0.090   4.651   5.736
 2954SOL    HW1 9761   0.189   4.660   5.727
 2954SOL    HW2 9762   0.057   4.581   5.673
 2955SOL     OW 9763   2.045   4.934   6.898
 2955SOL    HW1 9764   2.004   4.851   6.935
 2955SOL    HW2 9765   2.049   4.928   6.799
 2956SOL     OW 9766   6.077   4.434   3.457
 2956SOL    HW1 9767   6.139   4.397   3.388
 2956SOL    HW2 9768   6.125   4.501   3.513
 2957SOL     OW 9769   2.242   5.275   1.486
 2957SOL    HW1 9770   2.167   5.307   1.429
 2957SOL    HW2 9771   2.288   5.199   1.441
 2958SOL     OW 9772   2.677   5.296   3.112
 2958SOL    HW1 9773   2.701   5.290   3.209
 2958SOL    HW2 9774   2.580   5.276   3.100
 2959SOL     OW 9775   6.960   2.740   3.360
 2959SOL    HW1 9776   0.026   2.768   3.398
 2959SOL    HW2 9777   6.898   2.717   3.434
 2960SOL     OW 9778   4.452   0.730   0.615
 2960SOL    HW1 9779   4.432   0.748   0.712
 2960SOL    HW2 9780   4.550   0.715   0.603
 2961SOL     OW 9781   5.627   4.022   2.409
 2961SOL    HW1 9782   5.596   4.023   2.314
 2961SOL    HW2 9783   5.654   4.114   2.436
 2962SOL     OW 9784   0.031   6.727   2.468
 2962SOL    HW1 9785   0.010   6.649   2.526
 2962SOL    HW2 9786   0.116   6.711   2.419
 2963SOL     OW 9787   1.783   1.297   4.898
 2963SOL    HW1 9788   1.865   1.281   4.843
 2963SOL    HW2 9789   1.744   1.386   4.874
 2964SOL     OW 9790   1.238   2.226   0.222
 2964SOL    HW1 9791   1.323   2.221   0.275
 2964SOL    HW2 9792   1.245   2.167   0.142
 2965SOL     OW 9793   1.230   0.236   4.623
 2965SOL    HW1 9794   1.329   0.228   4.626
 2965SOL    HW2 9795   1.188   0.146   4.639
 2966SOL     OW 9796   4.112   5.605   3.380
 2966SOL    HW1 9797   4.118   5.628   3.283
 2966SOL    HW2 9798   4.140   5.510   3.393
 2967SOL     OW 9799   6.367   7.011   5.377
 2967SOL    HW1 9800   6.320   0.006   5.463
 2967SOL    HW2 9801   6.395   6.915   5.372
 2968SOL     OW 9802   1.806   2.343   1.158
 2968SOL    HW1 9803   1.904   2.364   1.161
 2968SOL    HW2 9804   1.757   2.404   1.221
 2969SOL     OW 9805   5.235   3.340   4.472
 2969SOL    HW1 9806   5.208   3.245   4.459
 2969SOL    HW2 9807   5.335   3.347   4.466
 2970SOL     OW 9808   2.494   2.640   4.175
 2970SOL    HW1 9809   2.582   2.655   4.131
 2970SOL    HW2 9810   2.502   2.565   4.242
 2971SOL     OW 9811   5.392   3.172   6.360
 2971SOL    HW1 9812   5.316   3.236   6.345
 2971SOL    HW2 9813   5.360   3.079   6.342
 2972SOL     OW 9814   5.812   4.714   0.017
 2972SOL    HW1 9815   5.772   4.627   7.012
 2972SOL    HW2 9816   5.771   4.788   6.986
 2973SOL     OW 9817   4.912   0.593   2.434
 2973SOL    HW1 9818   4.836   0.642   2.392
 2973SOL    HW2 9819   4.899   0.495   2.422
 2974SOL     OW 9820   4.645   5.587   3.235
 2974SOL    HW1 9821   4.702   5.542   3.166
 2974SOL    HW2 9822   4.558   5.615   3.193
 2975SOL     OW 9823   4.896   4.278   4.116
 2975SOL    HW1 9824   4.801   4.309   4.117
 2975SOL    HW2 9825   4.930   4.279   4.022
 2976SOL     OW 9826   4.116   2.094   2.159
 2976SOL    HW1 9827   4.172   2.021   2.121
 2976SOL    HW2 9828   4.174   2.155   2.214
 2977SOL     OW 9829   1.214   0.886   1.641
 2977SOL    HW1 9830   1.154   0.810   1.664
 2977SOL    HW2 9831   1.309   0.859   1.656
 2978SOL     OW 9832   4.814   5.219   6.715
 2978SOL    HW1 9833   4.848   5.236   6.622
 2978SOL    HW2 9834   4.718   5.192   6.711
 2979SOL     OW 9835   3.316   0.744   4.128
 2979SOL    HW1 9836   3.322   0.734   4.029
 2979SOL    HW2 9837   3.391   0.694   4.171
 2980SOL     OW 9838   3.608   4.233   6.030
 2980SOL    HW1 9839   3.619   4.152   6.088
 2980SOL    HW2 9840   3.549   4.300   6.075
 2981SOL     OW 9841   1.246   0.888   0.960
 2981SOL    HW1 9842   1.217   0.959   0.896
 2981SOL    HW2 9843   1.246   0.924   1.053
 2982SOL     OW 9844   0.712   0.899   1.474
 2982SOL    HW1 9845   0.783   0.939   1.416
 2982SOL    HW2 9846   0.677   0.969   1.536
 2983SOL     OW 9847   5.692   2.870   6.131
 2983SOL    HW1 9848   5.688   2.943   6.200
 2983SOL    HW2 9849   5.606   2.819   6.131
 2984SOL     OW 9850   0.254   4.877   0.337
 2984SOL    HW1 9851   0.289   4.928   0.259
 2984SOL    HW2 9852   0.308   4.794   0.350
 2985SOL     OW 9853   0.122   6.385   4.316
 2985SOL    HW1 9854   0.184   6.430   4.252
 2985SOL    HW2 9855   0.169   6.372   4.403
 2986SOL     OW 9856   3.508   3.967   2.575
 2986SOL    HW1 9857   3.446   4.034   2.534
 2986SOL    HW2 9858   3.574   4.014   2.634
 2987SOL     OW 9859   2.067   0.868   4.213
 2987SOL    HW1 9860   2.049   0.950   4.267
 2987SOL    HW2 9861   2.107   0.894   4.125
 2988SOL     OW 9862   0.693   2.135   0.244
 2988SOL    HW1 9863   0.697   2.197   0.166
 2988SOL    HW2 9864   0.775   2.078   0.245
 2989SOL     OW 9865   5.475   3.985   4.214
 2989SOL    HW1 9866   5.446   3.899   4.255
 2989SOL    HW2 9867   5.465   4.059   4.280
 2990SOL     OW 9868   5.333   1.835   4.544
 2990SOL    HW1 9869   5.343   1.844   4.643
 2990SOL    HW2 9870   5.240   1.806   4.523
 2991SOL     OW 9871   6.340   4.144   0.597
 2991SOL    HW1 9872   6.366   4.236   0.570
 2991SOL    HW2 9873   6.350   4.135   0.697
 2992SOL     OW 9874   0.627   3.644   5.354
 2992SOL    HW1 9875   0.721   3.610   5.343
 2992SOL    HW2 9876   0.566   3.567   5.374
 2993SOL     OW 9877   1.133   4.238   0.151
 2993SOL    HW1 9878   1.085   4.165   0.102
 2993SOL    HW2 9879   1.073   4.317   0.161
 2994SOL     OW 9880   4.223   7.019   6.653
 2994SOL    HW1 9881   4.223   0.097   6.659
 2994SOL    HW2 9882   4.315   6.987   6.630
 2995SOL     OW 9883   4.913   0.319   1.186
 2995SOL    HW1 9884   4.835   0.282   1.237
 2995SOL    HW2 9885   4.980   0.355   1.250
 2996SOL     OW 9886   0.126   1.739   4.777
 2996SOL    HW1 9887   0.097   1.652   4.738
 2996SOL    HW2 9888   0.130   1.808   4.705
 2997SOL     OW 9889   5.299   0.203   3.783
 2997SOL    HW1 9890   5.241   0.285   3.784
 2997SOL    HW2 9891   5.394   0.229   3.766
 2998SOL     OW 9892   2.465   1.719   2.400
 2998SOL    HW1 9893   2.500   1.628   2.380
 2998SOL    HW2 9894   2.448   1.768   2.315
 2999SOL     OW 9895   2.529   4.626   0.363
 2999SOL    HW1 9896   2.616   4.590   0.332
 2999SOL    HW2 9897   2.544   4.714   0.409
 3000SOL     OW 9898   3.094   3.812   4.776
 3000SOL    HW1 9899   3.104   3.842   4.680
 3000SOL    HW2 9900   3.158   3.738   4.794
 3001SOL     OW 9901   6.154   0.325   5.663
 3001SOL    HW1 9902   6.195   0.341   5.753
 3001SOL    HW2 9903   6.204   0.251   5.616
 3002SOL     OW 9904   2.620   1.604   1.625
 3002SOL    HW1 9905   2.541   1.663   1.606
 3002SOL    HW2 9906   2.650   1.617   1.719
 3003SOL     OW 9907   1.401   6.540   0.031
 3003SOL    HW1 9908   1.396   6.635   7.022
 3003SOL    HW2 9909   1.497   6.515   0.045
 3004SOL     OW 9910   2.431   6.035   3.777
 3004SOL    HW1 9911   2.466   6.061   3.867
 3004SOL    HW2 9912   2.349   5.979   3.787
 3005SOL     OW 9913   0.744   2.796   5.552
 3005SOL    HW1 9914   0.784   2.721   5.500
 3005SOL    HW2 9915   0.794   2.881   5.532
 3006SOL     OW 9916   5.454   1.566   5.818
 3006SOL    HW1 9917   5.372   1.587   5.871
 3006SOL    HW2 9918   5.533   1.567   5.879
 3007SOL     OW 9919   5.211   4.266   6.588
 3007SOL    HW1 9920   5.115   4.284   6.569
 3007SOL    HW2 9921   5.244   4.331   6.657
 3008SOL     OW 9922   4.306   2.224   6.215
 3008SOL    HW1 9923   4.351   2.268   6.138
 3008SOL    HW2 9924   4.285   2.129   6.192
 3009SOL     OW 9925   0.583   3.427   2.020
 3009SOL    HW1 9926   0.634   3.468   1.944
 3009SOL    HW2 9927   0.648   3.383   2.083
 3010SOL     OW 9928   4.229   5.854   6.334
 3010SOL    HW1 9929   4.285   5.773   6.317
 3010SOL    HW2 9930   4.256   5.896   6.421
 3011SOL     OW 9931   6.791   6.843   0.759
 3011SOL    HW1 9932   6.862   6.914   0.752
 3011SOL    HW2 9933   6.731   6.849   0.679
 3012SOL     OW 9934   2.643   2.696   6.152
 3012SOL    HW1 9935   2.670   2.762   6.083
 3012SOL    HW2 9936   2.591   2.622   6.109
 3013SOL     OW 9937   0.780   5.201   4.985
 3013SOL    HW1 9938   0.873   5.207   4.948
 3013SOL    HW2 9939   0.734   5.289   4.977
 3014SOL     OW 9940   4.971   0.189   5.285
 3014SOL    HW1 9941   4.907   0.232   5.221
 3014SOL    HW2 9942   4.968   0.090   5.274
 3015SOL     OW 9943   1.353   1.284   0.318
 3015SOL    HW1 9944   1.404   1.251   0.238
 3015SOL    HW2 9945   1.368   1.382   0.329
 3016SOL     OW 9946   1.991   6.671   4.453
 3016SOL    HW1 9947   1.999   6.682   4.552
 3016SOL    HW2 9948   1.915   6.727   4.419
 3017SOL     OW 9949   6.983   5.506   1.103
 3017SOL    HW1 9950   0.036   5.557   1.061
 3017SOL    HW2 9951   6.950   5.437   1.039
 3018SOL     OW 9952   3.321   0.085   0.425
 3018SOL    HW1 9953   3.390   0.132   0.369
 3018SOL    HW2 9954   3.279   0.012   0.371
 3019SOL     OW 9955   2.041   0.518   5.084
 3019SOL    HW1 9956   2.077   0.448   5.022
 3019SOL    HW2 9957   1.992   0.588   5.032
 3020SOL     OW 9958   5.299   3.278   6.936
 3020SOL    HW1 9959   5.284   3.238   0.004
 3020SOL    HW2 9960   5.365   3.353   6.943
 3021SOL     OW 9961   3.624   6.262   4.265
 3021SOL    HW1 9962   3.641   6.170   4.299
 3021SOL    HW2 9963   3.527   6.271   4.243
 3022SOL     OW 9964   4.208   5.471   4.002
 3022SOL    HW1 9965   4.167   5.560   4.023
 3022SOL    HW2 9966   4.213   5.459   3.903
 3023SOL     OW 9967   4.834   6.683   3.019
 3023SOL    HW1 9968   4.805   6.666   2.925
 3023SOL    HW2 9969   4.756   6.716   3.072
 3024SOL     OW 9970   0.459   6.698   6.674
 3024SOL    HW1 9971   0.557   6.683   6.668
 3024SOL    HW2 9972   0.425   6.666   6.763
 3025SOL     OW 9973   3.641   6.341   0.707
 3025SOL    HW1 9974   3.597   6.251   0.708
 3025SOL    HW2 9975   3.590   6.403   0.648
 3026SOL     OW 9976   6.340   0.704   0.551
 3026SOL    HW1 9977   6.364   0.778   0.488
 3026SOL    HW2 9978   6.251   0.667   0.526
 3027SOL     OW 9979   4.667   1.301   1.475
 3027SOL    HW1 9980   4.727   1.235   1.521
 3027SOL    HW2 9981   4.686   1.300   1.377
 3028SOL     OW 9982   2.964   4.286   5.692
 3028SOL    HW1 9983   2.972   4.188   5.710
 3028SOL    HW2 9984   2.927   4.301   5.601
 3029SOL     OW 9985   0.510   2.627   4.202
 3029SOL    HW1 9986   0.602   2.593   4.219
 3029SOL    HW2 9987   0.444   2.571   4.253
 3030SOL     OW 9988   2.566   2.791   0.427
 3030SOL    HW1 9989   2.490   2.789   0.362
 3030SOL    HW2 9990   2.583   2.699   0.462
 3031SOL     OW 9991   1.079   6.382   1.436
 3031SOL    HW1 9992   1.092   6.444   1.359
 3031SOL    HW2 9993   0.985   6.348   1.437
 3032SOL     OW 9994   2.055   0.846   2.198
 3032SOL    HW1 9995   2.122   0.900   2.146
 3032SOL    HW2 9996   2.043   0.757   2.154
 3033SOL     OW 9997   6.718   1.968   4.580
 3033SOL    HW1 9998   6.673   1.906   4.644
 3033SOL    HW2 9999   6.653   1.995   4.509
 3034SOL     OW10000   0.144   5.203   3.214
 3034SOL    HW110001   0.225   5.159   3.175
 3034SOL    HW210002   0.170   5.289   3.258
 3035SOL     OW10003   1.077   2.686   6.586
 3035SOL    HW110004   1.039   2.744   6.515
 3035SOL    HW210005   1.147   2.737   6.637
 3036SOL     OW10006   3.369   2.400   6.295
 3036SOL    HW110007   3.419   2.323   6.256
 3036SOL    HW210008   3.363   2.473   6.227
 3037SOL     OW10009   0.162   5.608   0.167
 3037SOL    HW110010   0.098   5.616   0.243
 3037SOL    HW210011   0.215   5.523   0.176
 3038SOL     OW10012   5.386   4.095   6.478
 3038SOL    HW110013   5.427   4.039   6.550
 3038SOL    HW210014   5.320   4.159   6.518
 3039SOL     OW10015   6.562   3.974   6.765
 3039SOL    HW110016   6.552   3.972   6.666
 3039SOL    HW210017   6.616   4.054   6.792
 3040SOL     OW10018   4.714   3.761   5.756
 3040SOL    HW110019   4.789   3.750   5.691
 3040SOL    HW210020   4.752   3.769   5.848
 3041SOL     OW10021   2.198   4.223   4.885
 3041SOL    HW110022   2.248   4.153   4.937
 3041SOL    HW210023   2.126   4.179   4.832
 3042SOL     OW10024   0.397   5.123   3.148
 3042SOL    HW110025   0.444   5.140   3.235
 3042SOL    HW210026   0.442   5.175   3.075
 3043SOL     OW10027   3.096   4.816   0.626
 3043SOL    HW110028   3.080   4.718   0.620
 3043SOL    HW210029   3.053   4.862   0.547
 3044SOL     OW10030   3.355   3.370   5.069
 3044SOL    HW110031   3.326   3.305   5.140
 3044SOL    HW210032   3.437   3.418   5.099
 3045SOL     OW10033   4.882   1.599   2.076
 3045SOL    HW110034   4.815   1.659   2.031
 3045SOL    HW210035   4.870   1.606   2.175
 3046SOL     OW10036   5.613   5.659   0.935
 3046SOL    HW110037   5.689   5.619   0.985
 3046SOL    HW210038   5.645   5.739   0.884
 3047SOL     OW10039   6.180   0.965   6.250
 3047SOL    HW110040   6.128   0.960   6.164
 3047SOL    HW210041   6.167   0.881   6.302
 3048SOL     OW10042   3.682   3.902   0.854
 3048SOL    HW110043   3.683   3.907   0.754
 3048SOL    HW210044   3.600   3.853   0.884
 3049SOL     OW10045   1.465   0.752   4.221
 3049SOL    HW110046   1.467   0.758   4.321
 3049SOL    HW210047   1.382   0.798   4.187
 3050SOL     OW10048   2.768   2.313   1.497
 3050SOL    HW110049   2.699   2.298   1.568
 3050SOL    HW210050   2.847   2.254   1.514
 3051SOL     OW10051   2.428   6.036   5.601
 3051SOL    HW110052   2.421   6.132   5.573
 3051SOL    HW210053   2.367   6.019   5.678
 3052SOL     OW10054   6.693   6.360   2.485
 3052SOL    HW110055   6.767   6.334   2.547
 3052SOL    HW210056   6.714   6.447   2.442
 3053SOL     OW10057   1.552   4.253   0.217
 3053SOL    HW110058   1.521   4.159   0.202
 3053SOL    HW210059   1.570   4.296   0.128
 3054SOL     OW10060   5.628   1.442   2.699
 3054SOL    HW110061   5.571   1.491   2.633
 3054SOL    HW210062   5.634   1.346   2.672
 3055SOL     OW10063   6.000   5.614   6.352
 3055SOL    HW110064   6.083   5.669   6.347
 3055SOL    HW210065   5.922   5.672   6.378
 3056SOL     OW10066   4.645   1.319   6.014
 3056SOL    HW110067   4.630   1.267   5.930
 3056SOL    HW210068   4.731   1.369   6.008
 3057SOL     OW10069   5.726   5.084   3.020
 3057SOL    HW110070   5.746   5.181   3.007
 3057SOL    HW210071   5.650   5.057   2.961
 3058SOL     OW10072   0.458   4.704   6.768
 3058SOL    HW110073   0.547   4.661   6.754
 3058SOL    HW210074   0.437   4.707   6.866
 3059SOL     OW10075   2.256   2.477   4.329
 3059SOL    HW110076   2.293   2.504   4.418
 3059SOL    HW210077   2.180   2.538   4.306
 3060SOL     OW10078   5.210   5.022   5.126
 3060SOL    HW110079   5.138   5.072   5.077
 3060SOL    HW210080   5.259   4.963   5.062
 3061SOL     OW10081   5.278   5.436   5.100
 3061SOL    HW110082   5.183   5.454   5.075
 3061SOL    HW210083   5.321   5.380   5.029
 3062SOL     OW10084   4.966   4.599   1.978
 3062SOL    HW110085   4.974   4.697   1.996
 3062SOL    HW210086   4.909   4.585   1.896
 3063SOL     OW10087   0.276   4.387   1.525
 3063SOL    HW110088   0.216   4.335   1.587
 3063SOL    HW210089   0.252   4.366   1.431
 3064SOL     OW10090   4.543   1.702   6.854
 3064SOL    HW110091   4.559   1.605   6.834
 3064SOL    HW210092   4.624   1.755   6.831
 3065SOL     OW10093   0.035   1.352   6.571
 3065SOL    HW110094   0.043   1.360   6.471
 3065SOL    HW210095   7.020   1.437   6.608
 3066SOL     OW10096   5.188   6.002   5.953
 3066SOL    HW110097   5.101   6.028   5.996
 3066SOL    HW210098   5.228   6.081   5.908
 3067SOL     OW10099   1.908   2.396   5.860
 3067SOL    HW110100   1.915   2.299   5.884
 3067SOL    HW210101   1.817   2.415   5.825
 3068SOL     OW10102   0.569   0.924   0.953
 3068SOL    HW110103   0.509   0.983   0.899
 3068SOL    HW210104   0.572   0.957   1.047
 3069SOL     OW10105   5.194   0.106   2.695
 3069SOL    HW110106   5.181   0.197   2.735
 3069SOL    HW210107   5.235   0.045   2.762
 3070SOL     OW10108   2.759   0.759   1.311
 3070SOL    HW110109   2.840   0.701   1.315
 3070SOL    HW210110   2.706   0.749   1.395
 3071SOL     OW10111   7.018   3.520   4.099
 3071SOL    HW110112   0.003   3.434   4.150
 3071SOL    HW210113   6.967   3.504   4.014
 3072SOL     OW10114   1.979   6.777   6.002
 3072SOL    HW110115   1.939   6.830   6.077
 3072SOL    HW210116   2.043   6.710   6.040
 3073SOL     OW10117   6.061   5.129   0.928
 3073SOL    HW110118   6.128   5.201   0.947
 3073SOL    HW210119   6.078   5.091   0.837
 3074SOL     OW10120   1.966   3.337   1.018
 3074SOL    HW110121   1.929   3.252   0.980
 3074SOL    HW210122   2.066   3.331   1.021
 3075SOL     OW10123   2.571   5.148   2.460
 3075SOL    HW110124   2.559   5.235   2.508
 3075SOL    HW210125   2.635   5.090   2.510
 3076SOL     OW10126   7.019   0.494   4.786
 3076SOL    HW110127   6.920   0.495   4.796
 3076SOL    HW210128   0.040   0.531   4.868
 3077SOL     OW10129   6.462   3.880   2.166
 3077SOL    HW110130   6.390   3.821   2.133
 3077SOL    HW210131   6.495   3.938   2.092
 3078SOL     OW10132   6.764   2.793   1.673
 3078SOL    HW110133   6.843   2.833   1.719
 3078SOL    HW210134   6.701   2.757   1.741
 3079SOL     OW10135   2.337   3.363   5.425
 3079SOL    HW110136   2.330   3.286   5.361
 3079SOL    HW210137   2.330   3.329   5.518
 3080SOL     OW10138   4.361   5.179   0.814
 3080SOL    HW110139   4.312   5.104   0.859
 3080SOL    HW210140   4.437   5.209   0.872
 3081SOL     OW10141   1.545   4.148   0.772
 3081SOL    HW110142   1.599   4.221   0.813
 3081SOL    HW210143   1.557   4.149   0.673
 3082SOL     OW10144   4.421   5.351   4.929
 3082SOL    HW110145   4.503   5.319   4.976
 3082SOL    HW210146   4.402   5.445   4.955
 3083SOL     OW10147   3.001   5.390   2.438
 3083SOL    HW110148   3.086   5.403   2.491
 3083SOL    HW210149   2.930   5.356   2.499
 3084SOL     OW10150   0.415   3.252   3.816
 3084SOL    HW110151   0.448   3.158   3.808
 3084SOL    HW210152   0.392   3.272   3.911
 3085SOL     OW10153   5.355   4.339   1.014
 3085SOL    HW110154   5.449   4.342   1.048
 3085SOL    HW210155   5.336   4.422   0.961
 3086SOL     OW10156   5.819   0.693   6.442
 3086SOL    HW110157   5.907   0.670   6.400
 3086SOL    HW210158   5.759   0.614   6.438
 3087SOL     OW10159   2.856   0.409   2.556
 3087SOL    HW110160   2.881   0.313   2.544
 3087SOL    HW210161   2.772   0.428   2.505
 3088SOL     OW10162   1.463   2.647   5.291
 3088SOL    HW110163   1.392   2.702   5.335
 3088SOL    HW210164   1.528   2.708   5.245
 3089SOL     OW10165   4.436   6.778   4.825
 3089SOL    HW110166   4.449   6.866   4.779
 3089SOL    HW210167   4.455   6.704   4.760
 3090SOL     OW10168   1.678   1.874   2.388
 3090SOL    HW110169   1.616   1.796   2.400
 3090SOL    HW210170   1.659   1.942   2.458
 3091SOL     OW10171   0.782   2.502   0.994
 3091SOL    HW110172   0.791   2.412   1.037
 3091SOL    HW210173   0.740   2.491   0.904
 3092SOL     OW10174   6.616   0.473   2.321
 3092SOL    HW110175   6.544   0.541   2.336
 3092SOL    HW210176   6.609   0.402   2.391
 3093SOL     OW10177   4.768   4.881   6.818
 3093SOL    HW110178   4.728   4.892   6.727
 3093SOL    HW210179   4.781   4.971   6.859
 3094SOL     OW10180   3.252   1.326   5.937
 3094SOL    HW110181   3.246   1.420   5.969
 3094SOL    HW210182   3.197   1.267   5.995
 3095SOL     OW10183   1.953   3.439   5.241
 3095SOL    HW110184   1.970   3.385   5.324
 3095SOL    HW210185   2.034   3.439   5.184
 3096SOL     OW10186   0.393   3.933   4.309
 3096SOL    HW110187   0.370   3.837   4.325
 3096SOL    HW210188   0.447   3.967   4.385
 3097SOL     OW10189   5.339   2.304   6.178
 3097SOL    HW110190   5.398   2.240   6.128
 3097SOL    HW210191   5.381   2.395   6.178
 3098SOL     OW10192   2.066   2.604   2.438
 3098SOL    HW110193   2.161   2.612   2.469
 3098SOL    HW210194   2.005   2.633   2.512
 3099SOL     OW10195   0.027   6.041   3.868
 3099SOL    HW110196   0.034   6.082   3.959
 3099SOL    HW210197   0.071   5.951   3.868
 3100SOL     OW10198   6.821   5.363   2.262
 3100SOL    HW110199   6.738   5.387   2.211
 3100SOL    HW210200   6.796   5.330   2.353
 3101SOL     OW10201   3.972   6.160   5.669
 3101SOL    HW110202   4.007   6.078   5.715
 3101SOL    HW210203   3.994   6.241   5.722
 3102SOL     OW10204   0.079   4.556   0.893
 3102SOL    HW110205   0.010   4.495   0.854
 3102SOL    HW210206   0.035   4.638   0.930
 3103SOL     OW10207   3.320   0.157   1.798
 3103SOL    HW110208   3.337   0.246   1.841
 3103SOL    HW210209   3.222   0.137   1.800
 3104SOL     OW10210   4.737   0.144   6.300
 3104SOL    HW110211   4.796   0.218   6.270
 3104SOL    HW210212   4.775   0.057   6.269
 3105SOL     OW10213   5.821   3.358   0.190
 3105SOL    HW110214   5.762   3.417   0.245
 3105SOL    HW210215   5.856   3.284   0.248
 3106SOL     OW10216   5.951   0.146   5.248
 3106SOL    HW110217   6.046   0.131   5.223
 3106SOL    HW210218   5.934   0.107   5.339
 3107SOL     OW10219   3.963   1.001   6.054
 3107SOL    HW110220   3.896   1.070   6.025
 3107SOL    HW210221   4.005   0.960   5.974
 3108SOL     OW10222   1.912   4.233   3.650
 3108SOL    HW110223   1.977   4.183   3.593
 3108SOL    HW210224   1.939   4.224   3.746
 3109SOL     OW10225   6.642   5.990   3.857
 3109SOL    HW110226   6.604   5.928   3.789
 3109SOL    HW210227   6.574   6.006   3.929
 3110SOL     OW10228   1.406   4.483   3.377
 3110SOL    HW110229   1.308   4.486   3.358
 3110SOL    HW210230   1.453   4.553   3.323
 3111SOL     OW10231   5.936   4.380   4.250
 3111SOL    HW110232   5.962   4.303   4.192
 3111SOL    HW210233   5.879   4.443   4.197
 3112SOL     OW10234   3.868   2.058   6.913
 3112SOL    HW110235   3.825   2.127   6.854
 3112SOL    HW210236   3.967   2.067   6.906
 3113SOL     OW10237   2.116   5.676   3.811
 3113SOL    HW110238   2.144   5.772   3.821
 3113SOL    HW210239   2.048   5.654   3.881
 3114SOL     OW10240   4.381   0.704   6.786
 3114SOL    HW110241   4.399   0.751   6.873
 3114SOL    HW210242   4.357   0.772   6.716
 3115SOL     OW10243   4.395   5.036   5.230
 3115SOL    HW110244   4.429   5.008   5.141
 3115SOL    HW210245   4.471   5.061   5.289
 3116SOL     OW10246   0.462   1.994   1.207
 3116SOL    HW110247   0.431   1.991   1.112
 3116SOL    HW210248   0.404   1.937   1.264
 3117SOL     OW10249   4.866   1.628   5.757
 3117SOL    HW110250   4.770   1.601   5.755
 3117SOL    HW210251   4.873   1.724   5.784
 3118SOL     OW10252   1.704   1.147   3.243
 3118SOL    HW110253   1.663   1.058   3.228
 3118SOL    HW210254   1.647   1.201   3.304
 3119SOL     OW10255   4.633   4.429   5.690
 3119SOL    HW110256   4.555   4.469   5.739
 3119SOL    HW210257   4.702   4.499   5.674
 3120SOL     OW10258   1.982   6.704   4.768
 3120SOL    HW110259   2.063   6.758   4.789
 3120SOL    HW210260   1.925   6.695   4.849
 3121SOL     OW10261   4.437   1.258   4.671
 3121SOL    HW110262   4.519   1.221   4.626
 3121SOL    HW210263   4.406   1.339   4.623
 3122SOL     OW10264   3.811   5.296   4.930
 3122SOL    HW110265   3.807   5.320   5.027
 3122SOL    HW210266   3.861   5.367   4.880
 3123SOL     OW10267   2.611   1.605   3.742
 3123SOL    HW110268   2.641   1.680   3.800
 3123SOL    HW210269   2.513   1.589   3.756
 3124SOL     OW10270   5.269   6.959   3.701
 3124SOL    HW110271   5.176   6.989   3.679
 3124SOL    HW210272   5.324   0.015   3.729
 3125SOL     OW10273   1.381   2.296   5.524
 3125SOL    HW110274   1.301   2.342   5.485
 3125SOL    HW210275   1.421   2.235   5.456
 3126SOL     OW10276   6.023   4.805   4.775
 3126SOL    HW110277   6.104   4.810   4.715
 3126SOL    HW210278   6.051   4.771   4.865
 3127SOL     OW10279   0.102   1.517   4.636
 3127SOL    HW110280   0.082   1.437   4.693
 3127SOL    HW210281   0.169   1.492   4.566
 3128SOL     OW10282   4.397   0.739   0.349
 3128SOL    HW110283   4.416   0.649   0.310
 3128SOL    HW210284   4.418   0.738   0.446
 3129SOL     OW10285   4.537   3.183   0.739
 3129SOL    HW110286   4.473   3.110   0.713
 3129SOL    HW210287   4.559   3.175   0.836
 3130SOL     OW10288   0.920   4.567   1.781
 3130SOL    HW110289   0.864   4.497   1.736
 3130SOL    HW210290   0.885   4.658   1.756
 3131SOL     OW10291   6.743   4.115   2.762
 3131SOL    HW110292   6.821   4.175   2.744
 3131SOL    HW210293   6.740   4.041   2.695
 3132SOL     OW10294   3.929   4.582   6.959
 3132SOL    HW110295   3.997   4.653   6.978
 3132SOL    HW210296   3.937   4.553   6.864
 3133SOL     OW10297   3.972   0.680   3.608
 3133SOL    HW110298   4.057   0.727   3.629
 3133SOL    HW210299   3.939   0.710   3.518
 3134SOL     OW10300   4.222   5.238   2.704
 3134SOL    HW110301   4.160   5.268   2.632
 3134SOL    HW210302   4.232   5.310   2.772
 3135SOL     OW10303   5.007   6.753   6.124
 3135SOL    HW110304   4.991   6.674   6.183
 3135SOL    HW210305   5.073   6.729   6.053
 3136SOL     OW10306   6.265   1.654   2.972
 3136SOL    HW110307   6.206   1.587   3.017
 3136SOL    HW210308   6.330   1.606   2.913
 3137SOL     OW10309   6.510   6.956   6.746
 3137SOL    HW110310   6.489   6.858   6.737
 3137SOL    HW210311   6.588   6.967   6.807
 3138SOL     OW10312   5.669   5.210   4.038
 3138SOL    HW110313   5.588   5.252   4.079
 3138SOL    HW210314   5.744   5.211   4.105
 3139SOL     OW10315   2.420   5.225   0.933
 3139SOL    HW110316   2.381   5.191   1.019
 3139SOL    HW210317   2.472   5.308   0.952
 3140SOL     OW10318   7.013   6.803   6.578
 3140SOL    HW110319   6.999   6.777   6.482
 3140SOL    HW210320   0.046   6.886   6.582
 3141SOL     OW10321   6.504   2.387   6.481
 3141SOL    HW110322   6.466   2.438   6.557
 3141SOL    HW210323   6.437   2.320   6.449
 3142SOL     OW10324   5.095   1.025   2.635
 3142SOL    HW110325   5.067   0.939   2.592
 3142SOL    HW210326   5.194   1.025   2.647
 3143SOL     OW10327   6.392   1.369   0.518
 3143SOL    HW110328   6.320   1.435   0.495
 3143SOL    HW210329   6.429   1.391   0.608
 3144SOL     OW10330   3.991   3.797   6.304
 3144SOL    HW110331   3.961   3.892   6.313
 3144SOL    HW210332   3.932   3.738   6.359
 3145SOL     OW10333   0.603   6.174   1.582
 3145SOL    HW110334   0.587   6.147   1.487
 3145SOL    HW210335   0.630   6.271   1.585
 3146SOL     OW10336   0.367   0.273   4.933
 3146SOL    HW110337   0.454   0.298   4.977
 3146SOL    HW210338   0.386   0.215   4.854
 3147SOL     OW10339   4.201   4.926   6.628
 3147SOL    HW110340   4.143   4.897   6.552
 3147SOL    HW210341   4.235   5.019   6.610
 3148SOL     OW10342   7.011   5.383   2.938
 3148SOL    HW110343   0.060   5.327   2.896
 3148SOL    HW210344   6.921   5.344   2.920
 3149SOL     OW10345   3.169   1.024   0.549
 3149SOL    HW110346   3.195   0.928   0.540
 3149SOL    HW210347   3.115   1.036   0.632
 3150SOL     OW10348   6.948   5.837   5.065
 3150SOL    HW110349   6.958   5.853   5.163
 3150SOL    HW210350   6.859   5.795   5.047
 3151SOL     OW10351   6.061   1.585   5.889
 3151SOL    HW110352   6.107   1.577   5.978
 3151SOL    HW210353   6.091   1.669   5.844
 3152SOL     OW10354   1.166   2.572   6.110
 3152SOL    HW110355   1.087   2.611   6.155
 3152SOL    HW210356   1.137   2.523   6.028
 3153SOL     OW10357   6.218   5.064   1.393
 3153SOL    HW110358   6.218   4.972   1.434
 3153SOL    HW210359   6.149   5.068   1.321
 3154SOL     OW10360   4.789   1.552   1.049
 3154SOL    HW110361   4.724   1.604   1.105
 3154SOL    HW210362   4.795   1.593   0.958
 3155SOL     OW10363   0.422   4.742   1.145
 3155SOL    HW110364   0.408   4.819   1.084
 3155SOL    HW210365   0.335   4.697   1.162
 3156SOL     OW10366   3.604   4.150   2.009
 3156SOL    HW110367   3.699   4.136   2.037
 3156SOL    HW210368   3.601   4.177   1.913
 3157SOL     OW10369   0.494   1.896   5.168
 3157SOL    HW110370   0.469   1.877   5.263
 3157SOL    HW210371   0.434   1.844   5.106
 3158SOL     OW10372   2.540   1.480   5.442
 3158SOL    HW110373   2.465   1.534   5.482
 3158SOL    HW210374   2.627   1.509   5.482
 3159SOL     OW10375   6.164   6.632   0.331
 3159SOL    HW110376   6.108   6.624   0.248
 3159SOL    HW210377   6.235   6.562   0.330
 3160SOL     OW10378   2.399   0.210   6.196
 3160SOL    HW110379   2.450   0.162   6.125
 3160SOL    HW210380   2.301   0.192   6.184
 3161SOL     OW10381   2.293   2.929   3.089
 3161SOL    HW110382   2.381   2.886   3.071
 3161SOL    HW210383   2.289   2.958   3.184
 3162SOL     OW10384   1.829   5.341   0.813
 3162SOL    HW110385   1.927   5.322   0.813
 3162SOL    HW210386   1.806   5.397   0.734
 3163SOL     OW10387   4.972   3.976   0.587
 3163SOL    HW110388   4.963   4.061   0.536
 3163SOL    HW210389   4.925   3.902   0.538
 3164SOL     OW10390   2.691   5.961   3.132
 3164SOL    HW110391   2.729   5.968   3.224
 3164SOL    HW210392   2.663   5.866   3.115
 3165SOL     OW10393   0.653   6.036   0.830
 3165SOL    HW110394   0.699   6.043   0.919
 3165SOL    HW210395   0.554   6.048   0.843
 3166SOL     OW10396   4.060   0.822   5.380
 3166SOL    HW110397   3.980   0.761   5.382
 3166SOL    HW210398   4.139   0.774   5.418
 3167SOL     OW10399   5.187   3.515   0.543
 3167SOL    HW110400   5.164   3.612   0.529
 3167SOL    HW210401   5.256   3.487   0.476
 3168SOL     OW10402   4.308   1.829   0.565
 3168SOL    HW110403   4.231   1.808   0.626
 3168SOL    HW210404   4.342   1.744   0.525
 3169SOL     OW10405   2.001   4.629   2.285
 3169SOL    HW110406   1.923   4.567   2.294
 3169SOL    HW210407   1.967   4.721   2.266
 3170SOL     OW10408   3.270   5.252   3.251
 3170SOL    HW110409   3.340   5.315   3.219
 3170SOL    HW210410   3.312   5.177   3.302
 3171SOL     OW10411   5.310   2.964   3.120
 3171SOL    HW110412   5.251   2.984   3.041
 3171SOL    HW210413   5.389   3.026   3.119
 3172SOL     OW10414   0.204   4.654   0.652
 3172SOL    HW110415   0.284   4.606   0.616
 3172SOL    HW210416   0.168   4.603   0.730
 3173SOL     OW10417   3.675   1.737   0.589
 3173SOL    HW110418   3.678   1.665   0.519
 3173SOL    HW210419   3.712   1.702   0.675
 3174SOL     OW10420   2.998   3.234   6.094
 3174SOL    HW110421   3.076   3.198   6.146
 3174SOL    HW210422   3.029   3.259   6.002
 3175SOL     OW10423   0.017   0.450   3.882
 3175SOL    HW110424   6.991   0.532   3.851
 3175SOL    HW210425   6.976   0.373   3.883
 3176SOL     OW10426   1.292   4.666   5.103
 3176SOL    HW110427   1.210   4.721   5.088
 3176SOL    HW210428   1.320   4.622   5.017
 3177SOL     OW10429   5.753   3.839   3.156
 3177SOL    HW110430   5.757   3.747   3.194
 3177SOL    HW210431   5.699   3.839   3.072
 3178SOL     OW10432   0.020   0.824   1.280
 3178SOL    HW110433   0.105   0.844   1.328
 3178SOL    HW210434   7.018   0.901   1.221
 3179SOL     OW10435   0.946   1.974   1.822
 3179SOL    HW110436   0.955   1.898   1.886
 3179SOL    HW210437   0.856   1.971   1.778
 3180SOL     OW10438   6.766   5.713   7.001
 3180SOL    HW110439   6.859   5.679   7.005
 3180SOL    HW210440   6.753   5.783   0.050
 3181SOL     OW10441   0.643   1.354   4.745
 3181SOL    HW110442   0.672   1.298   4.823
 3181SOL    HW210443   0.579   1.301   4.689
 3182SOL     OW10444   2.741   0.259   0.236
 3182SOL    HW110445   2.834   0.259   0.200
 3182SOL    HW210446   2.742   0.243   0.334
 3183SOL     OW10447   4.641   4.681   2.040
 3183SOL    HW110448   4.672   4.594   1.999
 3183SOL    HW210449   4.712   4.750   2.027
 3184SOL     OW10450   0.421   2.189   4.297
 3184SOL    HW110451   0.504   2.214   4.347
 3184SOL    HW210452   0.348   2.169   4.362
 3185SOL     OW10453   0.173   5.917   6.015
 3185SOL    HW110454   0.226   5.901   6.098
 3185SOL    HW210455   0.230   5.965   5.948
 3186SOL     OW10456   0.465   1.573   6.320
 3186SOL    HW110457   0.398   1.516   6.272
 3186SOL    HW210458   0.529   1.514   6.370
 3187SOL     OW10459   4.046   5.896   3.213
 3187SOL    HW110460   4.070   5.959   3.139
 3187SOL    HW210461   4.017   5.948   3.293
 3188SOL     OW10462   2.011   4.762   5.534
 3188SOL    HW110463   2.104   4.745   5.499
 3188SOL    HW210464   1.947   4.761   5.457
 3189SOL     OW10465   2.804   1.459   0.200
 3189SOL    HW110466   2.873   1.529   0.185
 3189SOL    HW210467   2.750   1.483   0.281
 3190SOL     OW10468   6.909   5.952   4.273
 3190SOL    HW110469   6.817   5.983   4.293
 3190SOL    HW210470   6.958   6.021   4.220
 3191SOL     OW10471   4.538   5.559   1.849
 3191SOL    HW110472   4.553   5.657   1.838
 3191SOL    HW210473   4.619   5.517   1.889
 3192SOL     OW10474   6.424   2.094   2.200
 3192SOL    HW110475   6.384   2.008   2.232
 3192SOL    HW210476   6.444   2.088   2.103
 3193SOL     OW10477   3.532   0.187   5.516
 3193SOL    HW110478   3.497   0.113   5.575
 3193SOL    HW210479   3.566   0.262   5.573
 3194SOL     OW10480   1.117   1.385   5.607
 3194SOL    HW110481   1.203   1.337   5.593
 3194SOL    HW210482   1.040   1.325   5.583
 3195SOL     OW10483   0.141   1.648   1.582
 3195SOL    HW110484   0.117   1.745   1.588
 3195SOL    HW210485   0.113   1.602   1.666
 3196SOL     OW10486   6.580   0.105   4.595
 3196SOL    HW110487   6.525   0.132   4.516
 3196SOL    HW210488   6.583   0.181   4.660
 3197SOL     OW10489   2.139   0.594   6.198
 3197SOL    HW110490   2.161   0.670   6.258
 3197SOL    HW210491   2.055   0.615   6.146
 3198SOL     OW10492   6.554   2.330   3.816
 3198SOL    HW110493   6.510   2.418   3.832
 3198SOL    HW210494   6.589   2.327   3.722
 3199SOL     OW10495   5.553   4.343   3.121
 3199SOL    HW110496   5.633   4.285   3.136
 3199SOL    HW210497   5.538   4.400   3.202
 3200SOL     OW10498   5.343   3.287   3.844
 3200SOL    HW110499   5.293   3.372   3.859
 3200SOL    HW210500   5.407   3.299   3.768
 3201SOL     OW10501   6.090   4.087   2.531
 3201SOL    HW110502   6.022   4.042   2.474
 3201SOL    HW210503   6.084   4.186   2.520
 3202SOL     OW10504   1.085   5.280   0.753
 3202SOL    HW110505   1.034   5.200   0.786
 3202SOL    HW210506   1.110   5.338   0.831
 3203SOL     OW10507   4.245   6.043   1.069
 3203SOL    HW110508   4.276   6.134   1.094
 3203SOL    HW210509   4.245   5.985   1.151
 3204SOL     OW10510   2.802   1.094   3.747
 3204SOL    HW110511   2.734   1.139   3.804
 3204SOL    HW210512   2.858   1.163   3.701
 3205SOL     OW10513   5.561   3.028   5.550
 3205SOL    HW110514   5.595   3.034   5.644
 3205SOL    HW210515   5.570   2.934   5.517
 3206SOL     OW10516   2.744   2.812   1.611
 3206SOL    HW110517   2.786   2.902   1.621
 3206SOL    HW210518   2.650   2.815   1.645
 3207SOL     OW10519   1.087   0.085   5.239
 3207SOL    HW110520   1.150   0.080   5.161
 3207SOL    HW210521   1.118   0.022   5.310
 3208SOL     OW10522   6.168   6.097   5.390
 3208SOL    HW110523   6.191   6.006   5.357
 3208SOL    HW210524   6.085   6.129   5.345
 3209SOL     OW10525   4.853   5.763   5.981
 3209SOL    HW110526   4.852   5.859   5.955
 3209SOL    HW210527   4.870   5.706   5.901
 3210SOL     OW10528   6.587   4.784   1.370
 3210SOL    HW110529   6.615   4.838   1.450
 3210SOL    HW210530   6.661   4.721   1.346
 3211SOL     OW10531   1.314   6.055   0.052
 3211SOL    HW110532   1.341   6.150   0.032
 3211SOL    HW210533   1.363   6.023   0.132
 3212SOL     OW10534   2.503   6.655   2.983
 3212SOL    HW110535   2.596   6.640   3.015
 3212SOL    HW210536   2.444   6.681   3.060
 3213SOL     OW10537   1.346   1.106   6.306
 3213SOL    HW110538   1.281   1.095   6.381
 3213SOL    HW210539   1.391   1.195   6.313
 3214SOL     OW10540   3.989   1.282   3.068
 3214SOL    HW110541   3.903   1.260   3.022
 3214SOL    HW210542   3.971   1.308   3.162
 3215SOL     OW10543   1.777   2.815   0.819
 3215SOL    HW110544   1.838   2.777   0.889
 3215SOL    HW210545   1.718   2.742   0.784
 3216SOL     OW10546   5.897   4.223   0.797
 3216SOL    HW110547   5.961   4.223   0.720
 3216SOL    HW210548   5.823   4.159   0.777
 3217SOL     OW10549   0.804   4.742   3.062
 3217SOL    HW110550   0.765   4.749   3.153
 3217SOL    HW210551   0.901   4.719   3.068
 3218SOL     OW10552   6.598   2.067   3.128
 3218SOL    HW110553   6.675   2.118   3.166
 3218SOL    HW210554   6.543   2.127   3.071
 3219SOL     OW10555   6.630   0.684   5.192
 3219SOL    HW110556   6.651   0.587   5.189
 3219SOL    HW210557   6.555   0.704   5.129
 3220SOL     OW10558   6.606   5.265   6.915
 3220SOL    HW110559   6.695   5.307   6.933
 3220SOL    HW210560   6.555   5.323   6.851
 3221SOL     OW10561   4.292   0.058   2.054
 3221SOL    HW110562   4.314   0.000   2.133
 3221SOL    HW210563   4.371   0.112   2.028
 3222SOL     OW10564   2.778   1.315   2.561
 3222SOL    HW110565   2.695   1.368   2.540
 3222SOL    HW210566   2.772   1.225   2.516
 3223SOL     OW10567   1.567   6.558   1.065
 3223SOL    HW110568   1.534   6.568   0.971
 3223SOL    HW210569   1.523   6.480   1.108
 3224SOL     OW10570   4.631   2.417   4.677
 3224SOL    HW110571   4.648   2.326   4.715
 3224SOL    HW210572   4.551   2.457   4.722
 3225SOL     OW10573   4.186   0.510   3.997
 3225SOL    HW110574   4.174   0.442   4.069
 3225SOL    HW210575   4.257   0.576   4.024
 3226SOL     OW10576   0.566   0.431   2.037
 3226SOL    HW110577   0.598   0.472   1.952
 3226SOL    HW210578   0.485   0.480   2.069
 3227SOL     OW10579   4.425   2.883   5.933
 3227SOL    HW110580   4.361   2.845   6.000
 3227SOL    HW210581   4.376   2.908   5.850
 3228SOL     OW10582   0.906   4.423   0.422
 3228SOL    HW110583   0.958   4.338   0.424
 3228SOL    HW210584   0.812   4.404   0.393
 3229SOL     OW10585   2.444   1.701   6.586
 3229SOL    HW110586   2.405   1.701   6.678
 3229SOL    HW210587   2.382   1.656   6.523
 3230SOL     OW10588   2.649   5.889   5.553
 3230SOL    HW110589   2.727   5.928   5.504
 3230SOL    HW210590   2.578   5.959   5.564
 3231SOL     OW10591   2.809   1.183   1.866
 3231SOL    HW110592   2.899   1.173   1.908
 3231SOL    HW210593   2.803   1.273   1.822
 3232SOL     OW10594   4.078   5.677   4.271
 3232SOL    HW110595   3.990   5.659   4.226
 3232SOL    HW210596   4.072   5.762   4.323
 3233SOL     OW10597   0.951   2.302   0.058
 3233SOL    HW110598   1.010   2.236   0.103
 3233SOL    HW210599   0.904   2.258   7.003
 3234SOL     OW10600   2.706   3.167   0.713
 3234SOL    HW110601   2.648   3.108   0.770
 3234SOL    HW210602   2.768   3.219   0.772
 3235SOL     OW10603   6.713   6.276   2.045
 3235SOL    HW110604   6.616   6.274   2.069
 3235SOL    HW210605   6.762   6.209   2.101
 3236SOL     OW10606   2.813   4.457   0.526
 3236SOL    HW110607   2.816   4.516   0.445
 3236SOL    HW210608   2.748   4.383   0.511
 3237SOL     OW10609   6.038   1.289   5.371
 3237SOL    HW110610   6.098   1.361   5.338
 3237SOL    HW210611   6.062   1.266   5.466
 3238SOL     OW10612   6.281   5.296   0.959
 3238SOL    HW110613   6.254   5.392   0.946
 3238SOL    HW210614   6.327   5.263   0.876
 3239SOL     OW10615   0.274   0.320   3.925
 3239SOL    HW110616   0.203   0.253   3.906
 3239SOL    HW210617   0.255   0.405   3.875
 3240SOL     OW10618   0.427   0.793   6.125
 3240SOL    HW110619   0.425   0.751   6.216
 3240SOL    HW210620   0.469   0.730   6.060
 3241SOL     OW10621   5.294   1.520   6.782
 3241SOL    HW110622   5.345   1.449   6.831
 3241SOL    HW210623   5.264   1.590   6.847
 3242SOL     OW10624   4.774   4.194   5.448
 3242SOL    HW110625   4.744   4.188   5.543
 3242SOL    HW210626   4.741   4.280   5.409
 3243SOL     OW10627   4.369   5.330   5.751
 3243SOL    HW110628   4.447   5.283   5.792
 3243SOL    HW210629   4.352   5.292   5.660
 3244SOL     OW10630   5.798   6.624   6.658
 3244SOL    HW110631   5.759   6.602   6.748
 3244SOL    HW210632   5.777   6.719   6.635
 3245SOL     OW10633   4.169   1.466   3.991
 3245SOL    HW110634   4.122   1.390   4.037
 3245SOL    HW210635   4.185   1.442   3.895
 3246SOL     OW10636   0.711   0.284   2.294
 3246SOL    HW110637   0.680   0.236   2.376
 3246SOL    HW210638   0.632   0.304   2.236
 3247SOL     OW10639   0.405   4.052   2.538
 3247SOL    HW110640   0.449   4.065   2.450
 3247SOL    HW210641   0.460   4.095   2.610
 3248SOL     OW10642   5.581   2.167   3.081
 3248SOL    HW110643   5.668   2.119   3.068
 3248SOL    HW210644   5.592   2.239   3.149
 3249SOL     OW10645   3.678   3.547   3.496
 3249SOL    HW110646   3.726   3.499   3.421
 3249SOL    HW210647   3.654   3.639   3.466
 3250SOL     OW10648   5.315   6.108   2.311
 3250SOL    HW110649   5.256   6.048   2.256
 3250SOL    HW210650   5.377   6.052   2.365
 3251SOL     OW10651   2.720   1.149   4.601
 3251SOL    HW110652   2.671   1.063   4.615
 3251SOL    HW210653   2.810   1.129   4.561
 3252SOL     OW10654   2.766   1.675   4.293
 3252SOL    HW110655   2.769   1.667   4.393
 3252SOL    HW210656   2.674   1.704   4.265
 3253SOL     OW10657   6.379   3.032   1.009
 3253SOL    HW110658   6.474   3.039   0.979
 3253SOL    HW210659   6.331   3.116   0.986
 3254SOL     OW10660   5.912   0.808   0.638
 3254SOL    HW110661   5.996   0.847   0.677
 3254SOL    HW210662   5.915   0.816   0.538
 3255SOL     OW10663   5.912   4.757   1.661
 3255SOL    HW110664   5.994   4.793   1.616
 3255SOL    HW210665   5.910   4.787   1.756
 3256SOL     OW10666   4.586   2.470   1.207
 3256SOL    HW110667   4.499   2.471   1.258
 3256SOL    HW210668   4.585   2.394   1.143
 3257SOL     OW10669   2.717   2.142   2.708
 3257SOL    HW110670   2.753   2.076   2.643
 3257SOL    HW210671   2.645   2.099   2.762
 3258SOL     OW10672   2.408   5.788   3.516
 3258SOL    HW110673   2.481   5.854   3.530
 3258SOL    HW210674   2.319   5.833   3.524
 3259SOL     OW10675   5.122   4.227   4.479
 3259SOL    HW110676   5.057   4.156   4.452
 3259SOL    HW210677   5.183   4.191   4.551
 3260SOL     OW10678   2.294   4.433   1.421
 3260SOL    HW110679   2.281   4.510   1.483
 3260SOL    HW210680   2.383   4.392   1.438
 3261SOL     OW10681   4.395   0.533   3.176
 3261SOL    HW110682   4.331   0.471   3.132
 3261SOL    HW210683   4.344   0.597   3.234
 3262SOL     OW10684   3.814   2.153   2.770
 3262SOL    HW110685   3.796   2.224   2.702
 3262SOL    HW210686   3.898   2.104   2.746
 3263SOL     OW10687   2.383   1.531   3.072
 3263SOL    HW110688   2.425   1.598   3.011
 3263SOL    HW210689   2.296   1.567   3.106
 3264SOL     OW10690   2.478   5.311   0.117
 3264SOL    HW110691   2.573   5.334   0.094
 3264SOL    HW210692   2.438   5.386   0.171
 3265SOL     OW10693   5.988   5.383   5.962
 3265SOL    HW110694   6.023   5.470   5.926
 3265SOL    HW210695   5.927   5.341   5.895
 3266SOL     OW10696   3.050   4.914   0.356
 3266SOL    HW110697   3.074   4.828   0.313
 3266SOL    HW210698   3.103   4.988   0.316
 3267SOL     OW10699   4.237   0.041   0.971
 3267SOL    HW110700   4.285   0.007   1.053
 3267SOL    HW210701   4.229   0.140   0.976
 3268SOL     OW10702   6.600   4.538   1.554
 3268SOL    HW110703   6.506   4.574   1.556
 3268SOL    HW210704   6.650   4.572   1.633
 3269SOL     OW10705   1.084   4.933   2.388
 3269SOL    HW110706   1.036   4.960   2.304
 3269SOL    HW210707   1.019   4.890   2.451
 3270SOL     OW10708   0.825   2.588   5.415
 3270SOL    HW110709   0.821   2.579   5.316
 3270SOL    HW210710   0.804   2.500   5.457
 3271SOL     OW10711   0.316   3.399   2.054
 3271SOL    HW110712   0.415   3.412   2.049
 3271SOL    HW210713   0.270   3.476   2.011
 3272SOL     OW10714   4.330   6.018   0.135
 3272SOL    HW110715   4.372   5.955   0.201
 3272SOL    HW210716   4.380   6.104   0.134
 3273SOL     OW10717   4.455   3.757   6.097
 3273SOL    HW110718   4.541   3.808   6.101
 3273SOL    HW210719   4.432   3.736   6.002
 3274SOL     OW10720   6.119   1.058   0.030
 3274SOL    HW110721   6.167   1.130   0.080
 3274SOL    HW210722   6.027   1.089   0.008
 3275SOL     OW10723   4.317   0.379   1.373
 3275SOL    HW110724   4.317   0.477   1.350
 3275SOL    HW210725   4.291   0.326   1.293
 3276SOL     OW10726   4.733   0.117   0.353
 3276SOL    HW110727   4.660   0.147   0.414
 3276SOL    HW210728   4.789   0.195   0.327
 3277SOL     OW10729   3.216   1.742   1.774
 3277SOL    HW110730   3.280   1.819   1.770
 3277SOL    HW210731   3.191   1.715   1.681
 3278SOL     OW10732   0.301   0.296   6.932
 3278SOL    HW110733   0.363   0.315   6.856
 3278SOL    HW210734   0.352   0.255   7.008
 3279SOL     OW10735   4.460   6.481   0.987
 3279SOL    HW110736   4.386   6.423   1.021
 3279SOL    HW210737   4.423   6.572   0.966
 3280SOL     OW10738   5.387   3.746   4.346
 3280SOL    HW110739   5.311   3.790   4.396
 3280SOL    HW210740   5.350   3.680   4.281
 3281SOL     OW10741   7.007   4.307   1.984
 3281SOL    HW110742   7.020   4.371   2.060
 3281SOL    HW210743   6.983   4.358   1.902
 3282SOL     OW10744   0.678   4.009   5.154
 3282SOL    HW110745   0.767   3.963   5.159
 3282SOL    HW210746   0.627   3.975   5.075
 3283SOL     OW10747   3.630   1.010   1.411
 3283SOL    HW110748   3.594   0.932   1.361
 3283SOL    HW210749   3.651   0.983   1.505
 3284SOL     OW10750   1.620   5.873   4.665
 3284SOL    HW110751   1.714   5.861   4.697
 3284SOL    HW210752   1.557   5.837   4.735
 3285SOL     OW10753   5.456   1.068   4.655
 3285SOL    HW110754   5.495   1.007   4.586
 3285SOL    HW210755   5.527   1.093   4.721
 3286SOL     OW10756   3.153   1.921   1.564
 3286SOL    HW110757   3.238   1.975   1.563
 3286SOL    HW210758   3.155   1.854   1.490
 3287SOL     OW10759   1.525   0.426   6.589
 3287SOL    HW110760   1.590   0.496   6.620
 3287SOL    HW210761   1.461   0.466   6.524
 3288SOL     OW10762   1.782   6.262   0.879
 3288SOL    HW110763   1.691   6.283   0.844
 3288SOL    HW210764   1.800   6.318   0.960
 3289SOL     OW10765   3.724   1.519   6.556
 3289SOL    HW110766   3.725   1.453   6.631
 3289SOL    HW210767   3.723   1.612   6.594
 3290SOL     OW10768   6.559   5.253   0.590
 3290SOL    HW110769   6.552   5.247   0.689
 3290SOL    HW210770   6.656   5.255   0.563
 3291SOL     OW10771   4.538   0.206   5.491
 3291SOL    HW110772   4.615   0.214   5.555
 3291SOL    HW210773   4.481   0.128   5.517
 3292SOL     OW10774   0.332   1.581   0.870
 3292SOL    HW110775   0.419   1.549   0.908
 3292SOL    HW210776   0.289   1.644   0.935
 3293SOL     OW10777   6.192   5.447   2.893
 3293SOL    HW110778   6.115   5.510   2.886
 3293SOL    HW210779   6.191   5.384   2.814
 3294SOL     OW10780   5.224   2.209   5.624
 3294SOL    HW110781   5.194   2.276   5.691
 3294SOL    HW210782   5.299   2.247   5.570
 3295SOL     OW10783   1.884   3.084   0.951
 3295SOL    HW110784   1.848   3.086   1.045
 3295SOL    HW210785   1.839   3.011   0.900
 3296SOL     OW10786   0.121   6.949   5.638
 3296SOL    HW110787   0.044   6.894   5.669
 3296SOL    HW210788   0.189   6.889   5.595
 3297SOL     OW10789   2.930   1.860   5.223
 3297SOL    HW110790   2.950   1.762   5.234
 3297SOL    HW210791   2.990   1.898   5.153
 3298SOL     OW10792   6.400   4.169   4.633
 3298SOL    HW110793   6.388   4.178   4.534
 3298SOL    HW210794   6.465   4.096   4.652
 3299SOL     OW10795   3.642   4.870   3.495
 3299SOL    HW110796   3.706   4.925   3.548
 3299SOL    HW210797   3.642   4.776   3.529
 3300SOL     OW10798   1.836   0.188   5.627
 3300SOL    HW110799   1.781   0.259   5.583
 3300SOL    HW210800   1.910   0.161   5.565
 3301SOL     OW10801   1.759   3.160   2.473
 3301SOL    HW110802   1.721   3.197   2.558
 3301SOL    HW210803   1.858   3.154   2.481
 3302SOL     OW10804   2.326   4.993   5.527
 3302SOL    HW110805   2.349   4.945   5.442
 3302SOL    HW210806   2.320   4.926   5.601
 3303SOL     OW10807   3.461   2.833   0.725
 3303SOL    HW110808   3.516   2.819   0.808
 3303SOL    HW210809   3.479   2.924   0.689
 3304SOL     OW10810   2.596   4.733   6.246
 3304SOL    HW110811   2.623   4.652   6.193
 3304SOL    HW210812   2.569   4.705   6.338
 3305SOL     OW10813   3.335   0.523   1.310
 3305SOL    HW110814   3.273   0.445   1.317
 3305SOL    HW210815   3.370   0.530   1.216
 3306SOL     OW10816   1.400   0.349   0.215
 3306SOL    HW110817   1.477   0.399   0.256
 3306SOL    HW210818   1.375   0.273   0.275
 3307SOL     OW10819   1.080   0.031   4.902
 3307SOL    HW110820   1.160   7.012   4.945
 3307SOL    HW210821   1.060   7.006   4.816
 3308SOL     OW10822   3.804   4.595   1.203
 3308SOL    HW110823   3.823   4.664   1.273
 3308SOL    HW210824   3.731   4.628   1.143
 3309SOL     OW10825   5.236   4.259   3.851
 3309SOL    HW110826   5.213   4.220   3.940
 3309SOL    HW210827   5.157   4.253   3.790
 3310SOL     OW10828   0.574   5.139   4.610
 3310SOL    HW110829   0.565   5.187   4.523
 3310SOL    HW210830   0.534   5.195   4.683
 3311SOL     OW10831   3.084   3.481   0.167
 3311SOL    HW110832   2.992   3.442   0.154
 3311SOL    HW210833   3.128   3.438   0.245
 3312SOL     OW10834   5.032   2.895   6.353
 3312SOL    HW110835   5.129   2.918   6.353
 3312SOL    HW210836   4.990   2.924   6.267
 3313SOL     OW10837   1.120   0.574   2.851
 3313SOL    HW110838   1.152   0.669   2.842
 3313SOL    HW210839   1.081   0.544   2.764
 3314SOL     OW10840   2.285   6.773   3.265
 3314SOL    HW110841   2.225   6.791   3.188
 3314SOL    HW210842   2.367   6.829   3.258
 3315SOL     OW10843   0.327   5.436   5.019
 3315SOL    HW110844   0.282   5.368   5.076
 3315SOL    HW210845   0.363   5.510   5.076
 3316SOL     OW10846   2.751   1.350   6.273
 3316SOL    HW110847   2.704   1.439   6.275
 3316SOL    HW210848   2.714   1.291   6.345
 3317SOL     OW10849   5.100   2.521   1.944
 3317SOL    HW110850   5.043   2.534   2.026
 3317SOL    HW210851   5.090   2.427   1.911
 3318SOL     OW10852   3.321   2.681   0.166
 3318SOL    HW110853   3.334   2.780   0.169
 3318SOL    HW210854   3.392   2.636   0.220
 3319SOL     OW10855   6.670   6.794   2.571
 3319SOL    HW110856   6.724   6.778   2.653
 3319SOL    HW210857   6.614   6.876   2.582
 3320SOL     OW10858   6.300   0.294   1.047
 3320SOL    HW110859   6.270   0.382   1.008
 3320SOL    HW210860   6.394   0.277   1.019
 3321SOL     OW10861   5.872   1.549   0.586
 3321SOL    HW110862   5.953   1.533   0.530
 3321SOL    HW210863   5.893   1.527   0.681
 3322SOL     OW10864   6.660   3.084   0.987
 3322SOL    HW110865   6.727   3.039   1.046
 3322SOL    HW210866   6.708   3.131   0.913
 3323SOL     OW10867   2.662   1.721   1.869
 3323SOL    HW110868   2.580   1.734   1.926
 3323SOL    HW210869   2.731   1.788   1.896
 3324SOL     OW10870   4.672   5.509   5.765
 3324SOL    HW110871   4.605   5.579   5.739
 3324SOL    HW210872   4.685   5.510   5.864
 3325SOL     OW10873   1.445   3.364   6.492
 3325SOL    HW110874   1.379   3.437   6.509
 3325SOL    HW210875   1.468   3.362   6.394
 3326SOL     OW10876   5.281   1.015   3.100
 3326SOL    HW110877   5.214   1.088   3.109
 3326SOL    HW210878   5.321   0.995   3.190
 3327SOL     OW10879   1.119   5.801   1.321
 3327SOL    HW110880   1.184   5.842   1.257
 3327SOL    HW210881   1.148   5.820   1.415
 3328SOL     OW10882   3.322   1.443   1.000
 3328SOL    HW110883   3.288   1.419   1.091
 3328SOL    HW210884   3.275   1.525   0.968
 3329SOL     OW10885   6.701   5.691   5.622
 3329SOL    HW110886   6.798   5.712   5.614
 3329SOL    HW210887   6.667   5.658   5.534
 3330SOL     OW10888   6.590   2.570   2.241
 3330SOL    HW110889   6.517   2.513   2.277
 3330SOL    HW210890   6.657   2.587   2.313
 3331SOL     OW10891   1.497   2.146   1.375
 3331SOL    HW110892   1.558   2.205   1.428
 3331SOL    HW210893   1.408   2.142   1.420
 3332SOL     OW10894   5.661   4.555   0.328
 3332SOL    HW110895   5.679   4.592   0.419
 3332SOL    HW210896   5.747   4.523   0.288
 3333SOL     OW10897   4.347   5.200   6.226
 3333SOL    HW110898   4.426   5.260   6.237
 3333SOL    HW210899   4.280   5.244   6.167
 3334SOL     OW10900   3.516   3.552   1.455
 3334SOL    HW110901   3.586   3.484   1.473
 3334SOL    HW210902   3.495   3.602   1.539
 3335SOL     OW10903   4.950   4.952   5.898
 3335SOL    HW110904   4.962   5.024   5.830
 3335SOL    HW210905   4.954   4.863   5.854
 3336SOL     OW10906   3.283   5.580   5.954
 3336SOL    HW110907   3.183   5.575   5.947
 3336SOL    HW210908   3.320   5.622   5.872
 3337SOL     OW10909   3.327   2.325   1.643
 3337SOL    HW110910   3.233   2.358   1.651
 3337SOL    HW210911   3.386   2.377   1.705
 3338SOL     OW10912   7.014   3.946   1.561
 3338SOL    HW110913   6.978   3.956   1.468
 3338SOL    HW210914   0.092   3.957   1.559
 3339SOL     OW10915   6.493   6.119   6.704
 3339SOL    HW110916   6.514   6.023   6.686
 3339SOL    HW210917   6.493   6.136   6.802
 3340SOL     OW10918   3.305   6.398   2.385
 3340SOL    HW110919   3.216   6.374   2.345
 3340SOL    HW210920   3.289   6.446   2.472
 3341SOL     OW10921   0.824   6.950   2.714
 3341SOL    HW110922   0.793   0.014   2.675
 3341SOL    HW210923   0.924   6.948   2.715
 3342SOL     OW10924   1.914   6.944   4.350
 3342SOL    HW110925   1.850   6.885   4.299
 3342SOL    HW210926   1.905   0.016   4.318
 3343SOL     OW10927   5.043   2.685   0.950
 3343SOL    HW110928   5.045   2.724   0.858
 3343SOL    HW210929   4.951   2.652   0.970
 3344SOL     OW10930   5.803   3.856   5.112
 3344SOL    HW110931   5.858   3.939   5.123
 3344SOL    HW210932   5.709   3.882   5.089
 3345SOL     OW10933   2.992   4.009   5.729
 3345SOL    HW110934   2.901   3.976   5.752
 3345SOL    HW210935   3.046   3.934   5.690
 3346SOL     OW10936   0.513   1.159   2.233
 3346SOL    HW110937   0.470   1.161   2.324
 3346SOL    HW210938   0.514   1.251   2.195
 3347SOL     OW10939   6.302   4.065   4.389
 3347SOL    HW110940   6.242   4.036   4.464
 3347SOL    HW210941   6.352   3.985   4.355
 3348SOL     OW10942   3.233   3.316   3.785
 3348SOL    HW110943   3.255   3.413   3.790
 3348SOL    HW210944   3.312   3.262   3.816
 3349SOL     OW10945   6.640   3.693   4.191
 3349SOL    HW110946   6.615   3.598   4.211
 3349SOL    HW210947   6.739   3.704   4.196
 3350SOL     OW10948   1.847   1.341   6.775
 3350SOL    HW110949   1.824   1.274   6.705
 3350SOL    HW210950   1.945   1.333   6.798
 3351SOL     OW10951   5.427   0.989   1.028
 3351SOL    HW110952   5.424   1.089   1.035
 3351SOL    HW210953   5.339   0.951   1.055
 3352SOL     OW10954   0.668   3.936   0.815
 3352SOL    HW110955   0.753   3.886   0.795
 3352SOL    HW210956   0.598   3.911   0.748
 3353SOL     OW10957   1.561   6.974   6.643
 3353SOL    HW110958   1.464   6.989   6.661
 3353SOL    HW210959   1.611   6.977   6.729
 3354SOL     OW10960   0.059   2.134   3.546
 3354SOL    HW110961   0.131   2.069   3.520
 3354SOL    HW210962   0.030   2.185   3.465
 3355SOL     OW10963   0.373   1.811   1.415
 3355SOL    HW110964   0.277   1.787   1.403
 3355SOL    HW210965   0.388   1.842   1.509
 3356SOL     OW10966   2.939   3.900   6.826
 3356SOL    HW110967   2.915   3.996   6.808
 3356SOL    HW210968   2.891   3.869   6.908
 3357SOL     OW10969   2.708   5.236   1.273
 3357SOL    HW110970   2.798   5.249   1.315
 3357SOL    HW210971   2.699   5.296   1.194
 3358SOL     OW10972   4.755   6.515   2.352
 3358SOL    HW110973   4.749   6.598   2.408
 3358SOL    HW210974   4.792   6.440   2.407
 3359SOL     OW10975   1.039   0.841   2.581
 3359SOL    HW110976   1.002   0.932   2.604
 3359SOL    HW210977   0.963   0.777   2.568
 3360SOL     OW10978   0.622   0.949   0.143
 3360SOL    HW110979   0.673   0.938   0.228
 3360SOL    HW210980   0.568   0.867   0.126
 3361SOL     OW10981   5.770   5.905   3.205
 3361SOL    HW110982   5.831   5.867   3.136
 3361SOL    HW210983   5.685   5.853   3.208
 3362SOL     OW10984   3.052   1.367   4.597
 3362SOL    HW110985   3.047   1.318   4.509
 3362SOL    HW210986   3.146   1.397   4.612
 3363SOL     OW10987   0.222   1.738   0.016
 3363SOL    HW110988   0.188   1.818   6.987
 3363SOL    HW210989   0.144   1.689   0.056
 3364SOL     OW10990   0.825   5.835   5.891
 3364SOL    HW110991   0.890   5.868   5.824
 3364SOL    HW210992   0.862   5.847   5.983
 3365SOL     OW10993   0.170   2.522   4.614
 3365SOL    HW110994   0.161   2.422   4.607
 3365SOL    HW210995   0.083   2.562   4.640
 3366SOL     OW10996   5.182   0.385   5.450
 3366SOL    HW110997   5.095   0.386   5.399
 3366SOL    HW210998   5.251   0.336   5.396
 3367SOL     OW10999   1.437   2.284   2.459
 3367SOL    HW111000   1.464   2.326   2.372
 3367SOL    HW211001   1.362   2.336   2.499
 3368SOL     OW11002   6.255   5.490   6.601
 3368SOL    HW111003   6.200   5.569   6.627
 3368SOL    HW211004   6.268   5.488   6.502
 3369SOL     OW11005   3.698   0.302   0.278
 3369SOL    HW111006   3.686   0.225   0.214
 3369SOL    HW211007   3.687   0.388   0.229
 3370SOL     OW11008   6.609   6.730   5.117
 3370SOL    HW111009   6.589   6.637   5.087
 3370SOL    HW211010   6.697   6.732   5.165
 3371SOL     OW11011   1.219   4.484   1.767
 3371SOL    HW111012   1.227   4.384   1.771
 3371SOL    HW211013   1.122   4.509   1.765
 3372SOL     OW11014   0.566   1.049   2.516
 3372SOL    HW111015   0.576   0.970   2.456
 3372SOL    HW211016   0.475   1.088   2.504
 3373SOL     OW11017   5.937   1.280   4.793
 3373SOL    HW111018   5.909   1.203   4.736
 3373SOL    HW211019   5.866   1.297   4.862
 3374SOL     OW11020   3.388   6.166   5.569
 3374SOL    HW111021   3.404   6.069   5.553
 3374SOL    HW211022   3.387   6.214   5.481
 3375SOL     OW11023   4.602   4.382   5.044
 3375SOL    HW111024   4.624   4.323   4.967
 3375SOL    HW211025   4.519   4.435   5.024
 3376SOL     OW11026   3.156   2.937   2.446
 3376SOL    HW111027   3.166   2.901   2.539
 3376SOL    HW211028   3.239   2.916   2.394
 3377SOL     OW11029   1.252   6.315   4.680
 3377SOL    HW111030   1.230   6.298   4.584
 3377SOL    HW211031   1.332   6.261   4.706
 3378SOL     OW11032   6.754   1.023   1.349
 3378SOL    HW111033   6.768   1.066   1.260
 3378SOL    HW211034   6.714   1.089   1.413
 3379SOL     OW11035   0.728   4.678   5.531
 3379SOL    HW111036   0.810   4.639   5.573
 3379SOL    HW211037   0.748   4.703   5.436
 3380SOL     OW11038   0.205   4.517   6.681
 3380SOL    HW111039   0.214   4.478   6.590
 3380SOL    HW211040   0.285   4.574   6.702
 3381SOL     OW11041   2.997   2.642   0.545
 3381SOL    HW111042   3.081   2.681   0.509
 3381SOL    HW211043   2.925   2.712   0.544
 3382SOL     OW11044   6.966   1.816   0.248
 3382SOL    HW111045   0.006   1.740   0.233
 3382SOL    HW211046   7.017   1.902   0.245
 3383SOL     OW11047   6.054   4.612   3.090
 3383SOL    HW111048   6.153   4.615   3.081
 3383SOL    HW211049   6.023   4.517   3.087
 3384SOL     OW11050   3.079   3.129   4.791
 3384SOL    HW111051   3.157   3.110   4.731
 3384SOL    HW211052   3.023   3.202   4.751
 3385SOL     OW11053   6.583   3.639   3.396
 3385SOL    HW111054   6.654   3.573   3.373
 3385SOL    HW211055   6.616   3.702   3.467
 3386SOL     OW11056   6.178   4.566   4.343
 3386SOL    HW111057   6.272   4.541   4.368
 3386SOL    HW211058   6.137   4.493   4.288
 3387SOL     OW11059   2.658   2.428   2.608
 3387SOL    HW111060   2.676   2.333   2.633
 3387SOL    HW211061   2.688   2.443   2.513
 3388SOL     OW11062   5.733   2.276   1.370
 3388SOL    HW111063   5.734   2.278   1.470
 3388SOL    HW211064   5.752   2.367   1.335
 3389SOL     OW11065   4.687   4.255   3.767
 3389SOL    HW111066   4.654   4.324   3.832
 3389SOL    HW211067   4.638   4.264   3.681
 3390SOL     OW11068   4.861   2.546   5.894
 3390SOL    HW111069   4.849   2.448   5.907
 3390SOL    HW211070   4.870   2.591   5.983
 3391SOL     OW11071   3.486   1.957   4.898
 3391SOL    HW111072   3.545   1.908   4.834
 3391SOL    HW211073   3.478   1.904   4.983
 3392SOL     OW11074   2.621   0.640   3.905
 3392SOL    HW111075   2.598   0.549   3.940
 3392SOL    HW211076   2.641   0.701   3.982
 3393SOL     OW11077   6.521   6.573   0.159
 3393SOL    HW111078   6.452   6.530   0.218
 3393SOL    HW211079   6.551   6.659   0.200
 3394SOL     OW11080   5.952   2.113   0.798
 3394SOL    HW111081   5.937   2.105   0.897
 3394SOL    HW211082   5.891   2.050   0.750
 3395SOL     OW11083   0.389   3.291   4.096
 3395SOL    HW111084   0.360   3.200   4.126
 3395SOL    HW211085   0.483   3.307   4.124
 3396SOL     OW11086   0.408   3.325   3.177
 3396SOL    HW111087   0.422   3.247   3.116
 3396SOL    HW211088   0.320   3.368   3.157
 3397SOL     OW11089   3.738   0.027   5.839
 3397SOL    HW111090   3.743   0.107   5.778
 3397SOL    HW211091   3.686   0.051   5.921
 3398SOL     OW11092   0.876   0.363   4.168
 3398SOL    HW111093   0.959   0.310   4.180
 3398SOL    HW211094   0.796   0.304   4.178
 3399SOL     OW11095   4.461   4.887   4.186
 3399SOL    HW111096   4.541   4.944   4.168
 3399SOL    HW211097   4.391   4.941   4.232
 3400SOL     OW11098   4.832   2.142   6.484
 3400SOL    HW111099   4.887   2.099   6.412
 3400SOL    HW211100   4.874   2.125   6.573
 3401SOL     OW11101   6.746   3.439   0.272
 3401SOL    HW111102   6.728   3.435   0.173
 3401SOL    HW211103   6.769   3.533   0.297
 3402SOL     OW11104   5.413   5.616   1.365
 3402SOL    HW111105   5.334   5.555   1.364
 3402SOL    HW211106   5.382   5.711   1.364
 3403SOL     OW11107   3.680   0.050   4.869
 3403SOL    HW111108   3.656   0.132   4.921
 3403SOL    HW211109   3.733   7.010   4.926
 3404SOL     OW11110   4.276   1.196   0.551
 3404SOL    HW111111   4.180   1.218   0.569
 3404SOL    HW211112   4.295   1.205   0.454
 3405SOL     OW11113   6.348   4.051   6.205
 3405SOL    HW111114   6.253   4.039   6.178
 3405SOL    HW211115   6.363   4.146   6.233
 3406SOL     OW11116   2.569   4.525   1.859
 3406SOL    HW111117   2.505   4.523   1.936
 3406SOL    HW211118   2.660   4.549   1.893
 3407SOL     OW11119   1.525   5.595   1.962
 3407SOL    HW111120   1.536   5.545   1.876
 3407SOL    HW211121   1.442   5.650   1.958
 3408SOL     OW11122   4.820   3.940   3.171
 3408SOL    HW111123   4.887   3.908   3.104
 3408SOL    HW211124   4.771   4.020   3.136
 3409SOL     OW11125   3.923   6.949   6.093
 3409SOL    HW111126   3.913   6.985   6.186
 3409SOL    HW211127   3.889   7.017   6.028
 3410SOL     OW11128   6.124   5.329   6.777
 3410SOL    HW111129   6.163   5.384   6.703
 3410SOL    HW211130   6.195   5.311   6.846
 3411SOL     OW11131   5.011   2.260   1.895
 3411SOL    HW111132   5.072   2.203   1.951
 3411SOL    HW211133   4.917   2.250   1.929
 3412SOL     OW11134   4.205   3.651   6.947
 3412SOL    HW111135   4.192   3.695   6.857
 3412SOL    HW211136   4.301   3.654   6.971
 3413SOL     OW11137   4.396   1.592   2.573
 3413SOL    HW111138   4.385   1.523   2.645
 3413SOL    HW211139   4.351   1.560   2.489
 3414SOL     OW11140   2.436   1.731   4.862
 3414SOL    HW111141   2.341   1.701   4.857
 3414SOL    HW211142   2.448   1.790   4.942
 3415SOL     OW11143   0.800   4.898   3.997
 3415SOL    HW111144   0.861   4.947   3.934
 3415SOL    HW211145   0.826   4.919   4.091
 3416SOL     OW11146   0.600   4.036   5.642
 3416SOL    HW111147   0.508   4.066   5.668
 3416SOL    HW211148   0.632   4.091   5.564
 3417SOL     OW11149   0.011   6.313   2.351
 3417SOL    HW111150   0.106   6.283   2.352
 3417SOL    HW211151   7.021   6.384   2.281
 3418SOL     OW11152   2.956   1.285   4.881
 3418SOL    HW111153   2.974   1.307   4.785
 3418SOL    HW211154   2.993   1.358   4.939
 3419SOL     OW11155   4.590   4.821   0.020
 3419SOL    HW111156   4.629   4.767   6.967
 3419SOL    HW211157   4.640   4.800   0.105
 3420SOL     OW11158   5.081   1.622   3.959
 3420SOL    HW111159   5.057   1.602   3.864
 3420SOL    HW211160   5.081   1.721   3.973
 3421SOL     OW11161   6.808   0.426   5.713
 3421SOL    HW111162   6.826   0.428   5.614
 3421SOL    HW211163   6.833   0.336   5.749
 3422SOL     OW11164   3.243   0.181   1.125
 3422SOL    HW111165   3.322   0.162   1.184
 3422SOL    HW211166   3.169   0.220   1.180
 3423SOL     OW11167   2.085   0.883   0.247
 3423SOL    HW111168   2.042   0.795   0.225
 3423SOL    HW211169   2.096   0.890   0.346
 3424SOL     OW11170   3.367   1.387   2.430
 3424SOL    HW111171   3.400   1.373   2.524
 3424SOL    HW211172   3.304   1.465   2.428
 3425SOL     OW11173   4.889   4.424   2.190
 3425SOL    HW111174   4.844   4.338   2.165
 3425SOL    HW211175   4.897   4.482   2.109
 3426SOL     OW11176   3.548   3.371   0.159
 3426SOL    HW111177   3.453   3.386   0.187
 3426SOL    HW211178   3.596   3.459   0.157
 3427SOL     OW11179   6.710   0.074   0.193
 3427SOL    HW111180   6.636   0.102   0.254
 3427SOL    HW211181   6.785   0.141   0.200
 3428SOL     OW11182   3.889   4.911   1.947
 3428SOL    HW111183   3.820   4.939   2.012
 3428SOL    HW211184   3.848   4.898   1.857
 3429SOL     OW11185   1.288   2.424   6.845
 3429SOL    HW111186   1.240   2.478   6.914
 3429SOL    HW211187   1.227   2.406   6.769
 3430SOL     OW11188   1.175   6.917   0.099
 3430SOL    HW111189   1.157   7.012   0.075
 3430SOL    HW211190   1.250   6.913   0.165
 3431SOL     OW11191   1.586   5.976   1.249
 3431SOL    HW111192   1.679   5.946   1.226
 3431SOL    HW211193   1.579   5.988   1.348
 3432SOL     OW11194   2.558   2.461   5.125
 3432SOL    HW111195   2.591   2.493   5.214
 3432SOL    HW211196   2.606   2.377   5.099
 3433SOL     OW11197   3.076   0.892   6.169
 3433SOL    HW111198   3.024   0.851   6.094
 3433SOL    HW211199   3.083   0.991   6.155
 3434SOL     OW11200   3.921   2.955   1.205
 3434SOL    HW111201   3.944   3.033   1.262
 3434SOL    HW211202   4.005   2.915   1.167
 3435SOL     OW11203   0.172   2.489   1.747
 3435SOL    HW111204   0.085   2.481   1.795
 3435SOL    HW211205   0.197   2.400   1.708
 3436SOL     OW11206   4.076   6.848   4.986
 3436SOL    HW111207   4.050   6.755   4.961
 3436SOL    HW211208   4.172   6.864   4.962
 3437SOL     OW11209   4.547   0.101   5.832
 3437SOL    HW111210   4.607   0.105   5.752
 3437SOL    HW211211   4.485   0.179   5.832
 3438SOL     OW11212   2.175   2.626   6.720
 3438SOL    HW111213   2.157   2.598   6.626
 3438SOL    HW211214   2.087   2.636   6.768
 3439SOL     OW11215   2.721   6.960   5.132
 3439SOL    HW111216   2.779   6.956   5.051
 3439SOL    HW211217   2.761   6.905   5.205
 3440SOL     OW11218   4.468   3.663   0.960
 3440SOL    HW111219   4.567   3.658   0.949
 3440SOL    HW211220   4.446   3.734   1.026
 3441SOL     OW11221   3.987   6.865   3.863
 3441SOL    HW111222   4.073   6.910   3.839
 3441SOL    HW211223   4.002   6.766   3.868
 3442SOL     OW11224   2.112   5.374   3.464
 3442SOL    HW111225   2.099   5.324   3.550
 3442SOL    HW211226   2.031   5.363   3.406
 3443SOL     OW11227   5.832   1.704   3.267
 3443SOL    HW111228   5.842   1.747   3.178
 3443SOL    HW211229   5.761   1.751   3.319
 3444SOL     OW11230   4.914   5.863   6.435
 3444SOL    HW111231   4.861   5.896   6.357
 3444SOL    HW211232   4.851   5.835   6.507
 3445SOL     OW11233   6.948   3.997   4.378
 3445SOL    HW111234   0.012   4.044   4.356
 3445SOL    HW211235   6.945   3.911   4.327
 3446SOL     OW11236   4.124   1.118   2.643
 3446SOL    HW111237   4.037   1.160   2.616
 3446SOL    HW211238   4.140   1.036   2.588
 3447SOL     OW11239   5.984   5.324   0.188
 3447SOL    HW111240   5.988   5.224   0.181
 3447SOL    HW211241   6.052   5.364   0.127
 3448SOL     OW11242   3.443   0.345   0.822
 3448SOL    HW111243   3.371   0.283   0.791
 3448SOL    HW211244   3.522   0.291   0.851
 3449SOL     OW11245   6.509   6.509   2.257
 3449SOL    HW111246   6.528   6.487   2.162
 3449SOL    HW211247   6.591   6.550   2.299
 3450SOL     OW11248   0.731   1.990   1.295
 3450SOL    HW111249   0.645   1.982   1.244
 3450SOL    HW211250   0.778   1.902   1.295
 3451SOL     OW11251   0.930   5.598   3.498
 3451SOL    HW111252   0.837   5.600   3.532
 3451SOL    HW211253   0.993   5.579   3.574
 3452SOL     OW11254   0.007   0.947   6.648
 3452SOL    HW111255   0.087   0.966   6.590
 3452SOL    HW211256   0.002   1.016   6.720
 3453SOL     OW11257   5.234   5.685   4.940
 3453SOL    HW111258   5.325   5.685   4.899
 3453SOL    HW211259   5.200   5.779   4.946
 3454SOL     OW11260   1.871   1.619   0.023
 3454SOL    HW111261   1.848   1.612   6.948
 3454SOL    HW211262   1.917   1.706   0.040
 3455SOL     OW11263   1.369   3.324   4.736
 3455SOL    HW111264   1.335   3.410   4.699
 3455SOL    HW211265   1.353   3.321   4.835
 3456SOL     OW11266   5.801   6.134   2.088
 3456SOL    HW111267   5.872   6.181   2.036
 3456SOL    HW211268   5.839   6.049   2.126
 3457SOL     OW11269   2.576   5.238   4.069
 3457SOL    HW111270   2.641   5.190   4.127
 3457SOL    HW211271   2.513   5.172   4.027
 3458SOL     OW11272   6.030   7.004   0.382
 3458SOL    HW111273   6.130   7.009   0.392
 3458SOL    HW211274   6.007   6.974   0.289
 3459SOL     OW11275   0.654   3.366   2.978
 3459SOL    HW111276   0.619   3.341   2.888
 3459SOL    HW211277   0.635   3.293   3.043
 3460SOL     OW11278   3.149   3.259   0.518
 3460SOL    HW111279   3.055   3.291   0.527
 3460SOL    HW211280   3.190   3.251   0.609
 3461SOL     OW11281   3.800   5.518   4.493
 3461SOL    HW111282   3.827   5.423   4.506
 3461SOL    HW211283   3.865   5.578   4.539
 3462SOL     OW11284   6.205   2.701   2.516
 3462SOL    HW111285   6.270   2.747   2.576
 3462SOL    HW211286   6.181   2.762   2.440
 3463SOL     OW11287   0.797   3.343   2.206
 3463SOL    HW111288   0.806   3.295   2.119
 3463SOL    HW211289   0.873   3.407   2.217
 3464SOL     OW11290   5.720   2.385   6.788
 3464SOL    HW111291   5.627   2.353   6.808
 3464SOL    HW211292   5.767   2.318   6.731
 3465SOL     OW11293   2.022   3.662   1.407
 3465SOL    HW111294   2.056   3.744   1.454
 3465SOL    HW211295   2.026   3.584   1.469
 3466SOL     OW11296   5.500   4.868   5.863
 3466SOL    HW111297   5.517   4.953   5.813
 3466SOL    HW211298   5.501   4.886   5.961
 3467SOL     OW11299   3.199   1.654   0.864
 3467SOL    HW111300   3.126   1.607   0.814
 3467SOL    HW211301   3.281   1.660   0.807
 3468SOL     OW11302   4.639   1.746   2.240
 3468SOL    HW111303   4.657   1.657   2.281
 3468SOL    HW211304   4.694   1.816   2.284
 3469SOL     OW11305   4.761   0.374   6.101
 3469SOL    HW111306   4.803   0.327   6.023
 3469SOL    HW211307   4.673   0.412   6.074
 3470SOL     OW11308   0.605   3.010   1.206
 3470SOL    HW111309   0.701   3.030   1.225
 3470SOL    HW211310   0.593   2.996   1.107
 3471SOL     OW11311   4.704   4.185   3.140
 3471SOL    HW111312   4.661   4.249   3.204
 3471SOL    HW211313   4.647   4.177   3.058
 3472SOL     OW11314   4.558   1.865   2.836
 3472SOL    HW111315   4.585   1.815   2.753
 3472SOL    HW211316   4.637   1.914   2.872
 3473SOL     OW11317   6.949   3.386   3.720
 3473SOL    HW111318   7.009   3.466   3.725
 3473SOL    HW211319   6.856   3.413   3.746
 3474SOL     OW11320   0.451   4.257   3.915
 3474SOL    HW111321   0.381   4.206   3.865
 3474SOL    HW211322   0.509   4.193   3.966
 3475SOL     OW11323   0.560   5.077   4.227
 3475SOL    HW111324   0.650   5.038   4.242
 3475SOL    HW211325   0.492   5.003   4.224
 3476SOL     OW11326   1.726   1.131   3.784
 3476SOL    HW111327   1.787   1.110   3.708
 3476SOL    HW211328   1.632   1.107   3.759
 3477SOL     OW11329   0.583   3.440   0.369
 3477SOL    HW111330   0.582   3.406   0.275
 3477SOL    HW211331   0.663   3.403   0.417
 3478SOL     OW11332   2.247   7.013   0.277
 3478SOL    HW111333   2.204   0.041   0.352
 3478SOL    HW211334   2.308   0.052   0.227
 3479SOL     OW11335   1.000   2.206   4.097
 3479SOL    HW111336   0.905   2.194   4.070
 3479SOL    HW211337   1.021   2.304   4.101
 3480SOL     OW11338   0.956   5.915   6.569
 3480SOL    HW111339   0.944   5.823   6.532
 3480SOL    HW211340   1.054   5.938   6.568
 3481SOL     OW11341   5.420   0.900   0.555
 3481SOL    HW111342   5.424   0.805   0.587
 3481SOL    HW211343   5.510   0.941   0.563
 3482SOL     OW11344   5.797   2.251   3.352
 3482SOL    HW111345   5.853   2.171   3.328
 3482SOL    HW211346   5.855   2.332   3.355
 3483SOL     OW11347   5.174   2.412   2.894
 3483SOL    HW111348   5.232   2.397   2.815
 3483SOL    HW211349   5.221   2.380   2.977
 3484SOL     OW11350   1.734   3.723   6.772
 3484SOL    HW111351   1.796   3.669   6.828
 3484SOL    HW211352   1.752   3.704   6.675
 3485SOL     OW11353   0.023   2.428   5.591
 3485SOL    HW111354   0.015   2.344   5.646
 3485SOL    HW211355   0.001   2.408   5.496
 3486SOL     OW11356   2.144   0.308   4.013
 3486SOL    HW111357   2.112   0.394   3.973
 3486SOL    HW211358   2.221   0.273   3.960
 3487SOL     OW11359   6.626   2.224   6.776
 3487SOL    HW111360   6.596   2.320   6.770
 3487SOL    HW211361   6.677   2.211   6.861
 3488SOL     OW11362   5.672   0.250   4.887
 3488SOL    HW111363   5.658   0.247   4.986
 3488SOL    HW211364   5.739   0.322   4.865
 3489SOL     OW11365   3.274   6.942   1.549
 3489SOL    HW111366   3.354   6.998   1.572
 3489SOL    HW211367   3.270   6.863   1.611
 3490SOL     OW11368   3.987   4.984   1.446
 3490SOL    HW111369   3.974   5.034   1.360
 3490SOL    HW211370   3.975   5.048   1.523
 3491SOL     OW11371   4.539   4.126   6.403
 3491SOL    HW111372   4.476   4.158   6.331
 3491SOL    HW211373   4.492   4.057   6.458
 3492SOL     OW11374   6.794   3.610   1.323
 3492SOL    HW111375   6.855   3.683   1.355
 3492SOL    HW211376   6.703   3.647   1.307
 3493SOL     OW11377   6.443   4.256   3.971
 3493SOL    HW111378   6.364   4.217   4.018
 3493SOL    HW211379   6.442   4.226   3.875
 3494SOL     OW11380   3.171   1.774   2.155
 3494SOL    HW111381   3.237   1.752   2.084
 3494SOL    HW211382   3.083   1.733   2.133
 3495SOL     OW11383   0.769   3.729   2.130
 3495SOL    HW111384   0.810   3.648   2.089
 3495SOL    HW211385   0.718   3.780   2.060
 3496SOL     OW11386   5.838   4.746   1.073
 3496SOL    HW111387   5.851   4.664   1.128
 3496SOL    HW211388   5.917   4.758   1.013
 3497SOL     OW11389   3.502   1.299   3.701
 3497SOL    HW111390   3.494   1.217   3.758
 3497SOL    HW211391   3.424   1.304   3.639
 3498SOL     OW11392   2.723   1.866   2.091
 3498SOL    HW111393   2.787   1.902   2.159
 3498SOL    HW211394   2.646   1.929   2.082
 3499SOL     OW11395   6.295   6.021   5.063
 3499SOL    HW111396   6.301   6.001   4.965
 3499SOL    HW211397   6.353   6.099   5.085
 3500SOL     OW11398   1.999   2.875   4.169
 3500SOL    HW111399   1.935   2.888   4.093
 3500SOL    HW211400   2.093   2.881   4.135
 3501SOL     OW11401   2.532   6.852   6.231
 3501SOL    HW111402   2.433   6.867   6.239
 3501SOL    HW211403   2.580   6.935   6.258
 3502SOL     OW11404   6.195   3.392   1.851
 3502SOL    HW111405   6.198   3.473   1.909
 3502SOL    HW211406   6.144   3.319   1.898
 3503SOL     OW11407   6.980   6.373   6.161
 3503SOL    HW111408   7.003   6.342   6.068
 3503SOL    HW211409   6.934   6.300   6.210
 3504SOL     OW11410   1.962   0.975   2.421
 3504SOL    HW111411   1.878   0.957   2.472
 3504SOL    HW211412   1.977   0.902   2.355
 3505SOL     OW11413   5.917   5.685   5.159
 3505SOL    HW111414   5.942   5.729   5.246
 3505SOL    HW211415   5.993   5.692   5.095
 3506SOL     OW11416   5.550   4.447   5.058
 3506SOL    HW111417   5.640   4.435   5.101
 3506SOL    HW211418   5.480   4.411   5.119
 3507SOL     OW11419   2.374   6.338   0.388
 3507SOL    HW111420   2.393   6.327   0.485
 3507SOL    HW211421   2.459   6.355   0.338
 3508SOL     OW11422   3.105   2.715   6.456
 3508SOL    HW111423   3.149   2.626   6.471
 3508SOL    HW211424   3.095   2.762   6.544
 3509SOL     OW11425   5.718   0.013   0.008
 3509SOL    HW111426   5.722   0.097   6.977
 3509SOL    HW211427   5.653   6.972   6.987
 3510SOL     OW11428   1.807   0.614   1.447
 3510SOL    HW111429   1.745   0.640   1.520
 3510SOL    HW211430   1.847   0.696   1.405
 3511SOL     OW11431   1.864   4.775   1.693
 3511SOL    HW111432   1.874   4.849   1.759
 3511SOL    HW211433   1.768   4.753   1.682
 3512SOL     OW11434   1.089   3.531   0.644
 3512SOL    HW111435   1.077   3.524   0.743
 3512SOL    HW211436   1.166   3.592   0.623
 3513SOL     OW11437   5.996   2.190   1.596
 3513SOL    HW111438   6.029   2.274   1.638
 3513SOL    HW211439   5.907   2.166   1.636
 3514SOL     OW11440   5.635   0.706   2.211
 3514SOL    HW111441   5.651   0.803   2.189
 3514SOL    HW211442   5.587   0.699   2.298
 3515SOL     OW11443   5.244   6.370   4.275
 3515SOL    HW111444   5.158   6.375   4.325
 3515SOL    HW211445   5.240   6.432   4.196
 3516SOL     OW11446   5.278   6.528   1.109
 3516SOL    HW111447   5.229   6.537   1.023
 3516SOL    HW211448   5.276   6.432   1.138
 3517SOL     OW11449   0.464   1.451   1.781
 3517SOL    HW111450   0.473   1.491   1.689
 3517SOL    HW211451   0.552   1.452   1.827
 3518SOL     OW11452   4.970   2.169   4.937
 3518SOL    HW111453   4.999   2.116   5.016
 3518SOL    HW211454   5.012   2.132   4.854
 3519SOL     OW11455   2.266   1.096   6.336
 3519SOL    HW111456   2.256   1.193   6.357
 3519SOL    HW211457   2.362   1.069   6.349
 3520SOL     OW11458   3.430   6.727   0.220
 3520SOL    HW111459   3.463   6.663   0.289
 3520SOL    HW211460   3.448   6.690   0.129
 3521SOL     OW11461   3.793   2.910   6.483
 3521SOL    HW111462   3.826   2.857   6.562
 3521SOL    HW211463   3.809   2.857   6.400
 3522SOL     OW11464   6.401   4.835   6.805
 3522SOL    HW111465   6.412   4.769   6.879
 3522SOL    HW211466   6.314   4.883   6.815
 3523SOL     OW11467   1.386   4.380   5.607
 3523SOL    HW111468   1.329   4.298   5.600
 3523SOL    HW211469   1.328   4.461   5.597
 3524SOL     OW11470   5.213   2.026   2.412
 3524SOL    HW111471   5.185   2.073   2.496
 3524SOL    HW211472   5.143   1.959   2.387
 3525SOL     OW11473   6.197   3.594   4.246
 3525SOL    HW111474   6.102   3.585   4.274
 3525SOL    HW211475   6.256   3.542   4.308
 3526SOL     OW11476   2.231   6.500   3.261
 3526SOL    HW111477   2.266   6.463   3.175
 3526SOL    HW211478   2.237   6.600   3.259
 3527SOL     OW11479   5.962   3.168   6.381
 3527SOL    HW111480   5.910   3.090   6.416
 3527SOL    HW211481   6.006   3.143   6.295
 3528SOL     OW11482   2.011   6.267   4.967
 3528SOL    HW111483   2.009   6.170   4.992
 3528SOL    HW211484   1.945   6.317   5.023
 3529SOL     OW11485   4.109   6.690   0.231
 3529SOL    HW111486   4.029   6.664   0.178
 3529SOL    HW211487   4.125   6.623   0.303
 3530SOL     OW11488   6.946   4.928   1.429
 3530SOL    HW111489   6.891   5.004   1.464
 3530SOL    HW211490   6.967   4.865   1.504
 3531SOL     OW11491   6.097   2.770   1.269
 3531SOL    HW111492   6.182   2.821   1.270
 3531SOL    HW211493   6.023   2.829   1.238
 3532SOL     OW11494   2.551   1.218   1.647
 3532SOL    HW111495   2.619   1.171   1.591
 3532SOL    HW211496   2.596   1.263   1.724
 3533SOL     OW11497   0.664   1.648   2.755
 3533SOL    HW111498   0.637   1.555   2.729
 3533SOL    HW211499   0.754   1.646   2.798
 3534SOL     OW11500   0.999   2.236   1.935
 3534SOL    HW111501   1.010   2.138   1.922
 3534SOL    HW211502   0.998   2.282   1.846
 3535SOL     OW11503   2.318   5.416   5.798
 3535SOL    HW111504   2.336   5.394   5.703
 3535SOL    HW211505   2.239   5.363   5.830
 3536SOL     OW11506   2.891   2.195   3.582
 3536SOL    HW111507   2.900   2.100   3.612
 3536SOL    HW211508   2.930   2.205   3.491
 3537SOL     OW11509   1.713   5.398   2.011
 3537SOL    HW111510   1.801   5.414   2.056
 3537SOL    HW211511   1.655   5.479   2.020
 3538SOL     OW11512   2.757   5.275   5.741
 3538SOL    HW111513   2.790   5.293   5.648
 3538SOL    HW211514   2.737   5.178   5.750
 3539SOL     OW11515   3.583   3.457   4.403
 3539SOL    HW111516   3.651   3.530   4.399
 3539SOL    HW211517   3.628   3.368   4.400
 3540SOL     OW11518   2.176   2.373   4.561
 3540SOL    HW111519   2.093   2.343   4.515
 3540SOL    HW211520   2.210   2.299   4.619
 3541SOL     OW11521   2.884   2.733   5.653
 3541SOL    HW111522   2.971   2.748   5.605
 3541SOL    HW211523   2.886   2.644   5.699
 3542SOL     OW11524   1.382   5.044   3.135
 3542SOL    HW111525   1.363   5.073   3.041
 3542SOL    HW211526   1.387   5.125   3.194
 3543SOL     OW11527   6.358   2.999   3.520
 3543SOL    HW111528   6.421   3.059   3.470
 3543SOL    HW211529   6.354   2.910   3.475
 3544SOL     OW11530   2.125   4.147   6.898
 3544SOL    HW111531   2.046   4.190   6.855
 3544SOL    HW211532   2.188   4.113   6.828
 3545SOL     OW11533   3.968   6.331   6.465
 3545SOL    HW111534   3.932   6.307   6.375
 3545SOL    HW211535   3.903   6.390   6.513
 3546SOL     OW11536   0.695   4.752   3.305
 3546SOL    HW111537   0.598   4.739   3.325
 3546SOL    HW211538   0.750   4.691   3.362
 3547SOL     OW11539   4.693   4.937   3.459
 3547SOL    HW111540   4.749   4.940   3.375
 3547SOL    HW211541   4.739   4.988   3.531
 3548SOL     OW11542   4.630   2.012   5.698
 3548SOL    HW111543   4.713   1.959   5.715
 3548SOL    HW211544   4.578   2.020   5.783
 3549SOL     OW11545   7.004   4.953   4.530
 3549SOL    HW111546   0.007   5.034   4.584
 3549SOL    HW211547   0.048   4.880   4.547
 3550SOL     OW11548   4.983   2.564   2.783
 3550SOL    HW111549   5.046   2.501   2.827
 3550SOL    HW211550   5.020   2.657   2.786
 3551SOL     OW11551   3.870   6.339   2.990
 3551SOL    HW111552   3.894   6.267   2.925
 3551SOL    HW211553   3.861   6.300   3.082
 3552SOL     OW11554   5.004   6.292   2.205
 3552SOL    HW111555   4.935   6.285   2.277
 3552SOL    HW211556   5.055   6.206   2.200
 3553SOL     OW11557   5.808   3.312   1.909
 3553SOL    HW111558   5.849   3.220   1.910
 3553SOL    HW211559   5.832   3.360   1.993
 3554SOL     OW11560   3.704   3.382   0.630
 3554SOL    HW111561   3.606   3.375   0.650
 3554SOL    HW211562   3.727   3.476   0.606
 3555SOL     OW11563   0.477   3.070   2.702
 3555SOL    HW111564   0.409   3.037   2.636
 3555SOL    HW211565   0.491   3.168   2.689
 3556SOL     OW11566   3.528   0.497   5.376
 3556SOL    HW111567   3.569   0.462   5.461
 3556SOL    HW211568   3.600   0.510   5.308
 3557SOL     OW11569   0.633   0.205   4.232
 3557SOL    HW111570   0.636   0.138   4.306
 3557SOL    HW211571   0.578   0.168   4.156
 3558SOL     OW11572   0.109   5.789   1.466
 3558SOL    HW111573   0.145   5.844   1.391
 3558SOL    HW211574   0.136   5.693   1.454
 3559SOL     OW11575   0.513   0.135   4.498
 3559SOL    HW111576   0.460   0.177   4.424
 3559SOL    HW211577   0.454   0.124   4.578
 3560SOL     OW11578   1.400   5.779   1.173
 3560SOL    HW111579   1.475   5.842   1.192
 3560SOL    HW211580   1.404   5.751   1.078
 3561SOL     OW11581   5.037   5.189   5.708
 3561SOL    HW111582   5.119   5.220   5.755
 3561SOL    HW211583   5.062   5.128   5.633
 3562SOL     OW11584   4.787   0.923   4.655
 3562SOL    HW111585   4.745   0.841   4.692
 3562SOL    HW211586   4.817   0.983   4.730
 3563SOL     OW11587   5.472   0.739   1.767
 3563SOL    HW111588   5.513   0.830   1.764
 3563SOL    HW211589   5.529   0.678   1.822
 3564SOL     OW11590   1.362   4.448   3.899
 3564SOL    HW111591   1.316   4.425   3.985
 3564SOL    HW211592   1.312   4.407   3.823
 3565SOL     OW11593   3.152   6.767   5.075
 3565SOL    HW111594   3.143   6.866   5.091
 3565SOL    HW211595   3.248   6.741   5.080
 3566SOL     OW11596   6.972   3.381   5.903
 3566SOL    HW111597   6.921   3.305   5.942
 3566SOL    HW211598   6.917   3.426   5.833
 3567SOL     OW11599   1.640   2.080   0.572
 3567SOL    HW111600   1.598   2.135   0.645
 3567SOL    HW211601   1.707   2.136   0.524
 3568SOL     OW11602   5.439   5.304   2.420
 3568SOL    HW111603   5.487   5.348   2.345
 3568SOL    HW211604   5.364   5.249   2.384
 3569SOL     OW11605   2.798   3.236   5.251
 3569SOL    HW111606   2.866   3.212   5.321
 3569SOL    HW211607   2.846   3.264   5.167
 3570SOL     OW11608   5.615   1.204   5.529
 3570SOL    HW111609   5.619   1.105   5.517
 3570SOL    HW211610   5.683   1.233   5.596
 3571SOL     OW11611   1.910   0.671   4.904
 3571SOL    HW111612   1.922   0.711   4.813
 3571SOL    HW211613   1.849   0.592   4.898
 3572SOL     OW11614   5.222   4.116   2.970
 3572SOL    HW111615   5.306   4.168   2.953
 3572SOL    HW211616   5.145   4.178   2.982
 3573SOL     OW11617   6.894   4.634   2.305
 3573SOL    HW111618   6.816   4.696   2.315
 3573SOL    HW211619   6.879   4.552   2.361
 3574SOL     OW11620   1.997   3.030   6.561
 3574SOL    HW111621   1.999   2.979   6.475
 3574SOL    HW211622   1.903   3.050   6.586
 3575SOL     OW11623   5.334   5.553   0.763
 3575SOL    HW111624   5.386   5.493   0.824
 3575SOL    HW211625   5.398   5.606   0.707
 3576SOL     OW11626   0.592   2.502   0.019
 3576SOL    HW111627   0.601   2.426   6.976
 3576SOL    HW211628   0.600   2.468   0.112
 3577SOL     OW11629   2.224   3.076   5.587
 3577SOL    HW111630   2.202   3.005   5.654
 3577SOL    HW211631   2.182   3.053   5.499
 3578SOL     OW11632   3.738   3.517   1.014
 3578SOL    HW111633   3.639   3.515   1.032
 3578SOL    HW211634   3.771   3.424   1.000
 3579SOL     OW11635   0.326   3.187   2.484
 3579SOL    HW111636   0.351   3.106   2.430
 3579SOL    HW211637   0.380   3.265   2.453
 3580SOL     OW11638   0.156   3.107   1.438
 3580SOL    HW111639   0.119   3.161   1.362
 3580SOL    HW211640   0.126   3.146   1.525
 3581SOL     OW11641   0.830   0.020   3.335
 3581SOL    HW111642   0.903   6.985   3.372
 3581SOL    HW211643   0.836   0.023   3.236
 3582SOL     OW11644   3.394   4.907   5.867
 3582SOL    HW111645   3.368   4.978   5.801
 3582SOL    HW211646   3.316   4.888   5.927
 3583SOL     OW11647   0.427   4.241   0.785
 3583SOL    HW111648   0.410   4.288   0.872
 3583SOL    HW211649   0.415   4.143   0.797
 3584SOL     OW11650   6.130   4.614   5.686
 3584SOL    HW111651   6.031   4.601   5.696
 3584SOL    HW211652   6.178   4.533   5.720
 3585SOL     OW11653   2.624   1.983   4.740
 3585SOL    HW111654   2.592   2.076   4.754
 3585SOL    HW211655   2.546   1.924   4.719
 3586SOL     OW11656   6.297   3.164   4.112
 3586SOL    HW111657   6.271   3.260   4.105
 3586SOL    HW211658   6.271   3.116   4.028
 3587SOL     OW11659   3.662   5.748   6.959
 3587SOL    HW111660   3.676   5.749   6.860
 3587SOL    HW211661   3.701   5.665   6.998
 3588SOL     OW11662   6.471   4.538   3.693
 3588SOL    HW111663   6.444   4.442   3.683
 3588SOL    HW211664   6.514   4.551   3.782
 3589SOL     OW11665   0.166   0.143   5.968
 3589SOL    HW111666   0.242   0.107   6.021
 3589SOL    HW211667   0.127   0.222   6.015
 3590SOL     OW11668   0.223   4.323   0.413
 3590SOL    HW111669   0.171   4.238   0.409
 3590SOL    HW211670   0.265   4.341   0.325
 3591SOL     OW11671   5.753   2.453   0.040
 3591SOL    HW111672   5.719   2.455   6.967
 3591SOL    HW211673   5.761   2.358   0.070
 3592SOL     OW11674   1.375   0.382   2.200
 3592SOL    HW111675   1.443   0.407   2.269
 3592SOL    HW211676   1.380   0.283   2.183
 3593SOL     OW11677   0.214   4.629   5.439
 3593SOL    HW111678   0.299   4.579   5.423
 3593SOL    HW211679   0.214   4.714   5.386
 3594SOL     OW11680   4.144   5.814   4.982
 3594SOL    HW111681   4.128   5.868   4.900
 3594SOL    HW211682   4.061   5.814   5.039
 3595SOL     OW11683   6.165   6.024   6.853
 3595SOL    HW111684   6.238   5.970   6.894
 3595SOL    HW211685   6.078   5.976   6.863
 3596SOL     OW11686   4.574   1.973   3.125
 3596SOL    HW111687   4.550   2.027   3.044
 3596SOL    HW211688   4.543   2.020   3.207
 3597SOL     OW11689   1.979   3.261   5.443
 3597SOL    HW111690   2.052   3.201   5.474
 3597SOL    HW211691   1.899   3.250   5.502
 3598SOL     OW11692   1.705   6.197   5.718
 3598SOL    HW111693   1.777   6.128   5.716
 3598SOL    HW211694   1.650   6.191   5.635
 3599SOL     OW11695   4.703   1.736   6.401
 3599SOL    HW111696   4.693   1.662   6.334
 3599SOL    HW211697   4.629   1.730   6.468
 3600SOL     OW11698   2.181   3.239   0.384
 3600SOL    HW111699   2.208   3.274   0.474
 3600SOL    HW211700   2.085   3.261   0.367
 3601SOL     OW11701   4.956   1.200   5.590
 3601SOL    HW111702   5.048   1.224   5.559
 3601SOL    HW211703   4.961   1.142   5.671
 3602SOL     OW11704   2.027   2.897   1.640
 3602SOL    HW111705   1.932   2.928   1.639
 3602SOL    HW211706   2.028   2.797   1.639
 3603SOL     OW11707   3.112   0.986   6.451
 3603SOL    HW111708   3.115   1.085   6.438
 3603SOL    HW211709   3.068   0.943   6.372
 3604SOL     OW11710   6.704   0.778   3.393
 3604SOL    HW111711   6.685   0.842   3.468
 3604SOL    HW211712   6.726   0.688   3.432
 3605SOL     OW11713   1.260   5.597   3.366
 3605SOL    HW111714   1.182   5.547   3.404
 3605SOL    HW211715   1.287   5.556   3.279
 3606SOL     OW11716   1.342   6.467   1.473
 3606SOL    HW111717   1.253   6.429   1.449
 3606SOL    HW211718   1.331   6.557   1.515
 3607SOL     OW11719   5.328   2.712   2.439
 3607SOL    HW111720   5.311   2.808   2.461
 3607SOL    HW211721   5.391   2.674   2.507
 3608SOL     OW11722   4.871   1.866   3.866
 3608SOL    HW111723   4.812   1.820   3.799
 3608SOL    HW211724   4.817   1.893   3.946
 3609SOL     OW11725   2.304   6.225   4.452
 3609SOL    HW111726   2.381   6.166   4.480
 3609SOL    HW211727   2.328   6.320   4.470
 3610SOL     OW11728   1.609   0.380   5.645
 3610SOL    HW111729   1.542   0.386   5.571
 3610SOL    HW211730   1.649   0.470   5.661
 3611SOL     OW11731   4.698   4.475   4.323
 3611SOL    HW111732   4.736   4.543   4.386
 3611SOL    HW211733   4.693   4.386   4.369
 3612SOL     OW11734   6.549   1.569   6.577
 3612SOL    HW111735   6.619   1.589   6.645
 3612SOL    HW211736   6.495   1.490   6.607
 3613SOL     OW11737   3.939   5.398   1.454
 3613SOL    HW111738   3.951   5.384   1.356
 3613SOL    HW211739   4.027   5.388   1.500
 3614SOL     OW11740   4.091   4.041   0.177
 3614SOL    HW111741   4.004   4.060   0.221
 3614SOL    HW211742   4.109   3.943   0.178
 3615SOL     OW11743   5.698   3.115   5.916
 3615SOL    HW111744   5.643   3.199   5.929
 3615SOL    HW211745   5.686   3.056   5.996
 3616SOL     OW11746   2.107   1.827   6.070
 3616SOL    HW111747   2.050   1.746   6.054
 3616SOL    HW211748   2.111   1.846   6.169
 3617SOL     OW11749   4.400   6.918   5.897
 3617SOL    HW111750   4.457   6.999   5.905
 3617SOL    HW211751   4.400   6.886   5.802
 3618SOL     OW11752   2.128   3.636   4.798
 3618SOL    HW111753   2.034   3.628   4.831
 3618SOL    HW211754   2.154   3.732   4.793
 3619SOL     OW11755   5.979   2.817   0.589
 3619SOL    HW111756   6.053   2.753   0.611
 3619SOL    HW211757   5.894   2.784   0.630
 3620SOL     OW11758   6.184   6.333   4.335
 3620SOL    HW111759   6.207   6.296   4.425
 3620SOL    HW211760   6.258   6.314   4.271
 3621SOL     OW11761   3.424   3.170   3.909
 3621SOL    HW111762   3.493   3.099   3.898
 3621SOL    HW211763   3.370   3.151   3.991
 3622SOL     OW11764   0.708   0.571   1.252
 3622SOL    HW111765   0.616   0.585   1.215
 3622SOL    HW211766   0.729   0.473   1.253
 3623SOL     OW11767   0.737   5.427   6.073
 3623SOL    HW111768   0.783   5.468   5.995
 3623SOL    HW211769   0.657   5.376   6.042
 3624SOL     OW11770   2.704   0.355   2.014
 3624SOL    HW111771   2.609   0.386   2.011
 3624SOL    HW211772   2.765   0.434   2.011
 3625SOL     OW11773   6.558   2.789   6.585
 3625SOL    HW111774   6.545   2.887   6.600
 3625SOL    HW211775   6.643   2.775   6.534
 3626SOL     OW11776   0.301   3.681   4.292
 3626SOL    HW111777   0.223   3.654   4.349
 3626SOL    HW211778   0.306   3.620   4.213
 3627SOL     OW11779   4.640   2.874   1.096
 3627SOL    HW111780   4.678   2.966   1.106
 3627SOL    HW211781   4.576   2.872   1.018
 3628SOL     OW11782   1.389   1.831   1.681
 3628SOL    HW111783   1.369   1.761   1.751
 3628SOL    HW211784   1.329   1.910   1.695
 3629SOL     OW11785   1.136   1.169   3.627
 3629SOL    HW111786   1.173   1.262   3.623
 3629SOL    HW211787   1.133   1.139   3.722
 3630SOL     OW11788   6.757   2.677   3.175
 3630SOL    HW111789   6.832   2.695   3.238
 3630SOL    HW211790   6.673   2.662   3.226
 3631SOL     OW11791   1.885   6.919   2.939
 3631SOL    HW111792   1.828   6.877   2.868
 3631SOL    HW211793   1.827   6.949   3.015
 3632SOL     OW11794   3.872   4.112   0.708
 3632SOL    HW111795   3.903   4.125   0.802
 3632SOL    HW211796   3.937   4.154   0.645
 3633SOL     OW11797   3.409   2.877   5.572
 3633SOL    HW111798   3.414   2.942   5.496
 3633SOL    HW211799   3.447   2.920   5.654
 3634SOL     OW11800   2.675   6.053   6.116
 3634SOL    HW111801   2.616   6.130   6.138
 3634SOL    HW211802   2.619   5.975   6.086
 3635SOL     OW11803   2.737   1.106   1.500
 3635SOL    HW111804   2.809   1.051   1.544
 3635SOL    HW211805   2.779   1.175   1.442
 3636SOL     OW11806   0.208   5.556   0.668
 3636SOL    HW111807   0.148   5.603   0.733
 3636SOL    HW211808   0.275   5.620   0.632
 3637SOL     OW11809   0.733   2.939   6.478
 3637SOL    HW111810   0.757   2.844   6.456
 3637SOL    HW211811   0.667   2.939   6.554
 3638SOL     OW11812   6.220   4.288   2.965
 3638SOL    HW111813   6.215   4.213   2.899
 3638SOL    HW211814   6.128   4.310   2.997
 3639SOL     OW11815   3.999   3.927   4.931
 3639SOL    HW111816   3.951   4.005   4.890
 3639SOL    HW211817   4.002   3.852   4.866
 3640SOL     OW11818   5.555   2.527   0.267
 3640SOL    HW111819   5.641   2.477   0.272
 3640SOL    HW211820   5.572   2.625   0.281
 3641SOL     OW11821   6.279   4.044   1.157
 3641SOL    HW111822   6.326   4.056   1.244
 3641SOL    HW211823   6.181   4.058   1.169
 3642SOL     OW11824   5.877   2.236   6.599
 3642SOL    HW111825   5.968   2.277   6.593
 3642SOL    HW211826   5.885   2.137   6.593
 3643SOL     OW11827   4.488   5.963   5.991
 3643SOL    HW111828   4.507   6.016   6.074
 3643SOL    HW211829   4.403   5.995   5.950
 3644SOL     OW11830   2.838   0.649   2.129
 3644SOL    HW111831   2.766   0.688   2.187
 3644SOL    HW211832   2.823   0.679   2.034
 3645SOL     OW11833   1.545   3.937   4.672
 3645SOL    HW111834   1.510   3.934   4.578
 3645SOL    HW211835   1.475   3.973   4.733
 3646SOL     OW11836   2.679   4.753   4.851
 3646SOL    HW111837   2.756   4.718   4.903
 3646SOL    HW211838   2.606   4.684   4.848
 3647SOL     OW11839   2.006   6.530   0.220
 3647SOL    HW111840   2.050   6.612   0.257
 3647SOL    HW211841   2.014   6.530   0.121
 3648SOL     OW11842   5.297   5.368   3.513
 3648SOL    HW111843   5.232   5.304   3.555
 3648SOL    HW211844   5.390   5.333   3.524
 3649SOL     OW11845   5.432   3.670   6.932
 3649SOL    HW111846   5.402   3.696   6.840
 3649SOL    HW211847   5.499   3.596   6.926
 3650SOL     OW11848   4.920   4.436   1.167
 3650SOL    HW111849   4.843   4.411   1.109
 3650SOL    HW211850   4.951   4.356   1.218
 3651SOL     OW11851   1.505   2.385   6.031
 3651SOL    HW111852   1.479   2.305   6.085
 3651SOL    HW211853   1.422   2.433   6.001
 3652SOL     OW11854   5.324   1.058   2.099
 3652SOL    HW111855   5.402   1.011   2.057
 3652SOL    HW211856   5.352   1.150   2.128
 3653SOL     OW11857   1.570   1.088   2.428
 3653SOL    HW111858   1.581   1.185   2.407
 3653SOL    HW211859   1.474   1.069   2.450
 3654SOL     OW11860   5.024   0.103   1.053
 3654SOL    HW111861   4.999   0.011   1.080
 3654SOL    HW211862   4.987   0.169   1.118
 3655SOL     OW11863   2.313   1.400   4.016
 3655SOL    HW111864   2.240   1.369   3.955
 3655SOL    HW211865   2.275   1.422   4.106
 3656SOL     OW11866   0.529   5.379   2.218
 3656SOL    HW111867   0.625   5.355   2.203
 3656SOL    HW211868   0.474   5.296   2.228
 3657SOL     OW11869   4.763   6.155   5.103
 3657SOL    HW111870   4.822   6.188   5.177
 3657SOL    HW211871   4.671   6.190   5.117
 3658SOL     OW11872   0.711   5.609   6.303
 3658SOL    HW111873   0.698   5.552   6.222
 3658SOL    HW211874   0.695   5.555   6.385
 3659SOL     OW11875   6.950   1.891   6.409
 3659SOL    HW111876   6.876   1.948   6.445
 3659SOL    HW211877   6.922   1.851   6.322
 3660SOL     OW11878   5.190   5.468   5.787
 3660SOL    HW111879   5.096   5.504   5.785
 3660SOL    HW211880   5.227   5.475   5.879
 3661SOL     OW11881   0.004   1.606   5.073
 3661SOL    HW111882   0.058   1.556   5.005
 3661SOL    HW211883   0.065   1.652   5.137
 3662SOL     OW11884   3.671   0.861   5.888
 3662SOL    HW111885   3.627   0.807   5.959
 3662SOL    HW211886   3.727   0.933   5.931
 3663SOL     OW11887   2.427   3.174   6.838
 3663SOL    HW111888   2.344   3.224   6.866
 3663SOL    HW211889   2.401   3.082   6.808
 3664SOL     OW11890   4.196   1.779   2.058
 3664SOL    HW111891   4.204   1.794   2.157
 3664SOL    HW211892   4.261   1.707   2.031
 3665SOL     OW11893   0.160   5.994   5.675
 3665SOL    HW111894   0.116   5.936   5.744
 3665SOL    HW211895   0.134   5.963   5.584
 3666SOL     OW11896   1.640   2.545   4.095
 3666SOL    HW111897   1.631   2.446   4.086
 3666SOL    HW211898   1.563   2.582   4.146
 3667SOL     OW11899   2.117   1.208   2.408
 3667SOL    HW111900   2.076   1.122   2.439
 3667SOL    HW211901   2.052   1.282   2.421
 3668SOL     OW11902   0.835   0.258   1.988
 3668SOL    HW111903   0.927   0.298   1.984
 3668SOL    HW211904   0.769   0.329   2.012
 3669SOL     OW11905   6.577   2.027   3.631
 3669SOL    HW111906   6.673   2.055   3.633
 3669SOL    HW211907   6.569   1.935   3.593
 3670SOL     OW11908   3.447   5.116   1.359
 3670SOL    HW111909   3.525   5.176   1.373
 3670SOL    HW211910   3.476   5.021   1.368
 3671SOL     OW11911   0.148   0.461   3.547
 3671SOL    HW111912   0.197   0.507   3.621
 3671SOL    HW211913   0.057   0.435   3.579
 3672SOL     OW11914   4.610   1.057   2.793
 3672SOL    HW111915   4.709   1.071   2.795
 3672SOL    HW211916   4.570   1.090   2.879
 3673SOL     OW11917   4.886   5.981   0.537
 3673SOL    HW111918   4.803   6.035   0.527
 3673SOL    HW211919   4.959   6.039   0.574
 3674SOL     OW11920   1.461   5.558   5.406
 3674SOL    HW111921   1.478   5.596   5.315
 3674SOL    HW211922   1.549   5.548   5.454
 3675SOL     OW11923   6.809   1.791   4.204
 3675SOL    HW111924   6.854   1.703   4.189
 3675SOL    HW211925   6.719   1.775   4.245
 3676SOL     OW11926   4.911   2.265   3.231
 3676SOL    HW111927   4.950   2.348   3.191
 3676SOL    HW211928   4.983   2.215   3.281
 3677SOL     OW11929   2.364   0.713   3.825
 3677SOL    HW111930   2.463   0.719   3.815
 3677SOL    HW211931   2.339   0.724   3.921
 3678SOL     OW11932   1.464   0.447   3.776
 3678SOL    HW111933   1.468   0.381   3.851
 3678SOL    HW211934   1.548   0.501   3.776
 3679SOL     OW11935   4.875   0.690   2.996
 3679SOL    HW111936   4.786   0.653   3.023
 3679SOL    HW211937   4.893   0.665   2.901
 3680SOL     OW11938   4.650   1.493   3.448
 3680SOL    HW111939   4.590   1.572   3.458
 3680SOL    HW211940   4.707   1.504   3.366
 3681SOL     OW11941   1.437   0.269   4.962
 3681SOL    HW111942   1.519   0.218   4.937
 3681SOL    HW211943   1.414   0.334   4.889
 3682SOL     OW11944   5.591   2.025   0.963
 3682SOL    HW111945   5.568   2.064   1.052
 3682SOL    HW211946   5.591   2.098   0.894
 3683SOL     OW11947   6.791   0.899   5.197
 3683SOL    HW111948   6.734   0.974   5.162
 3683SOL    HW211949   6.731   0.824   5.227
 3684SOL     OW11950   1.713   6.953   5.675
 3684SOL    HW111951   1.651   6.933   5.750
 3684SOL    HW211952   1.749   0.024   5.685
 3685SOL     OW11953   2.442   5.932   5.944
 3685SOL    HW111954   2.356   5.897   5.980
 3685SOL    HW211955   2.487   5.861   5.890
 3686SOL     OW11956   6.917   3.578   3.202
 3686SOL    HW111957   6.864   3.584   3.118
 3686SOL    HW211958   6.863   3.530   3.272
 3687SOL     OW11959   4.554   6.308   3.456
 3687SOL    HW111960   4.482   6.377   3.465
 3687SOL    HW211961   4.620   6.337   3.387
 3688SOL     OW11962   5.672   2.970   6.956
 3688SOL    HW111963   5.633   3.043   7.012
 3688SOL    HW211964   5.671   2.884   7.007
 3689SOL     OW11965   1.565   0.813   5.322
 3689SOL    HW111966   1.472   0.776   5.332
 3689SOL    HW211967   1.563   0.891   5.259
 3690SOL     OW11968   5.236   5.019   0.861
 3690SOL    HW111969   5.283   4.954   0.921
 3690SOL    HW211970   5.203   5.096   0.916
 3691SOL     OW11971   2.993   1.638   0.101
 3691SOL    HW111972   3.079   1.661   0.147
 3691SOL    HW211973   2.977   1.702   0.026
 3692SOL     OW11974   0.615   3.490   6.373
 3692SOL    HW111975   0.619   3.546   6.456
 3692SOL    HW211976   0.707   3.478   6.336
 3693SOL     OW11977   1.107   1.655   2.728
 3693SOL    HW111978   1.035   1.600   2.771
 3693SOL    HW211979   1.084   1.671   2.632
 3694SOL     OW11980   0.348   0.792   2.409
 3694SOL    HW111981   0.278   0.789   2.338
 3694SOL    HW211982   0.382   0.699   2.426
 3695SOL     OW11983   6.325   2.418   2.847
 3695SOL    HW111984   6.396   2.454   2.787
 3695SOL    HW211985   6.256   2.488   2.864
 3696SOL     OW11986   4.976   0.734   5.017
 3696SOL    HW111987   5.060   0.697   5.057
 3696SOL    HW211988   4.900   0.671   5.034
 3697SOL     OW11989   6.351   6.315   3.422
 3697SOL    HW111990   6.381   6.263   3.503
 3697SOL    HW211991   6.400   6.402   3.418
 3698SOL     OW11992   2.156   0.696   2.859
 3698SOL    HW111993   2.095   0.660   2.788
 3698SOL    HW211994   2.168   0.627   2.931
 3699SOL     OW11995   2.292   2.165   4.351
 3699SOL    HW111996   2.392   2.159   4.349
 3699SOL    HW211997   2.264   2.261   4.349
 3700SOL     OW11998   1.464   4.924   4.982
 3700SOL    HW111999   1.468   4.831   4.947
 3700SOL    HW212000   1.373   4.962   4.967
 3701SOL     OW12001   1.154   6.956   3.137
 3701SOL    HW112002   1.098   0.016   3.128
 3701SOL    HW212003   1.123   6.887   3.072
 3702SOL     OW12004   5.214   4.283   3.538
 3702SOL    HW112005   5.228   4.283   3.439
 3702SOL    HW212006   5.141   4.219   3.561
 3703SOL     OW12007   1.343   1.943   5.728
 3703SOL    HW112008   1.352   1.870   5.660
 3703SOL    HW212009   1.246   1.955   5.750
 3704SOL     OW12010   6.561   2.490   1.114
 3704SOL    HW112011   6.504   2.523   1.039
 3704SOL    HW212012   6.529   2.529   1.200
 3705SOL     OW12013   4.924   4.689   3.585
 3705SOL    HW112014   4.984   4.614   3.612
 3705SOL    HW212015   4.885   4.671   3.495
 3706SOL     OW12016   1.228   3.744   0.541
 3706SOL    HW112017   1.272   3.788   0.620
 3706SOL    HW212018   1.135   3.778   0.532
 3707SOL     OW12019   2.386   4.927   3.578
 3707SOL    HW112020   2.456   4.865   3.615
 3707SOL    HW212021   2.374   5.005   3.640
 3708SOL     OW12022   3.827   6.779   1.089
 3708SOL    HW112023   3.763   6.754   1.016
 3708SOL    HW212024   3.846   6.877   1.084
 3709SOL     OW12025   1.994   0.535   2.667
 3709SOL    HW112026   1.997   0.474   2.747
 3709SOL    HW212027   1.982   0.481   2.584
 3710SOL     OW12028   0.249   5.446   5.560
 3710SOL    HW112029   0.321   5.383   5.531
 3710SOL    HW212030   0.164   5.395   5.574
 3711SOL     OW12031   1.948   6.289   4.580
 3711SOL    HW112032   1.924   6.246   4.667
 3711SOL    HW212033   1.869   6.286   4.518
 3712SOL     OW12034   2.134   5.678   5.101
 3712SOL    HW112035   2.219   5.647   5.144
 3712SOL    HW212036   2.124   5.633   5.012
 3713SOL     OW12037   6.627   6.647   5.425
 3713SOL    HW112038   6.632   6.715   5.498
 3713SOL    HW212039   6.707   6.657   5.365
 3714SOL     OW12040   1.076   4.893   0.313
 3714SOL    HW112041   1.074   4.822   0.384
 3714SOL    HW212042   1.136   4.967   0.342
 3715SOL     OW12043   6.763   5.868   3.139
 3715SOL    HW112044   6.774   5.891   3.236
 3715SOL    HW212045   6.810   5.781   3.120
 3716SOL     OW12046   5.488   5.866   4.148
 3716SOL    HW112047   5.570   5.823   4.110
 3716SOL    HW212048   5.515   5.932   4.218
 3717SOL     OW12049   4.405   1.359   1.407
 3717SOL    HW112050   4.364   1.269   1.390
 3717SOL    HW212051   4.489   1.349   1.461
 3718SOL     OW12052   0.396   6.887   6.494
 3718SOL    HW112053   0.351   6.844   6.417
 3718SOL    HW212054   0.414   6.819   6.565
 3719SOL     OW12055   4.453   3.862   6.433
 3719SOL    HW112056   4.456   3.762   6.431
 3719SOL    HW212057   4.358   3.893   6.429
 3720SOL     OW12058   6.739   3.077   1.613
 3720SOL    HW112059   6.750   2.978   1.625
 3720SOL    HW212060   6.756   3.100   1.517
 3721SOL     OW12061   6.691   4.490   6.693
 3721SOL    HW112062   6.637   4.565   6.654
 3721SOL    HW212063   6.759   4.526   6.756
 3722SOL     OW12064   3.805   0.050   2.556
 3722SOL    HW112065   3.884   0.099   2.593
 3722SOL    HW212066   3.836   6.999   2.495
 3723SOL     OW12067   4.103   5.351   6.820
 3723SOL    HW112068   4.039   5.307   6.757
 3723SOL    HW212069   4.178   5.392   6.769
 3724SOL     OW12070   1.371   4.798   4.569
 3724SOL    HW112071   1.376   4.866   4.496
 3724SOL    HW212072   1.452   4.739   4.566
 3725SOL     OW12073   0.060   6.646   0.144
 3725SOL    HW112074   7.022   6.717   0.106
 3725SOL    HW212075   0.045   6.560   0.095
 3726SOL     OW12076   5.664   3.807   3.681
 3726SOL    HW112077   5.665   3.707   3.671
 3726SOL    HW212078   5.583   3.835   3.733
 3727SOL     OW12079   6.814   2.921   4.171
 3727SOL    HW112080   6.856   2.843   4.216
 3727SOL    HW212081   6.763   2.890   4.091
 3728SOL     OW12082   3.513   3.836   0.078
 3728SOL    HW112083   3.472   3.779   0.150
 3728SOL    HW212084   3.604   3.865   0.107
 3729SOL     OW12085   0.589   0.140   5.239
 3729SOL    HW112086   0.503   0.166   5.282
 3729SOL    HW212087   0.649   0.098   5.307
 3730SOL     OW12088   4.259   6.053   5.876
 3730SOL    HW112089   4.227   6.021   5.787
 3730SOL    HW212090   4.254   6.153   5.879
 3731SOL     OW12091   0.774   2.044   6.301
 3731SOL    HW112092   0.717   1.967   6.328
 3731SOL    HW212093   0.768   2.116   6.371
 3732SOL     OW12094   2.883   1.836   6.900
 3732SOL    HW112095   2.982   1.824   6.901
 3732SOL    HW212096   2.862   1.928   6.865
 3733SOL     OW12097   1.872   2.503   3.692
 3733SOL    HW112098   1.855   2.405   3.685
 3733SOL    HW212099   1.966   2.519   3.720
 3734SOL     OW12100   4.141   0.175   1.681
 3734SOL    HW112101   4.042   0.175   1.666
 3734SOL    HW212102   4.166   0.250   1.741
 3735SOL     OW12103   4.486   6.732   2.448
 3735SOL    HW112104   4.552   6.714   2.520
 3735SOL    HW212105   4.486   6.655   2.383
 3736SOL     OW12106   6.559   1.135   1.603
 3736SOL    HW112107   6.508   1.119   1.687
 3736SOL    HW212108   6.591   1.230   1.601
 3737SOL     OW12109   0.640   2.331   3.400
 3737SOL    HW112110   0.670   2.248   3.445
 3737SOL    HW212111   0.664   2.328   3.303
 3738SOL     OW12112   6.627   6.247   0.344
 3738SOL    HW112113   6.529   6.233   0.325
 3738SOL    HW212114   6.642   6.343   0.367
 3739SOL     OW12115   2.987   4.842   1.292
 3739SOL    HW112116   3.033   4.844   1.381
 3739SOL    HW212117   2.890   4.824   1.306
 3740SOL     OW12118   5.517   5.536   0.082
 3740SOL    HW112119   5.487   5.630   0.064
 3740SOL    HW212120   5.590   5.536   0.149
 3741SOL     OW12121   5.578   2.292   0.463
 3741SOL    HW112122   5.659   2.333   0.423
 3741SOL    HW212123   5.604   2.223   0.531
 3742SOL     OW12124   3.989   5.872   0.235
 3742SOL    HW112125   3.946   5.782   0.223
 3742SOL    HW212126   4.081   5.859   0.273
 3743SOL     OW12127   4.129   3.360   1.306
 3743SOL    HW112128   4.203   3.398   1.362
 3743SOL    HW212129   4.167   3.320   1.223
 3744SOL     OW12130   0.881   6.180   1.998
 3744SOL    HW112131   0.860   6.122   1.919
 3744SOL    HW212132   0.836   6.269   1.986
 3745SOL     OW12133   4.923   3.709   2.330
 3745SOL    HW112134   4.909   3.622   2.283
 3745SOL    HW212135   5.009   3.750   2.300
 3746SOL     OW12136   6.750   0.489   3.477
 3746SOL    HW112137   6.763   0.485   3.378
 3746SOL    HW212138   6.788   0.407   3.520
 3747SOL     OW12139   4.637   6.684   6.291
 3747SOL    HW112140   4.730   6.708   6.319
 3747SOL    HW212141   4.575   6.694   6.369
 3748SOL     OW12142   5.423   1.161   2.897
 3748SOL    HW112143   5.401   1.108   2.979
 3748SOL    HW212144   5.348   1.225   2.877
 3749SOL     OW12145   0.393   5.307   2.578
 3749SOL    HW112146   0.318   5.343   2.634
 3749SOL    HW212147   0.453   5.382   2.550
 3750SOL     OW12148   5.837   4.032   0.144
 3750SOL    HW112149   5.869   4.055   0.052
 3750SOL    HW212150   5.761   4.092   0.169
 3751SOL     OW12151   1.838   3.182   1.209
 3751SOL    HW112152   1.878   3.268   1.177
 3751SOL    HW212153   1.910   3.114   1.224
 3752SOL     OW12154   0.878   0.376   6.632
 3752SOL    HW112155   0.927   0.323   6.701
 3752SOL    HW212156   0.923   0.465   6.620
 3753SOL     OW12157   6.881   6.442   4.367
 3753SOL    HW112158   6.883   6.528   4.316
 3753SOL    HW212159   6.969   6.395   4.356
 3754SOL     OW12160   5.658   6.514   1.086
 3754SOL    HW112161   5.740   6.508   1.143
 3754SOL    HW212162   5.617   6.605   1.096
 3755SOL     OW12163   5.426   3.955   3.741
 3755SOL    HW112164   5.465   4.005   3.819
 3755SOL    HW212165   5.334   3.922   3.765
 3756SOL     OW12166   2.196   2.145   6.176
 3756SOL    HW112167   2.204   2.089   6.258
 3756SOL    HW212168   2.109   2.125   6.130
 3757SOL     OW12169   2.979   5.875   5.652
 3757SOL    HW112170   2.917   5.908   5.723
 3757SOL    HW212171   3.009   5.952   5.596
 3758SOL     OW12172   2.492   1.205   4.419
 3758SOL    HW112173   2.500   1.296   4.379
 3758SOL    HW212174   2.570   1.188   4.479
 3759SOL     OW12175   4.968   4.980   6.198
 3759SOL    HW112176   4.964   4.976   6.098
 3759SOL    HW212177   4.878   4.962   6.236
 3760SOL     OW12178   1.445   3.187   4.394
 3760SOL    HW112179   1.491   3.116   4.341
 3760SOL    HW212180   1.499   3.208   4.475
 3761SOL     OW12181   0.652   6.613   4.833
 3761SOL    HW112182   0.707   6.589   4.913
 3761SOL    HW212183   0.692   6.571   4.751
 3762SOL     OW12184   0.557   4.106   0.201
 3762SOL    HW112185   0.471   4.084   0.154
 3762SOL    HW212186   0.632   4.105   0.135
 3763SOL     OW12187   6.132   3.105   6.176
 3763SOL    HW112188   6.071   3.054   6.115
 3763SOL    HW212189   6.175   3.180   6.125
 3764SOL     OW12190   2.700   0.262   4.129
 3764SOL    HW112191   2.735   0.337   4.184
 3764SOL    HW212192   2.771   0.192   4.118
 3765SOL     OW12193   4.833   0.979   3.652
 3765SOL    HW112194   4.810   1.047   3.582
 3765SOL    HW212195   4.767   0.904   3.648
 3766SOL     OW12196   0.482   1.122   3.960
 3766SOL    HW112197   0.517   1.133   4.053
 3766SOL    HW212198   0.472   1.024   3.939
 3767SOL     OW12199   1.144   5.210   6.553
 3767SOL    HW112200   1.195   5.154   6.488
 3767SOL    HW212201   1.087   5.152   6.611
 3768SOL     OW12202   4.325   6.653   6.625
 3768SOL    HW112203   4.361   6.744   6.642
 3768SOL    HW212204   4.317   6.603   6.711
 3769SOL     OW12205   5.408   6.106   4.819
 3769SOL    HW112206   5.328   6.165   4.810
 3769SOL    HW212207   5.435   6.100   4.915
 3770SOL     OW12208   1.875   1.202   6.102
 3770SOL    HW112209   1.810   1.274   6.077
 3770SOL    HW212210   1.939   1.237   6.170
 3771SOL     OW12211   5.076   2.307   0.537
 3771SOL    HW112212   5.163   2.258   0.528
 3771SOL    HW212213   5.030   2.310   0.448
 3772SOL     OW12214   6.011   0.690   1.609
 3772SOL    HW112215   5.953   0.723   1.535
 3772SOL    HW212216   5.992   0.742   1.693
 3773SOL     OW12217   5.764   3.214   5.482
 3773SOL    HW112218   5.679   3.171   5.513
 3773SOL    HW212219   5.743   3.297   5.431
 3774SOL     OW12220   0.913   0.756   0.094
 3774SOL    HW112221   0.830   0.711   0.126
 3774SOL    HW212222   0.962   0.696   0.031
 3775SOL     OW12223   5.178   3.486   3.367
 3775SOL    HW112224   5.095   3.492   3.312
 3775SOL    HW212225   5.240   3.418   3.327
 3776SOL     OW12226   2.076   2.626   1.600
 3776SOL    HW112227   2.089   2.592   1.693
 3776SOL    HW212228   2.163   2.618   1.550
 3777SOL     OW12229   2.935   5.278   4.695
 3777SOL    HW112230   2.873   5.355   4.712
 3777SOL    HW212231   3.029   5.311   4.693
 3778SOL     OW12232   2.855   5.587   2.250
 3778SOL    HW112233   2.920   5.539   2.309
 3778SOL    HW212234   2.898   5.606   2.162
 3779SOL     OW12235   2.530   4.605   0.042
 3779SOL    HW112236   2.624   4.633   0.021
 3779SOL    HW212237   2.529   4.550   0.125
 3780SOL     OW12238   3.107   5.735   5.252
 3780SOL    HW112239   3.107   5.831   5.279
 3780SOL    HW212240   3.186   5.717   5.192
 3781SOL     OW12241   3.144   0.036   4.368
 3781SOL    HW112242   3.140   6.978   4.308
 3781SOL    HW212243   3.239   0.054   4.393
 3782SOL     OW12244   2.155   1.476   4.237
 3782SOL    HW112245   2.192   1.543   4.302
 3782SOL    HW212246   2.055   1.482   4.238
 3783SOL     OW12247   5.651   6.358   4.790
 3783SOL    HW112248   5.683   6.448   4.761
 3783SOL    HW212249   5.557   6.365   4.824
 3784SOL     OW12250   5.766   0.769   3.284
 3784SOL    HW112251   5.820   0.838   3.332
 3784SOL    HW212252   5.674   0.765   3.324
 3785SOL     OW12253   2.326   2.501   1.071
 3785SOL    HW112254   2.404   2.451   1.110
 3785SOL    HW212255   2.345   2.525   0.976
 3786SOL     OW12256   2.822   4.734   3.356
 3786SOL    HW112257   2.817   4.833   3.343
 3786SOL    HW212258   2.913   4.710   3.389
 3787SOL     OW12259   4.861   1.261   4.447
 3787SOL    HW112260   4.852   1.360   4.433
 3787SOL    HW212261   4.943   1.242   4.499
 3788SOL     OW12262   6.461   2.817   3.279
 3788SOL    HW112263   6.491   2.723   3.298
 3788SOL    HW212264   6.541   2.877   3.277
 3789SOL     OW12265   1.486   4.589   4.352
 3789SOL    HW112266   1.534   4.612   4.436
 3789SOL    HW212267   1.527   4.508   4.310
 3790SOL     OW12268   2.084   3.503   4.578
 3790SOL    HW112269   2.119   3.410   4.566
 3790SOL    HW212270   2.122   3.543   4.662
 3791SOL     OW12271   5.449   6.815   1.592
 3791SOL    HW112272   5.440   6.802   1.691
 3791SOL    HW212273   5.372   6.772   1.545
 3792SOL     OW12274   6.295   6.553   4.938
 3792SOL    HW112275   6.242   6.472   4.914
 3792SOL    HW212276   6.388   6.526   4.965
 3793SOL     OW12277   2.191   1.542   2.114
 3793SOL    HW112278   2.159   1.454   2.080
 3793SOL    HW212279   2.142   1.565   2.198
 3794SOL     OW12280   4.134   6.108   1.763
 3794SOL    HW112281   4.234   6.108   1.767
 3794SOL    HW212282   4.100   6.194   1.799
 3795SOL     OW12283   5.016   0.679   6.995
 3795SOL    HW112284   5.093   0.654   0.030
 3795SOL    HW212285   4.955   0.600   6.984
 3796SOL     OW12286   1.606   2.180   1.810
 3796SOL    HW112287   1.643   2.095   1.773
 3796SOL    HW212288   1.506   2.179   1.799
 3797SOL     OW12289   1.044   5.256   1.992
 3797SOL    HW112290   1.135   5.296   1.996
 3797SOL    HW212291   1.048   5.162   2.026
 3798SOL     OW12292   2.407   4.780   3.011
 3798SOL    HW112293   2.487   4.752   3.065
 3798SOL    HW212294   2.438   4.816   2.923
 3799SOL     OW12295   1.567   1.360   5.310
 3799SOL    HW112296   1.604   1.276   5.271
 3799SOL    HW212297   1.641   1.425   5.326
 3800SOL     OW12298   5.352   2.282   4.873
 3800SOL    HW112299   5.324   2.215   4.804
 3800SOL    HW212300   5.276   2.343   4.893
 3801SOL     OW12301   7.008   6.550   5.820
 3801SOL    HW112302   6.923   6.590   5.784
 3801SOL    HW212303   0.037   6.621   5.869
 3802SOL     OW12304   0.856   1.899   4.783
 3802SOL    HW112305   0.816   1.876   4.872
 3802SOL    HW212306   0.920   1.975   4.794
 3803SOL     OW12307   4.145   0.117   1.376
 3803SOL    HW112308   4.185   0.167   1.453
 3803SOL    HW212309   4.072   0.058   1.409
 3804SOL     OW12310   4.150   1.926   4.582
 3804SOL    HW112311   4.078   1.957   4.519
 3804SOL    HW212312   4.167   1.996   4.651
 3805SOL     OW12313   3.025   4.189   1.774
 3805SOL    HW112314   2.995   4.274   1.818
 3805SOL    HW212315   2.946   4.142   1.735
 3806SOL     OW12316   2.790   2.841   0.560
 3806SOL    HW112317   2.842   2.917   0.520
 3806SOL    HW212318   2.697   2.840   0.522
 3807SOL     OW12319   0.785   6.665   4.179
 3807SOL    HW112320   0.689   6.684   4.159
 3807SOL    HW212321   0.839   6.673   4.096
 3808SOL     OW12322   3.094   0.233   2.124
 3808SOL    HW112323   3.191   0.257   2.119
 3808SOL    HW212324   3.077   0.153   2.065
 3809SOL     OW12325   6.287   1.948   6.713
 3809SOL    HW112326   6.351   1.890   6.762
 3809SOL    HW212327   6.243   1.895   6.640
 3810SOL     OW12328   3.212   3.182   5.230
 3810SOL    HW112329   3.188   3.134   5.145
 3810SOL    HW212330   3.131   3.230   5.264
 3811SOL     OW12331   0.751   4.724   4.408
 3811SOL    HW112332   0.806   4.654   4.455
 3811SOL    HW212333   0.681   4.759   4.470
 3812SOL     OW12334   6.101   1.845   5.759
 3812SOL    HW112335   6.107   1.885   5.668
 3812SOL    HW212336   6.080   1.917   5.826
 3813SOL     OW12337   3.484   5.651   0.485
 3813SOL    HW112338   3.400   5.660   0.431
 3813SOL    HW212339   3.543   5.729   0.467
 3814SOL     OW12340   6.741   6.189   1.710
 3814SOL    HW112341   6.731   6.205   1.808
 3814SOL    HW212342   6.656   6.215   1.664
 3815SOL     OW12343   5.387   1.963   1.386
 3815SOL    HW112344   5.299   2.008   1.370
 3815SOL    HW212345   5.382   1.868   1.355
 3816SOL     OW12346   0.330   6.560   1.951
 3816SOL    HW112347   0.408   6.510   1.988
 3816SOL    HW212348   0.343   6.575   1.853
 3817SOL     OW12349   4.524   2.196   4.435
 3817SOL    HW112350   4.619   2.167   4.438
 3817SOL    HW212351   4.511   2.262   4.360
 3818SOL     OW12352   4.435   5.927   2.727
 3818SOL    HW112353   4.377   5.876   2.791
 3818SOL    HW212354   4.527   5.935   2.765
 3819SOL     OW12355   5.514   5.299   0.774
 3819SOL    HW112356   5.589   5.233   0.776
 3819SOL    HW212357   5.430   5.252   0.744
 3820SOL     OW12358   4.593   6.014   4.311
 3820SOL    HW112359   4.685   6.043   4.285
 3820SOL    HW212360   4.577   5.920   4.280
 3821SOL     OW12361   1.787   3.440   2.237
 3821SOL    HW112362   1.771   3.360   2.177
 3821SOL    HW212363   1.774   3.524   2.184
 3822SOL     OW12364   2.353   5.025   1.695
 3822SOL    HW112365   2.361   4.925   1.703
 3822SOL    HW212366   2.432   5.068   1.739
 3823SOL     OW12367   3.678   2.591   5.892
 3823SOL    HW112368   3.703   2.655   5.821
 3823SOL    HW212369   3.755   2.575   5.953
 3824SOL     OW12370   6.068   2.016   6.196
 3824SOL    HW112371   6.062   2.112   6.221
 3824SOL    HW212372   6.158   1.980   6.222
 3825SOL     OW12373   0.490   0.089   6.372
 3825SOL    HW112374   0.456   0.005   6.414
 3825SOL    HW212375   0.574   0.118   6.418
 3826SOL     OW12376   6.835   3.423   1.084
 3826SOL    HW112377   6.739   3.397   1.092
 3826SOL    HW212378   6.865   3.470   1.167
 3827SOL     OW12379   3.469   3.629   0.507
 3827SOL    HW112380   3.435   3.598   0.596
 3827SOL    HW212381   3.564   3.659   0.517
 3828SOL     OW12382   4.394   2.586   1.737
 3828SOL    HW112383   4.297   2.608   1.726
 3828SOL    HW212384   4.447   2.671   1.747
 3829SOL     OW12385   2.086   5.252   3.689
 3829SOL    HW112386   2.135   5.293   3.766
 3829SOL    HW212387   2.111   5.156   3.681
 3830SOL     OW12388   2.745   0.165   5.299
 3830SOL    HW112389   2.728   0.090   5.234
 3830SOL    HW212390   2.832   0.149   5.346
 3831SOL     OW12391   4.233   1.997   2.449
 3831SOL    HW112392   4.178   2.079   2.468
 3831SOL    HW212393   4.329   2.016   2.468
 3832SOL     OW12394   6.614   0.830   1.577
 3832SOL    HW112395   6.590   0.927   1.572
 3832SOL    HW212396   6.701   0.816   1.530
 3833SOL     OW12397   0.683   4.878   1.074
 3833SOL    HW112398   0.652   4.953   1.132
 3833SOL    HW212399   0.702   4.797   1.129
 3834SOL     OW12400   2.724   1.758   0.564
 3834SOL    HW112401   2.785   1.754   0.643
 3834SOL    HW212402   2.634   1.790   0.594
 3835SOL     OW12403   3.719   5.895   5.950
 3835SOL    HW112404   3.729   5.940   6.039
 3835SOL    HW212405   3.633   5.924   5.908
 3836SOL     OW12406   1.380   4.328   6.250
 3836SOL    HW112407   1.431   4.383   6.317
 3836SOL    HW212408   1.405   4.357   6.158
 3837SOL     OW12409   5.039   3.802   6.830
 3837SOL    HW112410   5.097   3.853   6.893
 3837SOL    HW212411   4.967   3.755   6.880
 3838SOL     OW12412   5.803   2.255   4.108
 3838SOL    HW112413   5.851   2.338   4.136
 3838SOL    HW212414   5.706   2.263   4.130
 3839SOL     OW12415   5.526   6.557   5.330
 3839SOL    HW112416   5.454   6.578   5.396
 3839SOL    HW212417   5.593   6.631   5.330
 3840SOL     OW12418   1.773   1.008   4.016
 3840SOL    HW112419   1.764   1.035   3.920
 3840SOL    HW212420   1.774   0.909   4.023
 3841SOL     OW12421   1.183   3.924   5.111
 3841SOL    HW112422   1.277   3.957   5.118
 3841SOL    HW212423   1.164   3.898   5.017
 3842SOL     OW12424   0.899   5.285   0.303
 3842SOL    HW112425   0.876   5.189   0.285
 3842SOL    HW212426   0.821   5.342   0.277
 3843SOL     OW12427   6.201   3.224   0.392
 3843SOL    HW112428   6.229   3.201   0.485
 3843SOL    HW212429   6.282   3.228   0.333
 3844SOL     OW12430   2.077   4.862   5.802
 3844SOL    HW112431   2.051   4.830   5.711
 3844SOL    HW212432   2.073   4.962   5.805
 3845SOL     OW12433   3.452   3.892   3.030
 3845SOL    HW112434   3.357   3.863   3.032
 3845SOL    HW212435   3.510   3.821   3.070
 3846SOL     OW12436   0.184   4.403   4.253
 3846SOL    HW112437   0.223   4.413   4.161
 3846SOL    HW212438   0.095   4.447   4.257
 3847SOL     OW12439   0.032   0.351   6.081
 3847SOL    HW112440   0.031   0.382   6.176
 3847SOL    HW212441   0.043   0.429   6.021
 3848SOL     OW12442   2.892   4.752   1.556
 3848SOL    HW112443   2.809   4.764   1.502
 3848SOL    HW212444   2.875   4.785   1.650
 3849SOL     OW12445   0.882   1.856   5.720
 3849SOL    HW112446   0.943   1.924   5.760
 3849SOL    HW212447   0.791   1.896   5.708
 3850SOL     OW12448   3.367   3.951   1.838
 3850SOL    HW112449   3.429   4.021   1.803
 3850SOL    HW212450   3.281   3.955   1.788
 3851SOL     OW12451   2.147   3.250   3.211
 3851SOL    HW112452   2.134   3.151   3.221
 3851SOL    HW212453   2.208   3.268   3.133
 3852SOL     OW12454   4.232   0.472   4.617
 3852SOL    HW112455   4.288   0.552   4.599
 3852SOL    HW212456   4.227   0.456   4.716
 3853SOL     OW12457   0.843   3.688   2.496
 3853SOL    HW112458   0.865   3.680   2.593
 3853SOL    HW212459   0.923   3.722   2.446
 3854SOL     OW12460   0.687   3.566   4.533
 3854SOL    HW112461   0.694   3.605   4.441
 3854SOL    HW212462   0.632   3.626   4.591
 3855SOL     OW12463   6.271   3.766   5.437
 3855SOL    HW112464   6.275   3.839   5.369
 3855SOL    HW212465   6.180   3.762   5.478
 3856SOL     OW12466   6.765   6.709   5.951
 3856SOL    HW112467   6.681   6.759   5.971
 3856SOL    HW212468   6.793   6.657   6.032
 3857SOL     OW12469   0.980   6.713   4.827
 3857SOL    HW112470   0.948   6.765   4.906
 3857SOL    HW212471   1.069   6.673   4.847
 3858SOL     OW12472   1.960   5.835   6.574
 3858SOL    HW112473   1.980   5.875   6.484
 3858SOL    HW212474   1.939   5.909   6.638
 3859SOL     OW12475   0.082   2.974   2.771
 3859SOL    HW112476   0.123   3.062   2.744
 3859SOL    HW212477   0.122   2.901   2.717
 3860SOL     OW12478   2.304   6.951   5.394
 3860SOL    HW112479   2.272   6.902   5.476
 3860SOL    HW212480   2.366   0.002   5.422
 3861SOL     OW12481   4.558   4.636   1.382
 3861SOL    HW112482   4.603   4.699   1.445
 3861SOL    HW212483   4.571   4.542   1.414
 3862SOL     OW12484   0.899   5.848   5.579
 3862SOL    HW112485   0.985   5.894   5.557
 3862SOL    HW212486   0.891   5.765   5.522
 3863SOL     OW12487   3.116   3.944   1.687
 3863SOL    HW112488   3.091   4.041   1.681
 3863SOL    HW212489   3.045   3.895   1.737
 3864SOL     OW12490   3.035   1.980   0.321
 3864SOL    HW112491   3.077   2.023   0.401
 3864SOL    HW212492   2.965   2.040   0.283
 3865SOL     OW12493   5.008   0.171   2.516
 3865SOL    HW112494   5.080   0.153   2.583
 3865SOL    HW212495   5.049   0.180   2.425
 3866SOL     OW12496   3.579   6.982   0.321
 3866SOL    HW112497   3.646   7.000   0.249
 3866SOL    HW212498   3.522   6.904   0.294
 3867SOL     OW12499   2.058   3.737   3.321
 3867SOL    HW112500   2.090   3.662   3.379
 3867SOL    HW212501   2.053   3.707   3.226
 3868SOL     OW12502   2.122   6.502   2.799
 3868SOL    HW112503   2.127   6.574   2.729
 3868SOL    HW212504   2.044   6.520   2.859
 3869SOL     OW12505   0.766   3.117   3.253
 3869SOL    HW112506   0.790   3.208   3.287
 3869SOL    HW212507   0.846   3.074   3.212
 3870SOL     OW12508   2.797   5.261   0.310
 3870SOL    HW112509   2.893   5.240   0.329
 3870SOL    HW212510   2.741   5.233   0.388
 3871SOL     OW12511   2.431   0.116   3.414
 3871SOL    HW112512   2.481   0.110   3.501
 3871SOL    HW212513   2.475   0.057   3.347
 3872SOL     OW12514   4.318   3.728   0.722
 3872SOL    HW112515   4.296   3.823   0.746
 3872SOL    HW212516   4.359   3.683   0.801
 3873SOL     OW12517   5.539   4.566   2.207
 3873SOL    HW112518   5.607   4.493   2.202
 3873SOL    HW212519   5.547   4.612   2.296
 3874SOL     OW12520   4.378   0.412   0.005
 3874SOL    HW112521   4.404   0.319   6.998
 3874SOL    HW212522   4.298   0.442   6.975
 3875SOL     OW12523   1.238   5.083   1.172
 3875SOL    HW112524   1.247   5.158   1.238
 3875SOL    HW212525   1.146   5.084   1.133
 3876SOL     OW12526   4.993   3.735   3.707
 3876SOL    HW112527   4.942   3.797   3.648
 3876SOL    HW212528   4.972   3.756   3.803
 3877SOL     OW12529   5.947   1.367   2.402
 3877SOL    HW112530   6.018   1.326   2.344
 3877SOL    HW212531   5.882   1.297   2.432
 3878SOL     OW12532   3.781   6.283   5.907
 3878SOL    HW112533   3.755   6.232   5.825
 3878SOL    HW212534   3.701   6.332   5.942
 3879SOL     OW12535   3.976   5.907   1.951
 3879SOL    HW112536   3.972   5.982   1.885
 3879SOL    HW212537   4.052   5.846   1.929
 3880SOL     OW12538   5.391   3.327   3.443
 3880SOL    HW112539   5.372   3.244   3.390
 3880SOL    HW212540   5.434   3.303   3.529
 3881SOL     OW12541   1.405   3.522   0.881
 3881SOL    HW112542   1.443   3.509   0.789
 3881SOL    HW212543   1.476   3.503   0.949
 3882SOL     OW12544   0.156   0.706   5.805
 3882SOL    HW112545   0.197   0.672   5.889
 3882SOL    HW212546   0.059   0.727   5.820
 3883SOL     OW12547   4.016   0.631   5.657
 3883SOL    HW112548   4.056   0.629   5.566
 3883SOL    HW212549   3.918   0.653   5.650
 3884SOL     OW12550   1.841   5.365   5.837
 3884SOL    HW112551   1.884   5.293   5.891
 3884SOL    HW212552   1.751   5.334   5.807
 3885SOL     OW12553   6.639   1.296   4.713
 3885SOL    HW112554   6.716   1.359   4.713
 3885SOL    HW212555   6.645   1.234   4.635
 3886SOL     OW12556   6.267   6.550   5.631
 3886SOL    HW112557   6.271   6.451   5.631
 3886SOL    HW212558   6.179   6.581   5.593
 3887SOL     OW12559   3.875   2.362   5.732
 3887SOL    HW112560   3.902   2.458   5.731
 3887SOL    HW212561   3.932   2.310   5.668
 3888SOL     OW12562   6.732   2.220   0.699
 3888SOL    HW112563   6.652   2.169   0.667
 3888SOL    HW212564   6.708   2.317   0.708
 3889SOL     OW12565   1.198   6.433   6.072
 3889SOL    HW112566   1.176   6.402   5.980
 3889SOL    HW212567   1.191   6.357   6.136
 3890SOL     OW12568   5.521   4.026   3.293
 3890SOL    HW112569   5.578   3.960   3.243
 3890SOL    HW212570   5.427   4.020   3.260
 3891SOL     OW12571   5.378   4.853   4.988
 3891SOL    HW112572   5.466   4.836   5.033
 3891SOL    HW212573   5.391   4.854   4.889
 3892SOL     OW12574   5.333   6.927   2.896
 3892SOL    HW112575   5.302   6.832   2.889
 3892SOL    HW212576   5.414   6.931   2.955
 3893SOL     OW12577   2.901   5.883   3.932
 3893SOL    HW112578   2.808   5.853   3.952
 3893SOL    HW212579   2.938   5.829   3.856
 3894SOL     OW12580   5.392   3.742   6.659
 3894SOL    HW112581   5.384   3.832   6.700
 3894SOL    HW212582   5.489   3.723   6.640
 3895SOL     OW12583   3.140   2.232   5.498
 3895SOL    HW112584   3.200   2.152   5.505
 3895SOL    HW212585   3.050   2.203   5.466
 3896SOL     OW12586   6.174   2.885   5.605
 3896SOL    HW112587   6.200   2.797   5.646
 3896SOL    HW212588   6.093   2.920   5.651
 3897SOL     OW12589   3.910   6.491   2.244
 3897SOL    HW112590   4.004   6.459   2.240
 3897SOL    HW212591   3.867   6.456   2.328
 3898SOL     OW12592   3.848   4.118   4.812
 3898SOL    HW112593   3.863   4.204   4.764
 3898SOL    HW212594   3.761   4.122   4.861
 3899SOL     OW12595   4.651   1.684   4.983
 3899SOL    HW112596   4.607   1.754   5.038
 3899SOL    HW212597   4.582   1.633   4.931
 3900SOL     OW12598   6.487   2.593   3.772
 3900SOL    HW112599   6.433   2.663   3.820
 3900SOL    HW212600   6.560   2.637   3.720
 3901SOL     OW12601   1.568   6.137   5.351
 3901SOL    HW112602   1.561   6.195   5.270
 3901SOL    HW212603   1.585   6.042   5.323
 3902SOL     OW12604   4.426   4.986   1.633
 3902SOL    HW112605   4.362   4.965   1.559
 3902SOL    HW212606   4.407   5.079   1.667
 3903SOL     OW12607   4.120   2.661   6.292
 3903SOL    HW112608   4.111   2.562   6.301
 3903SOL    HW212609   4.207   2.690   6.331
 3904SOL     OW12610   1.473   6.365   1.260
 3904SOL    HW112611   1.559   6.323   1.288
 3904SOL    HW212612   1.415   6.379   1.340
 3905SOL     OW12613   6.678   0.386   5.155
 3905SOL    HW112614   6.760   0.432   5.189
 3905SOL    HW212615   6.696   0.288   5.146
 3906SOL     OW12616   0.841   5.351   3.992
 3906SOL    HW112617   0.861   5.327   4.087
 3906SOL    HW212618   0.769   5.292   3.957
 3907SOL     OW12619   0.434   1.264   4.575
 3907SOL    HW112620   0.364   1.306   4.517
 3907SOL    HW212621   0.462   1.176   4.535
 3908SOL     OW12622   1.370   0.632   4.487
 3908SOL    HW112623   1.354   0.721   4.531
 3908SOL    HW212624   1.290   0.573   4.501
 3909SOL     OW12625   6.142   2.310   6.489
 3909SOL    HW112626   6.202   2.295   6.567
 3909SOL    HW212627   6.089   2.394   6.504
 3910SOL     OW12628   3.600   2.263   0.665
 3910SOL    HW112629   3.608   2.188   0.598
 3910SOL    HW212630   3.508   2.300   0.662
 3911SOL     OW12631   0.070   1.301   0.946
 3911SOL    HW112632   7.002   1.302   0.903
 3911SOL    HW212633   0.077   1.375   1.013
 3912SOL     OW12634   3.862   1.927   0.584
 3912SOL    HW112635   3.850   1.975   0.671
 3912SOL    HW212636   3.787   1.862   0.570
 3913SOL     OW12637   4.935   5.186   1.262
 3913SOL    HW112638   5.002   5.117   1.292
 3913SOL    HW212639   4.983   5.264   1.223
 3914SOL     OW12640   6.579   1.231   0.377
 3914SOL    HW112641   6.517   1.282   0.436
 3914SOL    HW212642   6.613   1.150   0.425
 3915SOL     OW12643   5.060   5.729   6.697
 3915SOL    HW112644   5.152   5.737   6.736
 3915SOL    HW212645   5.061   5.658   6.625
 3916SOL     OW12646   2.768   1.928   2.510
 3916SOL    HW112647   2.679   1.885   2.524
 3916SOL    HW212648   2.818   1.878   2.439
 3917SOL     OW12649   3.530   4.857   1.326
 3917SOL    HW112650   3.456   4.791   1.312
 3917SOL    HW212651   3.605   4.813   1.373
 3918SOL     OW12652   5.055   0.938   0.797
 3918SOL    HW112653   4.962   0.976   0.792
 3918SOL    HW212654   5.107   0.966   0.716
 3919SOL     OW12655   3.570   0.113   2.487
 3919SOL    HW112656   3.497   0.046   2.500
 3919SOL    HW212657   3.653   0.082   2.534
 3920SOL     OW12658   2.968   1.636   5.772
 3920SOL    HW112659   2.908   1.716   5.777
 3920SOL    HW212660   3.050   1.653   5.828
 3921SOL     OW12661   6.811   2.795   5.995
 3921SOL    HW112662   6.801   2.816   5.898
 3921SOL    HW212663   6.905   2.765   6.012
 3922SOL     OW12664   4.989   4.504   2.909
 3922SOL    HW112665   4.969   4.601   2.923
 3922SOL    HW212666   5.076   4.494   2.861
 3923SOL     OW12667   5.199   0.843   1.457
 3923SOL    HW112668   5.145   0.805   1.532
 3923SOL    HW212669   5.154   0.821   1.370
 3924SOL     OW12670   5.433   5.394   4.146
 3924SOL    HW112671   5.362   5.375   4.214
 3924SOL    HW212672   5.453   5.491   4.145
 3925SOL     OW12673   5.199   3.813   0.524
 3925SOL    HW112674   5.126   3.882   0.530
 3925SOL    HW212675   5.288   3.858   0.534
 3926SOL     OW12676   0.509   6.444   6.348
 3926SOL    HW112677   0.571   6.519   6.326
 3926SOL    HW212678   0.555   6.357   6.332
 3927SOL     OW12679   5.625   2.332   5.851
 3927SOL    HW112680   5.560   2.256   5.849
 3927SOL    HW212681   5.620   2.382   5.765
 3928SOL     OW12682   3.122   5.687   2.078
 3928SOL    HW112683   3.130   5.754   2.152
 3928SOL    HW212684   3.197   5.701   2.013
 3929SOL     OW12685   0.313   2.509   5.038
 3929SOL    HW112686   0.297   2.473   5.130
 3929SOL    HW212687   0.275   2.446   4.970
 3930SOL     OW12688   1.656   4.856   3.902
 3930SOL    HW112689   1.744   4.902   3.891
 3930SOL    HW212690   1.671   4.765   3.940
 3931SOL     OW12691   2.280   2.328   1.676
 3931SOL    HW112692   2.194   2.281   1.655
 3931SOL    HW212693   2.262   2.404   1.738
 3932SOL     OW12694   2.464   5.165   3.717
 3932SOL    HW112695   2.550   5.150   3.765
 3932SOL    HW212696   2.471   5.249   3.662
 3933SOL     OW12697   2.195   5.762   1.451
 3933SOL    HW112698   2.128   5.687   1.450
 3933SOL    HW212699   2.287   5.724   1.463
 3934SOL     OW12700   0.242   1.267   1.778
 3934SOL    HW112701   0.330   1.303   1.810
 3934SOL    HW212702   0.255   1.223   1.689
 3935SOL     OW12703   6.867   3.226   6.310
 3935SOL    HW112704   6.887   3.219   6.408
 3935SOL    HW212705   6.777   3.269   6.298
 3936SOL     OW12706   0.049   5.148   5.598
 3936SOL    HW112707   0.009   5.207   5.528
 3936SOL    HW212708   7.010   5.071   5.616
 3937SOL     OW12709   0.373   6.662   1.691
 3937SOL    HW112710   0.355   6.703   1.602
 3937SOL    HW212711   0.459   6.698   1.727
 3938SOL     OW12712   0.987   3.267   2.729
 3938SOL    HW112713   0.948   3.174   2.728
 3938SOL    HW212714   1.045   3.279   2.648
 3939SOL     OW12715   1.737   0.952   2.580
 3939SOL    HW112716   1.676   1.004   2.521
 3939SOL    HW212717   1.756   1.005   2.663
 3940SOL     OW12718   3.410   5.551   1.144
 3940SOL    HW112719   3.411   5.593   1.234
 3940SOL    HW212720   3.473   5.473   1.142
 3941SOL     OW12721   5.365   5.965   3.289
 3941SOL    HW112722   5.305   5.934   3.362
 3941SOL    HW212723   5.356   5.904   3.210
 3942SOL     OW12724   6.552   5.923   5.728
 3942SOL    HW112725   6.618   5.851   5.709
 3942SOL    HW212726   6.563   5.997   5.661
 3943SOL     OW12727   1.632   2.576   0.262
 3943SOL    HW112728   1.677   2.663   0.286
 3943SOL    HW212729   1.601   2.580   0.168
 3944SOL     OW12730   5.463   2.340   6.824
 3944SOL    HW112731   5.389   2.399   6.794
 3944SOL    HW212732   5.435   2.244   6.816
 3945SOL     OW12733   6.156   0.640   3.133
 3945SOL    HW112734   6.226   0.619   3.201
 3945SOL    HW212735   6.114   0.728   3.154
 3946SOL     OW12736   1.377   3.102   0.009
 3946SOL    HW112737   1.384   3.189   0.058
 3946SOL    HW212738   1.452   3.042   0.035
 3947SOL     OW12739   6.270   4.710   2.343
 3947SOL    HW112740   6.171   4.707   2.357
 3947SOL    HW212741   6.315   4.731   2.430
 3948SOL     OW12742   1.369   2.692   6.253
 3948SOL    HW112743   1.286   2.670   6.201
 3948SOL    HW212744   1.360   2.784   6.292
 3949SOL     OW12745   6.105   6.936   1.686
 3949SOL    HW112746   6.171   6.995   1.732
 3949SOL    HW212747   6.110   6.952   1.587
 3950SOL     OW12748   3.133   4.530   1.658
 3950SOL    HW112749   3.081   4.530   1.743
 3950SOL    HW212750   3.111   4.613   1.606
 3951SOL     OW12751   1.045   2.092   4.802
 3951SOL    HW112752   1.138   2.113   4.772
 3951SOL    HW212753   0.990   2.176   4.801
 3952SOL     OW12754   5.907   3.589   6.564
 3952SOL    HW112755   5.901   3.635   6.476
 3952SOL    HW212756   5.967   3.509   6.556
 3953SOL     OW12757   2.955   4.381   6.179
 3953SOL    HW112758   3.000   4.337   6.101
 3953SOL    HW212759   3.014   4.373   6.260
 3954SOL     OW12760   0.355   3.141   5.149
 3954SOL    HW112761   0.441   3.185   5.175
 3954SOL    HW212762   0.342   3.151   5.050
 3955SOL     OW12763   6.836   3.936   0.212
 3955SOL    HW112764   6.880   4.023   0.232
 3955SOL    HW212765   6.820   3.928   0.113
 3956SOL     OW12766   0.726   3.098   5.653
 3956SOL    HW112767   0.713   3.001   5.673
 3956SOL    HW212768   0.810   3.110   5.600
 3957SOL     OW12769   0.823   1.501   3.427
 3957SOL    HW112770   0.838   1.575   3.362
 3957SOL    HW212771   0.910   1.457   3.449
 3958SOL     OW12772   5.875   6.000   6.391
 3958SOL    HW112773   5.808   5.928   6.409
 3958SOL    HW212774   5.873   6.024   6.294
 3959SOL     OW12775   2.456   5.023   0.752
 3959SOL    HW112776   2.544   4.999   0.712
 3959SOL    HW212777   2.468   5.101   0.814
 3960SOL     OW12778   4.794   3.501   0.558
 3960SOL    HW112779   4.712   3.522   0.611
 3960SOL    HW212780   4.790   3.407   0.526
 3961SOL     OW12781   5.505   0.654   2.446
 3961SOL    HW112782   5.413   0.659   2.485
 3961SOL    HW212783   5.526   0.559   2.421
 3962SOL     OW12784   0.504   6.893   5.593
 3962SOL    HW112785   0.428   6.918   5.534
 3962SOL    HW212786   0.590   6.921   5.551
 3963SOL     OW12787   4.811   5.496   2.999
 3963SOL    HW112788   4.745   5.515   2.926
 3963SOL    HW212789   4.798   5.402   3.031
 3964SOL     OW12790   5.385   6.606   5.674
 3964SOL    HW112791   5.443   6.653   5.742
 3964SOL    HW212792   5.363   6.670   5.600
 3965SOL     OW12793   4.011   3.472   0.448
 3965SOL    HW112794   3.929   3.420   0.470
 3965SOL    HW212795   4.010   3.559   0.497
 3966SOL     OW12796   5.799   4.426   5.158
 3966SOL    HW112797   5.830   4.485   5.233
 3966SOL    HW212798   5.878   4.388   5.111
 3967SOL     OW12799   1.072   5.603   6.819
 3967SOL    HW112800   0.988   5.657   6.825
 3967SOL    HW212801   1.147   5.653   6.862
 3968SOL     OW12802   5.644   0.428   1.655
 3968SOL    HW112803   5.708   0.466   1.721
 3968SOL    HW212804   5.659   0.470   1.565
 3969SOL     OW12805   0.261   5.614   1.734
 3969SOL    HW112806   0.169   5.599   1.771
 3969SOL    HW212807   0.304   5.526   1.715
 3970SOL     OW12808   4.542   4.449   3.608
 3970SOL    HW112809   4.527   4.442   3.706
 3970SOL    HW212810   4.561   4.544   3.583
 3971SOL     OW12811   1.779   5.638   3.898
 3971SOL    HW112812   1.857   5.638   3.959
 3971SOL    HW212813   1.804   5.679   3.810
 3972SOL     OW12814   1.701   0.089   0.539
 3972SOL    HW112815   1.703   0.109   0.637
 3972SOL    HW212816   1.724   0.172   0.488
 3973SOL     OW12817   3.486   3.106   3.026
 3973SOL    HW112818   3.516   3.124   2.932
 3973SOL    HW212819   3.519   3.179   3.086
 3974SOL     OW12820   6.368   1.345   6.654
 3974SOL    HW112821   6.403   1.268   6.706
 3974SOL    HW212822   6.268   1.350   6.665
 3975SOL     OW12823   6.536   0.431   5.689
 3975SOL    HW112824   6.518   0.376   5.608
 3975SOL    HW212825   6.634   0.431   5.709
 3976SOL     OW12826   1.078   3.374   6.712
 3976SOL    HW112827   1.031   3.451   6.754
 3976SOL    HW212828   1.172   3.400   6.690
 3977SOL     OW12829   4.143   6.596   6.417
 3977SOL    HW112830   4.226   6.625   6.464
 3977SOL    HW212831   4.143   6.496   6.407
 3978SOL     OW12832   5.661   3.161   6.191
 3978SOL    HW112833   5.576   3.179   6.240
 3978SOL    HW212834   5.727   3.119   6.253
 3979SOL     OW12835   1.399   0.200   3.020
 3979SOL    HW112836   1.396   0.114   3.070
 3979SOL    HW212837   1.306   0.232   3.001
 3980SOL     OW12838   4.947   3.302   4.981
 3980SOL    HW112839   4.893   3.386   4.971
 3980SOL    HW212840   4.920   3.256   5.066
 3981SOL     OW12841   6.211   1.667   5.583
 3981SOL    HW112842   6.154   1.703   5.509
 3981SOL    HW212843   6.192   1.717   5.667
 3982SOL     OW12844   3.804   1.601   3.984
 3982SOL    HW112845   3.784   1.699   3.988
 3982SOL    HW212846   3.901   1.588   3.966
 3983SOL     OW12847   3.607   6.370   3.754
 3983SOL    HW112848   3.551   6.360   3.672
 3983SOL    HW212849   3.593   6.461   3.793
 3984SOL     OW12850   1.250   6.725   1.608
 3984SOL    HW112851   1.346   6.739   1.631
 3984SOL    HW212852   1.214   6.809   1.566
 3985SOL     OW12853   1.427   3.661   1.947
 3985SOL    HW112854   1.416   3.760   1.956
 3985SOL    HW212855   1.519   3.634   1.977
 3986SOL     OW12856   0.944   3.109   2.421
 3986SOL    HW112857   0.962   3.065   2.508
 3986SOL    HW212858   0.958   3.208   2.430
 3987SOL     OW12859   2.798   4.830   6.753
 3987SOL    HW112860   2.822   4.874   6.666
 3987SOL    HW212861   2.770   4.900   6.818
 3988SOL     OW12862   4.350   2.311   0.521
 3988SOL    HW112863   4.379   2.274   0.610
 3988SOL    HW212864   4.252   2.330   0.523
 3989SOL     OW12865   4.347   0.802   6.490
 3989SOL    HW112866   4.341   0.734   6.416
 3989SOL    HW212867   4.443   0.820   6.511
 3990SOL     OW12868   1.260   2.939   3.613
 3990SOL    HW112869   1.318   2.929   3.693
 3990SOL    HW212870   1.184   2.874   3.619
 3991SOL     OW12871   6.971   1.809   4.452
 3991SOL    HW112872   7.009   1.899   4.474
 3991SOL    HW212873   6.873   1.817   4.437
 3992SOL     OW12874   4.892   3.854   5.996
 3992SOL    HW112875   4.821   3.924   5.999
 3992SOL    HW212876   4.981   3.896   6.008
 3993SOL     OW12877   2.165   1.715   3.131
 3993SOL    HW112878   2.256   1.755   3.132
 3993SOL    HW212879   2.107   1.765   3.066
 3994SOL     OW12880   2.330   2.081   3.942
 3994SOL    HW112881   2.382   2.164   3.923
 3994SOL    HW212882   2.344   2.053   4.036
 3995SOL     OW12883   1.365   3.786   2.307
 3995SOL    HW112884   1.378   3.687   2.318
 3995SOL    HW212885   1.453   3.829   2.288
 3996SOL     OW12886   5.516   0.018   3.291
 3996SOL    HW112887   5.426   0.060   3.294
 3996SOL    HW212888   5.543   7.014   3.384
 3997SOL     OW12889   5.519   3.541   2.549
 3997SOL    HW112890   5.457   3.578   2.618
 3997SOL    HW212891   5.561   3.617   2.498
 3998SOL     OW12892   6.251   2.225   3.561
 3998SOL    HW112893   6.308   2.175   3.496
 3998SOL    HW212894   6.276   2.199   3.654
 3999SOL     OW12895   5.432   2.401   1.339
 3999SOL    HW112896   5.479   2.319   1.306
 3999SOL    HW212897   5.337   2.379   1.359
 4000SOL     OW12898   3.570   5.692   2.392
 4000SOL    HW112899   3.546   5.782   2.426
 4000SOL    HW212900   3.663   5.670   2.419
 4001SOL     OW12901   1.913   4.362   4.862
 4001SOL    HW112902   1.866   4.297   4.920
 4001SOL    HW212903   1.965   4.313   4.792
 4002SOL     OW12904   3.693   3.316   3.785
 4002SOL    HW112905   3.770   3.323   3.722
 4002SOL    HW212906   3.615   3.275   3.739
 4003SOL     OW12907   2.567   0.640   5.161
 4003SOL    HW112908   2.633   0.565   5.163
 4003SOL    HW212909   2.475   0.603   5.176
 4004SOL     OW12910   0.482   3.900   3.386
 4004SOL    HW112911   0.501   3.832   3.457
 4004SOL    HW212912   0.413   3.865   3.324
 4005SOL     OW12913   5.429   3.009   0.971
 4005SOL    HW112914   5.368   3.088   0.963
 4005SOL    HW212915   5.375   2.929   0.999
 4006SOL     OW12916   5.109   4.922   3.674
 4006SOL    HW112917   5.201   4.904   3.708
 4006SOL    HW212918   5.064   4.835   3.654
 4007SOL     OW12919   6.597   1.630   2.949
 4007SOL    HW112920   6.695   1.620   2.934
 4007SOL    HW212921   6.547   1.592   2.871
 4008SOL     OW12922   3.051   0.350   1.250
 4008SOL    HW112923   2.966   0.381   1.207
 4008SOL    HW212924   3.031   0.317   1.343
 4009SOL     OW12925   4.372   2.119   0.880
 4009SOL    HW112926   4.312   2.098   0.957
 4009SOL    HW212927   4.360   2.215   0.854
 4010SOL     OW12928   2.151   5.180   1.749
 4010SOL    HW112929   2.117   5.217   1.663
 4010SOL    HW212930   2.227   5.118   1.730
 4011SOL     OW12931   6.086   6.287   6.836
 4011SOL    HW112932   6.036   6.328   6.760
 4011SOL    HW212933   6.107   6.192   6.816
 4012SOL     OW12934   4.038   6.942   2.156
 4012SOL    HW112935   4.038   6.847   2.126
 4012SOL    HW212936   4.129   6.982   2.141
 4013SOL     OW12937   0.604   1.349   6.389
 4013SOL    HW112938   0.618   1.287   6.312
 4013SOL    HW212939   0.678   1.337   6.455
 4014SOL     OW12940   2.778   5.028   2.565
 4014SOL    HW112941   2.857   5.015   2.505
 4014SOL    HW212942   2.808   5.065   2.652
 4015SOL     OW12943   4.040   5.144   5.913
 4015SOL    HW112944   3.989   5.059   5.911
 4015SOL    HW212945   4.079   5.162   5.823
 4016SOL     OW12946   4.126   5.840   6.061
 4016SOL    HW112947   4.145   5.819   6.157
 4016SOL    HW212948   4.175   5.923   6.035
 4017SOL     OW12949   0.537   4.683   5.948
 4017SOL    HW112950   0.454   4.699   5.895
 4017SOL    HW212951   0.602   4.757   5.933
 4018SOL     OW12952   4.490   6.041   1.950
 4018SOL    HW112953   4.484   6.080   1.858
 4018SOL    HW212954   4.520   6.111   2.015
 4019SOL     OW12955   5.255   3.396   3.064
 4019SOL    HW112956   5.331   3.346   3.023
 4019SOL    HW212957   5.211   3.338   3.132
 4020SOL     OW12958   6.751   4.656   4.295
 4020SOL    HW112959   6.706   4.623   4.212
 4020SOL    HW212960   6.687   4.650   4.371
 4021SOL     OW12961   3.363   3.494   5.645
 4021SOL    HW112962   3.409   3.575   5.608
 4021SOL    HW212963   3.393   3.413   5.594
 4022SOL     OW12964   2.665   0.174   0.733
 4022SOL    HW112965   2.660   0.222   0.646
 4022SOL    HW212966   2.710   0.085   0.720
 4023SOL     OW12967   0.309   2.399   5.581
 4023SOL    HW112968   0.214   2.428   5.573
 4023SOL    HW212969   0.325   2.320   5.523
 4024SOL     OW12970   0.702   4.584   4.157
 4024SOL    HW112971   0.733   4.489   4.156
 4024SOL    HW212972   0.718   4.624   4.247
 4025SOL     OW12973   0.605   6.223   3.968
 4025SOL    HW112974   0.511   6.233   4.002
 4025SOL    HW212975   0.603   6.175   3.881
 4026SOL     OW12976   6.516   6.523   3.393
 4026SOL    HW112977   6.555   6.568   3.473
 4026SOL    HW212978   6.575   6.541   3.313
 4027SOL     OW12979   2.393   3.755   5.620
 4027SOL    HW112980   2.317   3.691   5.624
 4027SOL    HW212981   2.476   3.707   5.590
 4028SOL     OW12982   4.788   1.928   2.396
 4028SOL    HW112983   4.753   2.017   2.426
 4028SOL    HW212984   4.795   1.867   2.474
 4029SOL     OW12985   2.237   5.261   6.398
 4029SOL    HW112986   2.138   5.275   6.393
 4029SOL    HW212987   2.256   5.164   6.409
 4030SOL     OW12988   0.724   1.138   2.952
 4030SOL    HW112989   0.727   1.084   2.868
 4030SOL    HW212990   0.654   1.209   2.944
 4031SOL     OW12991   5.276   0.093   1.325
 4031SOL    HW112992   5.292   0.165   1.257
 4031SOL    HW212993   5.289   0.003   1.282
 4032SOL     OW12994   6.353   0.491   1.792
 4032SOL    HW112995   6.295   0.549   1.734
 4032SOL    HW212996   6.414   0.436   1.735
 4033SOL     OW12997   2.706   2.296   2.948
 4033SOL    HW112998   2.736   2.293   2.853
 4033SOL    HW212999   2.758   2.230   3.003
 4034SOL     OW13000   0.120   3.516   4.882
 4034SOL    HW113001   0.149   3.425   4.911
 4034SOL    HW213002   0.054   3.507   4.807
 4035SOL     OW13003   6.367   1.971   1.339
 4035SOL    HW113004   6.281   1.998   1.382
 4035SOL    HW213005   6.441   1.975   1.406
 4036SOL     OW13006   2.216   5.407   3.899
 4036SOL    HW113007   2.196   5.503   3.916
 4036SOL    HW213008   2.197   5.354   3.982
 4037SOL     OW13009   1.996   0.915   5.826
 4037SOL    HW113010   1.934   0.950   5.756
 4037SOL    HW213011   2.039   0.991   5.875
 4038SOL     OW13012   3.392   4.481   6.031
 4038SOL    HW113013   3.377   4.437   5.943
 4038SOL    HW213014   3.436   4.570   6.017
 4039SOL     OW13015   6.013   4.538   1.789
 4039SOL    HW113016   5.987   4.540   1.693
 4039SOL    HW213017   5.950   4.596   1.841
 4040SOL     OW13018   3.808   5.302   5.192
 4040SOL    HW113019   3.790   5.210   5.227
 4040SOL    HW213020   3.883   5.343   5.244
 4041SOL     OW13021   1.894   6.506   1.340
 4041SOL    HW113022   1.810   6.550   1.372
 4041SOL    HW213023   1.972   6.566   1.357
 4042SOL     OW13024   6.307   0.532   3.664
 4042SOL    HW113025   6.257   0.579   3.736
 4042SOL    HW213026   6.400   0.570   3.658
 4043SOL     OW13027   5.485   3.259   6.619
 4043SOL    HW113028   5.393   3.259   6.658
 4043SOL    HW213029   5.481   3.227   6.525
 4044SOL     OW13030   4.289   4.936   3.413
 4044SOL    HW113031   4.255   4.932   3.508
 4044SOL    HW213032   4.327   4.847   3.388
 4045SOL     OW13033   4.938   0.285   5.753
 4045SOL    HW113034   4.938   0.241   5.842
 4045SOL    HW213035   4.987   0.227   5.687
 4046SOL     OW13036   0.188   1.663   3.143
 4046SOL    HW113037   0.100   1.617   3.131
 4046SOL    HW213038   0.219   1.699   3.055
 4047SOL     OW13039   2.713   2.989   6.864
 4047SOL    HW113040   2.720   3.087   6.882
 4047SOL    HW213041   2.673   2.975   6.773
 4048SOL     OW13042   4.848   1.327   1.992
 4048SOL    HW113043   4.915   1.276   1.938
 4048SOL    HW213044   4.878   1.422   2.001
 4049SOL     OW13045   4.061   5.488   6.558
 4049SOL    HW113046   4.049   5.467   6.461
 4049SOL    HW213047   4.049   5.586   6.573
 4050SOL     OW13048   0.376   5.746   2.612
 4050SOL    HW113049   0.382   5.768   2.710
 4050SOL    HW213050   0.304   5.678   2.598
 4051SOL     OW13051   4.770   1.351   6.447
 4051SOL    HW113052   4.825   1.399   6.515
 4051SOL    HW213053   4.749   1.413   6.371
 4052SOL     OW13054   6.068   1.816   3.418
 4052SOL    HW113055   6.056   1.913   3.395
 4052SOL    HW213056   6.032   1.760   3.343
 4053SOL     OW13057   1.159   5.525   4.759
 4053SOL    HW113058   1.073   5.571   4.737
 4053SOL    HW213059   1.213   5.513   4.676
 4054SOL     OW13060   4.645   4.210   1.120
 4054SOL    HW113061   4.737   4.177   1.098
 4054SOL    HW213062   4.639   4.230   1.218
 4055SOL     OW13063   1.308   3.553   1.703
 4055SOL    HW113064   1.350   3.566   1.793
 4055SOL    HW213065   1.348   3.619   1.639
 4056SOL     OW13066   4.991   3.549   0.754
 4056SOL    HW113067   4.922   3.545   0.681
 4056SOL    HW213068   5.074   3.503   0.723
 4057SOL     OW13069   6.616   3.369   6.237
 4057SOL    HW113070   6.596   3.361   6.140
 4057SOL    HW213071   6.538   3.408   6.285
 4058SOL     OW13072   2.708   5.775   5.250
 4058SOL    HW113073   2.694   5.681   5.283
 4058SOL    HW213074   2.790   5.813   5.293
 4059SOL     OW13075   1.024   2.003   4.319
 4059SOL    HW113076   0.942   1.946   4.318
 4059SOL    HW213077   1.015   2.074   4.248
 4060SOL     OW13078   6.489   5.761   5.230
 4060SOL    HW113079   6.542   5.833   5.275
 4060SOL    HW213080   6.508   5.674   5.275
 4061SOL     OW13081   2.618   5.295   2.009
 4061SOL    HW113082   2.641   5.384   1.971
 4061SOL    HW213083   2.667   5.223   1.960
 4062SOL     OW13084   2.361   1.730   1.614
 4062SOL    HW113085   2.411   1.810   1.580
 4062SOL    HW213086   2.266   1.755   1.632
 4063SOL     OW13087   5.256   0.483   1.302
 4063SOL    HW113088   5.262   0.413   1.230
 4063SOL    HW213089   5.188   0.551   1.275
 4064SOL     OW13090   2.011   1.774   4.514
 4064SOL    HW113091   1.978   1.866   4.495
 4064SOL    HW213092   2.022   1.761   4.612
 4065SOL     OW13093   2.095   6.785   0.335
 4065SOL    HW113094   2.160   6.859   0.314
 4065SOL    HW213095   2.010   6.825   0.369
 4066SOL     OW13096   6.966   4.293   3.007
 4066SOL    HW113097   6.987   4.290   2.910
 4066SOL    HW213098   6.866   4.293   3.020
 4067SOL     OW13099   6.024   4.369   2.579
 4067SOL    HW113100   5.999   4.452   2.529
 4067SOL    HW213101   6.120   4.374   2.606
 4068SOL     OW13102   1.749   2.317   5.177
 4068SOL    HW113103   1.736   2.248   5.106
 4068SOL    HW213104   1.847   2.338   5.185
 4069SOL     OW13105   3.968   6.631   6.647
 4069SOL    HW113106   4.007   6.706   6.701
 4069SOL    HW213107   4.029   6.609   6.571
 4070SOL     OW13108   1.664   2.902   3.299
 4070SOL    HW113109   1.604   2.981   3.291
 4070SOL    HW213110   1.756   2.931   3.326
 4071SOL     OW13111   0.716   0.098   3.907
 4071SOL    HW113112   0.637   0.097   3.969
 4071SOL    HW213113   0.703   0.169   3.837
 4072SOL     OW13114   1.439   5.554   4.315
 4072SOL    HW113115   1.386   5.514   4.389
 4072SOL    HW213116   1.464   5.648   4.339
 4073SOL     OW13117   2.615   5.533   0.465
 4073SOL    HW113118   2.701   5.483   0.479
 4073SOL    HW213119   2.555   5.481   0.404
 4074SOL     OW13120   1.333   5.071   2.208
 4074SOL    HW113121   1.335   5.079   2.307
 4074SOL    HW213122   1.390   4.994   2.179
 4075SOL     OW13123   5.332   0.558   0.397
 4075SOL    HW113124   5.362   0.463   0.387
 4075SOL    HW213125   5.352   0.589   0.490
 4076SOL     OW13126   2.962   3.169   5.466
 4076SOL    HW113127   2.911   3.106   5.525
 4076SOL    HW213128   3.024   3.224   5.522
 4077SOL     OW13129   4.182   2.121   1.701
 4077SOL    HW113130   4.198   2.199   1.640
 4077SOL    HW213131   4.088   2.089   1.689
 4078SOL     OW13132   3.029   4.931   2.758
 4078SOL    HW113133   3.016   4.893   2.666
 4078SOL    HW213134   2.986   4.870   2.825
 4079SOL     OW13135   1.352   2.432   4.093
 4079SOL    HW113136   1.310   2.469   4.010
 4079SOL    HW213137   1.388   2.341   4.074
 4080SOL     OW13138   5.071   2.006   5.133
 4080SOL    HW113139   5.112   1.918   5.159
 4080SOL    HW213140   5.094   2.075   5.202
 4081SOL     OW13141   1.878   3.324   4.229
 4081SOL    HW113142   1.892   3.287   4.321
 4081SOL    HW213143   1.963   3.313   4.176
 4082SOL     OW13144   1.649   3.036   0.727
 4082SOL    HW113145   1.633   3.098   0.805
 4082SOL    HW213146   1.647   2.942   0.759
 4083SOL     OW13147   5.477   2.639   3.666
 4083SOL    HW113148   5.500   2.567   3.731
 4083SOL    HW213149   5.487   2.728   3.711
 4084SOL     OW13150   6.190   1.896   4.132
 4084SOL    HW113151   6.162   1.829   4.064
 4084SOL    HW213152   6.112   1.954   4.156
 4085SOL     OW13153   4.156   6.208   0.650
 4085SOL    HW113154   4.071   6.260   0.647
 4085SOL    HW213155   4.190   6.195   0.557
 4086SOL     OW13156   1.789   5.340   1.495
 4086SOL    HW113157   1.802   5.304   1.403
 4086SOL    HW213158   1.719   5.286   1.542
 4087SOL     OW13159   2.261   2.063   3.254
 4087SOL    HW113160   2.285   1.968   3.233
 4087SOL    HW213161   2.342   2.120   3.248
 4088SOL     OW13162   6.406   1.980   1.646
 4088SOL    HW113163   6.495   1.934   1.643
 4088SOL    HW213164   6.339   1.920   1.689
 4089SOL     OW13165   0.518   0.285   3.359
 4089SOL    HW113166   0.604   0.234   3.367
 4089SOL    HW213167   0.460   0.263   3.437
 4090SOL     OW13168   2.345   4.092   6.727
 4090SOL    HW113169   2.394   4.175   6.753
 4090SOL    HW213170   2.346   4.082   6.627
 4091SOL     OW13171   5.204   6.952   0.241
 4091SOL    HW113172   5.150   6.943   0.157
 4091SOL    HW213173   5.291   6.997   0.220
 4092SOL     OW13174   0.195   3.021   4.931
 4092SOL    HW113175   0.228   2.942   4.983
 4092SOL    HW213176   0.097   3.031   4.945
 4093SOL     OW13177   5.469   0.492   3.634
 4093SOL    HW113178   5.504   0.548   3.710
 4093SOL    HW213179   5.528   0.412   3.622
 4094SOL     OW13180   1.975   4.629   4.976
 4094SOL    HW113181   1.945   4.544   4.933
 4094SOL    HW213182   1.921   4.646   5.058
 4095SOL     OW13183   1.332   3.270   5.962
 4095SOL    HW113184   1.407   3.264   5.896
 4095SOL    HW213185   1.306   3.179   5.992
 4096SOL     OW13186   4.904   5.177   0.634
 4096SOL    HW113187   4.966   5.121   0.578
 4096SOL    HW213188   4.951   5.203   0.719
 4097SOL     OW13189   3.230   4.300   6.152
 4097SOL    HW113190   3.280   4.369   6.099
 4097SOL    HW213191   3.157   4.261   6.095
 4098SOL     OW13192   0.446   2.745   2.665
 4098SOL    HW113193   0.511   2.670   2.675
 4098SOL    HW213194   0.384   2.746   2.744
 4099SOL     OW13195   2.772   5.491   1.546
 4099SOL    HW113196   2.705   5.417   1.553
 4099SOL    HW213197   2.835   5.472   1.470
 4100SOL     OW13198   4.553   5.746   3.928
 4100SOL    HW113199   4.561   5.774   3.832
 4100SOL    HW213200   4.493   5.810   3.976
 4101SOL     OW13201   5.578   1.443   0.349
 4101SOL    HW113202   5.671   1.478   0.358
 4101SOL    HW213203   5.566   1.365   0.410
 4102SOL     OW13204   6.594   0.562   1.202
 4102SOL    HW113205   6.681   0.599   1.168
 4102SOL    HW213206   6.563   0.488   1.142
 4103SOL     OW13207   0.717   0.988   2.153
 4103SOL    HW113208   0.652   1.063   2.169
 4103SOL    HW213209   0.803   1.025   2.118
 4104SOL     OW13210   1.604   4.238   2.300
 4104SOL    HW113211   1.699   4.216   2.322
 4104SOL    HW213212   1.596   4.335   2.279
 4105SOL     OW13213   4.499   5.728   0.667
 4105SOL    HW113214   4.409   5.765   0.646
 4105SOL    HW213215   4.570   5.793   0.638
 4106SOL     OW13216   0.108   3.664   4.492
 4106SOL    HW113217   0.065   3.605   4.561
 4106SOL    HW213218   0.155   3.739   4.537
 4107SOL     OW13219   0.141   5.985   0.975
 4107SOL    HW113220   0.080   6.064   0.973
 4107SOL    HW213221   0.123   5.927   0.895
 4108SOL     OW13222   0.439   4.779   6.377
 4108SOL    HW113223   0.537   4.761   6.385
 4108SOL    HW213224   0.392   4.695   6.351
 4109SOL     OW13225   3.789   6.146   3.946
 4109SOL    HW113226   3.763   6.219   3.884
 4109SOL    HW213227   3.874   6.103   3.914
 4110SOL     OW13228   3.912   4.051   6.357
 4110SOL    HW113229   3.819   4.083   6.338
 4110SOL    HW213230   3.954   4.108   6.428
 4111SOL     OW13231   3.753   3.046   0.028
 4111SOL    HW113232   3.666   3.089   0.005
 4111SOL    HW213233   3.807   3.033   6.967
 4112SOL     OW13234   4.713   1.311   4.841
 4112SOL    HW113235   4.620   1.326   4.807
 4112SOL    HW213236   4.756   1.399   4.862
 4113SOL     OW13237   3.437   5.674   5.378
 4113SOL    HW113238   3.340   5.650   5.383
 4113SOL    HW213239   3.493   5.594   5.397
 4114SOL     OW13240   3.380   1.055   4.145
 4114SOL    HW113241   3.343   0.971   4.106
 4114SOL    HW213242   3.306   1.114   4.175
 4115SOL     OW13243   4.694   6.171   2.114
 4115SOL    HW113244   4.717   6.135   2.204
 4115SOL    HW213245   4.753   6.129   2.045
 4116SOL     OW13246   3.903   2.127   1.573
 4116SOL    HW113247   3.811   2.165   1.573
 4116SOL    HW213248   3.909   2.054   1.641
 4117SOL     OW13249   0.839   5.333   1.171
 4117SOL    HW113250   0.875   5.402   1.234
 4117SOL    HW213251   0.742   5.350   1.154
 4118SOL     OW13252   0.994   6.753   0.998
 4118SOL    HW113253   0.963   6.713   1.085
 4118SOL    HW213254   0.961   6.847   0.992
 4119SOL     OW13255   3.399   1.424   4.223
 4119SOL    HW113256   3.463   1.440   4.148
 4119SOL    HW213257   3.391   1.507   4.278
 4120SOL     OW13258   4.046   6.665   2.090
 4120SOL    HW113259   4.110   6.597   2.053
 4120SOL    HW213260   3.966   6.618   2.126
 4121SOL     OW13261   6.241   2.313   4.396
 4121SOL    HW113262   6.244   2.257   4.313
 4121SOL    HW213263   6.323   2.370   4.401
 4122SOL     OW13264   0.310   6.337   5.123
 4122SOL    HW113265   0.321   6.301   5.215
 4122SOL    HW213266   0.289   6.263   5.059
 4123SOL     OW13267   5.842   4.309   6.092
 4123SOL    HW113268   5.873   4.375   6.025
 4123SOL    HW213269   5.885   4.220   6.074
 4124SOL     OW13270   5.577   6.525   4.341
 4124SOL    HW113271   5.641   6.459   4.379
 4124SOL    HW213272   5.541   6.491   4.254
 4125SOL     OW13273   4.787   0.670   1.984
 4125SOL    HW113274   4.838   0.752   1.958
 4125SOL    HW213275   4.697   0.696   2.020
 4126SOL     OW13276   1.376   4.078   4.413
 4126SOL    HW113277   1.463   4.127   4.411
 4126SOL    HW213278   1.348   4.056   4.319
 4127SOL     OW13279   5.230   3.636   4.637
 4127SOL    HW113280   5.241   3.536   4.634
 4127SOL    HW213281   5.257   3.669   4.728
 4128SOL     OW13282   1.960   3.921   2.475
 4128SOL    HW113283   1.901   3.939   2.554
 4128SOL    HW213284   1.976   3.823   2.468
 4129SOL     OW13285   5.272   2.102   6.339
 4129SOL    HW113286   5.307   2.175   6.279
 4129SOL    HW213287   5.266   2.017   6.288
 4130SOL     OW13288   6.766   3.547   5.794
 4130SOL    HW113289   6.740   3.579   5.885
 4130SOL    HW213290   6.797   3.625   5.739
 4131SOL     OW13291   0.474   5.766   3.757
 4131SOL    HW113292   0.444   5.801   3.846
 4131SOL    HW213293   0.394   5.753   3.698
 4132SOL     OW13294   5.603   3.513   3.403
 4132SOL    HW113295   5.549   3.571   3.343
 4132SOL    HW213296   5.558   3.424   3.414
 4133SOL     OW13297   3.295   0.556   0.702
 4133SOL    HW113298   3.384   0.516   0.724
 4133SOL    HW213299   3.223   0.504   0.749
 4134SOL     OW13300   2.179   2.167   0.847
 4134SOL    HW113301   2.121   2.140   0.769
 4134SOL    HW213302   2.272   2.185   0.815
 4135SOL     OW13303   2.092   0.379   2.155
 4135SOL    HW113304   2.076   0.371   2.056
 4135SOL    HW213305   2.170   0.323   2.180
 4136SOL     OW13306   0.378   2.354   3.734
 4136SOL    HW113307   0.283   2.364   3.763
 4136SOL    HW213308   0.394   2.410   3.652
 4137SOL     OW13309   3.124   4.345   0.194
 4137SOL    HW113310   3.212   4.320   0.154
 4137SOL    HW213311   3.065   4.264   0.198
 4138SOL     OW13312   4.296   4.662   4.479
 4138SOL    HW113313   4.322   4.583   4.423
 4138SOL    HW213314   4.304   4.639   4.575
 4139SOL     OW13315   1.927   2.088   6.090
 4139SOL    HW113316   1.865   2.166   6.101
 4139SOL    HW213317   1.873   2.003   6.087
 4140SOL     OW13318   3.647   1.224   5.212
 4140SOL    HW113319   3.678   1.185   5.299
 4140SOL    HW213320   3.700   1.185   5.137
 4141SOL     OW13321   4.995   5.218   1.558
 4141SOL    HW113322   5.040   5.143   1.509
 4141SOL    HW213323   5.065   5.277   1.599
 4142SOL     OW13324   6.585   5.302   0.894
 4142SOL    HW113325   6.546   5.283   0.984
 4142SOL    HW213326   6.554   5.391   0.861
 4143SOL     OW13327   7.004   2.736   0.194
 4143SOL    HW113328   6.948   2.811   0.231
 4143SOL    HW213329   0.017   2.762   0.104
 4144SOL     OW13330   5.832   1.534   1.204
 4144SOL    HW113331   5.772   1.608   1.235
 4144SOL    HW213332   5.919   1.572   1.173
 4145SOL     OW13333   0.153   6.474   1.643
 4145SOL    HW113334   0.194   6.564   1.658
 4145SOL    HW213335   0.149   6.455   1.545
 4146SOL     OW13336   5.573   0.449   6.097
 4146SOL    HW113337   5.528   0.362   6.116
 4146SOL    HW213338   5.560   0.511   6.174
 4147SOL     OW13339   3.228   1.770   6.288
 4147SOL    HW113340   3.251   1.865   6.307
 4147SOL    HW213341   3.151   1.767   6.224
 4148SOL     OW13342   0.583   0.663   4.025
 4148SOL    HW113343   0.576   0.740   3.962
 4148SOL    HW213344   0.677   0.658   4.060
 4149SOL     OW13345   6.260   2.854   0.213
 4149SOL    HW113346   6.207   2.834   0.296
 4149SOL    HW213347   6.198   2.857   0.134
 4150SOL     OW13348   6.008   0.541   6.171
 4150SOL    HW113349   5.924   0.516   6.125
 4150SOL    HW213350   6.084   0.488   6.133
 4151SOL     OW13351   5.748   6.408   0.106
 4151SOL    HW113352   5.846   6.413   0.087
 4151SOL    HW213353   5.730   6.334   0.171
 4152SOL     OW13354   3.703   4.964   2.139
 4152SOL    HW113355   3.716   4.939   2.235
 4152SOL    HW213356   3.666   4.885   2.089
 4153SOL     OW13357   5.432   5.458   6.525
 4153SOL    HW113358   5.472   5.455   6.617
 4153SOL    HW213359   5.492   5.410   6.461
 4154SOL     OW13360   6.629   3.784   4.923
 4154SOL    HW113361   6.701   3.817   4.984
 4154SOL    HW213362   6.551   3.754   4.977
 4155SOL     OW13363   0.739   3.421   2.482
 4155SOL    HW113364   0.761   3.373   2.397
 4155SOL    HW213365   0.792   3.505   2.487
 4156SOL     OW13366   5.827   0.028   4.993
 4156SOL    HW113367   5.867   0.078   5.070
 4156SOL    HW213368   5.763   0.086   4.944
 4157SOL     OW13369   3.749   0.348   4.085
 4157SOL    HW113370   3.717   0.268   4.137
 4157SOL    HW213371   3.779   0.318   3.995
 4158SOL     OW13372   0.885   5.251   3.463
 4158SOL    HW113373   0.967   5.308   3.470
 4158SOL    HW213374   0.861   5.215   3.553
 4159SOL     OW13375   2.018   3.088   3.827
 4159SOL    HW113376   1.968   3.010   3.865
 4159SOL    HW213377   1.977   3.116   3.741
 4160SOL     OW13378   6.518   0.487   1.459
 4160SOL    HW113379   6.533   0.495   1.360
 4160SOL    HW213380   6.447   0.552   1.487
 4161SOL     OW13381   1.640   1.145   6.591
 4161SOL    HW113382   1.695   1.209   6.538
 4161SOL    HW213383   1.699   1.077   6.634
 4162SOL     OW13384   5.928   0.383   4.885
 4162SOL    HW113385   5.999   0.319   4.853
 4162SOL    HW213386   5.941   0.472   4.841
 4163SOL     OW13387   5.711   1.209   3.292
 4163SOL    HW113388   5.637   1.177   3.352
 4163SOL    HW213389   5.731   1.305   3.312
 4164SOL     OW13390   1.656   0.674   6.619
 4164SOL    HW113391   1.627   0.732   6.696
 4164SOL    HW213392   1.602   0.698   6.538
 4165SOL     OW13393   4.032   6.453   1.005
 4165SOL    HW113394   4.043   6.523   1.076
 4165SOL    HW213395   3.934   6.437   0.989
 4166SOL     OW13396   4.061   2.902   0.626
 4166SOL    HW113397   4.089   2.863   0.538
 4166SOL    HW213398   4.003   2.837   0.674
 4167SOL     OW13399   2.286   2.600   1.370
 4167SOL    HW113400   2.344   2.650   1.307
 4167SOL    HW213401   2.325   2.510   1.388
 4168SOL     OW13402   0.154   5.227   1.609
 4168SOL    HW113403   0.073   5.284   1.602
 4168SOL    HW213404   0.225   5.262   1.548
 4169SOL     OW13405   4.841   3.950   4.061
 4169SOL    HW113406   4.753   3.903   4.070
 4169SOL    HW213407   4.848   3.988   3.969
 4170SOL     OW13408   3.952   2.592   5.621
 4170SOL    HW113409   3.890   2.569   5.545
 4170SOL    HW213410   3.925   2.680   5.660
 4171SOL     OW13411   5.640   3.598   1.420
 4171SOL    HW113412   5.600   3.580   1.330
 4171SOL    HW213413   5.627   3.519   1.479
 4172SOL     OW13414   0.044   2.088   0.353
 4172SOL    HW113415   0.083   2.180   0.354
 4172SOL    HW213416   0.100   2.028   0.411
 4173SOL     OW13417   5.845   2.966   5.372
 4173SOL    HW113418   5.921   2.991   5.311
 4173SOL    HW213419   5.811   3.048   5.418
 4174SOL     OW13420   4.932   0.303   3.852
 4174SOL    HW113421   4.848   0.288   3.905
 4174SOL    HW213422   4.914   0.288   3.755
 4175SOL     OW13423   3.374   0.098   3.710
 4175SOL    HW113424   3.354   0.007   3.745
 4175SOL    HW213425   3.456   0.096   3.654
 4176SOL     OW13426   4.439   0.128   2.452
 4176SOL    HW113427   4.460   0.224   2.469
 4176SOL    HW213428   4.375   0.095   2.522
 4177SOL     OW13429   0.419   5.798   4.048
 4177SOL    HW113430   0.468   5.714   4.029
 4177SOL    HW213431   0.398   5.803   4.146
 4178SOL     OW13432   3.306   1.081   6.113
 4178SOL    HW113433   3.221   1.134   6.117
 4178SOL    HW213434   3.367   1.109   6.188
 4179SOL     OW13435   5.584   3.624   4.876
 4179SOL    HW113436   5.552   3.543   4.826
 4179SOL    HW213437   5.682   3.617   4.893
 4180SOL     OW13438   5.484   4.312   1.866
 4180SOL    HW113439   5.446   4.394   1.907
 4180SOL    HW213440   5.415   4.240   1.863
 4181SOL     OW13441   1.160   1.805   6.306
 4181SOL    HW113442   1.105   1.826   6.225
 4181SOL    HW213443   1.252   1.842   6.295
 4182SOL     OW13444   0.423   0.083   2.641
 4182SOL    HW113445   0.334   0.117   2.608
 4182SOL    HW213446   0.423   0.081   2.741
 4183SOL     OW13447   3.012   1.601   1.844
 4183SOL    HW113448   3.000   1.609   1.943
 4183SOL    HW213449   3.088   1.659   1.814
 4184SOL     OW13450   3.765   5.357   0.789
 4184SOL    HW113451   3.770   5.457   0.783
 4184SOL    HW213452   3.671   5.329   0.807
 4185SOL     OW13453   0.342   6.351   3.043
 4185SOL    HW113454   0.255   6.318   3.080
 4185SOL    HW213455   0.380   6.419   3.105
 4186SOL     OW13456   2.257   3.880   0.153
 4186SOL    HW113457   2.281   3.953   0.217
 4186SOL    HW213458   2.335   3.818   0.142
 4187SOL     OW13459   3.594   3.466   6.540
 4187SOL    HW113460   3.573   3.429   6.450
 4187SOL    HW213461   3.520   3.528   6.569
 4188SOL     OW13462   4.934   0.211   4.540
 4188SOL    HW113463   4.961   0.297   4.582
 4188SOL    HW213464   5.014   0.153   4.526
 4189SOL     OW13465   2.952   1.154   4.099
 4189SOL    HW113466   3.041   1.199   4.097
 4189SOL    HW213467   2.965   1.055   4.090
 4190SOL     OW13468   2.744   0.428   6.569
 4190SOL    HW113469   2.652   0.443   6.533
 4190SOL    HW213470   2.744   0.346   6.626
 4191SOL     OW13471   6.238   2.813   3.073
 4191SOL    HW113472   6.217   2.717   3.059
 4191SOL    HW213473   6.303   2.822   3.149
 4192SOL     OW13474   5.976   1.331   2.848
 4192SOL    HW113475   6.023   1.279   2.920
 4192SOL    HW213476   5.879   1.336   2.869
 4193SOL     OW13477   2.440   6.779   2.288
 4193SOL    HW113478   2.446   6.861   2.345
 4193SOL    HW213479   2.400   6.704   2.341
 4194SOL     OW13480   6.969   2.027   4.654
 4194SOL    HW113481   6.888   2.014   4.597
 4194SOL    HW213482   6.954   1.982   4.743
 4195SOL     OW13483   4.312   0.639   1.338
 4195SOL    HW113484   4.230   0.693   1.357
 4195SOL    HW213485   4.392   0.686   1.376
 4196SOL     OW13486   5.229   2.867   3.943
 4196SOL    HW113487   5.200   2.894   4.035
 4196SOL    HW213488   5.241   2.767   3.940
 4197SOL     OW13489   5.310   4.465   4.564
 4197SOL    HW113490   5.244   4.395   4.593
 4197SOL    HW213491   5.396   4.451   4.613
 4198SOL     OW13492   5.934   3.425   6.952
 4198SOL    HW113493   5.885   3.406   0.015
 4198SOL    HW213494   5.917   3.520   6.925
 4199SOL     OW13495   3.047   3.649   5.238
 4199SOL    HW113496   3.137   3.693   5.235
 4199SOL    HW213497   3.041   3.581   5.166
 4200SOL     OW13498   2.377   6.733   5.896
 4200SOL    HW113499   2.282   6.729   5.926
 4200SOL    HW213500   2.392   6.665   5.824
 4201SOL     OW13501   6.398   6.824   3.139
 4201SOL    HW113502   6.461   6.764   3.090
 4201SOL    HW213503   6.369   6.780   3.224
 4202SOL     OW13504   5.313   4.486   5.858
 4202SOL    HW113505   5.406   4.465   5.888
 4202SOL    HW213506   5.310   4.580   5.824
 4203SOL     OW13507   5.056   5.433   3.380
 4203SOL    HW113508   5.151   5.428   3.410
 4203SOL    HW213509   5.046   5.508   3.315
 4204SOL     OW13510   3.383   3.334   1.299
 4204SOL    HW113511   3.404   3.405   1.366
 4204SOL    HW213512   3.370   3.247   1.345
 4205SOL     OW13513   3.214   5.250   4.680
 4205SOL    HW113514   3.221   5.153   4.656
 4205SOL    HW213515   3.293   5.276   4.735
 4206SOL     OW13516   4.641   0.087   5.215
 4206SOL    HW113517   4.625   0.146   5.294
 4206SOL    HW213518   4.556   0.042   5.189
 4207SOL     OW13519   1.217   1.116   1.799
 4207SOL    HW113520   1.306   1.128   1.843
 4207SOL    HW213521   1.220   1.036   1.739
 4208SOL     OW13522   1.396   2.808   1.054
 4208SOL    HW113523   1.298   2.829   1.061
 4208SOL    HW213524   1.407   2.713   1.023
 4209SOL     OW13525   2.074   6.979   4.556
 4209SOL    HW113526   2.026   6.937   4.478
 4209SOL    HW213527   2.129   0.034   4.523
 4210SOL     OW13528   3.460   3.519   1.081
 4210SOL    HW113529   3.424   3.563   1.162
 4210SOL    HW213530   3.434   3.422   1.080
 4211SOL     OW13531   5.175   4.354   4.897
 4211SOL    HW113532   5.158   4.389   4.989
 4211SOL    HW213533   5.248   4.406   4.853
 4212SOL     OW13534   6.287   0.954   2.447
 4212SOL    HW113535   6.376   0.981   2.484
 4212SOL    HW213536   6.232   0.913   2.520
 4213SOL     OW13537   1.975   0.624   2.076
 4213SOL    HW113538   1.981   0.525   2.093
 4213SOL    HW213539   1.880   0.649   2.058
 4214SOL     OW13540   0.950   3.549   5.307
 4214SOL    HW113541   0.926   3.472   5.248
 4214SOL    HW213542   1.021   3.520   5.372
 4215SOL     OW13543   0.851   5.848   4.822
 4215SOL    HW113544   0.946   5.876   4.835
 4215SOL    HW213545   0.846   5.748   4.816
 4216SOL     OW13546   1.208   2.249   4.572
 4216SOL    HW113547   1.252   2.310   4.637
 4216SOL    HW213548   1.173   2.302   4.494
 4217SOL     OW13549   0.530   0.355   2.551
 4217SOL    HW113550   0.547   0.257   2.543
 4217SOL    HW213551   0.441   0.369   2.596
 4218SOL     OW13552   4.729   0.336   1.922
 4218SOL    HW113553   4.693   0.243   1.920
 4218SOL    HW213554   4.810   0.342   1.863
 4219SOL     OW13555   3.880   4.839   5.207
 4219SOL    HW113556   3.819   4.786   5.147
 4219SOL    HW213557   3.826   4.899   5.265
 4220SOL     OW13558   6.681   3.186   3.629
 4220SOL    HW113559   6.680   3.268   3.688
 4220SOL    HW213560   6.753   3.125   3.660
 4221SOL     OW13561   5.239   5.274   6.807
 4221SOL    HW113562   5.180   5.276   6.888
 4221SOL    HW213563   5.248   5.367   6.771
 4222SOL     OW13564   5.575   2.420   1.580
 4222SOL    HW113565   5.503   2.408   1.648
 4222SOL    HW213566   5.537   2.410   1.488
 4223SOL     OW13567   3.218   4.104   2.548
 4223SOL    HW113568   3.278   4.133   2.473
 4223SOL    HW213569   3.137   4.060   2.510
 4224SOL     OW13570   4.433   2.527   4.822
 4224SOL    HW113571   4.474   2.617   4.829
 4224SOL    HW213572   4.343   2.527   4.866
 4225SOL     OW13573   6.338   0.636   4.369
 4225SOL    HW113574   6.404   0.580   4.321
 4225SOL    HW213575   6.353   0.732   4.348
 4226SOL     OW13576   0.957   1.432   3.766
 4226SOL    HW113577   0.892   1.380   3.709
 4226SOL    HW213578   1.045   1.438   3.719
 4227SOL     OW13579   3.732   4.641   0.120
 4227SOL    HW113580   3.805   4.620   0.055
 4227SOL    HW213581   3.758   4.605   0.210
 4228SOL     OW13582   6.027   5.720   3.386
 4228SOL    HW113583   6.110   5.741   3.437
 4228SOL    HW213584   5.967   5.662   3.442
 4229SOL     OW13585   4.690   4.942   6.255
 4229SOL    HW113586   4.640   4.897   6.181
 4229SOL    HW213587   4.657   4.907   6.343
 4230SOL     OW13588   3.273   0.799   5.278
 4230SOL    HW113589   3.302   0.895   5.285
 4230SOL    HW213590   3.260   0.776   5.182
 4231SOL     OW13591   4.556   6.677   5.292
 4231SOL    HW113592   4.621   6.689   5.217
 4231SOL    HW213593   4.596   6.712   5.377
 4232SOL     OW13594   1.748   5.116   3.064
 4232SOL    HW113595   1.800   5.080   3.142
 4232SOL    HW213596   1.791   5.202   3.033
 4233SOL     OW13597   6.422   0.126   6.229
 4233SOL    HW113598   6.398   0.171   6.315
 4233SOL    HW213599   6.454   0.195   6.164
 4234SOL     OW13600   3.301   5.415   6.396
 4234SOL    HW113601   3.323   5.337   6.339
 4234SOL    HW213602   3.241   5.477   6.345
 4235SOL     OW13603   5.921   4.269   5.584
 4235SOL    HW113604   5.960   4.358   5.608
 4235SOL    HW213605   5.825   4.266   5.612
 4236SOL     OW13606   0.344   2.620   3.945
 4236SOL    HW113607   0.439   2.608   3.972
 4236SOL    HW213608   0.288   2.550   3.987
 4237SOL     OW13609   5.216   3.845   5.127
 4237SOL    HW113610   5.271   3.900   5.190
 4237SOL    HW213611   5.174   3.769   5.178
 4238SOL     OW13612   4.043   5.052   3.888
 4238SOL    HW113613   4.060   5.113   3.966
 4238SOL    HW213614   4.002   4.967   3.921
 4239SOL     OW13615   4.362   6.791   5.655
 4239SOL    HW113616   4.273   6.755   5.684
 4239SOL    HW213617   4.431   6.719   5.660
 4240SOL     OW13618   2.811   4.634   6.994
 4240SOL    HW113619   2.896   4.634   0.024
 4240SOL    HW213620   2.817   4.703   6.921
 4241SOL     OW13621   4.829   0.616   1.071
 4241SOL    HW113622   4.742   0.602   1.117
 4241SOL    HW213623   4.860   0.530   1.031
 4242SOL     OW13624   2.002   0.006   2.488
 4242SOL    HW113625   2.000   7.010   2.587
 4242SOL    HW213626   2.092   0.040   2.463
 4243SOL     OW13627   0.626   3.716   2.353
 4243SOL    HW113628   0.665   3.701   2.262
 4243SOL    HW213629   0.699   3.731   2.419
 4244SOL     OW13630   4.851   6.704   0.906
 4244SOL    HW113631   4.771   6.750   0.942
 4244SOL    HW213632   4.848   6.703   0.806
 4245SOL     OW13633   6.756   2.834   0.577
 4245SOL    HW113634   6.717   2.792   0.659
 4245SOL    HW213635   6.715   2.793   0.496
 4246SOL     OW13636   5.135   2.188   3.434
 4246SOL    HW113637   5.189   2.268   3.408
 4246SOL    HW213638   5.100   2.200   3.527
 4247SOL     OW13639   2.033   5.002   4.964
 4247SOL    HW113640   2.083   5.029   5.047
 4247SOL    HW213641   2.095   4.954   4.902
 4248SOL     OW13642   2.032   0.919   2.851
 4248SOL    HW113643   2.069   0.828   2.870
 4248SOL    HW213644   1.933   0.912   2.834
 4249SOL     OW13645   0.159   0.664   4.944
 4249SOL    HW113646   0.078   0.708   4.984
 4249SOL    HW213647   0.238   0.723   4.957
 4250SOL     OW13648   6.759   6.220   4.044
 4250SOL    HW113649   6.768   6.137   3.990
 4250SOL    HW213650   6.696   6.204   4.120
 4251SOL     OW13651   6.099   2.307   6.217
 4251SOL    HW113652   6.085   2.394   6.170
 4251SOL    HW213653   6.095   2.321   6.316
 4252SOL     OW13654   6.535   6.083   6.260
 4252SOL    HW113655   6.605   6.018   6.286
 4252SOL    HW213656   6.460   6.080   6.327
 4253SOL     OW13657   4.479   5.491   2.501
 4253SOL    HW113658   4.461   5.393   2.503
 4253SOL    HW213659   4.564   5.509   2.452
 4254SOL     OW13660   2.222   3.237   6.583
 4254SOL    HW113661   2.133   3.196   6.561
 4254SOL    HW213662   2.229   3.250   6.682
 4255SOL     OW13663   0.431   3.747   2.560
 4255SOL    HW113664   0.494   3.711   2.492
 4255SOL    HW213665   0.425   3.846   2.552
 4256SOL     OW13666   0.672   4.998   2.313
 4256SOL    HW113667   0.582   5.033   2.289
 4256SOL    HW213668   0.727   4.984   2.231
 4257SOL     OW13669   6.056   0.899   4.894
 4257SOL    HW113670   6.105   0.839   4.958
 4257SOL    HW213671   6.072   0.994   4.919
 4258SOL     OW13672   3.932   6.056   0.410
 4258SOL    HW113673   3.944   5.983   0.343
 4258SOL    HW213674   4.020   6.075   0.455
 4259SOL     OW13675   1.049   6.758   2.080
 4259SOL    HW113676   1.004   6.682   2.032
 4259SOL    HW213677   1.012   6.765   2.173
 4260SOL     OW13678   5.189   6.741   4.969
 4260SOL    HW113679   5.166   6.837   4.949
 4260SOL    HW213680   5.265   6.738   5.033
 4261SOL     OW13681   2.047   0.032   3.460
 4261SOL    HW113682   2.053   0.072   3.551
 4261SOL    HW213683   2.074   6.958   3.463
 4262SOL     OW13684   1.695   4.279   6.750
 4262SOL    HW113685   1.628   4.231   6.693
 4262SOL    HW213686   1.787   4.253   6.723
 4263SOL     OW13687   2.682   1.804   3.889
 4263SOL    HW113688   2.704   1.830   3.983
 4263SOL    HW213689   2.661   1.887   3.836
 4264SOL     OW13690   5.440   1.344   4.137
 4264SOL    HW113691   5.350   1.355   4.179
 4264SOL    HW213692   5.445   1.398   4.053
 4265SOL     OW13693   3.129   0.538   1.022
 4265SOL    HW113694   3.225   0.545   1.049
 4265SOL    HW213695   3.109   0.444   0.994
 4266SOL     OW13696   1.627   6.668   0.350
 4266SOL    HW113697   1.549   6.629   0.400
 4266SOL    HW213698   1.683   6.593   0.314
 4267SOL     OW13699   1.839   3.977   4.682
 4267SOL    HW113700   1.864   3.961   4.777
 4267SOL    HW213701   1.743   3.955   4.668
 4268SOL     OW13702   1.387   4.891   6.238
 4268SOL    HW113703   1.416   4.900   6.143
 4268SOL    HW213704   1.449   4.829   6.286
 4269SOL     OW13705   2.845   2.048   4.576
 4269SOL    HW113706   2.754   2.031   4.615
 4269SOL    HW213707   2.902   2.095   4.644
 4270SOL     OW13708   3.585   2.429   0.982
 4270SOL    HW113709   3.571   2.503   1.048
 4270SOL    HW213710   3.611   2.467   0.894
 4271SOL     OW13711   6.847   0.225   0.911
 4271SOL    HW113712   6.923   0.287   0.890
 4271SOL    HW213713   6.884   0.134   0.932
 4272SOL     OW13714   6.275   2.245   5.959
 4272SOL    HW113715   6.222   2.294   6.028
 4272SOL    HW213716   6.371   2.245   5.986
 4273SOL     OW13717   4.162   5.481   5.160
 4273SOL    HW113718   4.249   5.529   5.170
 4273SOL    HW213719   4.174   5.385   5.186
 4274SOL     OW13720   6.752   0.442   1.816
 4274SOL    HW113721   6.785   0.413   1.906
 4274SOL    HW213722   6.676   0.383   1.788
 4275SOL     OW13723   0.709   2.663   3.296
 4275SOL    HW113724   0.670   2.647   3.206
 4275SOL    HW213725   0.647   2.720   3.350
 4276SOL     OW13726   2.632   5.935   3.652
 4276SOL    HW113727   2.568   5.990   3.706
 4276SOL    HW213728   2.705   5.902   3.711
 4277SOL     OW13729   6.267   5.547   3.885
 4277SOL    HW113730   6.341   5.572   3.822
 4277SOL    HW213731   6.286   5.457   3.923
 4278SOL     OW13732   1.398   6.725   2.032
 4278SOL    HW113733   1.398   6.723   2.132
 4278SOL    HW213734   1.304   6.716   1.999
 4279SOL     OW13735   2.157   2.522   3.334
 4279SOL    HW113736   2.134   2.537   3.430
 4279SOL    HW213737   2.154   2.609   3.285
 4280SOL     OW13738   6.775   0.230   6.123
 4280SOL    HW113739   6.816   0.142   6.100
 4280SOL    HW213740   6.843   0.302   6.111
 4281SOL     OW13741   4.276   5.497   3.731
 4281SOL    HW113742   4.357   5.439   3.729
 4281SOL    HW213743   4.289   5.575   3.670
 4282SOL     OW13744   3.666   4.050   1.100
 4282SOL    HW113745   3.744   4.107   1.126
 4282SOL    HW213746   3.694   3.987   1.028
 4283SOL     OW13747   4.993   1.391   4.042
 4283SOL    HW113748   4.971   1.353   3.953
 4283SOL    HW213749   5.035   1.481   4.030
 4284SOL     OW13750   4.719   5.759   6.736
 4284SOL    HW113751   4.691   5.852   6.762
 4284SOL    HW213752   4.798   5.732   6.790
 4285SOL     OW13753   2.851   0.517   5.844
 4285SOL    HW113754   2.921   0.532   5.774
 4285SOL    HW213755   2.835   0.419   5.853
 4286SOL     OW13756   6.160   0.985   6.670
 4286SOL    HW113757   6.203   0.896   6.653
 4286SOL    HW213758   6.065   0.982   6.641
 4287SOL     OW13759   4.953   0.389   6.952
 4287SOL    HW113760   5.045   0.399   6.915
 4287SOL    HW213761   4.940   0.295   6.984
 4288SOL     OW13762   6.897   6.477   1.926
 4288SOL    HW113763   6.995   6.455   1.930
 4288SOL    HW213764   6.847   6.415   1.986
 4289SOL     OW13765   0.331   3.285   4.596
 4289SOL    HW113766   0.275   3.316   4.519
 4289SOL    HW213767   0.383   3.204   4.570
 4290SOL     OW13768   0.275   1.020   3.258
 4290SOL    HW113769   0.362   0.985   3.225
 4290SOL    HW213770   0.240   1.088   3.194
 4291SOL     OW13771   4.980   2.922   5.852
 4291SOL    HW113772   5.037   2.978   5.791
 4291SOL    HW213773   4.906   2.881   5.799
 4292SOL     OW13774   5.717   1.767   1.298
 4292SOL    HW113775   5.719   1.848   1.358
 4292SOL    HW213776   5.668   1.789   1.214
 4293SOL     OW13777   4.566   4.014   0.011
 4293SOL    HW113778   4.524   4.103   7.021
 4293SOL    HW213779   4.663   4.025   0.032
 4294SOL     OW13780   2.941   1.671   6.428
 4294SOL    HW113781   2.852   1.715   6.435
 4294SOL    HW213782   3.012   1.741   6.420
 4295SOL     OW13783   4.298   6.417   3.168
 4295SOL    HW113784   4.293   6.494   3.104
 4295SOL    HW213785   4.295   6.452   3.262
 4296SOL     OW13786   2.769   6.423   1.526
 4296SOL    HW113787   2.747   6.365   1.448
 4296SOL    HW213788   2.781   6.367   1.608
 4297SOL     OW13789   5.651   4.949   0.957
 4297SOL    HW113790   5.685   5.044   0.959
 4297SOL    HW213791   5.726   4.887   0.980
 4298SOL     OW13792   3.185   6.545   1.276
 4298SOL    HW113793   3.093   6.565   1.309
 4298SOL    HW213794   3.243   6.625   1.289
 4299SOL     OW13795   1.307   2.590   0.249
 4299SOL    HW113796   1.297   2.525   0.174
 4299SOL    HW213797   1.394   2.575   0.295
 4300SOL     OW13798   3.434   0.522   1.058
 4300SOL    HW113799   3.447   0.445   0.995
 4300SOL    HW213800   3.447   0.608   1.009
 4301SOL     OW13801   3.035   6.967   1.987
 4301SOL    HW113802   3.089   6.885   2.006
 4301SOL    HW213803   2.942   6.955   2.021
 4302SOL     OW13804   1.774   5.556   6.167
 4302SOL    HW113805   1.839   5.541   6.093
 4302SOL    HW213806   1.799   5.640   6.216
 4303SOL     OW13807   6.154   4.308   3.795
 4303SOL    HW113808   6.116   4.217   3.776
 4303SOL    HW213809   6.079   4.372   3.813
 4304SOL     OW13810   3.186   3.723   1.540
 4304SOL    HW113811   3.283   3.730   1.560
 4304SOL    HW213812   3.137   3.798   1.585
 4305SOL     OW13813   1.330   0.690   5.310
 4305SOL    HW113814   1.321   0.653   5.402
 4305SOL    HW213815   1.332   0.615   5.244
 4306SOL     OW13816   5.321   3.719   4.869
 4306SOL    HW113817   5.396   3.661   4.898
 4306SOL    HW213818   5.298   3.783   4.943
 4307SOL     OW13819   6.380   1.913   5.335
 4307SOL    HW113820   6.363   1.877   5.244
 4307SOL    HW213821   6.448   1.987   5.329
 4308SOL     OW13822   5.013   4.814   0.707
 4308SOL    HW113823   5.045   4.847   0.797
 4308SOL    HW213824   5.042   4.879   0.636
 4309SOL     OW13825   1.476   3.636   0.445
 4309SOL    HW113826   1.519   3.711   0.497
 4309SOL    HW213827   1.377   3.649   0.444
 4310SOL     OW13828   0.477   1.691   2.338
 4310SOL    HW113829   0.576   1.680   2.333
 4310SOL    HW213830   0.451   1.716   2.431
 4311SOL     OW13831   0.770   6.326   2.375
 4311SOL    HW113832   0.823   6.242   2.381
 4311SOL    HW213833   0.786   6.382   2.457
 4312SOL     OW13834   0.315   4.738   2.284
 4312SOL    HW113835   0.317   4.738   2.184
 4312SOL    HW213836   0.408   4.728   2.320
 4313SOL     OW13837   6.213   1.867   0.184
 4313SOL    HW113838   6.125   1.829   0.157
 4313SOL    HW213839   6.212   1.966   0.174
 4314SOL     OW13840   6.522   2.554   4.911
 4314SOL    HW113841   6.616   2.522   4.900
 4314SOL    HW213842   6.497   2.611   4.833
 4315SOL     OW13843   2.804   1.404   3.760
 4315SOL    HW113844   2.784   1.375   3.853
 4315SOL    HW213845   2.733   1.467   3.729
 4316SOL     OW13846   5.217   6.724   2.045
 4316SOL    HW113847   5.119   6.711   2.054
 4316SOL    HW213848   5.259   6.725   2.136
 4317SOL     OW13849   4.914   0.739   6.237
 4317SOL    HW113850   4.927   0.642   6.259
 4317SOL    HW213851   4.818   0.763   6.251
 4318SOL     OW13852   0.894   1.684   4.097
 4318SOL    HW113853   0.934   1.616   4.159
 4318SOL    HW213854   0.963   1.712   4.030
 4319SOL     OW13855   1.018   4.558   2.058
 4319SOL    HW113856   0.933   4.592   2.098
 4319SOL    HW213857   1.002   4.534   1.962
 4320SOL     OW13858   3.836   5.667   0.182
 4320SOL    HW113859   3.841   5.615   0.097
 4320SOL    HW213860   3.772   5.622   0.245
 4321SOL     OW13861   6.293   6.703   2.344
 4321SOL    HW113862   6.353   6.636   2.300
 4321SOL    HW213863   6.348   6.775   2.385
 4322SOL     OW13864   0.963   3.147   5.267
 4322SOL    HW113865   1.045   3.109   5.224
 4322SOL    HW213866   0.981   3.165   5.364
 4323SOL     OW13867   3.869   5.502   6.996
 4323SOL    HW113868   3.862   5.479   6.899
 4323SOL    HW213869   3.941   5.447   0.017
 4324SOL     OW13870   0.058   3.608   6.055
 4324SOL    HW113871   0.018   3.673   5.991
 4324SOL    HW213872   0.032   3.515   6.029
 4325SOL     OW13873   3.088   0.529   2.674
 4325SOL    HW113874   3.076   0.594   2.749
 4325SOL    HW213875   2.999   0.497   2.642
 4326SOL     OW13876   4.906   2.266   2.788
 4326SOL    HW113877   4.979   2.230   2.846
 4326SOL    HW213878   4.882   2.358   2.817
 4327SOL     OW13879   3.576   5.547   4.173
 4327SOL    HW113880   3.497   5.565   4.232
 4327SOL    HW213881   3.583   5.449   4.156
 4328SOL     OW13882   5.569   5.796   5.134
 4328SOL    HW113883   5.561   5.877   5.076
 4328SOL    HW213884   5.655   5.750   5.116
 4329SOL     OW13885   6.041   2.530   6.070
 4329SOL    HW113886   6.004   2.612   6.113
 4329SOL    HW213887   6.130   2.550   6.029
 4330SOL     OW13888   2.808   4.825   5.226
 4330SOL    HW113889   2.810   4.740   5.173
 4330SOL    HW213890   2.805   4.903   5.164
 4331SOL     OW13891   6.459   0.828   1.839
 4331SOL    HW113892   6.511   0.813   1.754
 4331SOL    HW213893   6.433   0.740   1.878
 4332SOL     OW13894   0.083   4.829   2.392
 4332SOL    HW113895   0.004   4.773   2.369
 4332SOL    HW213896   0.166   4.783   2.360
 4333SOL     OW13897   3.854   1.997   5.478
 4333SOL    HW113898   3.913   1.917   5.489
 4333SOL    HW213899   3.768   1.982   5.526
 4334SOL     OW13900   1.077   2.288   3.786
 4334SOL    HW113901   1.107   2.239   3.868
 4334SOL    HW213902   1.104   2.384   3.793
 4335SOL     OW13903   3.204   3.476   0.835
 4335SOL    HW113904   3.175   3.478   0.930
 4335SOL    HW213905   3.209   3.570   0.800
 4336SOL     OW13906   2.566   5.722   5.834
 4336SOL    HW113907   2.574   5.649   5.901
 4336SOL    HW213908   2.590   5.688   5.743
 4337SOL     OW13909   1.714   5.519   3.249
 4337SOL    HW113910   1.683   5.488   3.339
 4337SOL    HW213911   1.635   5.547   3.194
 4338SOL     OW13912   4.663   0.739   5.808
 4338SOL    HW113913   4.751   0.733   5.855
 4338SOL    HW213914   4.613   0.819   5.841
 4339SOL     OW13915   4.286   3.009   5.712
 4339SOL    HW113916   4.219   2.994   5.639
 4339SOL    HW213917   4.238   3.031   5.797
 4340SOL     OW13918   6.864   3.118   0.783
 4340SOL    HW113919   6.942   3.177   0.802
 4340SOL    HW213920   6.894   3.022   0.778
 4341SOL     OW13921   0.694   5.798   2.634
 4341SOL    HW113922   0.719   5.874   2.694
 4341SOL    HW213923   0.612   5.823   2.582
 4342SOL     OW13924   5.209   3.927   2.776
 4342SOL    HW113925   5.211   4.010   2.832
 4342SOL    HW213926   5.266   3.940   2.695
 4343SOL     OW13927   4.137   0.458   6.439
 4343SOL    HW113928   4.141   0.558   6.446
 4343SOL    HW213929   4.068   0.433   6.371
 4344SOL     OW13930   0.087   2.405   3.690
 4344SOL    HW113931   0.022   2.329   3.699
 4344SOL    HW213932   0.067   2.456   3.607
 4345SOL     OW13933   2.864   3.623   2.165
 4345SOL    HW113934   2.885   3.540   2.217
 4345SOL    HW213935   2.765   3.633   2.159
 4346SOL     OW13936   1.676   3.627   2.014
 4346SOL    HW113937   1.709   3.715   2.047
 4346SOL    HW213938   1.740   3.591   1.945
 4347SOL     OW13939   5.965   4.906   1.888
 4347SOL    HW113940   5.935   4.990   1.842
 4347SOL    HW213941   6.064   4.907   1.899
 4348SOL     OW13942   5.904   6.138   4.378
 4348SOL    HW113943   5.898   6.183   4.289
 4348SOL    HW213944   5.948   6.049   4.367
 4349SOL     OW13945   0.293   3.547   4.057
 4349SOL    HW113946   0.198   3.539   4.027
 4349SOL    HW213947   0.328   3.457   4.083
 4350SOL     OW13948   4.563   0.926   5.140
 4350SOL    HW113949   4.601   0.919   5.232
 4350SOL    HW213950   4.638   0.926   5.073
 4351SOL     OW13951   1.259   6.719   0.908
 4351SOL    HW113952   1.265   6.697   0.811
 4351SOL    HW213953   1.163   6.718   0.936
 4352SOL     OW13954   4.143   3.797   1.223
 4352SOL    HW113955   4.243   3.800   1.227
 4352SOL    HW213956   4.115   3.721   1.163
 4353SOL     OW13957   3.026   2.769   1.007
 4353SOL    HW113958   2.989   2.841   1.066
 4353SOL    HW213959   3.032   2.683   1.058
 4354SOL     OW13960   5.905   6.883   4.405
 4354SOL    HW113961   5.854   6.894   4.319
 4354SOL    HW213962   5.882   6.796   4.447
 4355SOL     OW13963   1.512   6.519   3.283
 4355SOL    HW113964   1.570   6.453   3.235
 4355SOL    HW213965   1.565   6.565   3.354
 4356SOL     OW13966   4.953   2.109   6.732
 4356SOL    HW113967   4.900   2.105   6.817
 4356SOL    HW213968   5.044   2.147   6.751
 4357SOL     OW13969   6.836   0.883   2.196
 4357SOL    HW113970   6.919   0.886   2.140
 4357SOL    HW213971   6.756   0.871   2.137
 4358SOL     OW13972   1.153   0.607   0.182
 4358SOL    HW113973   1.090   0.553   0.126
 4358SOL    HW213974   1.189   0.552   0.257
 4359SOL     OW13975   2.094   1.451   6.886
 4359SOL    HW113976   2.069   1.433   6.982
 4359SOL    HW213977   2.154   1.530   6.882
 4360SOL     OW13978   1.462   2.744   3.452
 4360SOL    HW113979   1.381   2.801   3.440
 4360SOL    HW213980   1.522   2.755   3.374
 4361SOL     OW13981   0.389   1.470   1.234
 4361SOL    HW113982   0.431   1.558   1.208
 4361SOL    HW213983   0.453   1.396   1.213
 4362SOL     OW13984   1.113   5.831   4.099
 4362SOL    HW113985   1.049   5.823   4.176
 4362SOL    HW213986   1.062   5.848   4.015
 4363SOL     OW13987   5.038   0.826   2.499
 4363SOL    HW113988   4.984   0.742   2.492
 4363SOL    HW213989   5.036   0.875   2.412
 4364SOL     OW13990   3.571   4.071   2.857
 4364SOL    HW113991   3.515   4.024   2.925
 4364SOL    HW213992   3.667   4.046   2.871
 4365SOL     OW13993   3.143   2.097   1.976
 4365SOL    HW113994   3.071   2.135   1.919
 4365SOL    HW213995   3.154   2.152   2.059
 4366SOL     OW13996   4.350   6.439   4.648
 4366SOL    HW113997   4.275   6.404   4.593
 4366SOL    HW213998   4.394   6.515   4.599
 4367SOL     OW13999   2.941   5.370   4.052
 4367SOL    HW114000   2.879   5.435   4.095
 4367SOL    HW214001   3.030   5.414   4.038
 4368SOL     OW14002   4.704   4.225   2.470
 4368SOL    HW114003   4.764   4.149   2.448
 4368SOL    HW214004   4.650   4.250   2.389
 4369SOL     OW14005   4.057   5.080   2.909
 4369SOL    HW114006   4.130   5.109   2.847
 4369SOL    HW214007   4.051   4.980   2.908
 4370SOL     OW14008   3.800   4.749   1.434
 4370SOL    HW114009   3.840   4.661   1.461
 4370SOL    HW214010   3.872   4.817   1.422
 4371SOL     OW14011   2.783   0.763   1.639
 4371SOL    HW114012   2.816   0.673   1.668
 4371SOL    HW214013   2.700   0.786   1.690
 4372SOL     OW14014   2.203   3.194   4.892
 4372SOL    HW114015   2.213   3.277   4.948
 4372SOL    HW214016   2.289   3.143   4.893
 4373SOL     OW14017   4.650   1.058   5.799
 4373SOL    HW114018   4.658   1.085   5.703
 4373SOL    HW214019   4.740   1.058   5.841
 4374SOL     OW14020   2.523   1.206   1.140
 4374SOL    HW114021   2.445   1.172   1.194
 4374SOL    HW214022   2.544   1.140   1.068
 4375SOL     OW14023   4.032   0.533   3.255
 4375SOL    HW114024   4.097   0.607   3.272
 4375SOL    HW214025   3.943   0.572   3.232
 4376SOL     OW14026   6.288   6.790   1.329
 4376SOL    HW114027   6.347   6.854   1.378
 4376SOL    HW214028   6.286   6.814   1.232
 4377SOL     OW14029   5.966   6.459   6.475
 4377SOL    HW114030   5.904   6.527   6.515
 4377SOL    HW214031   6.060   6.495   6.477
 4378SOL     OW14032   1.816   5.435   2.347
 4378SOL    HW114033   1.734   5.492   2.337
 4378SOL    HW214034   1.862   5.459   2.433
 4379SOL     OW14035   1.209   1.374   1.719
 4379SOL    HW114036   1.207   1.288   1.770
 4379SOL    HW214037   1.304   1.400   1.702
 4380SOL     OW14038   1.572   6.255   5.098
 4380SOL    HW114039   1.516   6.337   5.083
 4380SOL    HW214040   1.541   6.182   5.037
 4381SOL     OW14041   3.420   6.891   5.113
 4381SOL    HW114042   3.404   6.964   5.047
 4381SOL    HW214043   3.476   6.820   5.070
 4382SOL     OW14044   5.294   4.146   4.670
 4382SOL    HW114045   5.347   4.071   4.631
 4382SOL    HW214046   5.294   4.139   4.770
 4383SOL     OW14047   1.088   2.479   5.870
 4383SOL    HW114048   1.094   2.422   5.789
 4383SOL    HW214049   0.992   2.505   5.886
 4384SOL     OW14050   3.679   6.704   1.322
 4384SOL    HW114051   3.709   6.748   1.238
 4384SOL    HW214052   3.584   6.730   1.341
 4385SOL     OW14053   0.408   2.141   2.543
 4385SOL    HW114054   0.378   2.053   2.580
 4385SOL    HW214055   0.425   2.205   2.618
 4386SOL     OW14056   0.848   3.342   6.541
 4386SOL    HW114057   0.772   3.316   6.601
 4386SOL    HW214058   0.933   3.336   6.593
 4387SOL     OW14059   6.915   3.454   1.549
 4387SOL    HW114060   6.864   3.524   1.498
 4387SOL    HW214061   6.997   3.495   1.589
 4388SOL     OW14062   3.578   0.680   6.053
 4388SOL    HW114063   3.605   0.596   6.101
 4388SOL    HW214064   3.480   0.679   6.037
 4389SOL     OW14065   5.802   2.362   2.376
 4389SOL    HW114066   5.831   2.301   2.302
 4389SOL    HW214067   5.881   2.414   2.409
 4390SOL     OW14068   4.801   2.875   2.214
 4390SOL    HW114069   4.863   2.924   2.275
 4390SOL    HW214070   4.759   2.940   2.151
 4391SOL     OW14071   0.520   5.544   0.309
 4391SOL    HW114072   0.550   5.518   0.400
 4391SOL    HW214073   0.599   5.572   0.254
 4392SOL     OW14074   4.968   3.426   4.543
 4392SOL    HW114075   5.067   3.419   4.528
 4392SOL    HW214076   4.952   3.479   4.627
 4393SOL     OW14077   5.088   6.957   3.311
 4393SOL    HW114078   5.163   6.895   3.336
 4393SOL    HW214079   5.120   7.022   3.242
 4394SOL     OW14080   4.926   6.970   2.255
 4394SOL    HW114081   4.942   0.042   2.226
 4394SOL    HW214082   4.915   6.911   2.175
 4395SOL     OW14083   4.995   1.472   1.710
 4395SOL    HW114084   5.035   1.544   1.765
 4395SOL    HW214085   4.906   1.502   1.675
 4396SOL     OW14086   0.807   1.287   4.518
 4396SOL    HW114087   0.723   1.328   4.482
 4396SOL    HW214088   0.825   1.325   4.610
 4397SOL     OW14089   0.067   0.393   4.547
 4397SOL    HW114090   0.166   0.401   4.563
 4397SOL    HW214091   0.018   0.423   4.629
 4398SOL     OW14092   0.172   4.966   4.104
 4398SOL    HW114093   0.099   4.908   4.068
 4398SOL    HW214094   0.217   5.013   4.029
 4399SOL     OW14095   1.914   1.634   0.811
 4399SOL    HW114096   2.007   1.660   0.785
 4399SOL    HW214097   1.855   1.714   0.806
 4400SOL     OW14098   3.208   6.509   4.307
 4400SOL    HW114099   3.171   6.576   4.371
 4400SOL    HW214100   3.148   6.429   4.304
 4401SOL     OW14101   5.808   5.717   4.274
 4401SOL    HW114102   5.899   5.755   4.288
 4401SOL    HW214103   5.750   5.738   4.353
 4402SOL     OW14104   0.792   5.991   2.783
 4402SOL    HW114105   0.770   6.022   2.876
 4402SOL    HW214106   0.850   6.059   2.738
 4403SOL     OW14107   0.352   0.157   3.182
 4403SOL    HW114108   0.404   0.220   3.239
 4403SOL    HW214109   0.359   0.064   3.221
 4404SOL     OW14110   0.415   3.851   2.899
 4404SOL    HW114111   0.393   3.913   2.974
 4404SOL    HW214112   0.364   3.765   2.910
 4405SOL     OW14113   3.251   4.644   5.604
 4405SOL    HW114114   3.220   4.597   5.687
 4405SOL    HW214115   3.178   4.703   5.571
 4406SOL     OW14116   5.575   3.826   1.197
 4406SOL    HW114117   5.487   3.800   1.235
 4406SOL    HW214118   5.578   3.804   1.100
 4407SOL     OW14119   6.684   0.071   6.936
 4407SOL    HW114120   6.684   0.077   0.014
 4407SOL    HW214121   6.646   0.155   6.898
 4408SOL     OW14122   4.670   0.202   0.050
 4408SOL    HW114123   4.767   0.182   0.040
 4408SOL    HW214124   4.657   0.270   0.122
 4409SOL     OW14125   3.362   0.250   2.133
 4409SOL    HW114126   3.340   0.255   2.231
 4409SOL    HW214127   3.454   0.212   2.121
 4410SOL     OW14128   2.167   5.509   1.012
 4410SOL    HW114129   2.182   5.480   1.107
 4410SOL    HW214130   2.160   5.429   0.953
 4411SOL     OW14131   3.250   3.267   2.680
 4411SOL    HW114132   3.285   3.274   2.587
 4411SOL    HW214133   3.168   3.211   2.680
 4412SOL     OW14134   4.289   1.084   6.354
 4412SOL    HW114135   4.284   1.038   6.265
 4412SOL    HW214136   4.323   1.021   6.423
 4413SOL     OW14137   4.317   5.566   4.320
 4413SOL    HW114138   4.223   5.599   4.321
 4413SOL    HW214139   4.379   5.643   4.331
 4414SOL     OW14140   4.199   4.829   1.799
 4414SOL    HW114141   4.292   4.791   1.804
 4414SOL    HW214142   4.138   4.762   1.758
 4415SOL     OW14143   4.806   3.277   6.634
 4415SOL    HW114144   4.844   3.195   6.593
 4415SOL    HW214145   4.866   3.355   6.615
 4416SOL     OW14146   3.234   0.766   4.756
 4416SOL    HW114147   3.302   0.840   4.755
 4416SOL    HW214148   3.275   0.683   4.719
 4417SOL     OW14149   6.980   5.426   2.047
 4417SOL    HW114150   6.917   5.405   2.122
 4417SOL    HW214151   0.052   5.406   2.076
 4418SOL     OW14152   4.269   6.696   3.799
 4418SOL    HW114153   4.170   6.702   3.809
 4418SOL    HW214154   4.293   6.611   3.752
 4419SOL     OW14155   6.859   4.967   0.304
 4419SOL    HW114156   6.913   4.957   0.388
 4419SOL    HW214157   6.899   5.039   0.247
 4420SOL     OW14158   5.064   1.328   0.204
 4420SOL    HW114159   5.045   1.312   0.108
 4420SOL    HW214160   5.163   1.326   0.219
 4421SOL     OW14161   1.429   1.830   2.965
 4421SOL    HW114162   1.389   1.819   3.056
 4421SOL    HW214163   1.356   1.843   2.898
 4422SOL     OW14164   2.693   4.191   6.252
 4422SOL    HW114165   2.753   4.251   6.305
 4422SOL    HW214166   2.720   4.193   6.156
 4423SOL     OW14167   1.411   2.226   6.507
 4423SOL    HW114168   1.376   2.249   6.416
 4423SOL    HW214169   1.433   2.310   6.556
 4424SOL     OW14170   6.049   6.543   2.992
 4424SOL    HW114171   6.014   6.626   3.036
 4424SOL    HW214172   5.979   6.506   2.931
 4425SOL     OW14173   3.998   4.942   6.417
 4425SOL    HW114174   3.939   5.022   6.408
 4425SOL    HW214175   4.086   4.961   6.373
 4426SOL     OW14176   0.213   0.524   5.603
 4426SOL    HW114177   0.209   0.597   5.671
 4426SOL    HW214178   0.293   0.538   5.545
 4427SOL     OW14179   0.945   0.476   3.411
 4427SOL    HW114180   0.976   0.507   3.501
 4427SOL    HW214181   0.906   0.553   3.361
 4428SOL     OW14182   2.141   5.454   4.402
 4428SOL    HW114183   2.229   5.428   4.360
 4428SOL    HW214184   2.142   5.427   4.498
 4429SOL     OW14185   3.736   6.857   3.567
 4429SOL    HW114186   3.740   6.822   3.660
 4429SOL    HW214187   3.654   6.822   3.521
 4430SOL     OW14188   2.773   1.050   2.423
 4430SOL    HW114189   2.865   1.016   2.443
 4430SOL    HW214190   2.708   0.975   2.425
 4431SOL     OW14191   3.077   1.612   3.506
 4431SOL    HW114192   3.007   1.643   3.442
 4431SOL    HW214193   3.045   1.531   3.555
 4432SOL     OW14194   2.963   3.457   2.709
 4432SOL    HW114195   3.054   3.483   2.741
 4432SOL    HW214196   2.972   3.392   2.634
 4433SOL     OW14197   6.289   6.525   2.559
 4433SOL    HW114198   6.329   6.436   2.538
 4433SOL    HW214199   6.311   6.589   2.485
 4434SOL     OW14200   5.631   1.697   3.760
 4434SOL    HW114201   5.621   1.796   3.757
 4434SOL    HW214202   5.694   1.673   3.834
 4435SOL     OW14203   3.677   2.961   1.935
 4435SOL    HW114204   3.704   2.980   2.030
 4435SOL    HW214205   3.577   2.965   1.928
 4436SOL     OW14206   4.170   1.894   6.780
 4436SOL    HW114207   4.127   1.844   6.705
 4436SOL    HW214208   4.219   1.830   6.839
 4437SOL     OW14209   3.767   0.434   4.405
 4437SOL    HW114210   3.821   0.387   4.335
 4437SOL    HW214211   3.819   0.513   4.439
 4438SOL     OW14212   4.236   2.553   6.603
 4438SOL    HW114213   4.268   2.502   6.523
 4438SOL    HW214214   4.232   2.491   6.682
 4439SOL     OW14215   1.596   5.590   2.506
 4439SOL    HW114216   1.514   5.645   2.524
 4439SOL    HW214217   1.606   5.577   2.407
 4440SOL     OW14218   1.215   6.369   6.559
 4440SOL    HW114219   1.285   6.440   6.565
 4440SOL    HW214220   1.259   6.281   6.541
 4441SOL     OW14221   5.102   2.552   2.396
 4441SOL    HW114222   5.101   2.505   2.308
 4441SOL    HW214223   5.174   2.621   2.397
 4442SOL     OW14224   3.793   5.417   3.921
 4442SOL    HW114225   3.779   5.437   4.018
 4442SOL    HW214226   3.723   5.352   3.890
 4443SOL     OW14227   2.616   1.951   5.990
 4443SOL    HW114228   2.648   2.036   5.947
 4443SOL    HW214229   2.516   1.949   5.990
 4444SOL     OW14230   4.664   7.008   0.725
 4444SOL    HW114231   4.681   6.956   0.808
 4444SOL    HW214232   4.749   7.016   0.673
 4445SOL     OW14233   1.149   0.941   6.187
 4445SOL    HW114234   1.222   1.005   6.211
 4445SOL    HW214235   1.114   0.962   6.096
 4446SOL     OW14236   6.002   0.419   3.095
 4446SOL    HW114237   6.066   0.496   3.098
 4446SOL    HW214238   5.932   0.432   3.166
 4447SOL     OW14239   5.430   2.128   5.781
 4447SOL    HW114240   5.417   2.048   5.722
 4447SOL    HW214241   5.357   2.194   5.764
 4448SOL     OW14242   2.497   3.538   6.489
 4448SOL    HW114243   2.490   3.572   6.395
 4448SOL    HW214244   2.410   3.553   6.536
 4449SOL     OW14245   2.582   0.919   5.038
 4449SOL    HW114246   2.589   0.820   5.055
 4449SOL    HW214247   2.637   0.968   5.105
 4450SOL     OW14248   3.612   2.884   3.070
 4450SOL    HW114249   3.530   2.936   3.044
 4450SOL    HW214250   3.683   2.899   3.001
 4451SOL     OW14251   6.618   4.786   2.236
 4451SOL    HW114252   6.554   4.720   2.198
 4451SOL    HW214253   6.589   4.879   2.211
 4452SOL     OW14254   6.221   6.111   6.224
 4452SOL    HW114255   6.175   6.196   6.198
 4452SOL    HW214256   6.257   6.119   6.317
 4453SOL     OW14257   5.174   2.323   1.394
 4453SOL    HW114258   5.151   2.227   1.378
 4453SOL    HW214259   5.103   2.381   1.352
 4454SOL     OW14260   5.257   2.791   1.085
 4454SOL    HW114261   5.318   2.721   1.123
 4454SOL    HW214262   5.185   2.747   1.032
 4455SOL     OW14263   3.689   1.052   2.629
 4455SOL    HW114264   3.662   0.973   2.685
 4455SOL    HW214265   3.608   1.093   2.587
 4456SOL     OW14266   1.435   5.196   3.347
 4456SOL    HW114267   1.448   5.290   3.377
 4456SOL    HW214268   1.444   5.134   3.424
 4457SOL     OW14269   5.031   1.841   6.796
 4457SOL    HW114270   5.018   1.939   6.777
 4457SOL    HW214271   5.014   1.824   6.893
 4458SOL     OW14272   2.896   2.137   6.232
 4458SOL    HW114273   2.890   2.042   6.263
 4458SOL    HW214274   2.992   2.162   6.221
 4459SOL     OW14275   4.373   6.341   4.899
 4459SOL    HW114276   4.293   6.390   4.933
 4459SOL    HW214277   4.393   6.372   4.806
 4460SOL     OW14278   2.542   2.846   6.651
 4460SOL    HW114279   2.447   2.874   6.655
 4460SOL    HW214280   2.553   2.758   6.697
 4461SOL     OW14281   2.012   6.824   2.337
 4461SOL    HW114282   2.015   6.923   2.350
 4461SOL    HW214283   1.935   6.786   2.388
 4462SOL     OW14284   6.278   5.651   0.660
 4462SOL    HW114285   6.184   5.622   0.676
 4462SOL    HW214286   6.323   5.587   0.599
 4463SOL     OW14287   1.747   3.439   6.092
 4463SOL    HW114288   1.831   3.484   6.119
 4463SOL    HW214289   1.749   3.420   5.994
 4464SOL     OW14290   5.722   3.668   6.131
 4464SOL    HW114291   5.732   3.573   6.100
 4464SOL    HW214292   5.664   3.671   6.212
 4465SOL     OW14293   1.736   6.066   1.937
 4465SOL    HW114294   1.736   5.966   1.933
 4465SOL    HW214295   1.819   6.101   1.893
 4466SOL     OW14296   1.280   1.447   2.536
 4466SOL    HW114297   1.321   1.537   2.553
 4466SOL    HW214298   1.183   1.451   2.560
 4467SOL     OW14299   1.504   6.980   2.904
 4467SOL    HW114300   1.447   0.034   2.873
 4467SOL    HW214301   1.535   6.997   2.997
 4468SOL     OW14302   1.464   2.852   0.469
 4468SOL    HW114303   1.563   2.856   0.455
 4468SOL    HW214304   1.417   2.890   0.388
 4469SOL     OW14305   3.526   0.168   1.304
 4469SOL    HW114306   3.611   0.142   1.260
 4469SOL    HW214307   3.537   0.165   1.404
 4470SOL     OW14308   4.732   3.844   1.809
 4470SOL    HW114309   4.691   3.808   1.725
 4470SOL    HW214310   4.722   3.943   1.811
 4471SOL     OW14311   0.035   2.693   1.200
 4471SOL    HW114312   0.090   2.724   1.277
 4471SOL    HW214313   0.039   2.761   1.127
 4472SOL     OW14314   1.784   3.893   2.009
 4472SOL    HW114315   1.831   3.843   1.937
 4472SOL    HW214316   1.847   3.907   2.086
 4473SOL     OW14317   6.694   6.867   4.355
 4473SOL    HW114318   6.611   6.854   4.410
 4473SOL    HW214319   6.730   6.959   4.370
 4474SOL     OW14320   4.024   0.176   2.670
 4474SOL    HW114321   4.109   0.123   2.668
 4474SOL    HW214322   4.026   0.245   2.598
 4475SOL     OW14323   1.695   4.577   0.758
 4475SOL    HW114324   1.679   4.676   0.748
 4475SOL    HW214325   1.793   4.561   0.770
 4476SOL     OW14326   4.667   6.417   1.990
 4476SOL    HW114327   4.766   6.429   1.984
 4476SOL    HW214328   4.646   6.345   2.056
 4477SOL     OW14329   1.983   1.388   0.108
 4477SOL    HW114330   1.937   1.303   0.133
 4477SOL    HW214331   1.915   1.461   0.100
 4478SOL     OW14332   2.287   6.583   2.489
 4478SOL    HW114333   2.299   6.533   2.403
 4478SOL    HW214334   2.272   6.519   2.563
 4479SOL     OW14335   1.291   7.000   5.790
 4479SOL    HW114336   1.308   0.076   5.778
 4479SOL    HW214337   1.377   6.955   5.818
 4480SOL     OW14338   1.171   5.079   4.953
 4480SOL    HW114339   1.126   5.028   5.027
 4480SOL    HW214340   1.135   5.172   4.949
 4481SOL     OW14341   1.099   6.326   3.771
 4481SOL    HW114342   1.191   6.299   3.801
 4481SOL    HW214343   1.035   6.251   3.788
 4482SOL     OW14344   0.340   4.489   3.605
 4482SOL    HW114345   0.417   4.433   3.577
 4482SOL    HW214346   0.365   4.543   3.686
 4483SOL     OW14347   5.423   3.125   1.561
 4483SOL    HW114348   5.360   3.166   1.628
 4483SOL    HW214349   5.436   3.028   1.583
 4484SOL     OW14350   3.471   2.515   5.422
 4484SOL    HW114351   3.376   2.492   5.442
 4484SOL    HW214352   3.475   2.592   5.358
 4485SOL     OW14353   4.931   1.499   6.845
 4485SOL    HW114354   4.931   1.556   6.928
 4485SOL    HW214355   4.927   1.558   6.764
 4486SOL     OW14356   6.425   3.654   5.056
 4486SOL    HW114357   6.468   3.568   5.028
 4486SOL    HW214358   6.328   3.651   5.035
 4487SOL     OW14359   3.009   3.513   6.216
 4487SOL    HW114360   2.988   3.417   6.237
 4487SOL    HW214361   2.943   3.547   6.149
 4488SOL     OW14362   6.037   1.712   5.367
 4488SOL    HW114363   5.978   1.777   5.320
 4488SOL    HW214364   6.090   1.660   5.299
 4489SOL     OW14365   5.821   5.800   4.683
 4489SOL    HW114366   5.734   5.806   4.633
 4489SOL    HW214367   5.826   5.712   4.730
 4490SOL     OW14368   6.285   2.044   2.600
 4490SOL    HW114369   6.295   1.981   2.677
 4490SOL    HW214370   6.222   2.006   2.533
 4491SOL     OW14371   0.882   3.717   2.782
 4491SOL    HW114372   0.943   3.784   2.823
 4491SOL    HW214373   0.883   3.633   2.837
 4492SOL     OW14374   4.708   2.391   0.432
 4492SOL    HW114375   4.620   2.348   0.409
 4492SOL    HW214376   4.783   2.335   0.397
 4493SOL     OW14377   5.520   5.194   5.040
 4493SOL    HW114378   5.550   5.228   5.130
 4493SOL    HW214379   5.458   5.117   5.053
 4494SOL     OW14380   0.107   4.415   5.127
 4494SOL    HW114381   0.203   4.389   5.114
 4494SOL    HW214382   0.058   4.340   5.169
 4495SOL     OW14383   5.022   6.694   1.793
 4495SOL    HW114384   4.996   6.791   1.797
 4495SOL    HW214385   4.971   6.643   1.862
 4496SOL     OW14386   5.408   3.855   5.752
 4496SOL    HW114387   5.336   3.787   5.743
 4496SOL    HW214388   5.425   3.897   5.662
 4497SOL     OW14389   5.964   5.046   0.143
 4497SOL    HW114390   6.033   4.988   0.100
 4497SOL    HW214391   5.884   4.991   0.166
 4498SOL     OW14392   0.293   3.411   6.775
 4498SOL    HW114393   0.353   3.380   6.701
 4498SOL    HW214394   0.232   3.336   6.802
 4499SOL     OW14395   6.797   3.433   5.418
 4499SOL    HW114396   6.786   3.531   5.408
 4499SOL    HW214397   6.894   3.410   5.421
 4500SOL     OW14398   3.116   3.929   4.492
 4500SOL    HW114399   3.082   3.907   4.401
 4500SOL    HW214400   3.207   3.888   4.504
 4501SOL     OW14401   0.272   4.856   5.289
 4501SOL    HW114402   0.185   4.876   5.243
 4501SOL    HW214403   0.281   4.913   5.370
 4502SOL     OW14404   1.478   2.491   0.017
 4502SOL    HW114405   1.409   2.461   6.973
 4502SOL    HW214406   1.527   2.411   0.053
 4503SOL     OW14407   1.735   1.403   3.803
 4503SOL    HW114408   1.664   1.430   3.738
 4503SOL    HW214409   1.729   1.305   3.820
 4504SOL     OW14410   5.640   2.800   5.440
 4504SOL    HW114411   5.711   2.868   5.425
 4504SOL    HW214412   5.580   2.796   5.360
 4505SOL     OW14413   1.802   6.377   5.137
 4505SOL    HW114414   1.720   6.320   5.126
 4505SOL    HW214415   1.829   6.377   5.233
 4506SOL     OW14416   4.047   1.009   5.155
 4506SOL    HW114417   4.056   0.990   5.253
 4506SOL    HW214418   4.136   1.034   5.117
 4507SOL     OW14419   4.899   4.172   1.019
 4507SOL    HW114420   4.995   4.181   1.045
 4507SOL    HW214421   4.880   4.231   0.941
 4508SOL     OW14422   1.113   3.785   0.116
 4508SOL    HW114423   1.042   3.720   0.092
 4508SOL    HW214424   1.200   3.755   0.077
 4509SOL     OW14425   3.205   1.874   4.372
 4509SOL    HW114426   3.291   1.836   4.336
 4509SOL    HW214427   3.177   1.822   4.452
 4510SOL     OW14428   5.161   6.963   5.279
 4510SOL    HW114429   5.158   6.902   5.199
 4510SOL    HW214430   5.074   6.956   5.328
 4511SOL     OW14431   6.582   2.443   0.380
 4511SOL    HW114432   6.601   2.540   0.396
 4511SOL    HW214433   6.540   2.404   0.461
 4512SOL     OW14434   2.127   6.025   6.449
 4512SOL    HW114435   2.208   6.021   6.390
 4512SOL    HW214436   2.137   5.961   6.524
 4513SOL     OW14437   4.922   6.721   2.091
 4513SOL    HW114438   4.827   6.699   2.115
 4513SOL    HW214439   4.924   6.770   2.004
 4514SOL     OW14440   3.303   1.047   5.024
 4514SOL    HW114441   3.343   1.130   5.063
 4514SOL    HW214442   3.204   1.048   5.037
 4515SOL     OW14443   0.024   4.910   0.478
 4515SOL    HW114444   0.039   4.861   0.564
 4515SOL    HW214445   0.096   4.886   0.413
 4516SOL     OW14446   0.915   1.143   5.140
 4516SOL    HW114447   0.944   1.238   5.153
 4516SOL    HW214448   0.971   1.083   5.197
 4517SOL     OW14449   3.773   6.798   6.385
 4517SOL    HW114450   3.748   6.729   6.317
 4517SOL    HW214451   3.872   6.794   6.401
 4518SOL     OW14452   1.232   1.957   3.777
 4518SOL    HW114453   1.297   1.882   3.789
 4518SOL    HW214454   1.191   1.952   3.686
 4519SOL     OW14455   0.036   2.794   3.986
 4519SOL    HW114456   0.077   2.737   3.915
 4519SOL    HW214457   0.056   2.890   3.968
 4520SOL     OW14458   6.930   4.331   2.717
 4520SOL    HW114459   7.002   4.324   2.648
 4520SOL    HW214460   6.879   4.416   2.703
 4521SOL     OW14461   4.859   2.582   0.111
 4521SOL    HW114462   4.927   2.586   0.037
 4521SOL    HW214463   4.822   2.489   0.116
 4522SOL     OW14464   6.292   6.684   3.346
 4522SOL    HW114465   6.352   6.605   3.335
 4522SOL    HW214466   6.255   6.686   3.438
 4523SOL     OW14467   3.277   4.466   0.376
 4523SOL    HW114468   3.362   4.415   0.389
 4523SOL    HW214469   3.219   4.418   0.310
 4524SOL     OW14470   5.132   0.997   5.331
 4524SOL    HW114471   5.057   1.035   5.277
 4524SOL    HW214472   5.161   1.064   5.399
 4525SOL     OW14473   6.089   1.361   4.538
 4525SOL    HW114474   5.991   1.340   4.541
 4525SOL    HW214475   6.138   1.298   4.599
 4526SOL     OW14476   4.664   6.751   0.509
 4526SOL    HW114477   4.619   6.754   0.420
 4526SOL    HW214478   4.613   6.693   0.571
 4527SOL     OW14479   4.916   1.295   2.924
 4527SOL    HW114480   4.838   1.318   2.982
 4527SOL    HW214481   4.883   1.267   2.834
 4528SOL     OW14482   5.695   0.015   0.362
 4528SOL    HW114483   5.756   7.017   0.285
 4528SOL    HW214484   5.700   0.112   0.384
 4529SOL     OW14485   2.909   0.168   3.211
 4529SOL    HW114486   2.846   0.240   3.240
 4529SOL    HW214487   2.995   0.177   3.260
 4530SOL     OW14488   0.577   3.273   5.270
 4530SOL    HW114489   0.593   3.186   5.316
 4530SOL    HW214490   0.556   3.344   5.337
 4531SOL     OW14491   0.880   3.103   3.626
 4531SOL    HW114492   0.958   3.092   3.688
 4531SOL    HW214493   0.832   3.016   3.617
 4532SOL     OW14494   6.273   1.067   0.923
 4532SOL    HW114495   6.301   1.025   1.009
 4532SOL    HW214496   6.321   1.023   0.847
 4533SOL     OW14497   1.471   6.655   2.763
 4533SOL    HW114498   1.509   6.568   2.792
 4533SOL    HW214499   1.545   6.720   2.746
 4534SOL     OW14500   6.580   4.164   5.131
 4534SOL    HW114501   6.514   4.089   5.138
 4534SOL    HW214502   6.575   4.204   5.040
 4535SOL     OW14503   5.021   3.336   1.920
 4535SOL    HW114504   5.012   3.263   1.988
 4535SOL    HW214505   4.935   3.347   1.870
 4536SOL     OW14506   5.611   1.098   4.869
 4536SOL    HW114507   5.681   1.169   4.872
 4536SOL    HW214508   5.619   1.039   4.950
 4537SOL     OW14509   4.130   3.223   0.053
 4537SOL    HW114510   4.093   3.308   0.093
 4537SOL    HW214511   4.178   3.245   6.990
 4538SOL     OW14512   3.215   1.556   3.150
 4538SOL    HW114513   3.197   1.646   3.191
 4538SOL    HW214514   3.313   1.536   3.154
 4539SOL     OW14515   2.145   1.992   3.557
 4539SOL    HW114516   2.171   2.026   3.467
 4539SOL    HW214517   2.166   1.895   3.564
 4540SOL     OW14518   3.158   3.064   4.492
 4540SOL    HW114519   3.200   2.992   4.547
 4540SOL    HW214520   3.195   3.153   4.521
 4541SOL     OW14521   4.932   1.686   0.616
 4541SOL    HW114522   4.968   1.776   0.641
 4541SOL    HW214523   4.994   1.643   0.551
 4542SOL     OW14524   6.042   6.282   1.997
 4542SOL    HW114525   6.064   6.196   1.951
 4542SOL    HW214526   6.106   6.296   2.074
 4543SOL     OW14527   5.204   1.689   0.933
 4543SOL    HW114528   5.138   1.763   0.928
 4543SOL    HW214529   5.171   1.611   0.879
 4544SOL     OW14530   2.993   5.867   6.962
 4544SOL    HW114531   2.942   5.796   6.915
 4544SOL    HW214532   3.031   5.931   6.896
 4545SOL     OW14533   4.082   2.062   5.241
 4545SOL    HW114534   4.123   1.976   5.212
 4545SOL    HW214535   4.150   2.116   5.292
 4546SOL     OW14536   0.757   0.028   6.910
 4546SOL    HW114537   0.699   0.018   6.991
 4546SOL    HW214538   0.823   6.976   6.906
 4547SOL     OW14539   5.821   2.595   1.266
 4547SOL    HW114540   5.791   2.681   1.308
 4547SOL    HW214541   5.901   2.612   1.209
 4548SOL     OW14542   0.598   4.388   3.547
 4548SOL    HW114543   0.612   4.294   3.516
 4548SOL    HW214544   0.679   4.443   3.525
 4549SOL     OW14545   6.806   3.555   2.925
 4549SOL    HW114546   6.717   3.514   2.946
 4549SOL    HW214547   6.848   3.505   2.849
 4550SOL     OW14548   0.989   5.980   3.279
 4550SOL    HW114549   0.945   5.910   3.222
 4550SOL    HW214550   0.955   5.973   3.373
 4551SOL     OW14551   0.800   2.931   5.284
 4551SOL    HW114552   0.837   3.022   5.267
 4551SOL    HW214553   0.708   2.939   5.324
 4552SOL     OW14554   0.753   3.054   4.977
 4552SOL    HW114555   0.692   2.981   4.947
 4552SOL    HW214556   0.701   3.137   4.993
 4553SOL     OW14557   4.410   5.005   0.555
 4553SOL    HW114558   4.508   5.022   0.567
 4553SOL    HW214559   4.396   4.935   0.486
 4554SOL     OW14560   4.040   6.768   2.962
 4554SOL    HW114561   4.028   6.726   2.872
 4554SOL    HW214562   4.022   6.700   3.033
 4555SOL     OW14563   4.815   2.069   6.953
 4555SOL    HW114564   4.784   1.984   6.996
 4555SOL    HW214565   4.736   2.119   6.917
 4556SOL     OW14566   4.455   0.308   3.698
 4556SOL    HW114567   4.374   0.367   3.694
 4556SOL    HW214568   4.502   0.310   3.610
 4557SOL     OW14569   5.465   0.037   5.804
 4557SOL    HW114570   5.479   0.057   5.707
 4557SOL    HW214571   5.371   0.059   5.830
 4558SOL     OW14572   6.384   3.474   6.318
 4558SOL    HW114573   6.298   3.454   6.271
 4558SOL    HW214574   6.365   3.526   6.401
 4559SOL     OW14575   1.669   6.686   1.448
 4559SOL    HW114576   1.746   6.749   1.455
 4559SOL    HW214577   1.600   6.724   1.387
 4560SOL     OW14578   5.447   3.116   2.702
 4560SOL    HW114579   5.388   3.053   2.652
 4560SOL    HW214580   5.508   3.164   2.638
 4561SOL     OW14581   2.929   0.877   6.907
 4561SOL    HW114582   2.973   0.959   6.871
 4561SOL    HW214583   2.842   0.862   6.860
 4562SOL     OW14584   2.920   5.855   6.620
 4562SOL    HW114585   2.937   5.780   6.556
 4562SOL    HW214586   2.844   5.911   6.587
 4563SOL     OW14587   5.326   1.408   0.619
 4563SOL    HW114588   5.357   1.323   0.661
 4563SOL    HW214589   5.394   1.480   0.632
 4564SOL     OW14590   0.982   5.940   0.248
 4564SOL    HW114591   0.885   5.951   0.269
 4564SOL    HW214592   1.000   5.972   0.155
 4565SOL     OW14593   0.565   0.827   5.300
 4565SOL    HW114594   0.608   0.800   5.214
 4565SOL    HW214595   0.470   0.795   5.302
 4566SOL     OW14596   0.457   0.725   6.403
 4566SOL    HW114597   0.510   0.641   6.414
 4566SOL    HW214598   0.502   0.799   6.452
 4567SOL     OW14599   6.480   1.406   0.813
 4567SOL    HW114600   6.432   1.459   0.883
 4567SOL    HW214601   6.576   1.437   0.809
 4568SOL     OW14602   3.241   4.402   5.444
 4568SOL    HW114603   3.239   4.493   5.485
 4568SOL    HW214604   3.224   4.333   5.515
 4569SOL     OW14605   1.330   1.481   4.426
 4569SOL    HW114606   1.365   1.538   4.351
 4569SOL    HW214607   1.239   1.514   4.452
 4570SOL     OW14608   0.054   5.909   3.280
 4570SOL    HW114609   0.050   5.931   3.182
 4570SOL    HW214610   0.004   5.979   3.331
 4571SOL     OW14611   3.126   3.542   4.287
 4571SOL    HW114612   3.149   3.604   4.212
 4571SOL    HW214613   3.126   3.448   4.253
 4572SOL     OW14614   1.315   6.972   1.330
 4572SOL    HW114615   1.285   6.997   1.422
 4572SOL    HW214616   1.398   6.918   1.335
 4573SOL     OW14617   5.954   5.786   1.102
 4573SOL    HW114618   5.949   5.858   1.033
 4573SOL    HW214619   6.047   5.782   1.139
 4574SOL     OW14620   0.003   4.264   1.533
 4574SOL    HW114621   6.974   4.179   1.550
 4574SOL    HW214622   7.011   4.292   1.438
 4575SOL     OW14623   6.504   1.497   1.304
 4575SOL    HW114624   6.441   1.422   1.290
 4575SOL    HW214625   6.506   1.522   1.401
 4576SOL     OW14626   3.177   5.745   6.731
 4576SOL    HW114627   3.104   5.790   6.680
 4576SOL    HW214628   3.222   5.811   6.791
 4577SOL     OW14629   1.138   3.426   3.332
 4577SOL    HW114630   1.211   3.491   3.310
 4577SOL    HW214631   1.132   3.414   3.431
 4578SOL     OW14632   0.216   3.354   3.437
 4578SOL    HW114633   0.180   3.408   3.361
 4578SOL    HW214634   0.149   3.285   3.464
 4579SOL     OW14635   5.313   1.831   3.248
 4579SOL    HW114636   5.336   1.899   3.317
 4579SOL    HW214637   5.350   1.859   3.159
 4580SOL     OW14638   5.665   5.747   0.607
 4580SOL    HW114639   5.626   5.791   0.526
 4580SOL    HW214640   5.643   5.649   0.605
 4581SOL     OW14641   3.126   5.462   3.357
 4581SOL    HW114642   3.150   5.380   3.305
 4581SOL    HW214643   3.195   5.533   3.340
 4582SOL     OW14644   5.070   6.590   3.088
 4582SOL    HW114645   5.117   6.657   3.145
 4582SOL    HW214646   4.979   6.625   3.063
 4583SOL     OW14647   2.875   2.048   5.424
 4583SOL    HW114648   2.846   2.132   5.379
 4583SOL    HW214649   2.904   1.981   5.355
 4584SOL     OW14650   0.270   5.450   6.345
 4584SOL    HW114651   0.332   5.423   6.271
 4584SOL    HW214652   0.176   5.453   6.311
 4585SOL     OW14653   3.306   6.059   3.264
 4585SOL    HW114654   3.282   6.073   3.360
 4585SOL    HW214655   3.231   6.010   3.219
 4586SOL     OW14656   3.671   5.931   1.819
 4586SOL    HW114657   3.585   5.908   1.773
 4586SOL    HW214658   3.688   5.866   1.893
 4587SOL     OW14659   2.935   2.950   1.173
 4587SOL    HW114660   2.890   3.037   1.197
 4587SOL    HW214661   2.951   2.897   1.256
 4588SOL     OW14662   4.047   3.535   5.066
 4588SOL    HW114663   4.064   3.527   4.968
 4588SOL    HW214664   4.033   3.631   5.090
 4589SOL     OW14665   6.276   2.349   3.295
 4589SOL    HW114666   6.240   2.261   3.264
 4589SOL    HW214667   6.274   2.353   3.394
 4590SOL     OW14668   4.726   5.207   2.402
 4590SOL    HW114669   4.700   5.248   2.489
 4590SOL    HW214670   4.736   5.108   2.413
 4591SOL     OW14671   6.043   5.634   5.840
 4591SOL    HW114672   6.117   5.697   5.863
 4591SOL    HW214673   6.051   5.607   5.744
 4592SOL     OW14674   3.863   2.519   0.454
 4592SOL    HW114675   3.863   2.617   0.432
 4592SOL    HW214676   3.806   2.470   0.389
 4593SOL     OW14677   3.892   6.138   2.799
 4593SOL    HW114678   3.840   6.214   2.762
 4593SOL    HW214679   3.962   6.110   2.733
 4594SOL     OW14680   2.805   1.426   1.742
 4594SOL    HW114681   2.864   1.492   1.788
 4594SOL    HW214682   2.793   1.452   1.646
 4595SOL     OW14683   3.861   3.199   6.486
 4595SOL    HW114684   3.885   3.102   6.495
 4595SOL    HW214685   3.804   3.212   6.406
 4596SOL     OW14686   5.923   6.551   2.446
 4596SOL    HW114687   5.983   6.631   2.444
 4596SOL    HW214688   5.872   6.550   2.532
 4597SOL     OW14689   5.568   4.169   6.057
 4597SOL    HW114690   5.507   4.226   6.113
 4597SOL    HW214691   5.660   4.207   6.060
 4598SOL     OW14692   2.120   5.153   6.690
 4598SOL    HW114693   2.186   5.199   6.751
 4598SOL    HW214694   2.038   5.210   6.681
 4599SOL     OW14695   1.583   4.649   1.217
 4599SOL    HW114696   1.670   4.601   1.223
 4599SOL    HW214697   1.540   4.629   1.129
 4600SOL     OW14698   3.275   5.861   0.598
 4600SOL    HW114699   3.237   5.780   0.552
 4600SOL    HW214700   3.271   5.939   0.537
 4601SOL     OW14701   2.186   1.140   4.947
 4601SOL    HW114702   2.211   1.095   4.861
 4601SOL    HW214703   2.260   1.127   5.013
 4602SOL     OW14704   2.031   0.060   1.748
 4602SOL    HW114705   1.959   0.024   1.688
 4602SOL    HW214706   2.030   0.011   1.835
 4603SOL     OW14707   3.091   6.667   1.988
 4603SOL    HW114708   3.035   6.607   2.045
 4603SOL    HW214709   3.084   6.638   1.893
 4604SOL     OW14710   3.608   0.118   2.198
 4604SOL    HW114711   3.606   0.108   2.298
 4604SOL    HW214712   3.620   0.028   2.156
 4605SOL     OW14713   5.161   0.585   4.820
 4605SOL    HW114714   5.097   0.534   4.877
 4605SOL    HW214715   5.140   0.682   4.824
 4606SOL     OW14716   6.590   6.467   5.024
 4606SOL    HW114717   6.690   6.458   5.022
 4606SOL    HW214718   6.549   6.380   5.050
 4607SOL     OW14719   2.886   1.336   1.449
 4607SOL    HW114720   2.970   1.292   1.480
 4607SOL    HW214721   2.891   1.434   1.467
 4608SOL     OW14722   1.525   5.175   5.135
 4608SOL    HW114723   1.518   5.075   5.135
 4608SOL    HW214724   1.434   5.215   5.145
 4609SOL     OW14725   5.128   6.625   6.732
 4609SOL    HW114726   5.111   6.535   6.690
 4609SOL    HW214727   5.154   6.690   6.661
 4610SOL     OW14728   0.403   2.590   6.606
 4610SOL    HW114729   0.461   2.612   6.684
 4610SOL    HW214730   0.307   2.597   6.634
 4611SOL     OW14731   0.415   3.740   6.987
 4611SOL    HW114732   0.322   3.706   6.975
 4611SOL    HW214733   0.427   3.773   0.059
 4612SOL     OW14734   1.760   6.097   6.233
 4612SOL    HW114735   1.775   6.161   6.308
 4612SOL    HW214736   1.666   6.106   6.201
 4613SOL     OW14737   3.365   5.732   2.917
 4613SOL    HW114738   3.268   5.746   2.900
 4613SOL    HW214739   3.396   5.794   2.988
 4614SOL     OW14740   1.736   5.479   0.106
 4614SOL    HW114741   1.644   5.515   0.124
 4614SOL    HW214742   1.756   5.487   0.008
 4615SOL     OW14743   1.596   1.873   0.230
 4615SOL    HW114744   1.501   1.864   0.260
 4615SOL    HW214745   1.628   1.786   0.193
 4616SOL     OW14746   6.108   0.199   6.670
 4616SOL    HW114747   6.032   0.147   6.630
 4616SOL    HW214748   6.133   0.274   6.609
 4617SOL     OW14749   0.694   2.684   2.067
 4617SOL    HW114750   0.638   2.601   2.075
 4617SOL    HW214751   0.790   2.660   2.079
 4618SOL     OW14752   0.826   2.553   5.914
 4618SOL    HW114753   0.778   2.547   6.001
 4618SOL    HW214754   0.787   2.487   5.849
 4619SOL     OW14755   4.894   0.977   4.071
 4619SOL    HW114756   4.842   1.062   4.079
 4619SOL    HW214757   4.975   0.992   4.014
 4620SOL     OW14758   3.077   4.536   0.014
 4620SOL    HW114759   3.058   4.452   0.065
 4620SOL    HW214760   3.139   4.516   6.960
 4621SOL     OW14761   0.383   0.846   4.970
 4621SOL    HW114762   0.463   0.863   5.027
 4621SOL    HW214763   0.412   0.825   4.877
 4622SOL     OW14764   1.902   3.503   0.321
 4622SOL    HW114765   1.971   3.572   0.341
 4622SOL    HW214766   1.900   3.435   0.395
 4623SOL     OW14767   6.937   4.779   1.206
 4623SOL    HW114768   6.884   4.697   1.228
 4623SOL    HW214769   6.937   4.840   1.285
 4624SOL     OW14770   4.682   0.745   4.211
 4624SOL    HW114771   4.738   0.767   4.131
 4624SOL    HW214772   4.720   0.790   4.292
 4625SOL     OW14773   1.030   4.070   6.813
 4625SOL    HW114774   1.029   3.970   6.813
 4625SOL    HW214775   0.992   4.104   6.727
 4626SOL     OW14776   6.475   4.694   1.931
 4626SOL    HW114777   6.433   4.640   1.858
 4626SOL    HW214778   6.450   4.654   2.019
 4627SOL     OW14779   3.471   5.928   5.484
 4627SOL    HW114780   3.446   5.832   5.468
 4627SOL    HW214781   3.556   5.932   5.536
 4628SOL     OW14782   6.155   4.731   2.076
 4628SOL    HW114783   6.197   4.762   2.161
 4628SOL    HW214784   6.212   4.757   1.998
 4629SOL     OW14785   2.100   5.151   5.540
 4629SOL    HW114786   2.180   5.092   5.545
 4629SOL    HW214787   2.128   5.243   5.513
 4630SOL     OW14788   1.975   5.642   3.196
 4630SOL    HW114789   1.889   5.593   3.187
 4630SOL    HW214790   2.051   5.584   3.165
 4631SOL     OW14791   3.221   6.412   3.250
 4631SOL    HW114792   3.144   6.364   3.208
 4631SOL    HW214793   3.211   6.510   3.235
 4632SOL     OW14794   4.691   5.510   4.541
 4632SOL    HW114795   4.698   5.410   4.547
 4632SOL    HW214796   4.754   5.544   4.471
 4633SOL     OW14797   6.427   1.782   5.082
 4633SOL    HW114798   6.462   1.690   5.065
 4633SOL    HW214799   6.503   1.842   5.108
 4634SOL     OW14800   2.721   4.917   0.687
 4634SOL    HW114801   2.726   4.819   0.705
 4634SOL    HW214802   2.769   4.967   0.760
 4635SOL     OW14803   5.009   2.999   2.377
 4635SOL    HW114804   4.991   2.932   2.449
 4635SOL    HW214805   5.004   3.091   2.415
 4636SOL     OW14806   2.835   5.923   0.751
 4636SOL    HW114807   2.905   5.937   0.821
 4636SOL    HW214808   2.747   5.906   0.796
 4637SOL     OW14809   0.897   0.475   5.914
 4637SOL    HW114810   0.872   0.521   5.999
 4637SOL    HW214811   0.983   0.512   5.880
 4638SOL     OW14812   4.207   3.149   5.916
 4638SOL    HW114813   4.258   3.222   5.872
 4638SOL    HW214814   4.179   3.178   6.008
 4639SOL     OW14815   0.931   4.134   5.959
 4639SOL    HW114816   0.980   4.127   5.872
 4639SOL    HW214817   0.838   4.166   5.943
 4640SOL     OW14818   5.275   4.541   2.773
 4640SOL    HW114819   5.283   4.608   2.847
 4640SOL    HW214820   5.343   4.469   2.786
 4641SOL     OW14821   2.769   4.849   4.497
 4641SOL    HW114822   2.707   4.787   4.449
 4641SOL    HW214823   2.742   4.944   4.478
 4642SOL     OW14824   6.205   5.726   4.470
 4642SOL    HW114825   6.223   5.677   4.555
 4642SOL    HW214826   6.242   5.818   4.475
 4643SOL     OW14827   3.885   2.409   1.708
 4643SOL    HW114828   3.945   2.332   1.688
 4643SOL    HW214829   3.812   2.379   1.770
 4644SOL     OW14830   1.498   6.603   4.552
 4644SOL    HW114831   1.415   6.640   4.510
 4644SOL    HW214832   1.535   6.531   4.494
 4645SOL     OW14833   2.183   6.564   4.321
 4645SOL    HW114834   2.105   6.605   4.370
 4645SOL    HW214835   2.248   6.527   4.388
 4646SOL     OW14836   3.017   0.411   2.301
 4646SOL    HW114837   3.038   0.329   2.248
 4646SOL    HW214838   2.921   0.410   2.327
 4647SOL     OW14839   6.864   0.256   3.851
 4647SOL    HW114840   6.939   0.199   3.885
 4647SOL    HW214841   6.785   0.248   3.912
 4648SOL     OW14842   2.651   5.629   2.505
 4648SOL    HW114843   2.626   5.725   2.515
 4648SOL    HW214844   2.685   5.613   2.412
 4649SOL     OW14845   5.183   1.085   5.813
 4649SOL    HW114846   5.207   1.174   5.853
 4649SOL    HW214847   5.198   1.013   5.880
 4650SOL     OW14848   4.914   6.098   2.662
 4650SOL    HW114849   4.820   6.066   2.674
 4650SOL    HW214850   4.963   6.092   2.749
 4651SOL     OW14851   0.036   1.930   1.616
 4651SOL    HW114852   0.017   1.995   1.689
 4651SOL    HW214853   0.090   1.974   1.545
 4652SOL     OW14854   6.834   0.707   4.544
 4652SOL    HW114855   6.780   0.623   4.556
 4652SOL    HW214856   6.931   0.686   4.555
 4653SOL     OW14857   6.661   6.392   7.001
 4653SOL    HW114858   6.618   6.452   0.046
 4653SOL    HW214859   6.729   6.443   6.949
 4654SOL     OW14860   0.869   0.139   0.752
 4654SOL    HW114861   0.838   0.100   0.665
 4654SOL    HW214862   0.938   0.209   0.733
 4655SOL     OW14863   0.209   4.137   2.854
 4655SOL    HW114864   0.251   4.194   2.783
 4655SOL    HW214865   0.244   4.164   2.943
 4656SOL     OW14866   0.948   0.715   3.133
 4656SOL    HW114867   0.899   0.735   3.217
 4656SOL    HW214868   0.884   0.683   3.063
 4657SOL     OW14869   5.134   6.699   1.548
 4657SOL    HW114870   5.107   6.673   1.641
 4657SOL    HW214871   5.083   6.780   1.520
 4658SOL     OW14872   4.485   0.110   2.826
 4658SOL    HW114873   4.532   0.115   2.914
 4658SOL    HW214874   4.460   0.202   2.796
 4659SOL     OW14875   1.908   2.490   4.712
 4659SOL    HW114876   1.928   2.586   4.732
 4659SOL    HW214877   1.953   2.432   4.779
 4660SOL     OW14878   0.116   1.615   5.806
 4660SOL    HW114879   0.100   1.518   5.788
 4660SOL    HW214880   0.097   1.634   5.903
 4661SOL     OW14881   3.598   4.123   4.979
 4661SOL    HW114882   3.595   4.205   5.036
 4661SOL    HW214883   3.508   4.108   4.937
 4662SOL     OW14884   5.462   0.937   5.652
 4662SOL    HW114885   5.494   0.969   5.741
 4662SOL    HW214886   5.375   0.889   5.663
 4663SOL     OW14887   0.173   2.388   2.172
 4663SOL    HW114888   0.180   2.448   2.252
 4663SOL    HW214889   0.223   2.429   2.096
 4664SOL     OW14890   3.177   2.623   6.949
 4664SOL    HW114891   3.153   2.700   6.890
 4664SOL    HW214892   3.222   2.657   0.010
 4665SOL     OW14893   4.888   0.142   6.567
 4665SOL    HW114894   4.901   0.044   6.577
 4665SOL    HW214895   4.826   0.160   6.490
 4666SOL     OW14896   2.202   1.798   0.160
 4666SOL    HW114897   2.285   1.853   0.159
 4666SOL    HW214898   2.153   1.813   0.246
 4667SOL     OW14899   0.053   5.181   6.930
 4667SOL    HW114900   0.024   5.204   6.837
 4667SOL    HW214901   0.148   5.148   6.929
 4668SOL     OW14902   6.595   1.563   5.031
 4668SOL    HW114903   6.624   1.528   5.120
 4668SOL    HW214904   6.546   1.492   4.982
 4669SOL     OW14905   1.873   6.914   0.429
 4669SOL    HW114906   1.797   6.852   0.449
 4669SOL    HW214907   1.847   7.008   0.454
 4670SOL     OW14908   1.971   1.959   5.056
 4670SOL    HW114909   2.048   2.023   5.059
 4670SOL    HW214910   1.905   1.990   4.986
 4671SOL     OW14911   5.859   2.900   1.563
 4671SOL    HW114912   5.917   2.936   1.489
 4671SOL    HW214913   5.848   2.969   1.634
 4672SOL     OW14914   1.850   4.211   6.353
 4672SOL    HW114915   1.950   4.201   6.344
 4672SOL    HW214916   1.825   4.307   6.348
 4673SOL     OW14917   2.975   0.854   2.504
 4673SOL    HW114918   2.907   0.795   2.549
 4673SOL    HW214919   3.005   0.811   2.419
 4674SOL     OW14920   4.622   5.933   5.098
 4674SOL    HW114921   4.663   5.842   5.085
 4674SOL    HW214922   4.695   6.002   5.103
 4675SOL     OW14923   1.261   4.158   0.389
 4675SOL    HW114924   1.256   4.062   0.361
 4675SOL    HW214925   1.233   4.217   0.313
 4676SOL     OW14926   1.614   5.830   3.427
 4676SOL    HW114927   1.698   5.779   3.415
 4676SOL    HW214928   1.634   5.928   3.430
 4677SOL     OW14929   1.862   2.236   0.470
 4677SOL    HW114930   1.823   2.326   0.490
 4677SOL    HW214931   1.938   2.246   0.406
 4678SOL     OW14932   1.677   4.201   2.901
 4678SOL    HW114933   1.654   4.294   2.931
 4678SOL    HW214934   1.755   4.168   2.953
 4679SOL     OW14935   5.645   6.638   1.452
 4679SOL    HW114936   5.554   6.664   1.421
 4679SOL    HW214937   5.707   6.716   1.443
 4680SOL     OW14938   2.615   1.578   1.350
 4680SOL    HW114939   2.654   1.610   1.437
 4680SOL    HW214940   2.634   1.480   1.338
 4681SOL     OW14941   5.510   3.804   0.732
 4681SOL    HW114942   5.594   3.786   0.783
 4681SOL    HW214943   5.440   3.839   0.795
 4682SOL     OW14944   4.789   3.511   6.276
 4682SOL    HW114945   4.852   3.564   6.220
 4682SOL    HW214946   4.839   3.438   6.322
 4683SOL     OW14947   5.851   4.637   3.994
 4683SOL    HW114948   5.914   4.595   3.928
 4683SOL    HW214949   5.757   4.617   3.968
 4684SOL     OW14950   4.604   6.485   0.206
 4684SOL    HW114951   4.685   6.515   0.157
 4684SOL    HW214952   4.550   6.564   0.233
 4685SOL     OW14953   2.285   3.725   5.964
 4685SOL    HW114954   2.213   3.705   5.898
 4685SOL    HW214955   2.352   3.786   5.923
 4686SOL     OW14956   3.420   6.117   0.756
 4686SOL    HW114957   3.473   6.036   0.779
 4686SOL    HW214958   3.345   6.128   0.823
 4687SOL     OW14959   3.169   1.196   2.743
 4687SOL    HW114960   3.083   1.247   2.750
 4687SOL    HW214961   3.245   1.260   2.742
 4688SOL     OW14962   5.204   2.403   5.813
 4688SOL    HW114963   5.167   2.374   5.901
 4688SOL    HW214964   5.139   2.462   5.767
 4689SOL     OW14965   5.487   0.649   0.669
 4689SOL    HW114966   5.508   0.706   0.748
 4689SOL    HW214967   5.560   0.582   0.655
 4690SOL     OW14968   2.131   1.330   0.898
 4690SOL    HW114969   2.134   1.389   0.817
 4690SOL    HW214970   2.115   1.386   0.979
 4691SOL     OW14971   5.443   4.416   0.564
 4691SOL    HW114972   5.534   4.407   0.524
 4691SOL    HW214973   5.451   4.429   0.663
 4692SOL     OW14974   6.657   4.655   2.954
 4692SOL    HW114975   6.707   4.634   3.037
 4692SOL    HW214976   6.574   4.599   2.950
 4693SOL     OW14977   1.599   0.893   3.317
 4693SOL    HW114978   1.513   0.844   3.333
 4693SOL    HW214979   1.646   0.854   3.238
 4694SOL     OW14980   2.668   1.061   0.463
 4694SOL    HW114981   2.619   1.143   0.494
 4694SOL    HW214982   2.748   1.088   0.410
 4695SOL     OW14983   1.128   5.680   0.597
 4695SOL    HW114984   1.222   5.682   0.560
 4695SOL    HW214985   1.130   5.703   0.694
 4696SOL     OW14986   1.421   5.277   6.010
 4696SOL    HW114987   1.322   5.283   6.019
 4696SOL    HW214988   1.464   5.346   6.069
 4697SOL     OW14989   2.114   4.302   0.892
 4697SOL    HW114990   2.128   4.332   0.798
 4697SOL    HW214991   2.149   4.209   0.904
 4698SOL     OW14992   4.642   0.304   3.207
 4698SOL    HW114993   4.646   0.205   3.196
 4698SOL    HW214994   4.590   0.343   3.132
 4699SOL     OW14995   0.641   0.830   2.370
 4699SOL    HW114996   0.574   0.765   2.333
 4699SOL    HW214997   0.687   0.877   2.295
 4700SOL     OW14998   6.406   2.250   3.049
 4700SOL    HW114999   6.371   2.299   3.129
 4700SOL    HW215000   6.368   2.290   2.966
 4701SOL     OW15001   3.336   1.983   1.791
 4701SOL    HW115002   3.391   2.043   1.733
 4701SOL    HW215003   3.274   2.038   1.847
 4702SOL     OW15004   5.013   5.073   6.856
 4702SOL    HW115005   5.095   5.130   6.852
 4702SOL    HW215006   4.938   5.119   6.808
 4703SOL     OW15007   1.181   4.670   2.529
 4703SOL    HW115008   1.263   4.615   2.539
 4703SOL    HW215009   1.121   4.629   2.460
 4704SOL     OW15010   6.918   5.836   5.764
 4704SOL    HW115011   6.937   5.743   5.796
 4704SOL    HW215012   6.902   5.895   5.843
 4705SOL     OW15013   3.197   2.660   1.422
 4705SOL    HW115014   3.236   2.679   1.512
 4705SOL    HW215015   3.253   2.592   1.375
 4706SOL     OW15016   1.177   0.250   0.880
 4706SOL    HW115017   1.116   0.274   0.805
 4706SOL    HW215018   1.200   0.152   0.875
 4707SOL     OW15019   1.440   6.134   1.052
 4707SOL    HW115020   1.475   6.051   1.096
 4707SOL    HW215021   1.453   6.212   1.113
 4708SOL     OW15022   1.197   2.491   4.340
 4708SOL    HW115023   1.259   2.567   4.359
 4708SOL    HW215024   1.234   2.436   4.265
 4709SOL     OW15025   5.294   4.118   4.956
 4709SOL    HW115026   5.229   4.047   4.983
 4709SOL    HW215027   5.246   4.206   4.948
 4710SOL     OW15028   5.403   6.535   4.704
 4710SOL    HW115029   5.455   6.620   4.708
 4710SOL    HW215030   5.412   6.487   4.791
 4711SOL     OW15031   5.981   3.414   3.139
 4711SOL    HW115032   6.011   3.321   3.117
 4711SOL    HW215033   6.060   3.473   3.150
 4712SOL     OW15034   4.496   4.436   5.419
 4712SOL    HW115035   4.544   4.418   5.505
 4712SOL    HW215036   4.558   4.422   5.342
 4713SOL     OW15037   5.684   4.090   0.675
 4713SOL    HW115038   5.607   4.028   0.657
 4713SOL    HW215039   5.701   4.145   0.594
 4714SOL     OW15040   6.542   1.808   6.433
 4714SOL    HW115041   6.539   1.737   6.503
 4714SOL    HW215042   6.548   1.898   6.478
 4715SOL     OW15043   6.379   1.733   2.519
 4715SOL    HW115044   6.463   1.741   2.465
 4715SOL    HW215045   6.304   1.778   2.471
 4716SOL     OW15046   3.878   5.515   5.687
 4716SOL    HW115047   3.814   5.471   5.750
 4716SOL    HW215048   3.957   5.548   5.737
 4717SOL     OW15049   2.928   5.331   5.531
 4717SOL    HW115050   2.951   5.401   5.464
 4717SOL    HW215051   2.943   5.240   5.492
 4718SOL     OW15052   5.450   3.330   0.925
 4718SOL    HW115053   5.486   3.319   1.018
 4718SOL    HW215054   5.520   3.373   0.868
 4719SOL     OW15055   6.244   3.209   3.372
 4719SOL    HW115056   6.273   3.289   3.425
 4719SOL    HW215057   6.245   3.128   3.430
 4720SOL     OW15058   3.127   5.235   7.014
 4720SOL    HW115059   3.074   5.156   6.982
 4720SOL    HW215060   3.211   5.242   6.962
 4721SOL     OW15061   6.525   3.538   1.886
 4721SOL    HW115062   6.614   3.549   1.842
 4721SOL    HW215063   6.526   3.455   1.942
 4722SOL     OW15064   0.978   4.445   6.404
 4722SOL    HW115065   0.912   4.383   6.362
 4722SOL    HW215066   1.030   4.491   6.332
 4723SOL     OW15067   4.049   4.509   5.784
 4723SOL    HW115068   4.029   4.586   5.724
 4723SOL    HW215069   3.983   4.437   5.769
 4724SOL     OW15070   0.323   6.327   4.015
 4724SOL    HW115071   0.326   6.407   3.955
 4724SOL    HW215072   0.328   6.244   3.961
 4725SOL     OW15073   5.523   4.882   0.678
 4725SOL    HW115074   5.441   4.933   0.654
 4725SOL    HW215075   5.564   4.921   0.761
 4726SOL     OW15076   2.049   2.981   5.856
 4726SOL    HW115077   2.066   2.889   5.820
 4726SOL    HW215078   2.129   3.010   5.910
 4727SOL     OW15079   0.554   5.859   1.236
 4727SOL    HW115080   0.638   5.810   1.260
 4727SOL    HW215081   0.522   5.829   1.146
 4728SOL     OW15082   5.978   0.995   2.648
 4728SOL    HW115083   5.995   1.087   2.614
 4728SOL    HW215084   5.897   0.957   2.603
 4729SOL     OW15085   5.875   0.718   0.334
 4729SOL    HW115086   5.946   0.734   0.265
 4729SOL    HW215087   5.787   0.704   0.289
 4730SOL     OW15088   3.643   6.670   4.650
 4730SOL    HW115089   3.665   6.611   4.728
 4730SOL    HW215090   3.577   6.624   4.591
 4731SOL     OW15091   2.937   6.968   0.797
 4731SOL    HW115092   2.995   6.894   0.762
 4731SOL    HW215093   2.974   7.002   0.883
 4732SOL     OW15094   0.411   4.107   4.528
 4732SOL    HW115095   0.402   4.195   4.577
 4732SOL    HW215096   0.351   4.107   4.449
 4733SOL     OW15097   2.116   3.896   3.066
 4733SOL    HW115098   2.113   3.800   3.038
 4733SOL    HW215099   2.028   3.923   3.104
 4734SOL     OW15100   5.537   3.647   5.930
 4734SOL    HW115101   5.466   3.716   5.914
 4734SOL    HW215102   5.607   3.685   5.991
 4735SOL     OW15103   6.837   6.687   5.252
 4735SOL    HW115104   6.876   6.775   5.280
 4735SOL    HW215105   6.909   6.630   5.213
 4736SOL     OW15106   6.689   1.726   3.585
 4736SOL    HW115107   6.738   1.766   3.509
 4736SOL    HW215108   6.734   1.750   3.671
 4737SOL     OW15109   1.852   5.250   1.239
 4737SOL    HW115110   1.837   5.156   1.209
 4737SOL    HW215111   1.805   5.313   1.178
 4738SOL     OW15112   2.030   0.652   3.976
 4738SOL    HW115113   2.006   0.645   4.073
 4738SOL    HW215114   2.044   0.748   3.952
 4739SOL     OW15115   5.789   3.315   4.858
 4739SOL    HW115116   5.851   3.289   4.932
 4739SOL    HW215117   5.770   3.413   4.864
 4740SOL     OW15118   0.745   1.469   1.895
 4740SOL    HW115119   0.782   1.488   1.986
 4740SOL    HW215120   0.745   1.371   1.879
 4741SOL     OW15121   4.166   4.903   1.154
 4741SOL    HW115122   4.237   4.933   1.217
 4741SOL    HW215123   4.084   4.960   1.165
 4742SOL     OW15124   2.888   5.793   1.370
 4742SOL    HW115125   2.804   5.796   1.424
 4742SOL    HW215126   2.964   5.827   1.426
 4743SOL     OW15127   2.688   1.785   6.431
 4743SOL    HW115128   2.629   1.772   6.511
 4743SOL    HW215129   2.665   1.718   6.361
 4744SOL     OW15130   2.068   3.707   5.783
 4744SOL    HW115131   2.028   3.741   5.698
 4744SOL    HW215132   2.049   3.610   5.792
 4745SOL     OW15133   3.250   5.132   5.246
 4745SOL    HW115134   3.317   5.173   5.184
 4745SOL    HW215135   3.297   5.075   5.313
 4746SOL     OW15136   6.150   5.928   0.369
 4746SOL    HW115137   6.124   5.909   0.463
 4746SOL    HW215138   6.250   5.935   0.362
 4747SOL     OW15139   0.126   2.198   0.066
 4747SOL    HW115140   0.139   2.297   0.055
 4747SOL    HW215141   0.174   2.168   0.149
 4748SOL     OW15142   0.813   0.646   1.558
 4748SOL    HW115143   0.783   0.731   1.515
 4748SOL    HW215144   0.812   0.572   1.490
 4749SOL     OW15145   1.985   6.503   6.933
 4749SOL    HW115146   2.034   6.587   6.954
 4749SOL    HW215147   2.027   6.458   6.854
 4750SOL     OW15148   6.777   1.507   4.359
 4750SOL    HW115149   6.772   1.471   4.452
 4750SOL    HW215150   6.721   1.590   4.353
 4751SOL     OW15151   1.333   4.783   6.643
 4751SOL    HW115152   1.289   4.735   6.567
 4751SOL    HW215153   1.286   4.760   6.728
 4752SOL     OW15154   2.484   6.268   1.559
 4752SOL    HW115155   2.451   6.174   1.556
 4752SOL    HW215156   2.529   6.291   1.472
 4753SOL     OW15157   5.405   6.667   5.124
 4753SOL    HW115158   5.499   6.671   5.089
 4753SOL    HW215159   5.404   6.617   5.210
 4754SOL     OW15160   0.207   0.112   6.497
 4754SOL    HW115161   0.153   0.103   6.413
 4754SOL    HW215162   0.287   0.052   6.492
 4755SOL     OW15163   2.632   1.651   5.745
 4755SOL    HW115164   2.547   1.676   5.700
 4755SOL    HW215165   2.653   1.719   5.816
 4756SOL     OW15166   4.583   2.781   1.461
 4756SOL    HW115167   4.637   2.859   1.429
 4756SOL    HW215168   4.580   2.781   1.561
 4757SOL     OW15169   2.651   2.439   1.906
 4757SOL    HW115170   2.748   2.448   1.885
 4757SOL    HW215171   2.636   2.454   2.004
 4758SOL     OW15172   4.771   5.269   5.657
 4758SOL    HW115173   4.860   5.257   5.699
 4758SOL    HW215174   4.735   5.360   5.680
 4759SOL     OW15175   5.677   5.684   5.736
 4759SOL    HW115176   5.738   5.673   5.658
 4759SOL    HW215177   5.604   5.749   5.713
 4760SOL     OW15178   1.682   0.963   1.514
 4760SOL    HW115179   1.732   1.019   1.447
 4760SOL    HW215180   1.745   0.928   1.583
 4761SOL     OW15181   6.896   0.165   6.542
 4761SOL    HW115182   6.865   0.095   6.477
 4761SOL    HW215183   6.960   0.123   6.607
 4762SOL     OW15184   2.398   5.062   2.269
 4762SOL    HW115185   2.328   5.114   2.220
 4762SOL    HW215186   2.444   5.122   2.335
 4763SOL     OW15187   5.979   6.070   3.335
 4763SOL    HW115188   5.957   6.083   3.432
 4763SOL    HW215189   5.915   6.005   3.295
 4764SOL     OW15190   4.415   3.798   5.381
 4764SOL    HW115191   4.447   3.721   5.326
 4764SOL    HW215192   4.490   3.832   5.438
 4765SOL     OW15193   4.982   5.917   5.321
 4765SOL    HW115194   5.002   6.012   5.294
 4765SOL    HW215195   4.969   5.913   5.420
 4766SOL     OW15196   2.829   0.662   3.212
 4766SOL    HW115197   2.810   0.708   3.299
 4766SOL    HW215198   2.853   0.730   3.143
 4767SOL     OW15199   4.004   6.838   0.580
 4767SOL    HW115200   3.987   6.921   0.527
 4767SOL    HW215201   4.046   6.863   0.668
 4768SOL     OW15202   5.218   0.932   4.755
 4768SOL    HW115203   5.173   0.954   4.842
 4768SOL    HW215204   5.299   0.989   4.744
 4769SOL     OW15205   3.765   5.868   1.532
 4769SOL    HW115206   3.762   5.868   1.632
 4769SOL    HW215207   3.723   5.784   1.498
 4770SOL     OW15208   2.248   0.466   3.054
 4770SOL    HW115209   2.340   0.474   3.016
 4770SOL    HW215210   2.242   0.384   3.110
 4771SOL     OW15211   3.509   4.598   6.277
 4771SOL    HW115212   3.529   4.644   6.190
 4771SOL    HW215213   3.409   4.596   6.291
 4772SOL     OW15214   2.586   0.431   1.600
 4772SOL    HW115215   2.572   0.494   1.676
 4772SOL    HW215216   2.521   0.356   1.607
 4773SOL     OW15217   0.329   6.046   3.910
 4773SOL    HW115218   0.322   5.977   3.982
 4773SOL    HW215219   0.243   6.049   3.859
 4774SOL     OW15220   1.005   3.532   2.280
 4774SOL    HW115221   0.977   3.625   2.304
 4774SOL    HW215222   1.083   3.535   2.219
 4775SOL     OW15223   4.765   0.348   2.938
 4775SOL    HW115224   4.852   0.330   2.986
 4775SOL    HW215225   4.721   0.428   2.978
 4776SOL     OW15226   2.824   6.140   2.321
 4776SOL    HW115227   2.740   6.192   2.309
 4776SOL    HW215228   2.803   6.042   2.323
 4777SOL     OW15229   2.380   4.465   0.887
 4777SOL    HW115230   2.362   4.382   0.940
 4777SOL    HW215231   2.301   4.526   0.892
 4778SOL     OW15232   4.631   3.602   1.675
 4778SOL    HW115233   4.712   3.549   1.699
 4778SOL    HW215234   4.583   3.557   1.600
 4779SOL     OW15235   6.750   0.483   3.042
 4779SOL    HW115236   6.763   0.438   3.130
 4779SOL    HW215237   6.662   0.532   3.043
 4780SOL     OW15238   0.644   7.012   6.024
 4780SOL    HW115239   0.732   0.020   5.986
 4780SOL    HW215240   0.657   6.980   6.117
 4781SOL     OW15241   2.385   5.624   0.857
 4781SOL    HW115242   2.476   5.588   0.880
 4781SOL    HW215243   2.315   5.558   0.884
 4782SOL     OW15244   5.560   0.487   6.444
 4782SOL    HW115245   5.557   0.496   6.544
 4782SOL    HW215246   5.478   0.527   6.404
 4783SOL     OW15247   5.018   3.958   0.865
 4783SOL    HW115248   5.018   3.955   0.765
 4783SOL    HW215249   5.003   4.052   0.895
 4784SOL     OW15250   5.912   5.270   5.021
 4784SOL    HW115251   5.934   5.192   5.080
 4784SOL    HW215252   5.850   5.240   4.949
 4785SOL     OW15253   6.832   6.573   0.691
 4785SOL    HW115254   6.792   6.651   0.741
 4785SOL    HW215255   6.814   6.489   0.743
 4786SOL     OW15256   1.916   3.021   2.146
 4786SOL    HW115257   1.862   2.937   2.145
 4786SOL    HW215258   2.013   2.998   2.155
 4787SOL     OW15259   3.034   2.200   3.871
 4787SOL    HW115260   2.990   2.241   3.791
 4787SOL    HW215261   2.999   2.242   3.954
 4788SOL     OW15262   1.719   5.513   5.560
 4788SOL    HW115263   1.741   5.567   5.641
 4788SOL    HW215264   1.719   5.416   5.584
 4789SOL     OW15265   5.772   0.578   0.034
 4789SOL    HW115266   5.688   0.632   0.039
 4789SOL    HW215267   5.778   0.517   0.113
 4790SOL     OW15268   5.416   2.142   6.570
 4790SOL    HW115269   5.361   2.141   6.486
 4790SOL    HW215270   5.355   2.139   6.649
 4791SOL     OW15271   5.708   6.750   2.259
 4791SOL    HW115272   5.787   6.700   2.296
 4791SOL    HW215273   5.668   6.806   2.332
 4792SOL     OW15274   2.182   2.528   2.909
 4792SOL    HW115275   2.145   2.473   2.834
 4792SOL    HW215276   2.281   2.515   2.914
 4793SOL     OW15277   1.545   6.929   5.884
 4793SOL    HW115278   1.521   6.834   5.908
 4793SOL    HW215279   1.569   6.979   5.966
 4794SOL     OW15280   2.612   6.273   3.022
 4794SOL    HW115281   2.625   6.215   3.103
 4794SOL    HW215282   2.643   6.225   2.941
 4795SOL     OW15283   6.139   3.277   4.763
 4795SOL    HW115284   6.111   3.227   4.681
 4795SOL    HW215285   6.136   3.375   4.744
 4796SOL     OW15286   5.373   3.273   0.230
 4796SOL    HW115287   5.290   3.218   0.222
 4796SOL    HW215288   5.354   3.365   0.197
 4797SOL     OW15289   0.991   4.942   5.783
 4797SOL    HW115290   1.056   4.963   5.710
 4797SOL    HW215291   1.037   4.946   5.871
 4798SOL     OW15292   0.314   4.481   4.005
 4798SOL    HW115293   0.362   4.400   3.972
 4798SOL    HW215294   0.282   4.535   3.927
 4799SOL     OW15295   4.880   1.460   5.421
 4799SOL    HW115296   4.899   1.366   5.448
 4799SOL    HW215297   4.786   1.484   5.445
 4800SOL     OW15298   2.552   2.670   5.679
 4800SOL    HW115299   2.638   2.695   5.723
 4800SOL    HW215300   2.518   2.748   5.627
 4801SOL     OW15301   1.575   1.552   0.522
 4801SOL    HW115302   1.566   1.652   0.531
 4801SOL    HW215303   1.514   1.508   0.588
 4802SOL     OW15304   2.775   6.428   1.959
 4802SOL    HW115305   2.831   6.431   2.042
 4802SOL    HW215306   2.827   6.384   1.885
 4803SOL     OW15307   0.983   0.027   0.984
 4803SOL    HW115308   0.922   0.074   0.920
 4803SOL    HW215309   1.074   0.018   0.944
 4804SOL     OW15310   4.418   5.433   6.490
 4804SOL    HW115311   4.485   5.393   6.552
 4804SOL    HW215312   4.339   5.465   6.542
 4805SOL     OW15313   6.763   0.832   0.286
 4805SOL    HW115314   6.735   0.831   0.382
 4805SOL    HW215315   6.701   0.891   0.234
 4806SOL     OW15316   0.295   4.133   3.110
 4806SOL    HW115317   0.212   4.082   3.133
 4806SOL    HW215318   0.330   4.179   3.192
 4807SOL     OW15319   0.734   5.749   1.791
 4807SOL    HW115320   0.637   5.766   1.774
 4807SOL    HW215321   0.745   5.667   1.847
 4808SOL     OW15322   5.609   3.299   1.486
 4808SOL    HW115323   5.642   3.291   1.392
 4808SOL    HW215324   5.568   3.213   1.515
 4809SOL     OW15325   3.018   4.995   6.894
 4809SOL    HW115326   3.051   4.979   6.801
 4809SOL    HW215327   3.069   4.937   6.958
 4810SOL     OW15328   0.513   5.393   1.704
 4810SOL    HW115329   0.507   5.426   1.609
 4810SOL    HW215330   0.435   5.335   1.724
 4811SOL     OW15331   3.402   4.933   2.162
 4811SOL    HW115332   3.472   4.861   2.159
 4811SOL    HW215333   3.398   4.979   2.074
 4812SOL     OW15334   6.925   5.513   4.092
 4812SOL    HW115335   6.927   5.585   4.161
 4812SOL    HW215336   6.850   5.450   4.111
 4813SOL     OW15337   5.084   1.804   2.250
 4813SOL    HW115338   5.001   1.827   2.199
 4813SOL    HW215339   5.070   1.718   2.299
 4814SOL     OW15340   6.951   3.606   0.900
 4814SOL    HW115341   0.011   3.645   0.942
 4814SOL    HW215342   6.911   3.538   0.963
 4815SOL     OW15343   4.731   5.313   1.529
 4815SOL    HW115344   4.823   5.273   1.529
 4815SOL    HW215345   4.737   5.410   1.552
 4816SOL     OW15346   5.439   5.677   2.416
 4816SOL    HW115347   5.348   5.649   2.447
 4816SOL    HW215348   5.505   5.662   2.489
 4817SOL     OW15349   1.041   2.354   5.622
 4817SOL    HW115350   0.947   2.356   5.591
 4817SOL    HW215351   1.101   2.395   5.553
 4818SOL     OW15352   6.936   0.314   3.581
 4818SOL    HW115353   6.913   0.295   3.677
 4818SOL    HW215354   6.940   0.228   3.530
 4819SOL     OW15355   1.347   3.318   6.826
 4819SOL    HW115356   1.346   3.242   6.761
 4819SOL    HW215357   1.434   3.319   6.875
 4820SOL     OW15358   0.034   3.663   1.656
 4820SOL    HW115359   0.119   3.631   1.697
 4820SOL    HW215360   0.030   3.763   1.661
 4821SOL     OW15361   0.118   6.106   2.041
 4821SOL    HW115362   0.107   6.029   1.977
 4821SOL    HW215363   0.194   6.086   2.103
 4822SOL     OW15364   0.922   3.700   4.177
 4822SOL    HW115365   0.870   3.742   4.251
 4822SOL    HW215366   0.891   3.736   4.089
 4823SOL     OW15367   1.401   2.970   2.188
 4823SOL    HW115368   1.408   2.928   2.098
 4823SOL    HW215369   1.306   2.963   2.220
 4824SOL     OW15370   5.603   0.179   5.156
 4824SOL    HW115371   5.634   0.232   5.236
 4824SOL    HW215372   5.505   0.165   5.161
 4825SOL     OW15373   1.467   0.485   4.763
 4825SOL    HW115374   1.559   0.497   4.801
 4825SOL    HW215375   1.474   0.443   4.673
 4826SOL     OW15376   4.423   0.075   1.711
 4826SOL    HW115377   4.442   0.153   1.771
 4826SOL    HW215378   4.324   0.059   1.708
 4827SOL     OW15379   7.006   2.096   0.711
 4827SOL    HW115380   6.932   2.163   0.708
 4827SOL    HW215381   0.068   2.141   0.742
 4828SOL     OW15382   4.793   7.013   2.600
 4828SOL    HW115383   4.856   0.059   2.561
 4828SOL    HW215384   4.713   0.037   2.638
 4829SOL     OW15385   4.153   0.114   5.718
 4829SOL    HW115386   4.203   0.161   5.790
 4829SOL    HW215387   4.218   0.071   5.655
 4830SOL     OW15388   3.296   5.421   3.622
 4830SOL    HW115389   3.354   5.347   3.589
 4830SOL    HW215390   3.234   5.449   3.548
 4831SOL     OW15391   3.607   5.181   6.293
 4831SOL    HW115392   3.670   5.172   6.216
 4831SOL    HW215393   3.517   5.207   6.259
 4832SOL     OW15394   2.987   3.553   4.547
 4832SOL    HW115395   2.977   3.650   4.565
 4832SOL    HW215396   3.035   3.540   4.460
 4833SOL     OW15397   5.942   2.935   4.727
 4833SOL    HW115398   5.999   2.957   4.806
 4833SOL    HW215399   5.900   3.019   4.692
 4834SOL     OW15400   2.006   5.433   2.129
 4834SOL    HW115401   1.961   5.425   2.219
 4834SOL    HW215402   2.103   5.414   2.139
 4835SOL     OW15403   6.789   3.173   5.319
 4835SOL    HW115404   6.795   3.261   5.367
 4835SOL    HW215405   6.693   3.147   5.310
 4836SOL     OW15406   4.802   0.940   5.018
 4836SOL    HW115407   4.862   0.860   5.022
 4836SOL    HW215408   4.834   1.002   4.947
 4837SOL     OW15409   6.902   3.251   4.171
 4837SOL    HW115410   6.921   3.158   4.202
 4837SOL    HW215411   6.804   3.264   4.160
 4838SOL     OW15412   1.150   4.633   6.240
 4838SOL    HW115413   1.208   4.636   6.321
 4838SOL    HW215414   1.113   4.724   6.222
 4839SOL     OW15415   2.079   2.365   1.144
 4839SOL    HW115416   2.072   2.266   1.132
 4839SOL    HW215417   2.158   2.399   1.094
 4840SOL     OW15418   5.117   3.622   5.248
 4840SOL    HW115419   5.022   3.646   5.265
 4840SOL    HW215420   5.122   3.528   5.215
 4841SOL     OW15421   2.808   5.043   3.275
 4841SOL    HW115422   2.749   5.023   3.197
 4841SOL    HW215423   2.772   5.123   3.324
 4842SOL     OW15424   2.759   5.033   2.951
 4842SOL    HW115425   2.734   5.106   3.014
 4842SOL    HW215426   2.771   5.070   2.859
 4843SOL     OW15427   0.063   2.447   2.465
 4843SOL    HW115428   6.993   2.486   2.461
 4843SOL    HW215429   0.057   2.347   2.470
 4844SOL     OW15430   1.273   5.400   5.079
 4844SOL    HW115431   1.314   5.413   4.988
 4844SOL    HW215432   1.208   5.474   5.096
 4845SOL     OW15433   4.750   4.412   5.270
 4845SOL    HW115434   4.721   4.397   5.175
 4845SOL    HW215435   4.814   4.489   5.273
 4846SOL     OW15436   6.996   3.474   4.647
 4846SOL    HW115437   6.897   3.465   4.646
 4846SOL    HW215438   0.014   3.420   4.573
 4847SOL     OW15439   2.724   6.464   6.154
 4847SOL    HW115440   2.687   6.501   6.069
 4847SOL    HW215441   2.729   6.365   6.148
 4848SOL     OW15442   2.635   0.721   4.178
 4848SOL    HW115443   2.630   0.736   4.276
 4848SOL    HW215444   2.599   0.802   4.130
 4849SOL     OW15445   2.181   6.883   1.201
 4849SOL    HW115446   2.141   6.902   1.291
 4849SOL    HW215447   2.269   6.838   1.213
 4850SOL     OW15448   4.716   0.670   0.573
 4850SOL    HW115449   4.721   0.592   0.510
 4850SOL    HW215450   4.808   0.696   0.602
 4851SOL     OW15451   3.309   5.908   6.903
 4851SOL    HW115452   3.337   5.845   6.974
 4851SOL    HW215453   3.327   6.002   6.932
 4852SOL     OW15454   4.646   5.260   5.080
 4852SOL    HW115455   4.610   5.168   5.094
 4852SOL    HW215456   4.696   5.264   4.993
 4853SOL     OW15457   3.780   1.005   3.088
 4853SOL    HW115458   3.799   0.916   3.046
 4853SOL    HW215459   3.781   1.076   3.018
 4854SOL     OW15460   6.099   6.169   1.627
 4854SOL    HW115461   6.104   6.154   1.725
 4854SOL    HW215462   6.183   6.216   1.596
 4855SOL     OW15463   6.654   4.925   4.547
 4855SOL    HW115464   6.601   4.931   4.631
 4855SOL    HW215465   6.702   5.012   4.532
 4856SOL     OW15466   0.227   3.591   2.936
 4856SOL    HW115467   0.161   3.657   2.901
 4856SOL    HW215468   0.267   3.540   2.861
 4857SOL     OW15469   2.916   2.266   4.092
 4857SOL    HW115470   2.923   2.276   4.191
 4857SOL    HW215471   2.823   2.292   4.062
 4858SOL     OW15472   0.209   6.286   4.541
 4858SOL    HW115473   0.278   6.224   4.504
 4858SOL    HW215474   0.253   6.368   4.577
 4859SOL     OW15475   0.476   5.657   2.180
 4859SOL    HW115476   0.483   5.561   2.207
 4859SOL    HW215477   0.461   5.662   2.081
 4860SOL     OW15478   5.284   5.879   0.630
 4860SOL    HW115479   5.209   5.813   0.629
 4860SOL    HW215480   5.325   5.882   0.721
 4861SOL     OW15481   0.291   4.821   6.610
 4861SOL    HW115482   0.358   4.779   6.671
 4861SOL    HW215483   0.327   4.820   6.516
 4862SOL     OW15484   2.563   4.637   5.195
 4862SOL    HW115485   2.587   4.636   5.098
 4862SOL    HW215486   2.618   4.570   5.244
 4863SOL     OW15487   4.467   2.227   3.310
 4863SOL    HW115488   4.421   2.268   3.231
 4863SOL    HW215489   4.554   2.274   3.325
 4864SOL     OW15490   3.081   0.865   1.827
 4864SOL    HW115491   3.130   0.779   1.839
 4864SOL    HW215492   2.989   0.856   1.863
 4865SOL     OW15493   3.939   5.797   5.135
 4865SOL    HW115494   3.841   5.780   5.136
 4865SOL    HW215495   3.986   5.722   5.182
 4866SOL     OW15496   5.846   4.643   1.972
 4866SOL    HW115497   5.824   4.605   2.062
 4866SOL    HW215498   5.867   4.740   1.982
 4867SOL     OW15499   5.173   5.626   2.463
 4867SOL    HW115500   5.130   5.716   2.477
 4867SOL    HW215501   5.115   5.570   2.404
 4868SOL     OW15502   0.178   5.913   1.241
 4868SOL    HW115503   0.184   5.925   1.142
 4868SOL    HW215504   0.250   5.966   1.286
 4869SOL     OW15505   0.083   1.578   0.177
 4869SOL    HW115506   0.025   1.508   0.137
 4869SOL    HW215507   0.179   1.552   0.167
 4870SOL     OW15508   4.952   6.448   2.012
 4870SOL    HW115509   4.958   6.542   2.045
 4870SOL    HW215510   4.984   6.385   2.083
 4871SOL     OW15511   1.219   2.526   3.748
 4871SOL    HW115512   1.309   2.483   3.759
 4871SOL    HW215513   1.192   2.523   3.651
 4872SOL     OW15514   1.370   0.031   2.456
 4872SOL    HW115515   1.396   0.059   2.548
 4872SOL    HW215516   1.272   0.013   2.453
 4873SOL     OW15517   0.155   5.770   4.936
 4873SOL    HW115518   0.208   5.808   5.011
 4873SOL    HW215519   0.062   5.750   4.967
 4874SOL     OW15520   5.569   3.880   2.948
 4874SOL    HW115521   5.493   3.815   2.939
 4874SOL    HW215522   5.547   3.963   2.897
 4875SOL     OW15523   5.399   1.710   1.299
 4875SOL    HW115524   5.395   1.682   1.203
 4875SOL    HW215525   5.461   1.651   1.350
 4876SOL     OW15526   0.388   1.838   0.210
 4876SOL    HW115527   0.468   1.781   0.230
 4876SOL    HW215528   0.337   1.799   0.134
 4877SOL     OW15529   6.252   1.153   1.551
 4877SOL    HW115530   6.233   1.093   1.473
 4877SOL    HW215531   6.227   1.247   1.528
 4878SOL     OW15532   6.812   1.567   1.691
 4878SOL    HW115533   6.844   1.565   1.597
 4878SOL    HW215534   6.837   1.655   1.733
 4879SOL     OW15535   4.480   5.132   3.464
 4879SOL    HW115536   4.395   5.085   3.442
 4879SOL    HW215537   4.557   5.077   3.434
 4880SOL     OW15538   5.810   1.682   6.532
 4880SOL    HW115539   5.715   1.691   6.502
 4880SOL    HW215540   5.813   1.659   6.630
 4881SOL     OW15541   3.338   6.485   6.388
 4881SOL    HW115542   3.346   6.585   6.378
 4881SOL    HW215543   3.331   6.462   6.485
 4882SOL     OW15544   5.832   0.876   5.303
 4882SOL    HW115545   5.831   0.875   5.403
 4882SOL    HW215546   5.886   0.799   5.269
 4883SOL     OW15547   6.699   4.467   2.002
 4883SOL    HW115548   6.782   4.428   2.042
 4883SOL    HW215549   6.701   4.566   2.009
 4884SOL     OW15550   3.429   6.282   2.048
 4884SOL    HW115551   3.333   6.308   2.060
 4884SOL    HW215552   3.484   6.324   2.120
 4885SOL     OW15553   2.002   0.117   1.252
 4885SOL    HW115554   1.960   0.208   1.254
 4885SOL    HW215555   2.047   0.104   1.163
 4886SOL     OW15556   6.692   0.621   0.140
 4886SOL    HW115557   6.703   0.658   0.232
 4886SOL    HW215558   6.709   0.694   0.073
 4887SOL     OW15559   0.383   2.041   3.733
 4887SOL    HW115560   0.327   1.985   3.671
 4887SOL    HW215561   0.367   2.138   3.713
 4888SOL     OW15562   2.281   5.767   2.801
 4888SOL    HW115563   2.195   5.749   2.753
 4888SOL    HW215564   2.299   5.692   2.865
 4889SOL     OW15565   1.347   1.831   0.279
 4889SOL    HW115566   1.306   1.852   0.368
 4889SOL    HW215567   1.330   1.906   0.216
 4890SOL     OW15568   0.903   0.767   4.403
 4890SOL    HW115569   0.839   0.844   4.399
 4890SOL    HW215570   0.936   0.756   4.496
 4891SOL     OW15571   0.828   5.004   0.283
 4891SOL    HW115572   0.775   4.931   0.326
 4891SOL    HW215573   0.924   4.976   0.276
 4892SOL     OW15574   0.476   5.552   1.468
 4892SOL    HW115575   0.471   5.650   1.488
 4892SOL    HW215576   0.570   5.529   1.441
 4893SOL     OW15577   0.538   3.604   6.636
 4893SOL    HW115578   0.544   3.695   6.595
 4893SOL    HW215579   0.503   3.612   6.729
 4894SOL     OW15580   2.544   0.838   3.644
 4894SOL    HW115581   2.497   0.888   3.571
 4894SOL    HW215582   2.556   0.899   3.723
 4895SOL     OW15583   1.255   2.982   0.276
 4895SOL    HW115584   1.236   3.020   0.367
 4895SOL    HW215585   1.293   3.054   0.217
 4896SOL     OW15586   3.601   4.935   5.007
 4896SOL    HW115587   3.688   4.947   4.960
 4896SOL    HW215588   3.526   4.960   4.946
 4897SOL     OW15589   3.410   5.750   0.069
 4897SOL    HW115590   3.501   5.751   0.028
 4897SOL    HW215591   3.407   5.684   0.144
 4898SOL     OW15592   5.100   1.467   5.754
 4898SOL    HW115593   5.012   1.486   5.709
 4898SOL    HW215594   5.172   1.462   5.685
 4899SOL     OW15595   5.999   4.547   3.782
 4899SOL    HW115596   6.073   4.575   3.721
 4899SOL    HW215597   5.922   4.513   3.727
 4900SOL     OW15598   0.761   6.999   5.495
 4900SOL    HW115599   0.809   6.942   5.429
 4900SOL    HW215600   0.828   0.029   5.549
 4901SOL     OW15601   0.588   6.491   3.853
 4901SOL    HW115602   0.619   6.416   3.912
 4901SOL    HW215603   0.498   6.522   3.884
 4902SOL     OW15604   2.490   4.706   1.587
 4902SOL    HW115605   2.502   4.684   1.684
 4902SOL    HW215606   2.579   4.724   1.546
 4903SOL     OW15607   4.633   0.278   6.667
 4903SOL    HW115608   4.700   0.227   6.612
 4903SOL    HW215609   4.670   0.368   6.689
 4904SOL     OW15610   2.741   6.014   4.324
 4904SOL    HW115611   2.655   6.053   4.290
 4904SOL    HW215612   2.783   6.078   4.388
 4905SOL     OW15613   4.814   3.168   1.745
 4905SOL    HW115614   4.766   3.123   1.820
 4905SOL    HW215615   4.820   3.106   1.667
 4906SOL     OW15616   5.069   0.282   0.267
 4906SOL    HW115617   5.089   0.375   0.235
 4906SOL    HW215618   5.099   0.273   0.362
 4907SOL     OW15619   3.845   0.434   3.633
 4907SOL    HW115620   3.910   0.505   3.608
 4907SOL    HW215621   3.812   0.387   3.551
 4908SOL     OW15622   3.297   6.206   6.698
 4908SOL    HW115623   3.285   6.305   6.697
 4908SOL    HW215624   3.214   6.162   6.734
 4909SOL     OW15625   6.566   6.381   5.381
 4909SOL    HW115626   6.606   6.471   5.397
 4909SOL    HW215627   6.466   6.388   5.379
 4910SOL     OW15628   5.289   0.229   4.917
 4910SOL    HW115629   5.226   0.259   4.846
 4910SOL    HW215630   5.381   0.223   4.879
 4911SOL     OW15631   6.579   2.538   5.959
 4911SOL    HW115632   6.644   2.462   5.962
 4911SOL    HW215633   6.623   2.620   5.997
 4912SOL     OW15634   3.874   1.850   2.253
 4912SOL    HW115635   3.954   1.830   2.309
 4912SOL    HW215636   3.849   1.946   2.263
 4913SOL     OW15637   3.621   3.811   3.361
 4913SOL    HW115638   3.600   3.751   3.284
 4913SOL    HW215639   3.540   3.819   3.420
 4914SOL     OW15640   2.551   6.530   3.459
 4914SOL    HW115641   2.484   6.456   3.461
 4914SOL    HW215642   2.514   6.610   3.508
 4915SOL     OW15643   4.028   6.020   3.908
 4915SOL    HW115644   4.096   5.993   3.840
 4915SOL    HW215645   4.071   6.078   3.977
 4916SOL     OW15646   2.421   1.864   3.163
 4916SOL    HW115647   2.472   1.874   3.078
 4916SOL    HW215648   2.484   1.847   3.238
 4917SOL     OW15649   1.948   4.625   0.734
 4917SOL    HW115650   1.937   4.723   0.714
 4917SOL    HW215651   2.028   4.612   0.793
 4918SOL     OW15652   2.334   0.250   2.196
 4918SOL    HW115653   2.330   0.159   2.155
 4918SOL    HW215654   2.394   0.308   2.140
 4919SOL     OW15655   2.279   2.726   1.966
 4919SOL    HW115656   2.247   2.820   1.953
 4919SOL    HW215657   2.231   2.685   2.043
 4920SOL     OW15658   4.247   0.429   0.558
 4920SOL    HW115659   4.332   0.385   0.587
 4920SOL    HW215660   4.169   0.377   0.591
 4921SOL     OW15661   1.730   4.323   1.680
 4921SOL    HW115662   1.796   4.392   1.709
 4921SOL    HW215663   1.677   4.357   1.602
 4922SOL     OW15664   1.719   3.033   5.217
 4922SOL    HW115665   1.812   3.044   5.183
 4922SOL    HW215666   1.690   2.938   5.205
 4923SOL     OW15667   4.955   0.429   1.463
 4923SOL    HW115668   5.044   0.453   1.502
 4923SOL    HW215669   4.884   0.487   1.503
 4924SOL     OW15670   0.804   4.208   5.022
 4924SOL    HW115671   0.795   4.198   4.923
 4924SOL    HW215672   0.757   4.133   5.068
 4925SOL     OW15673   5.284   6.380   0.119
 4925SOL    HW115674   5.302   6.434   0.037
 4925SOL    HW215675   5.345   6.408   0.192
 4926SOL     OW15676   4.865   2.673   1.819
 4926SOL    HW115677   4.934   2.637   1.756
 4926SOL    HW215678   4.910   2.703   1.904
 4927SOL     OW15679   3.027   3.221   3.059
 4927SOL    HW115680   2.946   3.278   3.073
 4927SOL    HW215681   3.060   3.187   3.147
 4928SOL     OW15682   0.546   6.176   0.073
 4928SOL    HW115683   0.458   6.136   0.049
 4928SOL    HW215684   0.616   6.144   0.009
 4929SOL     OW15685   1.054   5.111   4.321
 4929SOL    HW115686   1.125   5.128   4.389
 4929SOL    HW215687   1.096   5.104   4.230
 4930SOL     OW15688   0.527   2.028   0.755
 4930SOL    HW115689   0.505   2.070   0.667
 4930SOL    HW215690   0.448   2.037   0.816
 4931SOL     OW15691   0.145   0.971   6.946
 4931SOL    HW115692   0.199   0.916   6.882
 4931SOL    HW215693   0.190   0.972   0.013
 4932SOL     OW15694   2.496   2.170   0.984
 4932SOL    HW115695   2.498   2.245   1.050
 4932SOL    HW215696   2.450   2.091   1.025
 4933SOL     OW15697   2.686   1.150   3.986
 4933SOL    HW115698   2.659   1.235   4.032
 4933SOL    HW215699   2.779   1.125   4.014
 4934SOL     OW15700   0.940   6.161   4.377
 4934SOL    HW115701   0.916   6.140   4.282
 4934SOL    HW215702   0.987   6.249   4.381
 4935SOL     OW15703   1.525   1.221   0.123
 4935SOL    HW115704   1.623   1.204   0.122
 4935SOL    HW215705   1.477   1.136   0.098
 4936SOL     OW15706   4.085   5.539   1.215
 4936SOL    HW115707   4.087   5.552   1.314
 4936SOL    HW215708   4.029   5.610   1.173
 4937SOL     OW15709   0.565   2.483   5.756
 4937SOL    HW115710   0.506   2.459   5.679
 4937SOL    HW215711   0.588   2.580   5.752
 4938SOL     OW15712   3.517   4.437   1.535
 4938SOL    HW115713   3.559   4.513   1.586
 4938SOL    HW215714   3.510   4.462   1.438
 4939SOL     OW15715   1.674   1.943   1.397
 4939SOL    HW115716   1.759   1.988   1.368
 4939SOL    HW215717   1.596   2.000   1.371
 4940SOL     OW15718   0.084   3.083   3.991
 4940SOL    HW115719   0.084   3.163   4.052
 4940SOL    HW215720   0.175   3.068   3.954
 4941SOL     OW15721   3.912   2.364   5.317
 4941SOL    HW115722   3.852   2.440   5.343
 4941SOL    HW215723   3.999   2.399   5.284
 4942SOL     OW15724   5.557   2.355   3.318
 4942SOL    HW115725   5.637   2.295   3.330
 4942SOL    HW215726   5.586   2.440   3.273
 4943SOL     OW15727   5.336   2.724   6.499
 4943SOL    HW115728   5.422   2.681   6.527
 4943SOL    HW215729   5.294   2.769   6.577
 4944SOL     OW15730   1.578   5.525   1.270
 4944SOL    HW115731   1.607   5.497   1.178
 4944SOL    HW215732   1.655   5.515   1.334
 4945SOL     OW15733   2.272   1.366   5.211
 4945SOL    HW115734   2.353   1.320   5.247
 4945SOL    HW215735   2.236   1.430   5.278
 4946SOL     OW15736   1.845   5.245   0.138
 4946SOL    HW115737   1.918   5.240   0.070
 4946SOL    HW215738   1.796   5.332   0.129
 4947SOL     OW15739   1.705   0.647   1.712
 4947SOL    HW115740   1.797   0.683   1.698
 4947SOL    HW215741   1.696   0.612   1.805
 4948SOL     OW15742   1.740   2.483   1.925
 4948SOL    HW115743   1.775   2.393   1.949
 4948SOL    HW215744   1.791   2.519   1.847
 4949SOL     OW15745   6.848   3.171   6.600
 4949SOL    HW115746   6.853   3.228   6.682
 4949SOL    HW215747   6.863   3.075   6.624
 4950SOL     OW15748   2.197   4.489   5.414
 4950SOL    HW115749   2.158   4.402   5.446
 4950SOL    HW215750   2.214   4.483   5.316
 4951SOL     OW15751   5.251   5.545   3.915
 4951SOL    HW115752   5.188   5.468   3.911
 4951SOL    HW215753   5.258   5.587   3.825
 4952SOL     OW15754   0.589   6.795   5.860
 4952SOL    HW115755   0.598   6.882   5.908
 4952SOL    HW215756   0.561   6.812   5.765
 4953SOL     OW15757   1.291   2.275   4.998
 4953SOL    HW115758   1.307   2.326   4.913
 4953SOL    HW215759   1.352   2.309   5.070
 4954SOL     OW15760   3.182   4.057   5.093
 4954SOL    HW115761   3.108   4.009   5.046
 4954SOL    HW215762   3.144   4.132   5.147
 4955SOL     OW15763   2.977   6.339   0.196
 4955SOL    HW115764   2.993   6.252   0.243
 4955SOL    HW215765   3.057   6.398   0.210
 4956SOL     OW15766   2.195   0.241   5.038
 4956SOL    HW115767   2.183   0.256   5.137
 4956SOL    HW215768   2.291   0.219   5.020
 4957SOL     OW15769   6.326   3.918   6.586
 4957SOL    HW115770   6.338   3.901   6.683
 4957SOL    HW215771   6.414   3.938   6.543
 4958SOL     OW15772   2.525   6.902   0.049
 4958SOL    HW115773   2.485   6.841   7.003
 4958SOL    HW215774   2.461   6.978   0.068
 4959SOL     OW15775   0.273   3.179   1.855
 4959SOL    HW115776   0.285   3.247   1.927
 4959SOL    HW215777   0.179   3.184   1.820
 4960SOL     OW15778   4.210   5.172   4.701
 4960SOL    HW115779   4.191   5.163   4.798
 4960SOL    HW215780   4.194   5.267   4.673
 4961SOL     OW15781   3.341   0.858   0.263
 4961SOL    HW115782   3.266   0.861   0.196
 4961SOL    HW215783   3.352   0.949   0.304
 4962SOL     OW15784   0.889   4.034   1.289
 4962SOL    HW115785   0.826   3.981   1.346
 4962SOL    HW215786   0.963   3.975   1.257
 4963SOL     OW15787   0.947   4.150   6.564
 4963SOL    HW115788   1.023   4.212   6.544
 4963SOL    HW215789   0.871   4.170   6.502
 4964SOL     OW15790   2.524   6.558   4.723
 4964SOL    HW115791   2.607   6.610   4.704
 4964SOL    HW215792   2.484   6.588   4.809
 4965SOL     OW15793   1.168   6.610   2.589
 4965SOL    HW115794   1.073   6.599   2.616
 4965SOL    HW215795   1.226   6.618   2.670
 4966SOL     OW15796   3.398   5.906   3.878
 4966SOL    HW115797   3.401   5.998   3.918
 4966SOL    HW215798   3.320   5.855   3.915
 4967SOL     OW15799   4.041   4.698   5.585
 4967SOL    HW115800   4.113   4.755   5.625
 4967SOL    HW215801   4.066   4.672   5.492
 4968SOL     OW15802   0.515   1.674   3.956
 4968SOL    HW115803   0.509   1.773   3.965
 4968SOL    HW215804   0.423   1.635   3.964
 4969SOL     OW15805   0.653   6.141   2.993
 4969SOL    HW115806   0.561   6.106   2.975
 4969SOL    HW215807   0.669   6.222   2.937
 4970SOL     OW15808   1.613   1.178   1.696
 4970SOL    HW115809   1.572   1.267   1.672
 4970SOL    HW215810   1.613   1.119   1.615
 4971SOL     OW15811   6.197   6.007   2.699
 4971SOL    HW115812   6.253   6.041   2.624
 4971SOL    HW215813   6.134   6.079   2.729
 4972SOL     OW15814   1.505   4.086   1.153
 4972SOL    HW115815   1.480   4.010   1.212
 4972SOL    HW215816   1.581   4.059   1.094
 4973SOL     OW15817   0.047   1.005   0.843
 4973SOL    HW115818   0.141   1.034   0.832
 4973SOL    HW215819   0.045   0.911   0.879
 4974SOL     OW15820   3.535   4.704   6.027
 4974SOL    HW115821   3.506   4.782   5.971
 4974SOL    HW215822   3.635   4.702   6.031
 4975SOL     OW15823   5.974   3.406   0.457
 4975SOL    HW115824   6.062   3.371   0.422
 4975SOL    HW215825   5.900   3.373   0.398
 4976SOL     OW15826   1.408   6.307   3.843
 4976SOL    HW115827   1.386   6.378   3.910
 4976SOL    HW215828   1.488   6.334   3.790
 4977SOL     OW15829   2.689   5.376   6.623
 4977SOL    HW115830   2.783   5.398   6.599
 4977SOL    HW215831   2.656   5.301   6.565
 4978SOL     OW15832   5.422   4.265   5.247
 4978SOL    HW115833   5.333   4.225   5.268
 4978SOL    HW215834   5.458   4.224   5.164
 4979SOL     OW15835   1.847   6.719   6.387
 4979SOL    HW115836   1.762   6.752   6.346
 4979SOL    HW215837   1.832   6.699   6.483
 4980SOL     OW15838   6.193   4.102   2.777
 4980SOL    HW115839   6.162   4.084   2.684
 4980SOL    HW215840   6.282   4.059   2.791
 4981SOL     OW15841   3.757   4.859   1.706
 4981SOL    HW115842   3.775   4.818   1.616
 4981SOL    HW215843   3.699   4.797   1.760
 4982SOL     OW15844   4.483   1.174   6.629
 4982SOL    HW115845   4.534   1.144   6.549
 4982SOL    HW215846   4.528   1.140   6.712
 4983SOL     OW15847   6.840   5.565   3.075
 4983SOL    HW115848   6.815   5.581   2.980
 4983SOL    HW215849   6.936   5.535   3.080
 4984SOL     OW15850   5.027   4.815   2.794
 4984SOL    HW115851   5.072   4.812   2.705
 4984SOL    HW215852   4.945   4.873   2.788
 4985SOL     OW15853   5.800   5.360   2.928
 4985SOL    HW115854   5.864   5.395   2.996
 4985SOL    HW215855   5.721   5.422   2.922
 4986SOL     OW15856   0.814   4.915   2.091
 4986SOL    HW115857   0.912   4.936   2.085
 4986SOL    HW215858   0.801   4.816   2.085
 4987SOL     OW15859   1.005   0.227   2.345
 4987SOL    HW115860   0.918   0.204   2.302
 4987SOL    HW215861   1.046   0.305   2.297
 4988SOL     OW15862   5.828   6.925   3.293
 4988SOL    HW115863   5.751   6.863   3.309
 4988SOL    HW215864   5.836   6.990   3.369
 4989SOL     OW15865   4.723   1.114   2.432
 4989SOL    HW115866   4.724   1.179   2.356
 4989SOL    HW215867   4.718   1.021   2.396
 4990SOL     OW15868   4.593   1.615   5.755
 4990SOL    HW115869   4.585   1.526   5.708
 4990SOL    HW215870   4.523   1.677   5.721
 4991SOL     OW15871   0.534   5.766   4.933
 4991SOL    HW115872   0.460   5.722   4.984
 4991SOL    HW215873   0.574   5.838   4.989
 4992SOL     OW15874   6.912   1.094   3.656
 4992SOL    HW115875   6.979   1.126   3.589
 4992SOL    HW215876   6.939   1.125   3.747
 4993SOL     OW15877   4.513   6.256   5.132
 4993SOL    HW115878   4.478   6.249   5.038
 4993SOL    HW215879   4.438   6.242   5.196
 4994SOL     OW15880   2.906   4.935   5.695
 4994SOL    HW115881   2.816   4.975   5.709
 4994SOL    HW215882   2.908   4.842   5.732
 4995SOL     OW15883   0.372   0.384   4.629
 4995SOL    HW115884   0.419   0.381   4.541
 4995SOL    HW215885   0.438   0.408   4.701
 4996SOL     OW15886   0.122   1.595   4.350
 4996SOL    HW115887   0.057   1.659   4.389
 4996SOL    HW215888   0.154   1.630   4.262
 4997SOL     OW15889   3.228   2.004   1.276
 4997SOL    HW115890   3.201   2.100   1.284
 4997SOL    HW215891   3.315   1.990   1.322
 4998SOL     OW15892   1.056   3.105   3.848
 4998SOL    HW115893   1.107   3.190   3.863
 4998SOL    HW215894   1.094   3.033   3.906
 4999SOL     OW15895   0.827   4.208   4.757
 4999SOL    HW115896   0.926   4.200   4.764
 4999SOL    HW215897   0.795   4.159   4.675
 5000SOL     OW15898   2.861   5.794   3.450
 5000SOL    HW115899   2.812   5.877   3.423
 5000SOL    HW215900   2.845   5.775   3.546
 5001SOL     OW15901   0.967   5.559   2.958
 5001SOL    HW115902   0.933   5.547   3.051
 5001SOL    HW215903   1.065   5.578   2.960
 5002SOL     OW15904   0.666   3.847   2.746
 5002SOL    HW115905   0.574   3.825   2.778
 5002SOL    HW215906   0.723   3.766   2.752
 5003SOL     OW15907   4.423   6.151   3.193
 5003SOL    HW115908   4.385   6.123   3.281
 5003SOL    HW215909   4.372   6.231   3.159
 5004SOL     OW15910   3.090   6.000   6.256
 5004SOL    HW115911   3.106   6.015   6.158
 5004SOL    HW215912   3.172   5.961   6.297
 5005SOL     OW15913   2.869   3.292   6.394
 5005SOL    HW115914   2.782   3.320   6.435
 5005SOL    HW215915   2.851   3.231   6.317
 5006SOL     OW15916   5.449   1.554   1.872
 5006SOL    HW115917   5.484   1.635   1.824
 5006SOL    HW215918   5.353   1.540   1.848
 5007SOL     OW15919   6.275   0.655   1.572
 5007SOL    HW115920   6.176   0.647   1.586
 5007SOL    HW215921   6.297   0.748   1.543
 5008SOL     OW15922   6.281   0.071   1.804
 5008SOL    HW115923   6.258   0.111   1.893
 5008SOL    HW215924   6.368   0.023   1.811
 5009SOL     OW15925   0.962   2.584   0.639
 5009SOL    HW115926   0.986   2.588   0.542
 5009SOL    HW215927   1.016   2.652   0.689
 5010SOL     OW15928   3.548   2.634   0.315
 5010SOL    HW115929   3.604   2.565   0.269
 5010SOL    HW215930   3.575   2.725   0.284
 5011SOL     OW15931   1.993   3.605   6.879
 5011SOL    HW115932   2.048   3.679   6.919
 5011SOL    HW215933   1.962   3.544   6.952
 5012SOL     OW15934   5.534   1.975   5.569
 5012SOL    HW115935   5.506   2.014   5.481
 5012SOL    HW215936   5.470   1.903   5.596
 5013SOL     OW15937   6.208   0.117   5.166
 5013SOL    HW115938   6.257   0.040   5.124
 5013SOL    HW215939   6.241   0.131   5.259
 5014SOL     OW15940   6.574   3.307   1.107
 5014SOL    HW115941   6.604   3.214   1.085
 5014SOL    HW215942   6.514   3.304   1.187
 5015SOL     OW15943   5.792   0.628   4.386
 5015SOL    HW115944   5.716   0.604   4.447
 5015SOL    HW215945   5.755   0.651   4.296
 5016SOL     OW15946   1.081   3.484   4.518
 5016SOL    HW115947   0.996   3.486   4.465
 5016SOL    HW215948   1.156   3.454   4.460
 5017SOL     OW15949   0.637   2.366   1.257
 5017SOL    HW115950   0.606   2.282   1.302
 5017SOL    HW215951   0.560   2.410   1.212
 5018SOL     OW15952   0.358   5.196   1.993
 5018SOL    HW115953   0.385   5.166   1.901
 5018SOL    HW215954   0.327   5.117   2.046
 5019SOL     OW15955   1.843   5.607   5.155
 5019SOL    HW115956   1.780   5.546   5.108
 5019SOL    HW215957   1.925   5.619   5.098
 5020SOL     OW15958   0.381   6.691   4.846
 5020SOL    HW115959   0.385   6.724   4.752
 5020SOL    HW215960   0.473   6.665   4.875
 5021SOL     OW15961   2.083   0.725   1.106
 5021SOL    HW115962   2.008   0.763   1.052
 5021SOL    HW215963   2.154   0.794   1.118
 5022SOL     OW15964   0.500   2.736   1.382
 5022SOL    HW115965   0.566   2.760   1.453
 5022SOL    HW215966   0.408   2.761   1.412
 5023SOL     OW15967   0.678   4.077   1.966
 5023SOL    HW115968   0.636   4.119   1.886
 5023SOL    HW215969   0.759   4.128   1.993
 5024SOL     OW15970   5.336   3.924   0.894
 5024SOL    HW115971   5.267   3.933   0.966
 5024SOL    HW215972   5.354   4.014   0.853
 5025SOL     OW15973   4.246   1.973   4.132
 5025SOL    HW115974   4.282   1.966   4.225
 5025SOL    HW215975   4.197   2.059   4.122
 5026SOL     OW15976   5.752   5.699   4.938
 5026SOL    HW115977   5.798   5.642   4.870
 5026SOL    HW215978   5.782   5.674   5.030
 5027SOL     OW15979   4.814   0.269   0.689
 5027SOL    HW115980   4.884   0.198   0.693
 5027SOL    HW215981   4.762   0.270   0.774
 5028SOL     OW15982   0.071   2.317   2.711
 5028SOL    HW115983   0.101   2.247   2.646
 5028SOL    HW215984   0.029   2.393   2.660
 5029SOL     OW15985   6.641   2.455   1.993
 5029SOL    HW115986   6.614   2.508   2.074
 5029SOL    HW215987   6.708   2.386   2.020
 5030SOL     OW15988   0.067   5.832   6.317
 5030SOL    HW115989   0.158   5.845   6.357
 5030SOL    HW215990   0.051   5.902   6.248
 5031SOL     OW15991   6.995   1.088   5.220
 5031SOL    HW115992   6.940   1.007   5.198
 5031SOL    HW215993   0.067   1.073   5.188
 5032SOL     OW15994   3.395   2.457   5.945
 5032SOL    HW115995   3.349   2.478   5.859
 5032SOL    HW215996   3.445   2.538   5.976
 5033SOL     OW15997   2.192   1.507   0.672
 5033SOL    HW115998   2.274   1.503   0.730
 5033SOL    HW215999   2.207   1.575   0.600
 5034SOL     OW16000   4.054   6.431   4.081
 5034SOL    HW116001   4.097   6.356   4.130
 5034SOL    HW216002   3.981   6.471   4.137
 5035SOL     OW16003   6.967   4.817   4.857
 5035SOL    HW116004   0.002   4.798   4.937
 5035SOL    HW216005   0.002   4.835   4.778
 5036SOL     OW16006   6.828   3.817   5.346
 5036SOL    HW116007   6.813   3.832   5.248
 5036SOL    HW216008   6.926   3.827   5.366
 5037SOL     OW16009   4.089   4.618   1.421
 5037SOL    HW116010   4.171   4.606   1.365
 5037SOL    HW216011   4.031   4.537   1.412
 5038SOL     OW16012   3.457   3.451   4.150
 5038SOL    HW116013   3.498   3.464   4.241
 5038SOL    HW216014   3.529   3.456   4.081
 5039SOL     OW16015   1.973   3.588   6.122
 5039SOL    HW116016   1.981   3.654   6.197
 5039SOL    HW216017   2.063   3.547   6.105
 5040SOL     OW16018   1.268   5.242   5.343
 5040SOL    HW116019   1.267   5.292   5.430
 5040SOL    HW216020   1.298   5.304   5.270
 5041SOL     OW16021   0.688   3.095   1.514
 5041SOL    HW116022   0.711   3.192   1.514
 5041SOL    HW216023   0.621   3.076   1.442
 5042SOL     OW16024   0.039   3.910   6.088
 5042SOL    HW116025   0.104   3.985   6.101
 5042SOL    HW216026   0.036   3.885   5.991
 5043SOL     OW16027   3.895   0.535   0.468
 5043SOL    HW116028   3.973   0.554   0.528
 5043SOL    HW216029   3.919   0.461   0.405
 5044SOL     OW16030   6.806   6.069   0.988
 5044SOL    HW116031   6.849   5.979   0.981
 5044SOL    HW216032   6.740   6.068   1.063
 5045SOL     OW16033   6.340   4.401   6.159
 5045SOL    HW116034   6.322   4.494   6.126
 5045SOL    HW216035   6.310   4.393   6.254
 5046SOL     OW16036   3.636   3.858   4.345
 5046SOL    HW116037   3.629   3.954   4.370
 5046SOL    HW216038   3.562   3.835   4.282
 5047SOL     OW16039   2.134   3.327   2.927
 5047SOL    HW116040   2.173   3.247   2.881
 5047SOL    HW216041   2.130   3.403   2.862
 5048SOL     OW16042   1.978   1.149   5.257
 5048SOL    HW116043   2.013   1.076   5.316
 5048SOL    HW216044   2.037   1.158   5.177
 5049SOL     OW16045   6.170   0.823   5.850
 5049SOL    HW116046   6.128   0.889   5.911
 5049SOL    HW216047   6.111   0.742   5.842
 5050SOL     OW16048   1.557   1.289   6.850
 5050SOL    HW116049   1.502   1.349   6.908
 5050SOL    HW216050   1.653   1.318   6.854
 5051SOL     OW16051   3.463   4.449   1.248
 5051SOL    HW116052   3.505   4.463   1.158
 5051SOL    HW216053   3.390   4.516   1.261
 5052SOL     OW16054   3.389   2.177   5.892
 5052SOL    HW116055   3.344   2.257   5.852
 5052SOL    HW216056   3.471   2.207   5.942
 5053SOL     OW16057   0.836   4.947   2.862
 5053SOL    HW116058   0.810   4.870   2.919
 5053SOL    HW216059   0.934   4.942   2.841
 5054SOL     OW16060   3.317   4.952   5.461
 5054SOL    HW116061   3.243   4.888   5.480
 5054SOL    HW216062   3.395   4.903   5.421
 5055SOL     OW16063   0.365   3.148   5.984
 5055SOL    HW116064   0.335   3.236   6.021
 5055SOL    HW216065   0.425   3.164   5.906
 5056SOL     OW16066   4.785   4.053   5.102
 5056SOL    HW116067   4.781   4.103   5.015
 5056SOL    HW216068   4.830   3.965   5.088
 5057SOL     OW16069   1.109   6.976   2.396
 5057SOL    HW116070   1.054   6.894   2.381
 5057SOL    HW216071   1.049   0.034   2.404
 5058SOL     OW16072   3.198   4.835   6.705
 5058SOL    HW116073   3.129   4.777   6.661
 5058SOL    HW216074   3.241   4.783   6.779
 5059SOL     OW16075   6.767   6.792   3.061
 5059SOL    HW116076   6.746   6.780   2.964
 5059SOL    HW216077   6.717   6.871   3.096
 5060SOL     OW16078   6.608   2.121   6.019
 5060SOL    HW116079   6.611   2.109   6.118
 5060SOL    HW216080   6.595   2.031   5.976
 5061SOL     OW16081   4.907   2.780   0.338
 5061SOL    HW116082   4.883   2.719   0.262
 5061SOL    HW216083   4.982   2.739   0.391
 5062SOL     OW16084   0.546   0.150   1.946
 5062SOL    HW116085   0.616   0.082   1.924
 5062SOL    HW216086   0.589   0.228   1.992
 5063SOL     OW16087   0.722   6.680   1.747
 5063SOL    HW116088   0.699   6.744   1.820
 5063SOL    HW216089   0.780   6.726   1.680
 5064SOL     OW16090   4.682   3.226   0.495
 5064SOL    HW116091   4.611   3.232   0.566
 5064SOL    HW216092   4.697   3.130   0.472
 5065SOL     OW16093   3.102   0.104   5.340
 5065SOL    HW116094   3.194   0.142   5.333
 5065SOL    HW216095   3.073   0.070   5.251
 5066SOL     OW16096   5.685   4.271   1.698
 5066SOL    HW116097   5.667   4.214   1.618
 5066SOL    HW216098   5.601   4.281   1.750
 5067SOL     OW16099   5.415   1.328   6.961
 5067SOL    HW116100   5.475   1.404   6.937
 5067SOL    HW216101   5.370   1.347   0.027
 5068SOL     OW16102   3.176   4.545   0.882
 5068SOL    HW116103   3.138   4.622   0.933
 5068SOL    HW216104   3.163   4.560   0.784
 5069SOL     OW16105   1.118   4.376   2.820
 5069SOL    HW116106   1.070   4.289   2.806
 5069SOL    HW216107   1.054   4.452   2.806
 5070SOL     OW16108   4.908   3.593   3.995
 5070SOL    HW116109   4.877   3.569   4.087
 5070SOL    HW216110   4.877   3.524   3.930
 5071SOL     OW16111   4.174   1.959   4.946
 5071SOL    HW116112   4.138   1.884   4.891
 5071SOL    HW216113   4.203   1.925   5.036
 5072SOL     OW16114   7.004   4.826   0.961
 5072SOL    HW116115   6.986   4.802   1.057
 5072SOL    HW216116   6.924   4.870   0.922
 5073SOL     OW16117   6.869   0.196   2.309
 5073SOL    HW116118   6.940   0.147   2.257
 5073SOL    HW216119   6.848   0.146   2.393
 5074SOL     OW16120   3.195   4.181   6.879
 5074SOL    HW116121   3.196   4.227   6.790
 5074SOL    HW216122   3.271   4.115   6.883
 5075SOL     OW16123   0.011   0.142   5.457
 5075SOL    HW116124   0.054   0.231   5.442
 5075SOL    HW216125   0.062   0.091   5.526
 5076SOL     OW16126   3.230   0.206   0.684
 5076SOL    HW116127   3.211   0.132   0.620
 5076SOL    HW216128   3.248   0.291   0.634
 5077SOL     OW16129   1.530   2.153   3.788
 5077SOL    HW116130   1.463   2.080   3.774
 5077SOL    HW216131   1.563   2.187   3.700
 5078SOL     OW16132   1.547   2.216   3.527
 5078SOL    HW116133   1.624   2.211   3.463
 5078SOL    HW216134   1.508   2.308   3.526
 5079SOL     OW16135   3.091   5.036   5.891
 5079SOL    HW116136   3.080   5.130   5.859
 5079SOL    HW216137   3.042   4.974   5.830
 5080SOL     OW16138   5.944   6.752   5.357
 5080SOL    HW116139   5.845   6.762   5.354
 5080SOL    HW216140   5.972   6.679   5.294
 5081SOL     OW16141   3.149   3.666   3.417
 5081SOL    HW116142   3.075   3.705   3.362
 5081SOL    HW216143   3.114   3.588   3.468
 5082SOL     OW16144   5.396   6.296   5.578
 5082SOL    HW116145   5.387   6.237   5.658
 5082SOL    HW216146   5.338   6.377   5.589
 5083SOL     OW16147   1.689   6.764   1.955
 5083SOL    HW116148   1.594   6.791   1.970
 5083SOL    HW216149   1.696   6.717   1.867
 5084SOL     OW16150   1.137   5.407   3.581
 5084SOL    HW116151   1.207   5.336   3.593
 5084SOL    HW216152   1.085   5.416   3.666
 5085SOL     OW16153   5.848   1.211   6.833
 5085SOL    HW116154   5.830   1.194   6.930
 5085SOL    HW216155   5.777   1.166   6.778
 5086SOL     OW16156   6.851   4.872   3.371
 5086SOL    HW116157   6.789   4.949   3.354
 5086SOL    HW216158   6.834   4.799   3.305
 5087SOL     OW16159   6.234   6.029   4.469
 5087SOL    HW116160   6.143   6.027   4.510
 5087SOL    HW216161   6.290   6.098   4.516
 5088SOL     OW16162   6.553   0.969   6.028
 5088SOL    HW116163   6.630   0.983   6.090
 5088SOL    HW216164   6.540   0.871   6.013
 5089SOL     OW16165   6.458   2.811   2.207
 5089SOL    HW116166   6.493   2.718   2.196
 5089SOL    HW216167   6.486   2.847   2.296
 5090SOL     OW16168   2.179   4.653   0.926
 5090SOL    HW116169   2.102   4.676   0.985
 5090SOL    HW216170   2.262   4.695   0.963
 5091SOL     OW16171   1.223   6.061   2.938
 5091SOL    HW116172   1.271   6.048   2.851
 5091SOL    HW216173   1.242   6.153   2.973
 5092SOL     OW16174   3.468   1.971   1.115
 5092SOL    HW116175   3.437   2.047   1.057
 5092SOL    HW216176   3.399   1.899   1.116
 5093SOL     OW16177   1.337   2.064   2.278
 5093SOL    HW116178   1.400   2.141   2.281
 5093SOL    HW216179   1.342   2.013   2.364
 5094SOL     OW16180   1.221   6.508   5.504
 5094SOL    HW116181   1.126   6.477   5.517
 5094SOL    HW216182   1.221   6.604   5.477
 5095SOL     OW16183   1.889   0.696   4.619
 5095SOL    HW116184   1.805   0.734   4.580
 5095SOL    HW216185   1.892   0.598   4.602
 5096SOL     OW16186   4.896   3.767   0.463
 5096SOL    HW116187   4.829   3.776   0.389
 5096SOL    HW216188   4.883   3.678   0.507
 5097SOL     OW16189   1.333   0.686   5.638
 5097SOL    HW116190   1.252   0.744   5.637
 5097SOL    HW216191   1.391   0.711   5.716
 5098SOL     OW16192   0.935   1.283   2.458
 5098SOL    HW116193   0.913   1.376   2.428
 5098SOL    HW216194   0.919   1.219   2.382
 5099SOL     OW16195   0.988   0.341   5.293
 5099SOL    HW116196   1.033   0.367   5.378
 5099SOL    HW216197   1.004   0.244   5.275
 5100SOL     OW16198   5.727   6.892   6.626
 5100SOL    HW116199   5.767   6.926   6.540
 5100SOL    HW216200   5.673   6.964   6.668
 5101SOL     OW16201   4.249   6.734   7.022
 5101SOL    HW116202   4.183   6.723   0.074
 5101SOL    HW216203   4.342   6.732   0.036
 5102SOL     OW16204   5.216   0.813   5.573
 5102SOL    HW116205   5.140   0.838   5.513
 5102SOL    HW216206   5.270   0.741   5.530
 5103SOL     OW16207   0.543   0.876   3.849
 5103SOL    HW116208   0.462   0.849   3.797
 5103SOL    HW216209   0.606   0.926   3.790
 5104SOL     OW16210   2.069   1.159   1.697
 5104SOL    HW116211   2.043   1.248   1.658
 5104SOL    HW216212   1.993   1.122   1.751
 5105SOL     OW16213   4.040   4.230   6.562
 5105SOL    HW116214   4.089   4.317   6.564
 5105SOL    HW216215   4.041   4.189   6.653
 5106SOL     OW16216   3.247   0.112   2.666
 5106SOL    HW116217   3.316   0.042   2.645
 5106SOL    HW216218   3.214   0.152   2.582
 5107SOL     OW16219   3.103   0.001   6.599
 5107SOL    HW116220   3.034   7.011   6.670
 5107SOL    HW216221   3.146   6.934   6.579
 5108SOL     OW16222   3.131   3.846   3.994
 5108SOL    HW116223   3.103   3.840   3.898
 5108SOL    HW216224   3.171   3.760   4.023
 5109SOL     OW16225   0.293   1.136   0.947
 5109SOL    HW116226   0.236   1.214   0.973
 5109SOL    HW216227   0.375   1.168   0.901
 5110SOL     OW16228   1.903   6.395   5.446
 5110SOL    HW116229   1.969   6.449   5.498
 5110SOL    HW216230   1.938   6.301   5.436
 5111SOL     OW16231   1.446   1.435   6.567
 5111SOL    HW116232   1.494   1.451   6.653
 5111SOL    HW216233   1.350   1.412   6.585
 5112SOL     OW16234   0.547   6.085   3.729
 5112SOL    HW116235   0.515   6.166   3.679
 5112SOL    HW216236   0.474   6.049   3.786
 5113SOL     OW16237   1.238   0.824   0.030
 5113SOL    HW116238   1.175   0.900   0.016
 5113SOL    HW216239   1.197   0.759   0.094
 5114SOL     OW16240   3.334   4.997   0.266
 5114SOL    HW116241   3.400   4.928   0.238
 5114SOL    HW216242   3.337   5.008   0.366
 5115SOL     OW16243   1.496   3.765   6.287
 5115SOL    HW116244   1.451   3.848   6.322
 5115SOL    HW216245   1.497   3.768   6.187
 5116SOL     OW16246   5.485   4.717   0.220
 5116SOL    HW116247   5.440   4.765   0.295
 5116SOL    HW216248   5.577   4.688   0.249
 5117SOL     OW16249   2.627   4.655   4.381
 5117SOL    HW116250   2.528   4.645   4.374
 5117SOL    HW216251   2.663   4.591   4.449
 5118SOL     OW16252   4.709   5.631   0.454
 5118SOL    HW116253   4.702   5.684   0.370
 5118SOL    HW216254   4.734   5.536   0.431
 5119SOL     OW16255   5.585   0.916   2.448
 5119SOL    HW116256   5.520   0.980   2.490
 5119SOL    HW216257   5.536   0.835   2.417
 5120SOL     OW16258   5.360   1.011   2.664
 5120SOL    HW116259   5.355   1.092   2.607
 5120SOL    HW216260   5.405   1.033   2.750
 5121SOL     OW16261   0.479   3.421   5.481
 5121SOL    HW116262   0.392   3.375   5.495
 5121SOL    HW216263   0.514   3.455   5.569
 5122SOL     OW16264   2.193   0.115   3.039
 5122SOL    HW116265   2.275   0.070   3.075
 5122SOL    HW216266   2.121   0.114   3.108
 5123SOL     OW16267   4.738   4.055   2.826
 5123SOL    HW116268   4.804   3.991   2.864
 5123SOL    HW216269   4.713   4.027   2.733
 5124SOL     OW16270   3.244   6.470   0.042
 5124SOL    HW116271   3.315   6.528   0.002
 5124SOL    HW216272   3.255   6.469   0.142
 5125SOL     OW16273   0.095   3.587   3.796
 5125SOL    HW116274   0.173   3.542   3.753
 5125SOL    HW216275   0.092   3.683   3.767
 5126SOL     OW16276   6.109   5.036   5.899
 5126SOL    HW116277   6.046   4.958   5.898
 5126SOL    HW216278   6.186   5.017   5.960
 5127SOL     OW16279   5.211   3.224   6.691
 5127SOL    HW116280   5.167   3.147   6.644
 5127SOL    HW216281   5.227   3.201   6.786
 5128SOL     OW16282   0.705   0.872   6.843
 5128SOL    HW116283   0.694   0.893   6.940
 5128SOL    HW216284   0.704   0.957   6.790
 5129SOL     OW16285   5.066   0.934   2.233
 5129SOL    HW116286   4.999   0.950   2.160
 5129SOL    HW216287   5.158   0.941   2.196
 5130SOL     OW16288   1.285   5.151   4.460
 5130SOL    HW116289   1.368   5.116   4.417
 5130SOL    HW216290   1.294   5.146   4.559
 5131SOL     OW16291   3.049   4.902   3.178
 5131SOL    HW116292   2.979   4.965   3.210
 5131SOL    HW216293   3.017   4.856   3.095
 5132SOL     OW16294   3.289   1.808   6.785
 5132SOL    HW116295   3.375   1.794   6.736
 5132SOL    HW216296   3.300   1.779   6.880
 5133SOL     OW16297   4.285   5.186   6.548
 5133SOL    HW116298   4.329   5.246   6.482
 5133SOL    HW216299   4.193   5.162   6.516
 5134SOL     OW16300   6.709   6.875   1.447
 5134SOL    HW116301   6.624   6.928   1.445
 5134SOL    HW216302   6.788   6.937   1.443
 5135SOL     OW16303   6.577   2.893   1.973
 5135SOL    HW116304   6.563   2.871   2.070
 5135SOL    HW216305   6.587   2.808   1.921
 5136SOL     OW16306   0.600   0.649   5.979
 5136SOL    HW116307   0.648   0.618   5.896
 5136SOL    HW216308   0.615   0.583   6.052
 5137SOL     OW16309   5.245   1.805   5.249
 5137SOL    HW116310   5.284   1.879   5.304
 5137SOL    HW216311   5.181   1.752   5.305
 5138SOL     OW16312   3.284   3.239   4.154
 5138SOL    HW116313   3.340   3.322   4.147
 5138SOL    HW216314   3.334   3.170   4.206
 5139SOL     OW16315   1.723   0.459   4.885
 5139SOL    HW116316   1.672   0.480   4.968
 5139SOL    HW216317   1.748   0.362   4.885
 5140SOL     OW16318   3.978   2.186   5.955
 5140SOL    HW116319   3.915   2.144   5.891
 5140SOL    HW216320   4.008   2.274   5.920
 5141SOL     OW16321   6.929   3.013   2.134
 5141SOL    HW116322   7.009   3.067   2.162
 5141SOL    HW216323   6.864   3.010   2.209
 5142SOL     OW16324   6.618   0.028   3.060
 5142SOL    HW116325   6.549   0.083   3.015
 5142SOL    HW216326   6.709   0.060   3.035
 5143SOL     OW16327   0.826   4.960   4.296
 5143SOL    HW116328   0.809   4.869   4.332
 5143SOL    HW216329   0.914   4.994   4.330
 5144SOL     OW16330   1.712   3.612   6.321
 5144SOL    HW116331   1.737   3.571   6.233
 5144SOL    HW216332   1.635   3.673   6.308
 5145SOL     OW16333   2.517   6.303   6.796
 5145SOL    HW116334   2.550   6.325   6.704
 5145SOL    HW216335   2.522   6.384   6.854
 5146SOL     OW16336   5.446   4.964   6.096
 5146SOL    HW116337   5.434   5.055   6.137
 5146SOL    HW216338   5.409   4.895   6.158
 5147SOL     OW16339   4.718   2.901   3.418
 5147SOL    HW116340   4.761   2.811   3.409
 5147SOL    HW216341   4.671   2.907   3.506
 5148SOL     OW16342   0.579   0.085   1.595
 5148SOL    HW116343   0.522   0.160   1.629
 5148SOL    HW216344   0.647   0.061   1.664
 5149SOL     OW16345   5.806   4.395   3.317
 5149SOL    HW116346   5.807   4.490   3.286
 5149SOL    HW216347   5.878   4.381   3.385
 5150SOL     OW16348   0.634   5.174   3.929
 5150SOL    HW116349   0.642   5.090   3.983
 5150SOL    HW216350   0.541   5.208   3.934
 5151SOL     OW16351   5.932   4.471   2.223
 5151SOL    HW116352   5.998   4.399   2.247
 5151SOL    HW216353   5.978   4.559   2.221
 5152SOL     OW16354   1.324   0.850   6.395
 5152SOL    HW116355   1.395   0.920   6.402
 5152SOL    HW216356   1.256   0.878   6.328
 5153SOL     OW16357   1.258   2.083   0.808
 5153SOL    HW116358   1.275   2.111   0.714
 5153SOL    HW216359   1.196   2.148   0.852
 5154SOL     OW16360   0.616   2.688   6.853
 5154SOL    HW116361   0.697   2.671   6.797
 5154SOL    HW216362   0.605   2.614   6.920
 5155SOL     OW16363   1.860   1.185   0.733
 5155SOL    HW116364   1.823   1.271   0.768
 5155SOL    HW216365   1.947   1.202   0.687
 5156SOL     OW16366   5.507   5.071   5.684
 5156SOL    HW116367   5.454   5.007   5.628
 5156SOL    HW216368   5.458   5.158   5.689
 5157SOL     OW16369   4.143   0.697   2.057
 5157SOL    HW116370   4.084   0.777   2.069
 5157SOL    HW216371   4.114   0.646   1.976
 5158SOL     OW16372   3.804   1.536   2.548
 5158SOL    HW116373   3.758   1.608   2.498
 5158SOL    HW216374   3.899   1.562   2.565
 5159SOL     OW16375   5.997   3.286   5.594
 5159SOL    HW116376   5.908   3.281   5.548
 5159SOL    HW216377   6.067   3.316   5.528
 5160SOL     OW16378   6.689   6.273   3.367
 5160SOL    HW116379   6.682   6.353   3.426
 5160SOL    HW216380   6.626   6.202   3.398
 5161SOL     OW16381   1.043   3.284   0.324
 5161SOL    HW116382   1.139   3.258   0.328
 5161SOL    HW216383   0.987   3.210   0.361
 5162SOL     OW16384   6.831   6.326   2.764
 5162SOL    HW116385   6.736   6.317   2.792
 5162SOL    HW216386   6.882   6.379   2.832
 5163SOL     OW16387   3.007   6.595   2.514
 5163SOL    HW116388   3.071   6.664   2.481
 5163SOL    HW216389   2.915   6.618   2.485
 5164SOL     OW16390   3.240   3.725   0.758
 5164SOL    HW116391   3.246   3.791   0.683
 5164SOL    HW216392   3.314   3.740   0.823
 5165SOL     OW16393   1.170   4.703   6.869
 5165SOL    HW116394   1.141   4.767   6.940
 5165SOL    HW216395   1.090   4.671   6.818
 5166SOL     OW16396   1.655   5.724   1.641
 5166SOL    HW116397   1.633   5.630   1.665
 5166SOL    HW216398   1.576   5.767   1.598
 5167SOL     OW16399   4.963   2.579   5.121
 5167SOL    HW116400   5.002   2.671   5.119
 5167SOL    HW216401   4.868   2.582   5.090
 5168SOL     OW16402   4.263   2.291   2.283
 5168SOL    HW116403   4.277   2.382   2.245
 5168SOL    HW216404   4.345   2.236   2.266
 5169SOL     OW16405   3.941   6.857   3.360
 5169SOL    HW116406   3.925   6.758   3.365
 5169SOL    HW216407   3.863   6.905   3.401
 5170SOL     OW16408   1.212   3.103   6.362
 5170SOL    HW116409   1.179   3.183   6.311
 5170SOL    HW216410   1.137   3.065   6.416
 5171SOL     OW16411   2.028   5.989   5.020
 5171SOL    HW116412   2.059   5.988   5.115
 5171SOL    HW216413   2.065   5.909   4.972
 5172SOL     OW16414   0.269   5.433   3.384
 5172SOL    HW116415   0.295   5.398   3.474
 5172SOL    HW216416   0.204   5.508   3.394
 5173SOL     OW16417   5.071   4.099   5.811
 5173SOL    HW116418   5.123   4.040   5.874
 5173SOL    HW216419   5.058   4.052   5.725
 5174SOL     OW16420   2.768   6.405   3.404
 5174SOL    HW116421   2.687   6.461   3.420
 5174SOL    HW216422   2.829   6.451   3.339
 5175SOL     OW16423   2.710   4.358   6.957
 5175SOL    HW116424   2.704   4.458   6.946
 5175SOL    HW216425   2.677   4.332   0.025
 5176SOL     OW16426   5.452   5.557   0.449
 5176SOL    HW116427   5.537   5.521   0.489
 5176SOL    HW216428   5.430   5.506   0.366
 5177SOL     OW16429   5.018   0.567   0.400
 5177SOL    HW116430   5.114   0.550   0.381
 5177SOL    HW216431   5.009   0.619   0.485
 5178SOL     OW16432   1.012   3.863   1.903
 5178SOL    HW116433   1.112   3.871   1.905
 5178SOL    HW216434   0.979   3.885   1.811
 5179SOL     OW16435   6.233   4.335   3.267
 5179SOL    HW116436   6.300   4.287   3.322
 5179SOL    HW216437   6.223   4.289   3.179
 5180SOL     OW16438   2.671   6.977   1.684
 5180SOL    HW116439   2.600   6.910   1.706
 5180SOL    HW216440   2.761   6.939   1.707
 5181SOL     OW16441   0.525   0.280   5.960
 5181SOL    HW116442   0.579   0.336   5.898
 5181SOL    HW216443   0.563   0.187   5.963
 5182SOL     OW16444   4.008   5.322   3.034
 5182SOL    HW116445   4.005   5.247   2.968
 5182SOL    HW216446   3.969   5.292   3.121
 5183SOL     OW16447   4.034   1.705   3.714
 5183SOL    HW116448   3.935   1.719   3.715
 5183SOL    HW216449   4.076   1.762   3.784
 5184SOL     OW16450   2.400   0.849   4.094
 5184SOL    HW116451   2.361   0.758   4.110
 5184SOL    HW216452   2.335   0.919   4.125
 5185SOL     OW16453   5.808   1.147   1.702
 5185SOL    HW116454   5.904   1.142   1.729
 5185SOL    HW216455   5.770   1.236   1.727
 5186SOL     OW16456   6.865   3.178   6.040
 5186SOL    HW116457   6.810   3.099   6.011
 5186SOL    HW216458   6.873   3.178   6.139
 5187SOL     OW16459   1.825   4.819   5.296
 5187SOL    HW116460   1.852   4.910   5.327
 5187SOL    HW216461   1.733   4.822   5.257
 5188SOL     OW16462   6.991   6.538   2.208
 5188SOL    HW116463   6.957   6.539   2.114
 5188SOL    HW216464   0.068   6.555   2.208
 5189SOL     OW16465   5.196   0.644   5.878
 5189SOL    HW116466   5.238   0.558   5.906
 5189SOL    HW216467   5.168   0.638   5.782
 5190SOL     OW16468   1.706   3.626   1.484
 5190SOL    HW116469   1.802   3.640   1.458
 5190SOL    HW216470   1.648   3.686   1.429
 5191SOL     OW16471   3.324   5.398   2.582
 5191SOL    HW116472   3.341   5.485   2.629
 5191SOL    HW216473   3.403   5.375   2.525
 5192SOL     OW16474   2.255   5.369   2.139
 5192SOL    HW116475   2.292   5.416   2.220
 5192SOL    HW216476   2.300   5.404   2.057
 5193SOL     OW16477   6.279   0.716   6.642
 5193SOL    HW116478   6.335   0.647   6.595
 5193SOL    HW216479   6.307   0.720   6.738
 5194SOL     OW16480   4.503   2.331   0.029
 5194SOL    HW116481   4.436   2.384   6.998
 5194SOL    HW216482   4.464   2.308   0.118
 5195SOL     OW16483   6.868   0.988   4.517
 5195SOL    HW116484   6.857   0.894   4.550
 5195SOL    HW216485   6.964   1.014   4.522
 5196SOL     OW16486   5.023   6.336   3.246
 5196SOL    HW116487   5.037   6.390   3.163
 5196SOL    HW216488   5.112   6.305   3.280
 5197SOL     OW16489   1.396   4.376   5.882
 5197SOL    HW116490   1.360   4.389   5.789
 5197SOL    HW216491   1.377   4.282   5.912
 5198SOL     OW16492   5.284   5.871   2.825
 5198SOL    HW116493   5.227   5.796   2.794
 5198SOL    HW216494   5.302   5.933   2.748
 5199SOL     OW16495   6.492   5.149   1.404
 5199SOL    HW116496   6.537   5.105   1.482
 5199SOL    HW216497   6.412   5.097   1.377
 5200SOL     OW16498   0.660   3.762   5.599
 5200SOL    HW116499   0.607   3.729   5.521
 5200SOL    HW216500   0.668   3.861   5.593
 5201SOL     OW16501   1.808   5.218   4.052
 5201SOL    HW116502   1.729   5.172   4.011
 5201SOL    HW216503   1.778   5.301   4.098
 5202SOL     OW16504   6.572   3.739   0.360
 5202SOL    HW116505   6.670   3.752   0.347
 5202SOL    HW216506   6.555   3.657   0.414
 5203SOL     OW16507   0.899   2.356   6.773
 5203SOL    HW116508   0.973   2.371   6.707
 5203SOL    HW216509   0.825   2.305   6.729
 5204SOL     OW16510   4.245   5.207   7.017
 5204SOL    HW116511   4.201   5.234   6.931
 5204SOL    HW216512   4.245   5.284   0.058
 5205SOL     OW16513   1.924   0.448   1.620
 5205SOL    HW116514   1.849   0.384   1.633
 5205SOL    HW216515   1.897   0.516   1.551
 5206SOL     OW16516   0.421   4.130   6.763
 5206SOL    HW116517   0.432   4.163   6.669
 5206SOL    HW216518   0.479   4.050   6.777
 5207SOL     OW16519   1.521   5.079   4.339
 5207SOL    HW116520   1.598   5.017   4.349
 5207SOL    HW216521   1.509   5.101   4.242
 5208SOL     OW16522   3.587   0.692   0.171
 5208SOL    HW116523   3.556   0.716   0.079
 5208SOL    HW216524   3.511   0.652   0.222
 5209SOL     OW16525   6.254   5.799   3.525
 5209SOL    HW116526   6.272   5.864   3.451
 5209SOL    HW216527   6.337   5.745   3.543
 5210SOL     OW16528   5.070   4.094   3.688
 5210SOL    HW116529   5.039   4.049   3.771
 5210SOL    HW216530   5.114   4.028   3.628
 5211SOL     OW16531   2.955   3.458   3.505
 5211SOL    HW116532   2.923   3.396   3.577
 5211SOL    HW216533   2.921   3.426   3.416
 5212SOL     OW16534   0.801   2.055   0.852
 5212SOL    HW116535   0.711   2.028   0.818
 5212SOL    HW216536   0.840   2.125   0.792
 5213SOL     OW16537   5.035   2.581   5.690
 5213SOL    HW116538   4.994   2.578   5.599
 5213SOL    HW216539   4.963   2.586   5.759
 5214SOL     OW16540   5.369   1.835   5.736
 5214SOL    HW116541   5.432   1.761   5.758
 5214SOL    HW216542   5.288   1.798   5.691
 5215SOL     OW16543   5.255   4.518   3.180
 5215SOL    HW116544   5.308   4.581   3.236
 5215SOL    HW216545   5.317   4.472   3.115
 5216SOL     OW16546   4.950   5.019   0.924
 5216SOL    HW116547   4.863   5.020   0.875
 5216SOL    HW216548   4.990   5.111   0.923
 5217SOL     OW16549   3.187   5.136   3.842
 5217SOL    HW116550   3.236   5.088   3.914
 5217SOL    HW216551   3.213   5.233   3.843
 5218SOL     OW16552   1.626   6.654   3.532
 5218SOL    HW116553   1.708   6.708   3.552
 5218SOL    HW216554   1.544   6.708   3.551
 5219SOL     OW16555   3.526   6.949   6.773
 5219SOL    HW116556   3.473   0.009   6.791
 5219SOL    HW216557   3.582   6.963   6.691
 5220SOL     OW16558   0.687   5.840   2.190
 5220SOL    HW116559   0.640   5.914   2.142
 5220SOL    HW216560   0.623   5.765   2.205
 5221SOL     OW16561   5.138   0.944   4.485
 5221SOL    HW116562   5.216   1.004   4.465
 5221SOL    HW216563   5.151   0.902   4.575
 5222SOL     OW16564   1.832   0.449   3.536
 5222SOL    HW116565   1.920   0.433   3.582
 5222SOL    HW216566   1.840   0.529   3.477
 5223SOL     OW16567   4.732   0.563   1.624
 5223SOL    HW116568   4.666   0.496   1.591
 5223SOL    HW216569   4.727   0.570   1.723
 5224SOL     OW16570   6.768   2.033   2.594
 5224SOL    HW116571   6.746   2.017   2.690
 5224SOL    HW216572   6.689   2.075   2.548
 5225SOL     OW16573   6.449   6.832   4.475
 5225SOL    HW116574   6.368   6.890   4.480
 5225SOL    HW216575   6.428   6.750   4.422
 5226SOL     OW16576   0.997   6.596   3.922
 5226SOL    HW116577   1.070   6.552   3.871
 5226SOL    HW216578   0.921   6.617   3.859
 5227SOL     OW16579   6.790   5.095   3.868
 5227SOL    HW116580   6.864   5.067   3.807
 5227SOL    HW216581   6.734   5.164   3.823
 5228SOL     OW16582   5.403   1.534   1.057
 5228SOL    HW116583   5.374   1.438   1.052
 5228SOL    HW216584   5.330   1.592   1.020
 5229SOL     OW16585   1.284   3.989   6.295
 5229SOL    HW116586   1.192   3.997   6.258
 5229SOL    HW216587   1.336   4.072   6.272
 5230SOL     OW16588   6.842   0.562   0.691
 5230SOL    HW116589   6.908   0.534   0.761
 5230SOL    HW216590   6.749   0.552   0.727
 5231SOL     OW16591   3.830   2.923   4.167
 5231SOL    HW116592   3.767   2.871   4.109
 5231SOL    HW216593   3.824   3.020   4.144
 5232SOL     OW16594   4.773   2.310   0.121
 5232SOL    HW116595   4.682   2.328   0.085
 5232SOL    HW216596   4.773   2.223   0.171
 5233SOL     OW16597   6.817   5.939   1.663
 5233SOL    HW116598   6.896   5.925   1.723
 5233SOL    HW216599   6.781   6.031   1.677
 5234SOL     OW16600   3.186   6.689   0.565
 5234SOL    HW116601   3.178   6.770   0.624
 5234SOL    HW216602   3.148   6.710   0.475
 5235SOL     OW16603   2.135   3.544   0.791
 5235SOL    HW116604   2.097   3.583   0.875
 5235SOL    HW216605   2.117   3.606   0.714
 5236SOL     OW16606   4.919   4.001   1.267
 5236SOL    HW116607   4.895   4.015   1.171
 5236SOL    HW216608   4.975   4.078   1.299
 5237SOL     OW16609   2.384   2.019   5.277
 5237SOL    HW116610   2.286   2.022   5.299
 5237SOL    HW216611   2.436   1.995   5.358
 5238SOL     OW16612   1.356   5.104   0.414
 5238SOL    HW116613   1.410   5.083   0.495
 5238SOL    HW216614   1.264   5.131   0.441
 5239SOL     OW16615   3.031   3.201   4.070
 5239SOL    HW116616   2.993   3.264   4.003
 5239SOL    HW216617   3.114   3.241   4.110
 5240SOL     OW16618   3.305   2.098   5.225
 5240SOL    HW116619   3.249   2.048   5.160
 5240SOL    HW216620   3.277   2.194   5.227
 5241SOL     OW16621   0.952   6.445   6.309
 5241SOL    HW116622   0.935   6.392   6.226
 5241SOL    HW216623   1.046   6.430   6.340
 5242SOL     OW16624   5.893   1.250   6.057
 5242SOL    HW116625   5.798   1.230   6.034
 5242SOL    HW216626   5.896   1.319   6.130
 5243SOL     OW16627   1.108   5.772   0.894
 5243SOL    HW116628   1.140   5.866   0.904
 5243SOL    HW216629   1.178   5.709   0.927
 5244SOL     OW16630   4.053   4.133   5.981
 5244SOL    HW116631   4.098   4.101   5.898
 5244SOL    HW216632   3.964   4.088   5.989
 5245SOL     OW16633   4.188   4.363   5.995
 5245SOL    HW116634   4.145   4.430   5.934
 5245SOL    HW216635   4.136   4.277   5.993
 5246SOL     OW16636   0.393   2.914   2.461
 5246SOL    HW116637   0.390   2.849   2.537
 5246SOL    HW216638   0.482   2.908   2.415
 5247SOL     OW16639   6.948   5.185   0.650
 5247SOL    HW116640   6.998   5.193   0.564
 5247SOL    HW216641   6.925   5.089   0.666
 5248SOL     OW16642   5.331   0.924   6.314
 5248SOL    HW116643   5.264   0.977   6.367
 5248SOL    HW216644   5.379   0.985   6.251
 5249SOL     OW16645   0.606   4.950   4.941
 5249SOL    HW116646   0.679   5.014   4.963
 5249SOL    HW216647   0.625   4.906   4.853
 5250SOL     OW16648   0.244   1.955   6.072
 5250SOL    HW116649   0.210   2.017   6.142
 5250SOL    HW216650   0.330   1.915   6.102
 5251SOL     OW16651   6.076   3.362   1.107
 5251SOL    HW116652   6.155   3.408   1.147
 5251SOL    HW216653   6.008   3.346   1.178
 5252SOL     OW16654   2.928   6.002   0.984
 5252SOL    HW116655   2.844   6.056   0.992
 5252SOL    HW216656   3.000   6.046   1.039
 5253SOL     OW16657   6.089   3.966   4.521
 5253SOL    HW116658   6.003   3.986   4.567
 5253SOL    HW216659   6.071   3.922   4.433
 5254SOL     OW16660   4.474   1.103   4.285
 5254SOL    HW116661   4.545   1.091   4.355
 5254SOL    HW216662   4.388   1.130   4.329
 5255SOL     OW16663   3.396   0.108   4.996
 5255SOL    HW116664   3.433   0.151   5.079
 5255SOL    HW216665   3.450   0.135   4.917
 5256SOL     OW16666   5.117   0.888   3.645
 5256SOL    HW116667   5.170   0.972   3.660
 5256SOL    HW216668   5.019   0.908   3.654
 5257SOL     OW16669   3.743   6.734   0.599
 5257SOL    HW116670   3.831   6.781   0.594
 5257SOL    HW216671   3.757   6.636   0.587
 5258SOL     OW16672   4.967   4.419   2.593
 5258SOL    HW116673   4.916   4.347   2.545
 5258SOL    HW216674   4.926   4.436   2.682
 5259SOL     OW16675   4.374   6.404   2.674
 5259SOL    HW116676   4.428   6.456   2.740
 5259SOL    HW216677   4.436   6.355   2.612
 5260SOL     OW16678   5.832   3.272   1.008
 5260SOL    HW116679   5.893   3.222   0.946
 5260SOL    HW216680   5.857   3.369   1.007
 5261SOL     OW16681   7.002   2.748   4.725
 5261SOL    HW116682   6.990   2.845   4.702
 5261SOL    HW216683   6.913   2.703   4.725
 5262SOL     OW16684   2.550   6.658   2.530
 5262SOL    HW116685   2.472   6.598   2.546
 5262SOL    HW216686   2.518   6.747   2.499
 5263SOL     OW16687   1.546   0.574   6.025
 5263SOL    HW116688   1.584   0.572   6.117
 5263SOL    HW216689   1.456   0.618   6.027
 5264SOL     OW16690   6.197   1.435   1.590
 5264SOL    HW116691   6.117   1.493   1.577
 5264SOL    HW216692   6.271   1.467   1.531
 5265SOL     OW16693   5.392   4.532   1.976
 5265SOL    HW116694   5.345   4.620   1.968
 5265SOL    HW216695   5.442   4.529   2.063
 5266SOL     OW16696   1.278   6.132   1.682
 5266SOL    HW116697   1.352   6.199   1.687
 5266SOL    HW216698   1.192   6.179   1.659
 5267SOL     OW16699   4.846   5.262   5.387
 5267SOL    HW116700   4.918   5.324   5.420
 5267SOL    HW216701   4.782   5.243   5.462
 5268SOL     OW16702   6.650   5.275   5.152
 5268SOL    HW116703   6.563   5.324   5.163
 5268SOL    HW216704   6.633   5.176   5.148
 5269SOL     OW16705   1.682   5.454   4.174
 5269SOL    HW116706   1.656   5.502   4.091
 5269SOL    HW216707   1.621   5.480   4.249
 5270SOL     OW16708   5.806   2.631   1.675
 5270SOL    HW116709   5.869   2.639   1.598
 5270SOL    HW216710   5.756   2.544   1.668
 5271SOL     OW16711   4.733   4.817   5.316
 5271SOL    HW116712   4.683   4.827   5.402
 5271SOL    HW216713   4.783   4.902   5.296
 5272SOL     OW16714   6.998   6.044   4.917
 5272SOL    HW116715   0.009   6.030   4.823
 5272SOL    HW216716   6.962   5.958   4.953
 5273SOL     OW16717   0.656   2.169   4.032
 5273SOL    HW116718   0.659   2.204   4.125
 5273SOL    HW216719   0.666   2.245   3.967
 5274SOL     OW16720   0.220   4.823   3.558
 5274SOL    HW116721   0.159   4.856   3.485
 5274SOL    HW216722   0.238   4.898   3.622
 5275SOL     OW16723   2.652   0.033   6.375
 5275SOL    HW116724   2.679   6.997   6.451
 5275SOL    HW216725   2.733   0.065   6.326
 5276SOL     OW16726   7.016   6.957   1.770
 5276SOL    HW116727   0.060   6.999   1.707
 5276SOL    HW216728   6.957   6.895   1.720
 5277SOL     OW16729   1.219   1.459   4.014
 5277SOL    HW116730   1.184   1.388   4.075
 5277SOL    HW216731   1.142   1.512   3.977
 5278SOL     OW16732   6.902   6.876   5.765
 5278SOL    HW116733   6.843   6.814   5.816
 5278SOL    HW216734   6.899   6.967   5.806
 5279SOL     OW16735   0.956   5.671   6.442
 5279SOL    HW116736   0.958   5.581   6.487
 5279SOL    HW216737   0.877   5.676   6.382
 5280SOL     OW16738   3.566   6.382   4.541
 5280SOL    HW116739   3.627   6.317   4.495
 5280SOL    HW216740   3.540   6.454   4.477
 5281SOL     OW16741   1.113   0.610   4.313
 5281SOL    HW116742   1.058   0.679   4.360
 5281SOL    HW216743   1.089   0.519   4.347
 5282SOL     OW16744   1.775   0.141   2.700
 5282SOL    HW116745   1.874   0.141   2.717
 5282SOL    HW216746   1.727   0.176   2.781
 5283SOL     OW16747   0.320   0.562   3.733
 5283SOL    HW116748   0.414   0.529   3.748
 5283SOL    HW216749   0.294   0.623   3.808
 5284SOL     OW16750   5.204   2.236   2.125
 5284SOL    HW116751   5.165   2.218   2.215
 5284SOL    HW216752   5.286   2.293   2.135
 5285SOL     OW16753   1.001   3.012   3.183
 5285SOL    HW116754   1.057   2.943   3.228
 5285SOL    HW216755   1.055   3.059   3.113
 5286SOL     OW16756   6.553   3.120   0.541
 5286SOL    HW116757   6.501   3.072   0.470
 5286SOL    HW216758   6.639   3.071   0.558
 5287SOL     OW16759   3.403   5.361   2.078
 5287SOL    HW116760   3.393   5.452   2.120
 5287SOL    HW216761   3.376   5.291   2.143
 5288SOL     OW16762   5.167   0.288   1.909
 5288SOL    HW116763   5.184   0.326   2.000
 5288SOL    HW216764   5.221   0.338   1.841
 5289SOL     OW16765   1.927   5.466   6.422
 5289SOL    HW116766   1.891   5.373   6.430
 5289SOL    HW216767   1.967   5.479   6.331
 5290SOL     OW16768   1.985   4.553   6.053
 5290SOL    HW116769   2.026   4.609   5.981
 5290SOL    HW216770   1.943   4.472   6.011
 5291SOL     OW16771   2.896   4.592   5.427
 5291SOL    HW116772   2.914   4.600   5.329
 5291SOL    HW216773   2.906   4.497   5.456
 5292SOL     OW16774   6.963   4.223   6.547
 5292SOL    HW116775   6.959   4.303   6.606
 5292SOL    HW216776   6.904   4.151   6.584
 5293SOL     OW16777   2.455   5.430   4.544
 5293SOL    HW116778   2.552   5.450   4.527
 5293SOL    HW216779   2.447   5.344   4.593
 5294SOL     OW16780   4.564   0.434   5.231
 5294SOL    HW116781   4.528   0.528   5.228
 5294SOL    HW216782   4.489   0.370   5.216
 5295SOL     OW16783   3.438   0.897   3.545
 5295SOL    HW116784   3.461   0.800   3.544
 5295SOL    HW216785   3.469   0.938   3.631
 5296SOL     OW16786   3.842   4.396   0.867
 5296SOL    HW116787   3.871   4.314   0.918
 5296SOL    HW216788   3.894   4.475   0.899
 5297SOL     OW16789   2.248   3.517   0.136
 5297SOL    HW116790   2.178   3.452   0.108
 5297SOL    HW216791   2.323   3.469   0.180
 5298SOL     OW16792   2.298   6.130   6.891
 5298SOL    HW116793   2.387   6.166   6.866
 5298SOL    HW216794   2.229   6.165   6.827
 5299SOL     OW16795   2.769   2.175   0.925
 5299SOL    HW116796   2.835   2.151   0.997
 5299SOL    HW216797   2.676   2.166   0.962
 5300SOL     OW16798   1.066   4.860   0.625
 5300SOL    HW116799   1.020   4.943   0.657
 5300SOL    HW216800   1.000   4.785   0.619
 5301SOL     OW16801   4.031   0.400   0.132
 5301SOL    HW116802   4.054   0.489   0.172
 5301SOL    HW216803   4.034   0.330   0.204
 5302SOL     OW16804   4.635   5.812   3.669
 5302SOL    HW116805   4.599   5.754   3.596
 5302SOL    HW216806   4.635   5.907   3.639
 5303SOL     OW16807   6.601   4.950   6.156
 5303SOL    HW116808   6.652   5.013   6.214
 5303SOL    HW216809   6.643   4.948   6.065
 5304SOL     OW16810   5.835   1.155   0.899
 5304SOL    HW116811   5.856   1.221   0.971
 5304SOL    HW216812   5.783   1.079   0.938
 5305SOL     OW16813   1.457   5.406   2.763
 5305SOL    HW116814   1.472   5.504   2.757
 5305SOL    HW216815   1.496   5.372   2.849
 5306SOL     OW16816   6.979   4.210   5.655
 5306SOL    HW116817   0.019   4.239   5.728
 5306SOL    HW216818   6.974   4.280   5.585
 5307SOL     OW16819   4.656   1.991   0.502
 5307SOL    HW116820   4.701   2.055   0.565
 5307SOL    HW216821   4.557   2.008   0.502
 5308SOL     OW16822   1.321   4.464   2.628
 5308SOL    HW116823   1.264   4.434   2.704
 5308SOL    HW216824   1.377   4.387   2.597
 5309SOL     OW16825   4.078   5.981   2.631
 5309SOL    HW116826   4.142   5.995   2.556
 5309SOL    HW216827   4.076   5.884   2.656
 5310SOL     OW16828   6.457   3.041   2.363
 5310SOL    HW116829   6.417   3.086   2.443
 5310SOL    HW216830   6.399   3.058   2.283
 5311SOL     OW16831   6.017   0.792   0.114
 5311SOL    HW116832   6.084   0.731   0.073
 5311SOL    HW216833   6.054   0.885   0.115
 5312SOL     OW16834   0.230   5.981   1.619
 5312SOL    HW116835   0.234   6.052   1.689
 5312SOL    HW216836   0.177   5.903   1.652
 5313SOL     OW16837   0.306   5.044   5.506
 5313SOL    HW116838   0.233   5.083   5.561
 5313SOL    HW216839   0.377   5.113   5.490
 5314SOL     OW16840   5.199   6.694   0.321
 5314SOL    HW116841   5.192   6.792   0.302
 5314SOL    HW216842   5.288   6.661   0.290
 5315SOL     OW16843   4.766   2.502   3.551
 5315SOL    HW116844   4.720   2.433   3.496
 5315SOL    HW216845   4.825   2.557   3.492
 5316SOL     OW16846   0.889   4.024   5.522
 5316SOL    HW116847   0.919   3.929   5.524
 5316SOL    HW216848   0.942   4.078   5.587
 5317SOL     OW16849   6.495   1.268   5.318
 5317SOL    HW116850   6.514   1.176   5.284
 5317SOL    HW216851   6.565   1.295   5.385
 5318SOL     OW16852   0.574   2.987   0.670
 5318SOL    HW116853   0.489   2.943   0.642
 5318SOL    HW216854   0.642   2.978   0.597
 5319SOL     OW16855   4.724   6.472   1.051
 5319SOL    HW116856   4.626   6.480   1.029
 5319SOL    HW216857   4.777   6.532   0.991
 5320SOL     OW16858   4.249   5.877   1.279
 5320SOL    HW116859   4.159   5.855   1.315
 5320SOL    HW216860   4.312   5.802   1.298
 5321SOL     OW16861   2.257   4.695   5.057
 5321SOL    HW116862   2.160   4.678   5.036
 5321SOL    HW216863   2.291   4.622   5.116
 5322SOL     OW16864   5.512   7.006   0.568
 5322SOL    HW116865   5.584   6.984   0.501
 5322SOL    HW216866   5.550   0.044   0.638
 5323SOL     OW16867   4.417   0.925   5.845
 5323SOL    HW116868   4.496   0.986   5.835
 5323SOL    HW216869   4.334   0.975   5.821
 5324SOL     OW16870   2.891   2.113   6.898
 5324SOL    HW116871   2.975   2.125   6.951
 5324SOL    HW216872   2.848   2.203   6.882
 5325SOL     OW16873   2.786   1.483   4.548
 5325SOL    HW116874   2.743   1.494   4.637
 5325SOL    HW216875   2.872   1.432   4.558
 5326SOL     OW16876   6.274   5.966   3.283
 5326SOL    HW116877   6.297   5.993   3.189
 5326SOL    HW216878   6.184   6.002   3.306
 5327SOL     OW16879   5.804   2.529   4.664
 5327SOL    HW116880   5.856   2.524   4.749
 5327SOL    HW216881   5.861   2.572   4.593
 5328SOL     OW16882   3.719   3.677   5.985
 5328SOL    HW116883   3.670   3.606   6.034
 5328SOL    HW216884   3.771   3.636   5.910
 5329SOL     OW16885   0.964   5.424   6.522
 5329SOL    HW116886   1.052   5.381   6.541
 5329SOL    HW216887   0.890   5.362   6.551
 5330SOL     OW16888   4.008   4.384   0.124
 5330SOL    HW116889   3.967   4.440   0.052
 5330SOL    HW216890   4.098   4.351   0.095
 5331SOL     OW16891   6.111   1.803   6.553
 5331SOL    HW116892   6.047   1.879   6.547
 5331SOL    HW216893   6.061   1.719   6.576
 5332SOL     OW16894   1.806   4.005   1.350
 5332SOL    HW116895   1.860   4.005   1.434
 5332SOL    HW216896   1.806   3.913   1.310
 5333SOL     OW16897   1.069   0.955   3.145
 5333SOL    HW116898   1.121   0.969   3.060
 5333SOL    HW216899   1.016   0.870   3.137
 5334SOL     OW16900   2.974   0.766   5.328
 5334SOL    HW116901   3.068   0.734   5.340
 5334SOL    HW216902   2.967   0.815   5.241
 5335SOL     OW16903   6.322   6.151   0.920
 5335SOL    HW116904   6.317   6.155   1.020
 5335SOL    HW216905   6.250   6.092   0.885
 5336SOL     OW16906   1.699   3.559   2.447
 5336SOL    HW116907   1.740   3.501   2.376
 5336SOL    HW216908   1.771   3.595   2.506
 5337SOL     OW16909   4.638   3.719   1.373
 5337SOL    HW116910   4.686   3.788   1.428
 5337SOL    HW216911   4.605   3.646   1.432
 5338SOL     OW16912   5.855   1.968   6.571
 5338SOL    HW116913   5.839   1.892   6.508
 5338SOL    HW216914   5.770   1.989   6.619
 5339SOL     OW16915   6.272   1.452   3.731
 5339SOL    HW116916   6.360   1.463   3.686
 5339SOL    HW216917   6.221   1.538   3.725
 5340SOL     OW16918   6.047   2.967   0.360
 5340SOL    HW116919   6.006   2.924   0.440
 5340SOL    HW216920   6.101   3.046   0.389
 5341SOL     OW16921   3.660   2.295   5.894
 5341SOL    HW116922   3.606   2.378   5.906
 5341SOL    HW216923   3.744   2.316   5.845
 5342SOL     OW16924   3.861   0.465   4.910
 5342SOL    HW116925   3.797   0.412   4.855
 5342SOL    HW216926   3.814   0.546   4.947
 5343SOL     OW16927   3.401   3.481   3.486
 5343SOL    HW116928   3.320   3.482   3.427
 5343SOL    HW216929   3.480   3.514   3.434
 5344SOL     OW16930   1.645   2.598   2.804
 5344SOL    HW116931   1.615   2.583   2.898
 5344SOL    HW216932   1.742   2.624   2.804
 5345SOL     OW16933   4.407   5.894   0.936
 5345SOL    HW116934   4.381   5.893   0.839
 5345SOL    HW216935   4.349   5.958   0.986
 5346SOL     OW16936   3.179   6.245   3.458
 5346SOL    HW116937   3.099   6.197   3.422
 5346SOL    HW216938   3.202   6.321   3.397
 5347SOL     OW16939   0.042   2.174   2.452
 5347SOL    HW116940   0.003   2.196   2.363
 5347SOL    HW216941   0.112   2.104   2.441
 5348SOL     OW16942   0.792   1.759   0.585
 5348SOL    HW116943   0.806   1.780   0.682
 5348SOL    HW216944   0.843   1.676   0.562
 5349SOL     OW16945   1.112   2.299   0.478
 5349SOL    HW116946   1.125   2.279   0.381
 5349SOL    HW216947   1.115   2.398   0.493
 5350SOL     OW16948   2.471   0.477   6.245
 5350SOL    HW116949   2.439   0.383   6.232
 5350SOL    HW216950   2.546   0.496   6.181
 5351SOL     OW16951   5.101   5.653   1.433
 5351SOL    HW116952   5.057   5.738   1.405
 5351SOL    HW216953   5.140   5.664   1.525
 5352SOL     OW16954   2.161   5.949   3.874
 5352SOL    HW116955   2.186   6.015   3.944
 5352SOL    HW216956   2.077   5.979   3.828
 5353SOL     OW16957   4.022   5.925   4.377
 5353SOL    HW116958   3.969   5.992   4.324
 5353SOL    HW216959   4.093   5.973   4.429
 5354SOL     OW16960   2.221   4.646   2.425
 5354SOL    HW116961   2.285   4.578   2.390
 5354SOL    HW216962   2.129   4.628   2.390
 5355SOL     OW16963   4.922   2.459   3.790
 5355SOL    HW116964   4.990   2.394   3.755
 5355SOL    HW216965   4.850   2.472   3.722
 5356SOL     OW16966   5.943   4.288   1.835
 5356SOL    HW116967   5.846   4.274   1.853
 5356SOL    HW216968   5.963   4.386   1.835
 5357SOL     OW16969   3.489   0.718   1.392
 5357SOL    HW116970   3.434   0.764   1.462
 5357SOL    HW216971   3.438   0.639   1.358
 5358SOL     OW16972   4.341   2.373   0.806
 5358SOL    HW116973   4.264   2.436   0.803
 5358SOL    HW216974   4.422   2.419   0.842
 5359SOL     OW16975   2.315   1.702   0.459
 5359SOL    HW116976   2.219   1.725   0.440
 5359SOL    HW216977   2.357   1.776   0.512
 5360SOL     OW16978   3.955   6.643   4.537
 5360SOL    HW116979   3.921   6.738   4.540
 5360SOL    HW216980   4.055   6.643   4.547
 5361SOL     OW16981   2.732   0.254   4.831
 5361SOL    HW116982   2.814   0.219   4.877
 5361SOL    HW216983   2.732   0.354   4.833
 5362SOL     OW16984   5.110   4.497   3.641
 5362SOL    HW116985   5.064   4.450   3.717
 5362SOL    HW216986   5.166   4.431   3.591
 5363SOL     OW16987   0.888   6.203   5.738
 5363SOL    HW116988   0.788   6.193   5.739
 5363SOL    HW216989   0.930   6.119   5.771
 5364SOL     OW16990   6.503   5.542   0.832
 5364SOL    HW116991   6.523   5.612   0.900
 5364SOL    HW216992   6.456   5.584   0.754
 5365SOL     OW16993   4.478   2.939   6.508
 5365SOL    HW116994   4.439   2.972   6.421
 5365SOL    HW216995   4.570   2.976   6.518
 5366SOL     OW16996   5.039   4.838   1.116
 5366SOL    HW116997   5.047   4.882   1.206
 5366SOL    HW216998   5.025   4.908   1.046
 5367SOL     OW16999   0.248   5.178   0.436
 5367SOL    HW117000   0.267   5.082   0.458
 5367SOL    HW217001   0.258   5.234   0.518
 5368SOL     OW17002   5.191   1.315   2.826
 5368SOL    HW117003   5.099   1.317   2.864
 5368SOL    HW217004   5.186   1.309   2.726
 5369SOL     OW17005   2.730   6.042   3.396
 5369SOL    HW117006   2.712   6.059   3.492
 5369SOL    HW217007   2.661   6.088   3.340
 5370SOL     OW17008   3.973   3.022   1.925
 5370SOL    HW117009   3.926   2.980   2.002
 5370SOL    HW217010   4.014   3.109   1.955
 5371SOL     OW17011   1.929   4.213   4.141
 5371SOL    HW117012   1.937   4.128   4.193
 5371SOL    HW217013   2.006   4.273   4.165
 5372SOL     OW17014   2.537   5.433   2.298
 5372SOL    HW117015   2.478   5.425   2.378
 5372SOL    HW217016   2.582   5.345   2.281
 5373SOL     OW17017   2.974   4.870   4.200
 5373SOL    HW117018   2.928   4.933   4.139
 5373SOL    HW217019   2.922   4.862   4.285
 5374SOL     OW17020   1.203   3.421   7.013
 5374SOL    HW117021   1.247   3.386   6.930
 5374SOL    HW217022   1.104   3.411   7.005
 5375SOL     OW17023   1.051   4.850   5.075
 5375SOL    HW117024   1.024   4.831   5.170
 5375SOL    HW217025   1.006   4.784   5.014
 5376SOL     OW17026   1.573   3.303   1.329
 5376SOL    HW117027   1.635   3.287   1.405
 5376SOL    HW217028   1.526   3.219   1.304
 5377SOL     OW17029   0.058   0.174   1.876
 5377SOL    HW117030   0.128   0.184   1.947
 5377SOL    HW217031   0.042   0.077   1.858
 5378SOL     OW17032   6.948   0.477   1.300
 5378SOL    HW117033   6.888   0.506   1.226
 5378SOL    HW217034   6.900   0.488   1.388
 5379SOL     OW17035   0.333   5.445   4.293
 5379SOL    HW117036   0.303   5.538   4.314
 5379SOL    HW217037   0.254   5.390   4.266
 5380SOL     OW17038   2.016   0.937   3.553
 5380SOL    HW117039   2.065   1.010   3.506
 5380SOL    HW217040   1.920   0.937   3.526
 5381SOL     OW17041   6.526   3.519   0.482
 5381SOL    HW117042   6.453   3.466   0.438
 5381SOL    HW217043   6.596   3.456   0.516
 5382SOL     OW17044   3.007   0.194   1.817
 5382SOL    HW117045   2.910   0.202   1.791
 5382SOL    HW217046   3.017   0.121   1.884
 5383SOL     OW17047   2.906   2.300   5.253
 5383SOL    HW117048   2.878   2.387   5.292
 5383SOL    HW217049   2.984   2.315   5.192
 5384SOL     OW17050   5.963   0.648   4.102
 5384SOL    HW117051   5.889   0.695   4.055
 5384SOL    HW217052   6.033   0.714   4.129
 5385SOL     OW17053   3.176   4.112   3.030
 5385SOL    HW117054   3.173   4.212   3.037
 5385SOL    HW217055   3.234   4.086   2.953
 5386SOL     OW17056   4.900   6.186   4.010
 5386SOL    HW117057   4.850   6.169   4.095
 5386SOL    HW217058   4.961   6.109   3.990
 5387SOL     OW17059   2.026   5.902   3.112
 5387SOL    HW117060   1.980   5.887   3.024
 5387SOL    HW217061   2.038   5.815   3.159
 5388SOL     OW17062   5.392   6.275   2.957
 5388SOL    HW117063   5.401   6.318   3.047
 5388SOL    HW217064   5.442   6.189   2.956
 5389SOL     OW17065   5.045   0.710   1.679
 5389SOL    HW117066   5.058   0.613   1.660
 5389SOL    HW217067   5.101   0.737   1.757
 5390SOL     OW17068   4.064   5.225   4.155
 5390SOL    HW117069   4.104   5.302   4.106
 5390SOL    HW217070   4.133   5.182   4.214
 5391SOL     OW17071   2.517   2.492   0.498
 5391SOL    HW117072   2.440   2.469   0.439
 5391SOL    HW217073   2.503   2.453   0.589
 5392SOL     OW17074   6.143   3.586   0.967
 5392SOL    HW117075   6.128   3.558   0.872
 5392SOL    HW217076   6.111   3.514   1.029
 5393SOL     OW17077   6.299   0.100   6.846
 5393SOL    HW117078   6.377   0.062   6.796
 5393SOL    HW217079   6.245   0.158   6.785
 5394SOL     OW17080   0.284   3.744   6.199
 5394SOL    HW117081   0.342   3.662   6.203
 5394SOL    HW217082   0.196   3.720   6.159
 5395SOL     OW17083   4.451   0.696   1.698
 5395SOL    HW117084   4.383   0.764   1.667
 5395SOL    HW217085   4.518   0.741   1.757
 5396SOL     OW17086   5.033   3.277   2.452
 5396SOL    HW117087   5.011   3.337   2.375
 5396SOL    HW217088   5.071   3.332   2.526
 5397SOL     OW17089   6.931   2.901   1.860
 5397SOL    HW117090   0.003   2.868   1.865
 5397SOL    HW217091   6.900   2.929   1.951
 5398SOL     OW17092   3.405   2.075   1.547
 5398SOL    HW117093   3.370   2.164   1.579
 5398SOL    HW217094   3.503   2.081   1.531
 5399SOL     OW17095   2.225   6.265   0.897
 5399SOL    HW117096   2.215   6.336   0.967
 5399SOL    HW217097   2.180   6.294   0.813
 5400SOL     OW17098   3.025   4.304   0.948
 5400SOL    HW117099   3.083   4.225   0.928
 5400SOL    HW217100   3.067   4.387   0.911
 5401SOL     OW17101   5.702   3.491   1.719
 5401SOL    HW117102   5.755   3.435   1.783
 5401SOL    HW217103   5.657   3.432   1.652
 5402SOL     OW17104   2.585   5.701   1.997
 5402SOL    HW117105   2.529   5.694   2.080
 5402SOL    HW217106   2.632   5.615   1.981
 5403SOL     OW17107   6.564   3.101   6.334
 5403SOL    HW117108   6.613   3.021   6.300
 5403SOL    HW217109   6.581   3.179   6.274
 5404SOL     OW17110   1.025   2.001   3.588
 5404SOL    HW117111   1.010   2.033   3.682
 5404SOL    HW217112   1.017   2.078   3.525
 5405SOL     OW17113   6.588   5.698   0.307
 5405SOL    HW117114   6.579   5.686   0.406
 5405SOL    HW217115   6.683   5.715   0.283
 5406SOL     OW17116   2.602   1.564   6.292
 5406SOL    HW117117   2.572   1.521   6.377
 5406SOL    HW217118   2.526   1.566   6.227
 5407SOL     OW17119   4.432   3.395   0.402
 5407SOL    HW117120   4.345   3.359   0.436
 5407SOL    HW217121   4.461   3.343   0.322
 5408SOL     OW17122   2.508   1.231   5.304
 5408SOL    HW117123   2.523   1.160   5.374
 5408SOL    HW217124   2.528   1.321   5.344
 5409SOL     OW17125   5.197   0.083   3.095
 5409SOL    HW117126   5.275   0.146   3.103
 5409SOL    HW217127   5.204   0.032   3.010
 5410SOL     OW17128   2.607   2.257   1.707
 5410SOL    HW117129   2.522   2.208   1.687
 5410SOL    HW217130   2.591   2.322   1.781
 5411SOL     OW17131   6.320   4.950   6.043
 5411SOL    HW117132   6.404   4.992   6.076
 5411SOL    HW217133   6.335   4.910   5.953
 5412SOL     OW17134   4.845   2.133   0.677
 5412SOL    HW117135   4.894   2.216   0.649
 5412SOL    HW217136   4.864   2.115   0.774
 5413SOL     OW17137   2.995   0.895   1.166
 5413SOL    HW117138   3.051   0.864   1.242
 5413SOL    HW217139   2.910   0.843   1.163
 5414SOL     OW17140   5.323   1.909   4.810
 5414SOL    HW117141   5.255   1.979   4.790
 5414SOL    HW217142   5.403   1.951   4.853
 5415SOL     OW17143   0.472   5.859   1.497
 5415SOL    HW117144   0.380   5.892   1.514
 5415SOL    HW217145   0.497   5.876   1.402
 5416SOL     OW17146   4.578   5.097   5.540
 5416SOL    HW117147   4.637   5.167   5.581
 5416SOL    HW217148   4.498   5.141   5.499
 5417SOL     OW17149   3.610   6.521   5.888
 5417SOL    HW117150   3.513   6.498   5.898
 5417SOL    HW217151   3.645   6.480   5.804
 5418SOL     OW17152   3.510   0.358   3.393
 5418SOL    HW117153   3.532   0.269   3.432
 5418SOL    HW217154   3.526   0.357   3.295
 5419SOL     OW17155   3.918   5.015   0.008
 5419SOL    HW117156   3.953   5.005   6.937
 5419SOL    HW217157   3.926   4.927   0.056
 5420SOL     OW17158   2.079   3.506   3.135
 5420SOL    HW117159   2.121   3.464   3.053
 5420SOL    HW217160   2.083   3.441   3.211
 5421SOL     OW17161   1.313   3.267   1.629
 5421SOL    HW117162   1.353   3.236   1.543
 5421SOL    HW217163   1.303   3.366   1.627
 5422SOL     OW17164   0.320   4.881   0.753
 5422SOL    HW117165   0.267   4.945   0.810
 5422SOL    HW217166   0.265   4.799   0.736
 5423SOL     OW17167   6.849   2.918   6.907
 5423SOL    HW117168   6.766   2.970   6.885
 5423SOL    HW217169   6.879   2.869   6.825
 5424SOL     OW17170   5.186   3.049   3.754
 5424SOL    HW117171   5.186   2.971   3.816
 5424SOL    HW217172   5.197   3.134   3.806
 5425SOL     OW17173   4.108   0.847   4.783
 5425SOL    HW117174   4.020   0.869   4.741
 5425SOL    HW217175   4.182   0.864   4.717
 5426SOL     OW17176   5.996   5.991   4.591
 5426SOL    HW117177   5.929   6.053   4.551
 5426SOL    HW217178   5.948   5.920   4.643
 5427SOL     OW17179   5.153   5.643   6.303
 5427SOL    HW117180   5.140   5.606   6.395
 5427SOL    HW217181   5.083   5.712   6.284
 5428SOL     OW17182   6.882   0.089   1.406
 5428SOL    HW117183   6.842   0.181   1.405
 5428SOL    HW217184   6.969   0.091   1.455
 5429SOL     OW17185   2.184   1.892   6.326
 5429SOL    HW117186   2.148   1.931   6.410
 5429SOL    HW217187   2.283   1.905   6.322
 5430SOL     OW17188   0.077   2.759   5.572
 5430SOL    HW117189   0.153   2.745   5.636
 5430SOL    HW217190   0.097   2.713   5.486
 5431SOL     OW17191   3.333   6.207   0.524
 5431SOL    HW117192   3.310   6.136   0.458
 5431SOL    HW217193   3.364   6.164   0.609
 5432SOL     OW17194   5.573   0.555   6.715
 5432SOL    HW117195   5.553   0.652   6.698
 5432SOL    HW217196   5.668   0.547   6.747
 5433SOL     OW17197   0.524   1.949   4.689
 5433SOL    HW117198   0.492   1.942   4.594
 5433SOL    HW217199   0.502   1.864   4.737
 5434SOL     OW17200   3.318   0.674   5.791
 5434SOL    HW117201   3.303   0.662   5.693
 5434SOL    HW217202   3.379   0.752   5.805
 5435SOL     OW17203   5.849   6.990   2.073
 5435SOL    HW117204   5.879   6.896   2.058
 5435SOL    HW217205   5.881   0.026   1.998
 5436SOL     OW17206   5.161   3.665   4.103
 5436SOL    HW117207   5.067   3.695   4.117
 5436SOL    HW217208   5.166   3.609   4.020
 5437SOL     OW17209   2.773   3.810   0.030
 5437SOL    HW117210   2.738   3.900   0.055
 5437SOL    HW217211   2.812   3.766   0.111
 5438SOL     OW17212   6.887   2.288   1.523
 5438SOL    HW117213   6.795   2.265   1.491
 5438SOL    HW217214   6.888   2.383   1.554
 5439SOL     OW17215   1.394   2.019   1.150
 5439SOL    HW117216   1.375   2.077   1.071
 5439SOL    HW217217   1.437   2.073   1.222
 5440SOL     OW17218   0.800   1.284   0.864
 5440SOL    HW117219   0.788   1.228   0.782
 5440SOL    HW217220   0.834   1.374   0.837
 5441SOL     OW17221   4.223   2.118   3.440
 5441SOL    HW117222   4.312   2.149   3.406
 5441SOL    HW217223   4.162   2.102   3.363
 5442SOL     OW17224   4.280   6.612   3.002
 5442SOL    HW117225   4.319   6.699   3.030
 5442SOL    HW217226   4.206   6.627   2.937
 5443SOL     OW17227   3.825   6.891   4.510
 5443SOL    HW117228   3.814   6.945   4.427
 5443SOL    HW217229   3.743   6.835   4.525
 5444SOL     OW17230   0.833   0.653   4.169
 5444SOL    HW117231   0.847   0.694   4.259
 5444SOL    HW217232   0.852   0.555   4.174
 5445SOL     OW17233   6.448   4.042   3.302
 5445SOL    HW117234   6.494   3.955   3.287
 5445SOL    HW217235   6.513   4.109   3.339
 5446SOL     OW17236   6.384   5.424   4.528
 5446SOL    HW117237   6.424   5.332   4.529
 5446SOL    HW217238   6.453   5.490   4.497
 5447SOL     OW17239   2.828   2.348   6.826
 5447SOL    HW117240   2.924   2.372   6.814
 5447SOL    HW217241   2.772   2.431   6.818
 5448SOL     OW17242   4.047   2.942   5.305
 5448SOL    HW117243   4.116   3.014   5.294
 5448SOL    HW217244   4.090   2.858   5.338
 5449SOL     OW17245   1.707   3.076   6.195
 5449SOL    HW117246   1.693   3.156   6.253
 5449SOL    HW217247   1.623   3.057   6.144
 5450SOL     OW17248   2.196   0.531   1.716
 5450SOL    HW117249   2.116   0.474   1.699
 5450SOL    HW217250   2.248   0.543   1.632
 5451SOL     OW17251   1.934   6.200   3.457
 5451SOL    HW117252   1.962   6.264   3.386
 5451SOL    HW217253   1.931   6.246   3.545
 5452SOL     OW17254   2.343   4.665   6.860
 5452SOL    HW117255   2.264   4.648   6.920
 5452SOL    HW217256   2.427   4.644   6.909
 5453SOL     OW17257   6.075   4.266   0.574
 5453SOL    HW117258   6.050   4.250   0.479
 5453SOL    HW217259   6.145   4.200   0.602
 5454SOL     OW17260   6.856   4.171   6.975
 5454SOL    HW117261   6.867   4.073   6.996
 5454SOL    HW217262   6.908   4.225   0.019
 5455SOL     OW17263   6.663   3.103   6.864
 5455SOL    HW117264   6.621   3.098   6.773
 5455SOL    HW217265   6.731   3.176   6.865
 5456SOL     OW17266   3.751   6.792   6.882
 5456SOL    HW117267   3.679   6.861   6.875
 5456SOL    HW217268   3.766   6.751   6.793
 5457SOL     OW17269   5.405   1.930   0.775
 5457SOL    HW117270   5.453   1.977   0.848
 5457SOL    HW217271   5.345   1.860   0.814
 5458SOL     OW17272   0.788   4.473   0.016
 5458SOL    HW117273   0.706   4.484   0.073
 5458SOL    HW217274   0.869   4.501   0.068
 5459SOL     OW17275   1.717   5.300   0.411
 5459SOL    HW117276   1.754   5.291   0.318
 5459SOL    HW217277   1.791   5.287   0.477
 5460SOL     OW17278   3.229   0.217   2.439
 5460SOL    HW117279   3.228   0.148   2.367
 5460SOL    HW217280   3.178   0.298   2.408
 5461SOL     OW17281   5.980   6.210   4.832
 5461SOL    HW117282   5.915   6.170   4.768
 5461SOL    HW217283   5.939   6.291   4.874
 5462SOL     OW17284   1.517   0.729   0.555
 5462SOL    HW117285   1.550   0.711   0.462
 5462SOL    HW217286   1.509   0.642   0.604
 5463SOL     OW17287   6.085   2.122   0.199
 5463SOL    HW117288   6.162   2.180   0.225
 5463SOL    HW217289   6.014   2.179   0.157
 5464SOL     OW17290   1.575   0.443   4.458
 5464SOL    HW117291   1.500   0.502   4.428
 5464SOL    HW217292   1.659   0.497   4.462
 5465SOL     OW17293   3.496   6.816   3.447
 5465SOL    HW117294   3.516   6.913   3.441
 5465SOL    HW217295   3.512   6.772   3.359
 5466SOL     OW17296   5.754   4.481   4.573
 5466SOL    HW117297   5.790   4.431   4.494
 5466SOL    HW217298   5.829   4.507   4.634
 5467SOL     OW17299   5.075   2.135   2.948
 5467SOL    HW117300   5.129   2.215   2.974
 5467SOL    HW217301   5.133   2.067   2.905
 5468SOL     OW17302   5.123   1.259   4.561
 5468SOL    HW117303   5.185   1.322   4.608
 5468SOL    HW217304   5.135   1.167   4.598
 5469SOL     OW17305   3.942   5.242   6.642
 5469SOL    HW117306   3.908   5.336   6.637
 5469SOL    HW217307   3.910   5.190   6.562
 5470SOL     OW17308   1.879   5.373   2.980
 5470SOL    HW117309   1.972   5.370   3.014
 5470SOL    HW217310   1.855   5.467   2.954
 5471SOL     OW17311   5.796   6.964   1.148
 5471SOL    HW117312   5.867   6.896   1.165
 5471SOL    HW217313   5.796   0.009   1.223
 5472SOL     OW17314   4.378   4.341   6.223
 5472SOL    HW117315   4.355   4.361   6.318
 5472SOL    HW217316   4.319   4.394   6.162
 5473SOL     OW17317   0.819   3.376   3.373
 5473SOL    HW117318   0.796   3.380   3.470
 5473SOL    HW217319   0.915   3.401   3.360
 5474SOL     OW17320   1.466   4.335   4.689
 5474SOL    HW117321   1.454   4.241   4.719
 5474SOL    HW217322   1.388   4.390   4.721
 5475SOL     OW17323   3.630   2.852   0.958
 5475SOL    HW117324   3.621   2.934   1.015
 5475SOL    HW217325   3.710   2.862   0.898
 5476SOL     OW17326   2.410   3.335   6.270
 5476SOL    HW117327   2.393   3.354   6.367
 5476SOL    HW217328   2.493   3.280   6.261
 5477SOL     OW17329   2.034   3.867   3.711
 5477SOL    HW117330   2.061   3.929   3.636
 5477SOL    HW217331   2.043   3.915   3.798
 5478SOL     OW17332   5.519   5.886   5.624
 5478SOL    HW117333   5.591   5.909   5.558
 5478SOL    HW217334   5.451   5.826   5.580
 5479SOL     OW17335   4.642   0.852   5.380
 5479SOL    HW117336   4.728   0.817   5.417
 5479SOL    HW217337   4.566   0.823   5.438
 5480SOL     OW17338   0.669   3.527   3.858
 5480SOL    HW117339   0.580   3.562   3.886
 5480SOL    HW217340   0.711   3.477   3.934
 5481SOL     OW17341   3.294   0.366   4.464
 5481SOL    HW117342   3.196   0.350   4.468
 5481SOL    HW217343   3.330   0.332   4.377
 5482SOL     OW17344   3.777   4.274   1.607
 5482SOL    HW117345   3.736   4.364   1.622
 5482SOL    HW217346   3.873   4.286   1.581
 5483SOL     OW17347   0.832   3.352   5.144
 5483SOL    HW117348   0.875   3.267   5.174
 5483SOL    HW217349   0.734   3.349   5.168
 5484SOL     OW17350   4.744   0.246   5.016
 5484SOL    HW117351   4.710   0.188   5.090
 5484SOL    HW217352   4.668   0.278   4.960
 5485SOL     OW17353   2.826   6.848   5.357
 5485SOL    HW117354   2.839   6.898   5.443
 5485SOL    HW217355   2.752   6.782   5.367
 5486SOL     OW17356   2.529   5.939   5.159
 5486SOL    HW117357   2.513   5.909   5.065
 5486SOL    HW217358   2.587   5.872   5.205
 5487SOL     OW17359   3.091   4.504   5.777
 5487SOL    HW117360   3.056   4.417   5.744
 5487SOL    HW217361   3.016   4.558   5.815
 5488SOL     OW17362   6.684   1.029   0.563
 5488SOL    HW117363   6.782   1.031   0.583
 5488SOL    HW217364   6.633   1.052   0.646
 5489SOL     OW17365   6.724   3.007   2.349
 5489SOL    HW117366   6.625   3.014   2.366
 5489SOL    HW217367   6.774   3.051   2.424
 5490SOL     OW17368   1.830   6.728   2.511
 5490SOL    HW117369   1.795   6.634   2.506
 5490SOL    HW217370   1.773   6.781   2.573
 5491SOL     OW17371   6.888   2.984   0.291
 5491SOL    HW117372   6.908   3.025   0.380
 5491SOL    HW217373   6.805   3.026   0.254
 5492SOL     OW17374   1.082   3.212   5.527
 5492SOL    HW117375   1.065   3.310   5.540
 5492SOL    HW217376   1.180   3.196   5.513
 5493SOL     OW17377   4.140   3.614   2.122
 5493SOL    HW117378   4.085   3.633   2.204
 5493SOL    HW217379   4.235   3.600   2.148
 5494SOL     OW17380   5.762   4.567   5.406
 5494SOL    HW117381   5.821   4.565   5.486
 5494SOL    HW217382   5.722   4.658   5.396
 5495SOL     OW17383   6.141   0.516   0.527
 5495SOL    HW117384   6.042   0.500   0.522
 5495SOL    HW217385   6.185   0.479   0.446
 5496SOL     OW17386   4.414   0.621   4.182
 5496SOL    HW117387   4.446   0.536   4.225
 5496SOL    HW217388   4.487   0.689   4.183
 5497SOL     OW17389   0.321   0.915   5.897
 5497SOL    HW117390   0.359   0.880   5.983
 5497SOL    HW217391   0.251   0.851   5.864
 5498SOL     OW17392   0.013   4.755   1.612
 5498SOL    HW117393   0.013   4.680   1.545
 5498SOL    HW217394   0.076   4.734   1.686
 5499SOL     OW17395   0.258   0.789   3.895
 5499SOL    HW117396   0.202   0.831   3.823
 5499SOL    HW217397   0.258   0.848   3.976
 5500SOL     OW17398   1.656   0.725   0.292
 5500SOL    HW117399   1.587   0.754   0.225
 5500SOL    HW217400   1.736   0.690   0.243
 5501SOL     OW17401   3.953   1.989   0.328
 5501SOL    HW117402   3.881   2.033   0.274
 5501SOL    HW217403   3.919   1.970   0.420
 5502SOL     OW17404   5.010   3.645   6.158
 5502SOL    HW117405   4.952   3.715   6.117
 5502SOL    HW217406   5.072   3.609   6.088
 5503SOL     OW17407   0.184   3.646   0.182
 5503SOL    HW117408   0.248   3.675   0.254
 5503SOL    HW217409   0.220   3.566   0.135
 5504SOL     OW17410   3.859   1.046   6.557
 5504SOL    HW117411   3.913   1.113   6.506
 5504SOL    HW217412   3.893   0.954   6.538
 5505SOL     OW17413   2.129   3.812   4.030
 5505SOL    HW117414   2.073   3.729   4.044
 5505SOL    HW217415   2.225   3.790   4.045
 5506SOL     OW17416   0.486   3.560   6.160
 5506SOL    HW117417   0.543   3.618   6.102
 5506SOL    HW217418   0.533   3.543   6.246
 5507SOL     OW17419   3.420   0.600   6.382
 5507SOL    HW117420   3.433   0.673   6.449
 5507SOL    HW217421   3.324   0.574   6.379
 5508SOL     OW17422   0.988   0.961   6.623
 5508SOL    HW117423   1.022   0.869   6.603
 5508SOL    HW217424   1.016   1.023   6.550
 5509SOL     OW17425   0.096   5.106   1.229
 5509SOL    HW117426   0.046   5.058   1.302
 5509SOL    HW217427   0.097   5.204   1.249
 5510SOL     OW17428   4.824   5.607   0.023
 5510SOL    HW117429   4.780   5.517   0.017
 5510SOL    HW217430   4.915   5.603   7.005
 5511SOL     OW17431   0.350   1.771   4.961
 5511SOL    HW117432   0.440   1.752   4.922
 5511SOL    HW217433   0.280   1.756   4.891
 5512SOL     OW17434   3.505   1.311   2.181
 5512SOL    HW117435   3.456   1.324   2.267
 5512SOL    HW217436   3.574   1.383   2.170
 5513SOL     OW17437   4.419   4.595   6.578
 5513SOL    HW117438   4.424   4.687   6.618
 5513SOL    HW217439   4.358   4.538   6.633
 5514SOL     OW17440   2.576   6.382   5.345
 5514SOL    HW117441   2.666   6.345   5.322
 5514SOL    HW217442   2.532   6.417   5.262
 5515SOL     OW17443   2.073   5.787   1.828
 5515SOL    HW117444   2.095   5.691   1.810
 5515SOL    HW217445   2.000   5.817   1.766
 5516SOL     OW17446   2.377   2.768   5.245
 5516SOL    HW117447   2.313   2.722   5.182
 5516SOL    HW217448   2.420   2.845   5.199
 5517SOL     OW17449   1.858   3.530   2.713
 5517SOL    HW117450   1.822   3.594   2.780
 5517SOL    HW217451   1.957   3.532   2.713
 5518SOL     OW17452   4.947   4.591   5.577
 5518SOL    HW117453   4.905   4.633   5.657
 5518SOL    HW217454   5.011   4.519   5.607
 5519SOL     OW17455   4.619   2.654   3.976
 5519SOL    HW117456   4.613   2.661   3.876
 5519SOL    HW217457   4.527   2.646   4.015
 5520SOL     OW17458   5.574   6.526   2.174
 5520SOL    HW117459   5.486   6.561   2.207
 5520SOL    HW217460   5.648   6.564   2.229
 5521SOL     OW17461   5.806   5.057   2.397
 5521SOL    HW117462   5.801   4.995   2.319
 5521SOL    HW217463   5.889   5.040   2.450
 5522SOL     OW17464   5.484   5.153   1.476
 5522SOL    HW117465   5.553   5.113   1.537
 5522SOL    HW217466   5.455   5.085   1.409
 5523SOL     OW17467   5.668   1.188   2.624
 5523SOL    HW117468   5.643   1.120   2.692
 5523SOL    HW217469   5.681   1.142   2.535
 5524SOL     OW17470   3.182   0.472   5.142
 5524SOL    HW117471   3.188   0.418   5.058
 5524SOL    HW217472   3.175   0.569   5.119
 5525SOL     OW17473   6.747   2.724   1.058
 5525SOL    HW117474   6.819   2.664   1.094
 5525SOL    HW217475   6.674   2.732   1.126
 5526SOL     OW17476   5.151   4.278   3.263
 5526SOL    HW117477   5.089   4.247   3.190
 5526SOL    HW217478   5.184   4.370   3.240
 5527SOL     OW17479   5.131   2.906   4.201
 5527SOL    HW117480   5.178   2.873   4.283
 5527SOL    HW217481   5.049   2.956   4.228
 5528SOL     OW17482   1.326   1.783   1.257
 5528SOL    HW117483   1.413   1.743   1.286
 5528SOL    HW217484   1.341   1.878   1.229
 5529SOL     OW17485   3.082   0.678   2.891
 5529SOL    HW117486   3.003   0.735   2.914
 5529SOL    HW217487   3.101   0.615   2.966
 5530SOL     OW17488   6.665   2.223   1.373
 5530SOL    HW117489   6.680   2.124   1.373
 5530SOL    HW217490   6.689   2.260   1.284
 5531SOL     OW17491   4.076   3.892   1.476
 5531SOL    HW117492   4.085   3.820   1.407
 5531SOL    HW217493   4.067   3.850   1.567
 5532SOL     OW17494   1.805   2.575   1.653
 5532SOL    HW117495   1.903   2.584   1.635
 5532SOL    HW217496   1.756   2.651   1.609
 5533SOL     OW17497   4.226   1.595   4.288
 5533SOL    HW117498   4.146   1.644   4.254
 5533SOL    HW217499   4.293   1.586   4.214
 5534SOL     OW17500   0.707   1.275   5.438
 5534SOL    HW117501   0.625   1.226   5.410
 5534SOL    HW217502   0.681   1.360   5.484
 5535SOL     OW17503   1.137   1.621   3.120
 5535SOL    HW117504   1.057   1.566   3.098
 5535SOL    HW217505   1.219   1.578   3.083
 5536SOL     OW17506   2.732   1.072   5.204
 5536SOL    HW117507   2.692   1.038   5.289
 5536SOL    HW217508   2.763   1.166   5.217
 5537SOL     OW17509   3.386   1.357   2.821
 5537SOL    HW117510   3.429   1.326   2.906
 5537SOL    HW217511   3.392   1.456   2.814
 5538SOL     OW17512   4.817   5.650   4.813
 5538SOL    HW117513   4.870   5.568   4.792
 5538SOL    HW217514   4.725   5.642   4.775
 5539SOL     OW17515   2.155   2.718   1.107
 5539SOL    HW117516   2.194   2.806   1.081
 5539SOL    HW217517   2.225   2.647   1.103
 5540SOL     OW17518   5.084   5.268   2.891
 5540SOL    HW117519   5.090   5.215   2.975
 5540SOL    HW217520   5.105   5.364   2.911
 5541SOL     OW17521   4.879   1.426   5.980
 5541SOL    HW117522   4.967   1.426   6.027
 5541SOL    HW217523   4.884   1.485   5.899
 5542SOL     OW17524   4.235   4.962   6.255
 5542SOL    HW117525   4.300   4.897   6.294
 5542SOL    HW217526   4.281   5.049   6.237
 5543SOL     OW17527   6.301   3.030   6.351
 5543SOL    HW117528   6.396   3.058   6.343
 5543SOL    HW217529   6.245   3.083   6.288
 5544SOL     OW17530   5.720   0.939   5.549
 5544SOL    HW117531   5.731   0.986   5.636
 5544SOL    HW217532   5.627   0.902   5.543
 5545SOL     OW17533   3.868   2.163   2.211
 5545SOL    HW117534   3.814   2.183   2.129
 5545SOL    HW217535   3.961   2.137   2.185
 5546SOL     OW17536   2.104   5.161   5.827
 5546SOL    HW117537   2.059   5.168   5.738
 5546SOL    HW217538   2.039   5.185   5.899
 5547SOL     OW17539   3.004   5.072   5.338
 5547SOL    HW117540   3.001   4.973   5.328
 5547SOL    HW217541   3.089   5.107   5.298
 5548SOL     OW17542   6.645   3.649   5.285
 5548SOL    HW117543   6.703   3.725   5.315
 5548SOL    HW217544   6.688   3.603   5.207
 5549SOL     OW17545   2.648   4.950   0.166
 5549SOL    HW117546   2.709   4.996   0.103
 5549SOL    HW217547   2.577   5.013   0.198
 5550SOL     OW17548   3.960   6.212   1.262
 5550SOL    HW117549   4.033   6.192   1.327
 5550SOL    HW217550   3.922   6.303   1.280
 5551SOL     OW17551   1.057   1.326   3.357
 5551SOL    HW117552   1.124   1.299   3.288
 5551SOL    HW217553   1.011   1.245   3.392
 5552SOL     OW17554   0.263   2.337   1.284
 5552SOL    HW117555   0.353   2.320   1.323
 5552SOL    HW217556   0.202   2.261   1.309
 5553SOL     OW17557   5.492   6.182   0.756
 5553SOL    HW117558   5.413   6.166   0.815
 5553SOL    HW217559   5.566   6.222   0.809
 5554SOL     OW17560   2.748   2.232   5.063
 5554SOL    HW117561   2.813   2.264   5.133
 5554SOL    HW217562   2.740   2.133   5.068
 5555SOL     OW17563   0.264   5.041   3.765
 5555SOL    HW117564   0.345   4.987   3.785
 5555SOL    HW217565   0.282   5.099   3.686
 5556SOL     OW17566   0.449   2.184   5.082
 5556SOL    HW117567   0.535   2.230   5.063
 5556SOL    HW217568   0.466   2.086   5.094
 5557SOL     OW17569   1.872   0.182   3.945
 5557SOL    HW117570   1.949   0.239   3.973
 5557SOL    HW217571   1.905   0.107   3.888
 5558SOL     OW17572   5.160   3.010   5.346
 5558SOL    HW117573   5.095   2.965   5.408
 5558SOL    HW217574   5.120   3.095   5.312
 5559SOL     OW17575   2.164   0.333   1.043
 5559SOL    HW117576   2.241   0.394   1.024
 5559SOL    HW217577   2.080   0.386   1.045
 5560SOL     OW17578   0.095   0.888   3.704
 5560SOL    HW117579   0.065   0.897   3.609
 5560SOL    HW217580   0.054   0.961   3.758
 5561SOL     OW17581   1.738   2.664   3.529
 5561SOL    HW117582   1.645   2.675   3.494
 5561SOL    HW217583   1.746   2.574   3.573
 5562SOL     OW17584   2.578   3.136   6.191
 5562SOL    HW117585   2.616   3.075   6.261
 5562SOL    HW217586   2.614   3.109   6.101
 5563SOL     OW17587   4.546   5.827   1.778
 5563SOL    HW117588   4.519   5.922   1.791
 5563SOL    HW217589   4.645   5.821   1.768
 5564SOL     OW17590   5.305   4.117   1.733
 5564SOL    HW117591   5.277   4.099   1.827
 5564SOL    HW217592   5.395   4.077   1.716
 5565SOL     OW17593   3.433   3.085   5.350
 5565SOL    HW117594   3.510   3.097   5.287
 5565SOL    HW217595   3.355   3.140   5.318
 5566SOL     OW17596   1.763   4.980   1.243
 5566SOL    HW117597   1.745   4.987   1.341
 5566SOL    HW217598   1.682   4.945   1.197
 5567SOL     OW17599   1.323   5.334   2.075
 5567SOL    HW117600   1.365   5.415   2.115
 5567SOL    HW217601   1.362   5.252   2.117
 5568SOL     OW17602   3.312   1.619   1.546
 5568SOL    HW117603   3.400   1.643   1.504
 5568SOL    HW217604   3.252   1.577   1.479
 5569SOL     OW17605   4.905   1.537   0.147
 5569SOL    HW117606   4.818   1.514   0.192
 5569SOL    HW217607   4.976   1.473   0.176
 5570SOL     OW17608   0.008   3.776   5.835
 5570SOL    HW117609   6.951   3.822   5.795
 5570SOL    HW217610   0.073   3.750   5.764
 5571SOL     OW17611   6.868   4.855   6.777
 5571SOL    HW117612   6.871   4.758   6.801
 5571SOL    HW217613   6.782   4.895   6.809
 5572SOL     OW17614   4.880   2.465   6.569
 5572SOL    HW117615   4.792   2.462   6.618
 5572SOL    HW217616   4.890   2.381   6.515
 5573SOL     OW17617   1.338   3.846   0.786
 5573SOL    HW117618   1.274   3.920   0.806
 5573SOL    HW217619   1.380   3.814   0.872
 5574SOL     OW17620   0.670   5.984   5.136
 5574SOL    HW117621   0.662   6.038   5.052
 5574SOL    HW217622   0.714   6.039   5.206
 5575SOL     OW17623   1.481   1.180   0.935
 5575SOL    HW117624   1.477   1.147   0.841
 5575SOL    HW217625   1.508   1.105   0.995
 5576SOL     OW17626   6.127   6.334   0.069
 5576SOL    HW117627   6.088   6.303   7.005
 5576SOL    HW217628   6.205   6.395   0.051
 5577SOL     OW17629   2.160   4.142   5.566
 5577SOL    HW117630   2.063   4.162   5.582
 5577SOL    HW217631   2.170   4.050   5.529
 5578SOL     OW17632   4.115   2.762   6.746
 5578SOL    HW117633   4.123   2.691   6.677
 5578SOL    HW217634   4.204   2.804   6.761
 5579SOL     OW17635   4.925   4.237   6.591
 5579SOL    HW117636   4.958   4.154   6.548
 5579SOL    HW217637   4.869   4.214   6.670
 5580SOL     OW17638   6.044   1.452   0.832
 5580SOL    HW117639   6.041   1.353   0.823
 5580SOL    HW217640   6.117   1.489   0.774
 5581SOL     OW17641   2.466   2.024   6.330
 5581SOL    HW117642   2.489   2.093   6.262
 5581SOL    HW217643   2.541   1.958   6.338
 5582SOL     OW17644   4.026   3.274   3.667
 5582SOL    HW117645   3.977   3.360   3.681
 5582SOL    HW217646   3.982   3.202   3.721
 5583SOL     OW17647   4.070   6.861   1.549
 5583SOL    HW117648   3.974   6.833   1.554
 5583SOL    HW217649   4.092   6.917   1.629
 5584SOL     OW17650   6.694   2.951   3.219
 5584SOL    HW117651   6.712   2.859   3.184
 5584SOL    HW217652   6.714   3.018   3.148
 5585SOL     OW17653   6.126   0.440   4.356
 5585SOL    HW117654   6.156   0.535   4.367
 5585SOL    HW217655   6.186   0.394   4.290
 5586SOL     OW17656   1.927   0.730   6.064
 5586SOL    HW117657   1.833   0.696   6.052
 5586SOL    HW217658   1.953   0.782   5.982
 5587SOL     OW17659   3.494   0.284   3.956
 5587SOL    HW117660   3.462   0.278   3.861
 5587SOL    HW217661   3.587   0.319   3.957
 5588SOL     OW17662   3.765   0.051   6.327
 5588SOL    HW117663   3.759   6.974   6.341
 5588SOL    HW217664   3.701   0.078   6.255
 5589SOL     OW17665   4.729   2.912   0.036
 5589SOL    HW117666   4.693   2.998   0.071
 5589SOL    HW217667   4.674   2.836   0.070
 5590SOL     OW17668   6.856   6.103   3.687
 5590SOL    HW117669   6.930   6.123   3.752
 5590SOL    HW217670   6.785   6.050   3.733
 5591SOL     OW17671   4.892   1.050   0.134
 5591SOL    HW117672   4.832   1.088   0.205
 5591SOL    HW217673   4.911   0.955   0.155
 5592SOL     OW17674   1.930   2.657   2.843
 5592SOL    HW117675   1.980   2.578   2.878
 5592SOL    HW217676   1.933   2.731   2.910
 5593SOL     OW17677   1.854   3.183   5.921
 5593SOL    HW117678   1.801   3.152   6.000
 5593SOL    HW217679   1.920   3.112   5.895
 5594SOL     OW17680   1.931   0.905   6.998
 5594SOL    HW117681   1.887   0.966   0.041
 5594SOL    HW217682   1.867   0.833   6.972
 5595SOL     OW17683   6.546   2.318   5.746
 5595SOL    HW117684   6.591   2.242   5.793
 5595SOL    HW217685   6.451   2.293   5.726
 5596SOL     OW17686   4.654   1.262   3.573
 5596SOL    HW117687   4.571   1.211   3.550
 5596SOL    HW217688   4.659   1.345   3.518
 5597SOL     OW17689   7.010   1.238   6.244
 5597SOL    HW117690   0.027   1.188   6.166
 5597SOL    HW217691   6.945   1.179   6.292
 5598SOL     OW17692   6.541   2.032   4.365
 5598SOL    HW117693   6.612   2.078   4.311
 5598SOL    HW217694   6.452   2.045   4.321
 5599SOL     OW17695   5.192   3.213   3.263
 5599SOL    HW117696   5.220   3.118   3.279
 5599SOL    HW217697   5.122   3.239   3.330
 5600SOL     OW17698   2.573   1.467   2.365
 5600SOL    HW117699   2.641   1.413   2.317
 5600SOL    HW217700   2.484   1.421   2.361
 5601SOL     OW17701   5.684   2.578   5.592
 5601SOL    HW117702   5.618   2.503   5.582
 5601SOL    HW217703   5.651   2.657   5.540
 5602SOL     OW17704   6.952   2.210   2.946
 5602SOL    HW117705   6.982   2.291   2.896
 5602SOL    HW217706   6.893   2.155   2.887
 5603SOL     OW17707   4.152   1.697   4.873
 5603SOL    HW117708   4.228   1.641   4.907
 5603SOL    HW217709   4.073   1.685   4.932
 5604SOL     OW17710   1.086   0.356   4.438
 5604SOL    HW117711   1.029   0.276   4.422
 5604SOL    HW217712   1.145   0.340   4.518
 5605SOL     OW17713   3.058   6.289   4.231
 5605SOL    HW117714   3.070   6.302   4.133
 5605SOL    HW217715   3.051   6.191   4.251
 5606SOL     OW17716   4.588   2.534   0.829
 5606SOL    HW117717   4.580   2.533   0.729
 5606SOL    HW217718   4.665   2.591   0.856
 5607SOL     OW17719   6.507   2.353   2.641
 5607SOL    HW117720   6.553   2.282   2.587
 5607SOL    HW217721   6.429   2.388   2.590
 5608SOL     OW17722   5.188   0.589   3.675
 5608SOL    HW117723   5.180   0.533   3.592
 5608SOL    HW217724   5.210   0.683   3.649
 5609SOL     OW17725   6.719   0.197   0.668
 5609SOL    HW117726   6.788   0.227   0.602
 5609SOL    HW217727   6.759   0.195   0.760
 5610SOL     OW17728   5.294   4.659   0.546
 5610SOL    HW117729   5.331   4.566   0.538
 5610SOL    HW217730   5.293   4.687   0.642
 5611SOL     OW17731   6.759   4.571   1.337
 5611SOL    HW117732   6.760   4.504   1.263
 5611SOL    HW217733   6.717   4.530   1.418
 5612SOL     OW17734   3.048   1.489   0.554
 5612SOL    HW117735   3.049   1.415   0.486
 5612SOL    HW217736   3.029   1.576   0.507
 5613SOL     OW17737   6.523   5.111   5.886
 5613SOL    HW117738   6.570   5.183   5.938
 5613SOL    HW217739   6.565   5.103   5.795
 5614SOL     OW17740   5.636   2.498   3.847
 5614SOL    HW117741   5.570   2.490   3.922
 5614SOL    HW217742   5.694   2.578   3.862
 5615SOL     OW17743   0.203   3.108   3.065
 5615SOL    HW117744   0.143   3.095   3.144
 5615SOL    HW217745   0.153   3.159   2.995
 5616SOL     OW17746   1.360   3.292   2.398
 5616SOL    HW117747   1.458   3.288   2.380
 5616SOL    HW217748   1.315   3.212   2.359
 5617SOL     OW17749   1.937   5.206   6.062
 5617SOL    HW117750   1.840   5.184   6.055
 5617SOL    HW217751   1.984   5.135   6.115
 5618SOL     OW17752   6.512   5.926   3.100
 5618SOL    HW117753   6.515   6.019   3.063
 5618SOL    HW217754   6.605   5.896   3.124
 5619SOL     OW17755   3.489   2.906   3.884
 5619SOL    HW117756   3.390   2.904   3.898
 5619SOL    HW217757   3.535   2.887   3.971
 5620SOL     OW17758   5.115   4.417   5.177
 5620SOL    HW117759   5.070   4.332   5.203
 5620SOL    HW217760   5.080   4.492   5.234
 5621SOL     OW17761   1.155   2.436   5.403
 5621SOL    HW117762   1.111   2.413   5.317
 5621SOL    HW217763   1.197   2.527   5.396
 5622SOL     OW17764   4.444   6.205   4.392
 5622SOL    HW117765   4.508   6.275   4.424
 5622SOL    HW217766   4.495   6.124   4.362
 5623SOL     OW17767   4.902   5.717   3.728
 5623SOL    HW117768   4.965   5.747   3.657
 5623SOL    HW217769   4.809   5.747   3.706
 5624SOL     OW17770   6.434   5.458   4.181
 5624SOL    HW117771   6.338   5.431   4.172
 5624SOL    HW217772   6.492   5.390   4.135
 5625SOL     OW17773   0.787   6.170   5.328
 5625SOL    HW117774   0.887   6.175   5.328
 5625SOL    HW217775   0.754   6.183   5.422
 5626SOL     OW17776   0.939   4.576   5.699
 5626SOL    HW117777   0.868   4.509   5.720
 5626SOL    HW217778   1.001   4.585   5.777
 5627SOL     OW17779   0.809   5.817   0.044
 5627SOL    HW117780   0.890   5.858   0.002
 5627SOL    HW217781   0.798   5.853   0.137
 5628SOL     OW17782   2.391   2.517   1.860
 5628SOL    HW117783   2.490   2.503   1.855
 5628SOL    HW217784   2.373   2.601   1.912
 5629SOL     OW17785   5.295   3.713   1.815
 5629SOL    HW117786   5.257   3.805   1.825
 5629SOL    HW217787   5.379   3.706   1.870
 5630SOL     OW17788   1.340   4.458   6.946
 5630SOL    HW117789   1.289   4.521   6.887
 5630SOL    HW217790   1.287   4.374   6.958
 5631SOL     OW17791   4.221   1.371   1.622
 5631SOL    HW117792   4.290   1.360   1.550
 5631SOL    HW217793   4.140   1.415   1.584
 5632SOL     OW17794   5.219   6.838   5.586
 5632SOL    HW117795   5.239   6.934   5.563
 5632SOL    HW217796   5.221   6.827   5.685
 5633SOL     OW17797   0.414   4.960   5.879
 5633SOL    HW117798   0.494   5.004   5.919
 5633SOL    HW217799   0.350   5.029   5.847
 5634SOL     OW17800   2.471   6.878   1.067
 5634SOL    HW117801   2.472   6.791   1.019
 5634SOL    HW217802   2.482   6.953   1.001
 5635SOL     OW17803   2.013   1.033   6.521
 5635SOL    HW117804   2.103   1.010   6.557
 5635SOL    HW217805   2.006   1.004   6.426
 5636SOL     OW17806   5.849   1.597   5.522
 5636SOL    HW117807   5.845   1.634   5.615
 5636SOL    HW217808   5.929   1.634   5.474
 5637SOL     OW17809   4.485   6.642   4.512
 5637SOL    HW117810   4.553   6.715   4.501
 5637SOL    HW217811   4.475   6.593   4.425
 5638SOL     OW17812   6.165   5.399   1.193
 5638SOL    HW117813   6.090   5.339   1.223
 5638SOL    HW217814   6.237   5.343   1.152
 5639SOL     OW17815   1.387   0.414   0.922
 5639SOL    HW117816   1.339   0.494   0.957
 5639SOL    HW217817   1.323   0.339   0.910
 5640SOL     OW17818   2.872   5.725   2.755
 5640SOL    HW117819   2.872   5.805   2.695
 5640SOL    HW217820   2.805   5.659   2.723
 5641SOL     OW17821   0.778   4.224   4.128
 5641SOL    HW117822   0.710   4.152   4.130
 5641SOL    HW217823   0.810   4.243   4.221
 5642SOL     OW17824   1.610   4.832   0.030
 5642SOL    HW117825   1.683   4.765   0.043
 5642SOL    HW217826   1.582   4.869   0.119
 5643SOL     OW17827   4.315   2.233   4.881
 5643SOL    HW117828   4.285   2.318   4.924
 5643SOL    HW217829   4.285   2.155   4.936
 5644SOL     OW17830   4.207   0.674   4.968
 5644SOL    HW117831   4.177   0.735   4.894
 5644SOL    HW217832   4.154   0.589   4.965
 5645SOL     OW17833   5.320   5.449   4.391
 5645SOL    HW117834   5.252   5.381   4.366
 5645SOL    HW217835   5.293   5.494   4.476
 5646SOL     OW17836   0.420   6.123   4.527
 5646SOL    HW117837   0.504   6.177   4.529
 5646SOL    HW217838   0.415   6.066   4.609
 5647SOL     OW17839   5.641   5.245   5.952
 5647SOL    HW117840   5.683   5.333   5.977
 5647SOL    HW217841   5.549   5.240   5.991
 5648SOL     OW17842   1.685   1.871   4.495
 5648SOL    HW117843   1.722   1.782   4.521
 5648SOL    HW217844   1.601   1.859   4.442
 5649SOL     OW17845   0.317   1.083   5.445
 5649SOL    HW117846   0.276   0.993   5.429
 5649SOL    HW217847   0.410   1.072   5.480
 5650SOL     OW17848   6.130   4.924   6.737
 5650SOL    HW117849   6.115   5.000   6.674
 5650SOL    HW217850   6.061   4.854   6.722
 5651SOL     OW17851   6.888   0.326   2.844
 5651SOL    HW117852   6.923   0.380   2.767
 5651SOL    HW217853   6.823   0.382   2.896
 5652SOL     OW17854   4.681   4.998   0.841
 5652SOL    HW117855   4.615   5.041   0.902
 5652SOL    HW217856   4.669   4.899   0.843
 5653SOL     OW17857   0.977   6.225   6.120
 5653SOL    HW117858   1.016   6.258   6.034
 5653SOL    HW217859   1.009   6.132   6.137
 5654SOL     OW17860   6.733   6.578   5.689
 5654SOL    HW117861   6.668   6.651   5.708
 5654SOL    HW217862   6.690   6.509   5.631
 5655SOL     OW17863   6.633   3.266   4.053
 5655SOL    HW117864   6.539   3.236   4.034
 5655SOL    HW217865   6.691   3.246   3.974
 5656SOL     OW17866   3.561   4.404   0.482
 5656SOL    HW117867   3.517   4.326   0.528
 5656SOL    HW217868   3.658   4.406   0.506
 5657SOL     OW17869   3.841   0.188   1.719
 5657SOL    HW117870   3.812   0.268   1.666
 5657SOL    HW217871   3.761   0.140   1.754
 5658SOL     OW17872   4.016   6.724   5.968
 5658SOL    HW117873   3.970   6.799   6.015
 5658SOL    HW217874   3.988   6.721   5.872
 5659SOL     OW17875   3.018   3.960   2.747
 5659SOL    HW117876   3.014   3.988   2.651
 5659SOL    HW217877   3.089   4.012   2.794
 5660SOL     OW17878   5.708   6.577   6.907
 5660SOL    HW117879   5.681   6.665   6.946
 5660SOL    HW217880   5.686   6.504   6.972
 5661SOL     OW17881   5.897   5.438   4.095
 5661SOL    HW117882   5.978   5.465   4.146
 5661SOL    HW217883   5.823   5.415   4.158
 5662SOL     OW17884   2.341   4.722   4.112
 5662SOL    HW117885   2.250   4.709   4.074
 5662SOL    HW217886   2.399   4.769   4.045
 5663SOL     OW17887   1.453   4.427   0.555
 5663SOL    HW117888   1.451   4.341   0.504
 5663SOL    HW217889   1.476   4.409   0.651
 5664SOL     OW17890   0.266   4.455   2.368
 5664SOL    HW117891   0.359   4.424   2.345
 5664SOL    HW217892   0.267   4.554   2.382
 5665SOL     OW17893   2.425   2.989   5.859
 5665SOL    HW117894   2.362   3.017   5.932
 5665SOL    HW217895   2.403   2.896   5.829
 5666SOL     OW17896   5.546   4.163   1.205
 5666SOL    HW117897   5.471   4.199   1.260
 5666SOL    HW217898   5.518   4.077   1.162
 5667SOL     OW17899   0.116   4.750   3.175
 5667SOL    HW117900   0.154   4.664   3.141
 5667SOL    HW217901   0.044   4.730   3.242
 5668SOL     OW17902   5.663   2.162   6.212
 5668SOL    HW117903   5.659   2.192   6.307
 5668SOL    HW217904   5.735   2.212   6.164
 5669SOL     OW17905   0.320   4.562   6.179
 5669SOL    HW117906   0.376   4.501   6.122
 5669SOL    HW217907   0.245   4.599   6.125
 5670SOL     OW17908   0.480   3.843   3.768
 5670SOL    HW117909   0.517   3.930   3.736
 5670SOL    HW217910   0.539   3.768   3.738
 5671SOL     OW17911   1.140   0.885   5.904
 5671SOL    HW117912   1.222   0.940   5.888
 5671SOL    HW217913   1.162   0.788   5.892
 5672SOL     OW17914   4.638   4.902   5.866
 5672SOL    HW117915   4.599   4.854   5.943
 5672SOL    HW217916   4.737   4.911   5.878
 5673SOL     OW17917   0.436   0.527   2.323
 5673SOL    HW117918   0.459   0.455   2.389
 5673SOL    HW217919   0.368   0.492   2.259
 5674SOL     OW17920   6.697   3.402   1.697
 5674SOL    HW117921   6.779   3.419   1.642
 5674SOL    HW217922   6.697   3.307   1.729
 5675SOL     OW17923   4.541   2.227   5.340
 5675SOL    HW117924   4.443   2.249   5.348
 5675SOL    HW217925   4.570   2.238   5.245
 5676SOL     OW17926   2.392   0.253   1.884
 5676SOL    HW117927   2.451   0.184   1.925
 5676SOL    HW217928   2.402   0.252   1.785
 5677SOL     OW17929   6.395   0.895   3.360
 5677SOL    HW117930   6.483   0.932   3.332
 5677SOL    HW217931   6.385   0.803   3.322
 5678SOL     OW17932   2.724   6.550   3.056
 5678SOL    HW117933   2.677   6.462   3.060
 5678SOL    HW217934   2.822   6.535   3.042
 5679SOL     OW17935   1.940   6.770   5.155
 5679SOL    HW117936   1.940   6.869   5.144
 5679SOL    HW217937   1.868   6.730   5.098
 5680SOL     OW17938   1.730   5.681   6.467
 5680SOL    HW117939   1.794   5.755   6.487
 5680SOL    HW217940   1.779   5.603   6.430
 5681SOL     OW17941   1.314   3.082   6.652
 5681SOL    HW117942   1.271   3.110   6.566
 5681SOL    HW217943   1.413   3.086   6.642
 5682SOL     OW17944   1.519   3.602   5.393
 5682SOL    HW117945   1.565   3.530   5.342
 5682SOL    HW217946   1.436   3.629   5.344
 5683SOL     OW17947   3.282   2.605   5.737
 5683SOL    HW117948   3.354   2.661   5.696
 5683SOL    HW217949   3.203   2.663   5.759
 5684SOL     OW17950   3.470   3.979   3.724
 5684SOL    HW117951   3.423   3.900   3.685
 5684SOL    HW217952   3.410   4.025   3.789
 5685SOL     OW17953   6.975   5.150   2.086
 5685SOL    HW117954   6.895   5.100   2.052
 5685SOL    HW217955   6.977   5.241   2.045
 5686SOL     OW17956   3.600   0.031   0.713
 5686SOL    HW117957   3.527   6.989   0.686
 5686SOL    HW217958   3.636   0.076   0.631
 5687SOL     OW17959   5.090   4.976   5.367
 5687SOL    HW117960   5.143   4.993   5.284
 5687SOL    HW217961   4.993   4.978   5.345
 5688SOL     OW17962   5.583   1.754   1.680
 5688SOL    HW117963   5.563   1.676   1.621
 5688SOL    HW217964   5.537   1.835   1.646
 5689SOL     OW17965   3.819   2.155   0.772
 5689SOL    HW117966   3.888   2.226   0.784
 5689SOL    HW217967   3.729   2.197   0.762
 5690SOL     OW17968   5.068   6.235   1.035
 5690SOL    HW117969   5.060   6.303   0.963
 5690SOL    HW217970   5.145   6.258   1.095
 5691SOL     OW17971   2.094   0.268   1.915
 5691SOL    HW117972   2.048   0.201   1.856
 5691SOL    HW217973   2.193   0.252   1.912
 5692SOL     OW17974   6.537   2.726   6.850
 5692SOL    HW117975   6.488   2.804   6.890
 5692SOL    HW217976   6.554   2.744   6.753
 5693SOL     OW17977   4.742   2.505   2.645
 5693SOL    HW117978   4.823   2.529   2.699
 5693SOL    HW217979   4.702   2.588   2.606
 5694SOL     OW17980   0.111   1.225   3.575
 5694SOL    HW117981   0.146   1.317   3.556
 5694SOL    HW217982   0.179   1.157   3.548
 5695SOL     OW17983   1.774   3.462   3.361
 5695SOL    HW117984   1.699   3.478   3.426
 5695SOL    HW217985   1.862   3.476   3.407
 5696SOL     OW17986   2.962   0.507   4.744
 5696SOL    HW117987   2.891   0.524   4.676
 5696SOL    HW217988   2.924   0.513   4.836
 5697SOL     OW17989   6.359   2.485   0.227
 5697SOL    HW117990   6.430   2.463   0.293
 5697SOL    HW217991   6.345   2.584   0.226
 5698SOL     OW17992   0.915   3.570   1.959
 5698SOL    HW117993   1.004   3.604   1.989
 5698SOL    HW217994   0.921   3.540   1.863
 5699SOL     OW17995   5.654   0.546   5.080
 5699SOL    HW117996   5.700   0.610   5.018
 5699SOL    HW217997   5.720   0.477   5.111
 5700SOL     OW17998   1.662   6.146   4.551
 5700SOL    HW117999   1.617   6.179   4.468
 5700SOL    HW218000   1.649   6.047   4.558
 5701SOL     OW18001   6.356   5.070   1.703
 5701SOL    HW118002   6.421   5.143   1.682
 5701SOL    HW218003   6.264   5.100   1.678
 5702SOL     OW18004   2.490   0.692   6.403
 5702SOL    HW118005   2.482   0.621   6.333
 5702SOL    HW218006   2.461   0.655   6.491
 5703SOL     OW18007   4.432   4.891   0.284
 5703SOL    HW118008   4.501   4.922   0.217
 5703SOL    HW218009   4.341   4.918   0.252
 5704SOL     OW18010   4.598   5.345   3.856
 5704SOL    HW118011   4.592   5.248   3.882
 5704SOL    HW218012   4.558   5.401   3.928
 5705SOL     OW18013   6.167   0.379   1.401
 5705SOL    HW118014   6.200   0.454   1.459
 5705SOL    HW218015   6.068   0.387   1.390
 5706SOL     OW18016   0.895   1.096   6.850
 5706SOL    HW118017   0.955   1.027   6.809
 5706SOL    HW218018   0.893   1.083   6.949
 5707SOL     OW18019   2.234   1.472   6.545
 5707SOL    HW118020   2.195   1.407   6.610
 5707SOL    HW218021   2.161   1.526   6.503
 5708SOL     OW18022   5.006   6.859   2.696
 5708SOL    HW118023   4.933   6.928   2.698
 5708SOL    HW218024   5.055   6.860   2.783
 5709SOL     OW18025   0.373   6.692   2.998
 5709SOL    HW118026   0.414   6.684   3.089
 5709SOL    HW218027   0.274   6.700   3.007
 5710SOL     OW18028   3.368   3.235   5.989
 5710SOL    HW118029   3.295   3.266   5.928
 5710SOL    HW218030   3.328   3.188   6.068
 5711SOL     OW18031   4.356   0.961   4.095
 5711SOL    HW118032   4.397   1.019   4.165
 5711SOL    HW218033   4.283   0.906   4.136
 5712SOL     OW18034   0.164   6.543   6.161
 5712SOL    HW118035   0.096   6.470   6.155
 5712SOL    HW218036   0.208   6.554   6.072
 5713SOL     OW18037   6.870   2.786   2.667
 5713SOL    HW118038   6.967   2.765   2.677
 5713SOL    HW218039   6.822   2.767   2.752
 5714SOL     OW18040   1.311   1.108   5.830
 5714SOL    HW118041   1.269   1.180   5.885
 5714SOL    HW218042   1.340   1.146   5.742
 5715SOL     OW18043   1.751   6.470   2.441
 5715SOL    HW118044   1.686   6.463   2.365
 5715SOL    HW218045   1.710   6.430   2.523
 5716SOL     OW18046   1.844   3.718   5.933
 5716SOL    HW118047   1.907   3.753   5.864
 5716SOL    HW218048   1.896   3.675   6.007
 5717SOL     OW18049   0.992   4.157   0.485
 5717SOL    HW118050   1.091   4.159   0.472
 5717SOL    HW218051   0.969   4.202   0.571
 5718SOL     OW18052   3.008   4.636   6.686
 5718SOL    HW118053   2.928   4.671   6.735
 5718SOL    HW218054   3.062   4.579   6.748
 5719SOL     OW18055   3.199   0.616   6.812
 5719SOL    HW118056   3.144   0.536   6.788
 5719SOL    HW218057   3.156   0.665   6.887
 5720SOL     OW18058   1.675   5.249   5.359
 5720SOL    HW118059   1.705   5.341   5.335
 5720SOL    HW218060   1.645   5.201   5.277
 5721SOL     OW18061   0.338   3.427   1.459
 5721SOL    HW118062   0.413   3.487   1.432
 5721SOL    HW218063   0.350   3.337   1.417
 5722SOL     OW18064   5.102   6.673   4.693
 5722SOL    HW118065   5.121   6.678   4.791
 5722SOL    HW218066   5.181   6.636   4.645
 5723SOL     OW18067   3.699   5.495   0.340
 5723SOL    HW118068   3.609   5.528   0.370
 5723SOL    HW218069   3.765   5.506   0.415
 5724SOL     OW18070   5.389   2.038   6.055
 5724SOL    HW118071   5.394   2.042   5.956
 5724SOL    HW218072   5.464   1.983   6.091
 5725SOL     OW18073   5.659   4.912   5.025
 5725SOL    HW118074   5.717   4.860   5.087
 5725SOL    HW218075   5.694   4.904   4.931
 5726SOL     OW18076   5.914   3.789   5.984
 5726SOL    HW118077   5.943   3.739   5.902
 5726SOL    HW218078   5.850   3.733   6.035
 5727SOL     OW18079   5.641   1.816   3.446
 5727SOL    HW118080   5.623   1.895   3.505
 5727SOL    HW218081   5.580   1.741   3.472
 5728SOL     OW18082   5.951   0.663   4.722
 5728SOL    HW118083   6.005   0.726   4.778
 5728SOL    HW218084   5.971   0.678   4.626
 5729SOL     OW18085   0.181   1.811   6.474
 5729SOL    HW118086   0.090   1.846   6.452
 5729SOL    HW218087   0.200   1.729   6.421
 5730SOL     OW18088   3.901   4.872   5.835
 5730SOL    HW118089   3.872   4.825   5.751
 5730SOL    HW218090   3.899   4.808   5.912
 5731SOL     OW18091   2.949   0.870   4.039
 5731SOL    HW118092   2.996   0.795   4.087
 5731SOL    HW218093   2.936   0.844   3.943
 5732SOL     OW18094   6.321   5.024   5.343
 5732SOL    HW118095   6.229   4.986   5.333
 5732SOL    HW218096   6.332   5.061   5.436
 5733SOL     OW18097   3.619   0.987   0.173
 5733SOL    HW118098   3.594   0.893   0.198
 5733SOL    HW218099   3.695   0.985   0.108
 5734SOL     OW18100   1.530   6.411   5.891
 5734SOL    HW118101   1.453   6.359   5.855
 5734SOL    HW218102   1.613   6.356   5.885
 5735SOL     OW18103   4.165   0.504   2.274
 5735SOL    HW118104   4.189   0.426   2.216
 5735SOL    HW218105   4.152   0.585   2.217
 5736SOL     OW18106   4.789   4.095   6.775
 5736SOL    HW118107   4.747   4.006   6.792
 5736SOL    HW218108   4.718   4.164   6.761
 5737SOL     OW18109   4.763   5.443   1.230
 5737SOL    HW118110   4.727   5.361   1.273
 5737SOL    HW218111   4.724   5.452   1.138
 5738SOL     OW18112   3.404   1.032   6.634
 5738SOL    HW118113   3.494   1.035   6.592
 5738SOL    HW218114   3.393   1.110   6.696
 5739SOL     OW18115   3.037   0.622   5.671
 5739SOL    HW118116   3.035   0.574   5.583
 5739SOL    HW218117   3.087   0.708   5.660
 5740SOL     OW18118   5.294   3.750   1.478
 5740SOL    HW118119   5.283   3.713   1.386
 5740SOL    HW218120   5.229   3.706   1.540
 5741SOL     OW18121   0.623   3.668   4.278
 5741SOL    HW118122   0.528   3.638   4.283
 5741SOL    HW218123   0.651   3.673   4.182
 5742SOL     OW18124   4.108   0.381   3.458
 5742SOL    HW118125   4.090   0.428   3.371
 5742SOL    HW218126   4.161   0.441   3.518
 5743SOL     OW18127   3.396   3.918   5.458
 5743SOL    HW118128   3.448   3.996   5.422
 5743SOL    HW218129   3.360   3.864   5.382
 5744SOL     OW18130   5.722   6.389   3.007
 5744SOL    HW118131   5.635   6.351   3.039
 5744SOL    HW218132   5.796   6.359   3.068
 5745SOL     OW18133   2.348   2.678   3.631
 5745SOL    HW118134   2.376   2.696   3.726
 5745SOL    HW218135   2.249   2.683   3.624
 5746SOL     OW18136   4.223   0.158   3.561
 5746SOL    HW118137   4.254   0.175   3.654
 5746SOL    HW218138   4.185   0.242   3.522
 5747SOL     OW18139   1.023   5.668   1.743
 5747SOL    HW118140   0.983   5.591   1.693
 5747SOL    HW218141   0.954   5.708   1.804
 5748SOL     OW18142   0.381   6.038   0.840
 5748SOL    HW118143   0.305   6.023   0.904
 5748SOL    HW218144   0.351   6.096   0.765
 5749SOL     OW18145   1.575   6.549   4.806
 5749SOL    HW118146   1.521   6.474   4.846
 5749SOL    HW218147   1.549   6.561   4.711
 5750SOL     OW18148   6.936   4.437   4.323
 5750SOL    HW118149   6.883   4.352   4.317
 5750SOL    HW218150   6.876   4.515   4.305
 5751SOL     OW18151   2.165   3.774   4.324
 5751SOL    HW118152   2.136   3.680   4.309
 5751SOL    HW218153   2.148   3.800   4.419
 5752SOL     OW18154   5.238   0.057   0.845
 5752SOL    HW118155   5.210   0.036   0.938
 5752SOL    HW218156   5.255   6.994   0.795
 5753SOL     OW18157   3.352   4.085   4.885
 5753SOL    HW118158   3.286   4.092   4.960
 5753SOL    HW218159   3.307   4.108   4.799
 5754SOL     OW18160   0.913   6.282   1.701
 5754SOL    HW118161   0.883   6.313   1.611
 5754SOL    HW218162   0.887   6.186   1.714
 5755SOL     OW18163   2.390   2.250   6.955
 5755SOL    HW118164   2.396   2.211   6.863
 5755SOL    HW218165   2.358   2.345   6.949
 5756SOL     OW18166   5.727   5.900   1.723
 5756SOL    HW118167   5.665   5.822   1.715
 5756SOL    HW218168   5.682   5.983   1.690
 5757SOL     OW18169   6.964   0.019   3.339
 5757SOL    HW118170   6.886   0.009   3.279
 5757SOL    HW218171   0.008   0.082   3.299
 5758SOL     OW18172   1.250   6.636   3.291
 5758SOL    HW118173   1.325   6.578   3.320
 5758SOL    HW218174   1.278   6.691   3.212
 5759SOL     OW18175   3.987   6.547   1.473
 5759SOL    HW118176   3.949   6.613   1.537
 5759SOL    HW218177   3.917   6.521   1.406
 5760SOL     OW18178   6.870   3.299   1.895
 5760SOL    HW118179   6.794   3.235   1.906
 5760SOL    HW218180   6.907   3.323   1.985
 5761SOL     OW18181   5.157   5.424   4.796
 5761SOL    HW118182   5.214   5.491   4.843
 5761SOL    HW218183   5.205   5.336   4.793
 5762SOL     OW18184   5.397   4.206   6.906
 5762SOL    HW118185   5.398   4.298   6.866
 5762SOL    HW218186   5.356   4.209   6.997
 5763SOL     OW18187   5.612   0.192   0.735
 5763SOL    HW118188   5.711   0.192   0.718
 5763SOL    HW218189   5.595   0.185   0.833
 5764SOL     OW18190   4.385   5.302   3.222
 5764SOL    HW118191   4.381   5.218   3.168
 5764SOL    HW218192   4.472   5.307   3.271
 5765SOL     OW18193   6.347   4.750   1.283
 5765SOL    HW118194   6.345   4.796   1.195
 5765SOL    HW218195   6.439   4.759   1.323
 5766SOL     OW18196   0.748   1.771   4.561
 5766SOL    HW118197   0.775   1.799   4.469
 5766SOL    HW218198   0.803   1.819   4.629
 5767SOL     OW18199   2.132   0.057   0.966
 5767SOL    HW118200   2.163   0.149   0.988
 5767SOL    HW218201   2.180   7.012   1.023
 5768SOL     OW18202   6.653   6.440   3.921
 5768SOL    HW118203   6.680   6.354   3.964
 5768SOL    HW218204   6.590   6.421   3.846
 5769SOL     OW18205   1.299   5.149   6.321
 5769SOL    HW118206   1.337   5.058   6.309
 5769SOL    HW218207   1.368   5.209   6.362
 5770SOL     OW18208   0.774   5.749   1.301
 5770SOL    HW118209   0.766   5.691   1.382
 5770SOL    HW218210   0.855   5.807   1.310
 5771SOL     OW18211   1.967   5.122   4.264
 5771SOL    HW118212   1.900   5.189   4.231
 5771SOL    HW218213   1.931   5.030   4.249
 5772SOL     OW18214   4.629   6.917   2.131
 5772SOL    HW118215   4.534   6.927   2.162
 5772SOL    HW218216   4.654   6.821   2.130
 5773SOL     OW18217   4.739   2.231   1.951
 5773SOL    HW118218   4.661   2.169   1.945
 5773SOL    HW218219   4.719   2.315   1.901
 5774SOL     OW18220   0.996   6.776   3.351
 5774SOL    HW118221   1.009   6.680   3.376
 5774SOL    HW218222   1.058   6.800   3.276
 5775SOL     OW18223   0.540   5.527   2.508
 5775SOL    HW118224   0.622   5.553   2.457
 5775SOL    HW218225   0.498   5.609   2.547
 5776SOL     OW18226   2.023   0.054   2.782
 5776SOL    HW118227   1.974   0.008   2.856
 5776SOL    HW218228   2.122   0.040   2.794
 5777SOL     OW18229   1.078   0.351   3.212
 5777SOL    HW118230   1.009   0.402   3.263
 5777SOL    HW218231   1.090   0.260   3.253
 5778SOL     OW18232   1.180   1.351   6.612
 5778SOL    HW118233   1.141   1.331   6.702
 5778SOL    HW218234   1.107   1.380   6.550
 5779SOL     OW18235   4.608   2.188   6.846
 5779SOL    HW118236   4.559   2.246   6.911
 5779SOL    HW218237   4.619   2.238   6.760
 5780SOL     OW18238   5.264   4.943   4.379
 5780SOL    HW118239   5.298   4.850   4.393
 5780SOL    HW218240   5.327   4.993   4.319
 5781SOL     OW18241   0.159   4.201   4.915
 5781SOL    HW118242   0.240   4.238   4.961
 5781SOL    HW218243   0.181   4.111   4.877
 5782SOL     OW18244   0.898   1.529   0.467
 5782SOL    HW118245   0.966   1.483   0.525
 5782SOL    HW218246   0.816   1.472   0.460
 5783SOL     OW18247   2.025   1.468   1.818
 5783SOL    HW118248   2.115   1.513   1.813
 5783SOL    HW218249   2.006   1.422   1.732
 5784SOL     OW18250   0.007   6.395   0.055
 5784SOL    HW118251   6.961   6.398   7.004
 5784SOL    HW218252   0.076   6.325   0.034
 5785SOL     OW18253   2.414   1.583   0.820
 5785SOL    HW118254   2.475   1.662   0.814
 5785SOL    HW218255   2.445   1.522   0.893
 5786SOL     OW18256   6.843   3.722   0.362
 5786SOL    HW118257   6.893   3.729   0.449
 5786SOL    HW218258   6.846   3.811   0.316
 5787SOL     OW18259   2.363   2.036   5.764
 5787SOL    HW118260   2.278   2.071   5.724
 5787SOL    HW218261   2.388   2.093   5.843
 5788SOL     OW18262   2.347   0.873   2.986
 5788SOL    HW118263   2.279   0.854   2.915
 5788SOL    HW218264   2.325   0.820   3.068
 5789SOL     OW18265   3.720   5.581   6.447
 5789SOL    HW118266   3.622   5.562   6.445
 5789SOL    HW218267   3.759   5.566   6.356
 5790SOL     OW18268   0.240   3.088   4.268
 5790SOL    HW118269   0.316   3.052   4.322
 5790SOL    HW218270   0.155   3.080   4.320
 5791SOL     OW18271   2.890   0.133   2.493
 5791SOL    HW118272   2.949   0.119   2.414
 5791SOL    HW218273   2.881   0.048   2.544
 5792SOL     OW18274   0.122   2.059   3.072
 5792SOL    HW118275   0.059   2.102   3.007
 5792SOL    HW218276   0.166   1.980   3.028
 5793SOL     OW18277   6.829   1.263   3.996
 5793SOL    HW118278   6.753   1.240   3.934
 5793SOL    HW218279   6.819   1.358   4.027
 5794SOL     OW18280   3.590   3.065   0.639
 5794SOL    HW118281   3.652   3.077   0.562
 5794SOL    HW218282   3.610   3.134   0.709
 5795SOL     OW18283   5.782   4.967   5.690
 5795SOL    HW118284   5.812   4.944   5.783
 5795SOL    HW218285   5.688   4.999   5.692
 5796SOL     OW18286   3.057   1.257   0.391
 5796SOL    HW118287   3.116   1.177   0.396
 5796SOL    HW218288   2.966   1.229   0.360
 5797SOL     OW18289   3.589   2.141   4.629
 5797SOL    HW118290   3.555   2.148   4.536
 5797SOL    HW218291   3.513   2.147   4.694
 5798SOL     OW18292   0.401   4.536   4.922
 5798SOL    HW118293   0.403   4.599   4.999
 5798SOL    HW218294   0.408   4.587   4.837
 5799SOL     OW18295   5.772   0.347   3.570
 5799SOL    HW118296   5.700   0.282   3.544
 5799SOL    HW218297   5.806   0.395   3.489
 5800SOL     OW18298   5.717   4.716   1.450
 5800SOL    HW118299   5.654   4.647   1.486
 5800SOL    HW218300   5.790   4.732   1.517
 5801SOL     OW18301   0.752   1.900   3.681
 5801SOL    HW118302   0.783   1.805   3.686
 5801SOL    HW218303   0.702   1.923   3.765
 5802SOL     OW18304   0.216   4.142   6.129
 5802SOL    HW118305   0.204   4.199   6.210
 5802SOL    HW218306   0.211   4.198   6.046
 5803SOL     OW18307   1.606   4.969   1.461
 5803SOL    HW118308   1.515   4.969   1.420
 5803SOL    HW218309   1.613   4.891   1.524
 5804SOL     OW18310   6.289   4.026   4.113
 5804SOL    HW118311   6.236   4.051   4.194
 5804SOL    HW218312   6.354   3.954   4.136
 5805SOL     OW18313   4.231   4.462   6.448
 5805SOL    HW118314   4.150   4.498   6.402
 5805SOL    HW218315   4.265   4.530   6.514
 5806SOL     OW18316   1.074   6.724   0.488
 5806SOL    HW118317   1.012   6.796   0.518
 5806SOL    HW218318   1.031   6.669   0.417
 5807SOL     OW18319   1.436   3.844   1.220
 5807SOL    HW118320   1.383   3.798   1.148
 5807SOL    HW218321   1.531   3.812   1.217
 5808SOL     OW18322   5.448   4.267   2.867
 5808SOL    HW118323   5.502   4.281   2.950
 5808SOL    HW218324   5.494   4.203   2.807
 5809SOL     OW18325   6.697   3.377   4.436
 5809SOL    HW118326   6.713   3.282   4.409
 5809SOL    HW218327   6.686   3.381   4.536
 5810SOL     OW18328   2.801   0.976   4.290
 5810SOL    HW118329   2.769   0.915   4.363
 5810SOL    HW218330   2.822   0.923   4.208
 5811SOL     OW18331   2.959   0.246   5.035
 5811SOL    HW118332   2.936   0.312   5.106
 5811SOL    HW218333   3.022   0.287   4.969
 5812SOL     OW18334   5.075   6.905   4.108
 5812SOL    HW118335   5.073   6.958   4.024
 5812SOL    HW218336   5.166   6.867   4.121
 5813SOL     OW18337   1.223   1.304   5.973
 5813SOL    HW118338   1.155   1.246   6.017
 5813SOL    HW218339   1.191   1.399   5.972
 5814SOL     OW18340   6.537   3.966   0.570
 5814SOL    HW118341   6.563   3.926   0.482
 5814SOL    HW218342   6.459   4.027   0.556
 5815SOL     OW18343   4.519   2.424   2.985
 5815SOL    HW118344   4.444   2.372   3.025
 5815SOL    HW218345   4.606   2.378   3.006
 5816SOL     OW18346   5.467   6.996   0.182
 5816SOL    HW118347   5.551   6.977   0.233
 5816SOL    HW218348   5.483   0.049   0.118
 5817SOL     OW18349   5.930   3.070   5.772
 5817SOL    HW118350   5.958   3.144   5.711
 5817SOL    HW218351   5.840   3.091   5.810
 5818SOL     OW18352   6.042   6.139   5.118
 5818SOL    HW118353   6.000   6.156   5.029
 5818SOL    HW218354   6.129   6.091   5.105
 5819SOL     OW18355   4.284   0.302   1.102
 5819SOL    HW118356   4.364   0.308   1.043
 5819SOL    HW218357   4.220   0.375   1.080
 5820SOL     OW18358   5.010   7.011   3.613
 5820SOL    HW118359   4.972   0.076   3.580
 5820SOL    HW218360   5.023   6.949   3.535
 5821SOL     OW18361   2.426   0.466   2.054
 5821SOL    HW118362   2.371   0.538   2.095
 5821SOL    HW218363   2.371   0.418   1.985
 5822SOL     OW18364   0.949   2.547   1.613
 5822SOL    HW118365   0.879   2.514   1.550
 5822SOL    HW218366   0.906   2.602   1.684
 5823SOL     OW18367   0.901   0.700   5.112
 5823SOL    HW118368   0.856   0.612   5.127
 5823SOL    HW218369   0.932   0.737   5.199
 5824SOL     OW18370   6.574   6.376   2.769
 5824SOL    HW118371   6.606   6.420   2.685
 5824SOL    HW218372   6.476   6.392   2.780
 5825SOL     OW18373   2.317   1.793   5.905
 5825SOL    HW118374   2.353   1.871   5.854
 5825SOL    HW218375   2.246   1.825   5.968
 5826SOL     OW18376   6.533   6.141   5.530
 5826SOL    HW118377   6.439   6.163   5.556
 5826SOL    HW218378   6.576   6.220   5.487
 5827SOL     OW18379   0.982   5.469   5.130
 5827SOL    HW118380   1.002   5.565   5.145
 5827SOL    HW218381   0.989   5.419   5.217
 5828SOL     OW18382   0.694   3.454   1.756
 5828SOL    HW118383   0.731   3.474   1.665
 5828SOL    HW218384   0.615   3.394   1.748
 5829SOL     OW18385   2.707   1.232   2.210
 5829SOL    HW118386   2.745   1.154   2.260
 5829SOL    HW218387   2.644   1.199   2.139
 5830SOL     OW18388   3.860   0.648   5.992
 5830SOL    HW118389   3.882   0.589   5.914
 5830SOL    HW218390   3.772   0.692   5.978
 5831SOL     OW18391   6.088   6.403   3.536
 5831SOL    HW118392   6.179   6.389   3.498
 5831SOL    HW218393   6.037   6.317   3.534
 5832SOL     OW18394   4.286   3.761   5.621
 5832SOL    HW118395   4.323   3.755   5.528
 5832SOL    HW218396   4.242   3.850   5.634
 5833SOL     OW18397   3.363   3.772   4.256
 5833SOL    HW118398   3.368   3.683   4.211
 5833SOL    HW218399   3.335   3.760   4.351
 5834SOL     OW18400   6.125   1.506   0.486
 5834SOL    HW118401   6.103   1.506   0.389
 5834SOL    HW218402   6.183   1.584   0.508
 5835SOL     OW18403   5.254   2.590   3.510
 5835SOL    HW118404   5.170   2.638   3.534
 5835SOL    HW218405   5.331   2.631   3.558
 5836SOL     OW18406   3.097   5.713   2.938
 5836SOL    HW118407   3.020   5.747   2.884
 5836SOL    HW218408   3.108   5.615   2.921
 5837SOL     OW18409   4.485   4.370   0.255
 5837SOL    HW118410   4.529   4.366   0.166
 5837SOL    HW218411   4.426   4.290   0.266
 5838SOL     OW18412   1.633   1.624   5.951
 5838SOL    HW118413   1.687   1.559   6.003
 5838SOL    HW218414   1.627   1.595   5.856
 5839SOL     OW18415   0.140   2.786   2.340
 5839SOL    HW118416   0.209   2.813   2.273
 5839SOL    HW218417   0.103   2.868   2.383
 5840SOL     OW18418   1.231   5.815   6.943
 5840SOL    HW118419   1.240   5.905   6.985
 5840SOL    HW218420   1.198   5.749   7.011
 5841SOL     OW18421   6.131   2.963   2.385
 5841SOL    HW118422   6.179   2.966   2.297
 5841SOL    HW218423   6.034   2.947   2.370
 5842SOL     OW18424   3.958   3.257   0.659
 5842SOL    HW118425   3.998   3.300   0.740
 5842SOL    HW218426   3.872   3.302   0.636
 5843SOL     OW18427   1.977   3.657   2.436
 5843SOL    HW118428   2.016   3.570   2.466
 5843SOL    HW218429   1.974   3.659   2.336
 5844SOL     OW18430   0.287   6.321   6.468
 5844SOL    HW118431   0.212   6.380   6.497
 5844SOL    HW218432   0.358   6.376   6.422
 5845SOL     OW18433   0.596   1.704   3.410
 5845SOL    HW118434   0.546   1.647   3.475
 5845SOL    HW218435   0.691   1.713   3.439
 5846SOL     OW18436   6.742   2.936   5.093
 5846SOL    HW118437   6.773   2.841   5.092
 5846SOL    HW218438   6.704   2.958   5.183
 5847SOL     OW18439   2.361   2.300   2.331
 5847SOL    HW118440   2.293   2.255   2.388
 5847SOL    HW218441   2.447   2.248   2.333
 5848SOL     OW18442   1.937   4.847   3.488
 5848SOL    HW118443   1.967   4.757   3.458
 5848SOL    HW218444   1.858   4.838   3.548
 5849SOL     OW18445   1.080   0.341   5.560
 5849SOL    HW118446   1.171   0.317   5.596
 5849SOL    HW218447   1.045   0.419   5.611
 5850SOL     OW18448   1.196   3.520   2.029
 5850SOL    HW118449   1.273   3.583   2.038
 5850SOL    HW218450   1.222   3.445   1.968
 5851SOL     OW18451   6.030   3.482   2.621
 5851SOL    HW118452   6.012   3.395   2.574
 5851SOL    HW218453   6.009   3.558   2.560
 5852SOL     OW18454   4.112   6.051   3.002
 5852SOL    HW118455   4.184   6.093   2.946
 5852SOL    HW218456   4.030   6.038   2.946
 5853SOL     OW18457   3.013   5.565   5.909
 5853SOL    HW118458   2.956   5.491   5.945
 5853SOL    HW218459   2.963   5.652   5.915
 5854SOL     OW18460   6.531   3.146   5.897
 5854SOL    HW118461   6.574   3.184   5.816
 5854SOL    HW218462   6.537   3.212   5.972
 5855SOL     OW18463   1.228   0.967   4.489
 5855SOL    HW118464   1.133   0.985   4.466
 5855SOL    HW218465   1.234   0.935   4.584
 5856SOL     OW18466   2.054   5.630   3.534
 5856SOL    HW118467   2.073   5.536   3.504
 5856SOL    HW218468   2.073   5.638   3.631
 5857SOL     OW18469   6.338   2.985   5.052
 5857SOL    HW118470   6.436   2.999   5.040
 5857SOL    HW218471   6.314   2.993   5.148
 5858SOL     OW18472   2.909   1.686   2.082
 5858SOL    HW118473   2.884   1.616   2.150
 5858SOL    HW218474   2.832   1.748   2.069
 5859SOL     OW18475   6.109   6.599   0.599
 5859SOL    HW118476   6.147   6.586   0.507
 5859SOL    HW218477   6.094   6.510   0.642
 5860SOL     OW18478   1.936   4.477   1.730
 5860SOL    HW118479   1.939   4.473   1.830
 5860SOL    HW218480   1.945   4.572   1.700
 5861SOL     OW18481   5.421   1.536   3.942
 5861SOL    HW118482   5.327   1.571   3.946
 5861SOL    HW218483   5.476   1.595   3.883
 5862SOL     OW18484   3.884   5.362   3.318
 5862SOL    HW118485   3.832   5.277   3.322
 5862SOL    HW218486   3.968   5.352   3.371
 5863SOL     OW18487   2.446   0.819   6.047
 5863SOL    HW118488   2.405   0.728   6.052
 5863SOL    HW218489   2.545   0.813   6.059
 5864SOL     OW18490   4.264   4.078   1.724
 5864SOL    HW118491   4.292   3.982   1.727
 5864SOL    HW218492   4.338   4.135   1.760
 5865SOL     OW18493   5.338   0.636   4.044
 5865SOL    HW118494   5.385   0.573   4.105
 5865SOL    HW218495   5.256   0.593   4.007
 5866SOL     OW18496   4.239   6.333   6.369
 5866SOL    HW118497   4.305   6.263   6.398
 5866SOL    HW218498   4.150   6.314   6.410
 5867SOL     OW18499   0.419   2.463   0.911
 5867SOL    HW118500   0.324   2.466   0.942
 5867SOL    HW218501   0.479   2.496   0.985
 5868SOL     OW18502   0.238   0.442   5.109
 5868SOL    HW118503   0.199   0.518   5.057
 5868SOL    HW218504   0.286   0.380   5.047
 5869SOL     OW18505   2.071   4.660   3.984
 5869SOL    HW118506   2.064   4.611   3.897
 5869SOL    HW218507   1.980   4.670   4.025
 5870SOL     OW18508   4.927   4.852   4.723
 5870SOL    HW118509   4.833   4.818   4.727
 5870SOL    HW218510   4.990   4.777   4.740
 5871SOL     OW18511   3.752   3.923   0.183
 5871SOL    HW118512   3.822   3.912   0.112
 5871SOL    HW218513   3.797   3.950   0.269
 5872SOL     OW18514   4.317   5.772   6.705
 5872SOL    HW118515   4.316   5.807   6.799
 5872SOL    HW218516   4.358   5.840   6.644
 5873SOL     OW18517   2.202   2.862   0.431
 5873SOL    HW118518   2.243   2.940   0.477
 5873SOL    HW218519   2.175   2.793   0.499
 5874SOL     OW18520   2.783   3.285   1.529
 5874SOL    HW118521   2.854   3.332   1.476
 5874SOL    HW218522   2.752   3.204   1.478
 5875SOL     OW18523   3.731   1.578   0.297
 5875SOL    HW118524   3.662   1.635   0.253
 5875SOL    HW218525   3.688   1.520   0.366
 5876SOL     OW18526   3.313   3.177   6.465
 5876SOL    HW118527   3.255   3.189   6.546
 5876SOL    HW218528   3.352   3.085   6.466
 5877SOL     OW18529   6.436   6.981   1.456
 5877SOL    HW118530   6.405   0.025   1.387
 5877SOL    HW218531   6.401   7.008   1.546
 5878SOL     OW18532   4.873   5.871   2.291
 5878SOL    HW118533   4.919   5.861   2.379
 5878SOL    HW218534   4.787   5.921   2.304
 5879SOL     OW18535   3.491   3.042   5.804
 5879SOL    HW118536   3.464   3.126   5.851
 5879SOL    HW218537   3.552   2.990   5.864
 5880SOL     OW18538   5.042   3.390   5.596
 5880SOL    HW118539   5.046   3.490   5.589
 5880SOL    HW218540   4.963   3.363   5.652
 5881SOL     OW18541   1.031   6.127   2.683
 5881SOL    HW118542   1.100   6.061   2.653
 5881SOL    HW218543   1.038   6.210   2.627
 5882SOL     OW18544   1.314   6.338   5.701
 5882SOL    HW118545   1.281   6.414   5.645
 5882SOL    HW218546   1.319   6.255   5.646
 5883SOL     OW18547   0.271   3.687   0.694
 5883SOL    HW118548   0.208   3.650   0.626
 5883SOL    HW218549   0.342   3.619   0.715
 5884SOL     OW18550   6.072   1.255   3.816
 5884SOL    HW118551   6.080   1.192   3.892
 5884SOL    HW218552   6.159   1.303   3.803
 5885SOL     OW18553   0.317   5.390   0.245
 5885SOL    HW118554   0.296   5.321   0.315
 5885SOL    HW218555   0.392   5.448   0.277
 5886SOL     OW18556   1.433   3.038   3.252
 5886SOL    HW118557   1.365   3.110   3.263
 5886SOL    HW218558   1.462   3.033   3.156
 5887SOL     OW18559   2.452   1.967   1.551
 5887SOL    HW118560   2.439   2.007   1.461
 5887SOL    HW218561   2.550   1.954   1.568
 5888SOL     OW18562   2.514   0.066   1.396
 5888SOL    HW118563   2.469   0.114   1.320
 5888SOL    HW218564   2.476   6.996   1.404
 5889SOL     OW18565   0.282   1.401   1.460
 5889SOL    HW118566   0.305   1.422   1.365
 5889SOL    HW218567   0.232   1.478   1.500
 5890SOL     OW18568   2.401   5.855   2.400
 5890SOL    HW118569   2.448   5.864   2.488
 5890SOL    HW218570   2.302   5.858   2.415
 5891SOL     OW18571   3.148   3.219   0.794
 5891SOL    HW118572   3.215   3.155   0.831
 5891SOL    HW218573   3.172   3.312   0.822
 5892SOL     OW18574   0.101   3.893   0.083
 5892SOL    HW118575   0.179   3.946   0.048
 5892SOL    HW218576   0.134   3.806   0.118
 5893SOL     OW18577   0.992   5.567   2.047
 5893SOL    HW118578   1.053   5.546   2.123
 5893SOL    HW218579   0.959   5.481   2.007
 5894SOL     OW18580   0.920   5.639   5.427
 5894SOL    HW118581   0.848   5.570   5.417
 5894SOL    HW218582   0.938   5.681   5.338
 5895SOL     OW18583   6.009   3.029   5.153
 5895SOL    HW118584   6.097   3.029   5.201
 5895SOL    HW218585   6.001   3.112   5.098
 5896SOL     OW18586   5.836   1.737   1.786
 5896SOL    HW118587   5.849   1.643   1.819
 5896SOL    HW218588   5.752   1.741   1.732
 5897SOL     OW18589   4.333   1.589   1.780
 5897SOL    HW118590   4.284   1.519   1.728
 5897SOL    HW218591   4.288   1.677   1.768
 5898SOL     OW18592   1.579   1.442   5.694
 5898SOL    HW118593   1.664   1.390   5.698
 5898SOL    HW218594   1.589   1.520   5.632
 5899SOL     OW18595   6.842   5.457   6.530
 5899SOL    HW118596   6.837   5.552   6.560
 5899SOL    HW218597   6.764   5.407   6.567
 5900SOL     OW18598   0.061   5.939   3.015
 5900SOL    HW118599   7.006   5.986   2.971
 5900SOL    HW218600   0.090   5.863   2.957
 5901SOL     OW18601   1.662   0.021   6.400
 5901SOL    HW118602   1.761   0.007   6.397
 5901SOL    HW218603   1.627   7.016   6.490
 5902SOL     OW18604   5.895   4.124   4.646
 5902SOL    HW118605   5.867   4.207   4.598
 5902SOL    HW218606   5.988   4.136   4.681
 5903SOL     OW18607   5.759   2.671   6.388
 5903SOL    HW118608   5.732   2.697   6.481
 5903SOL    HW218609   5.688   2.613   6.347
 5904SOL     OW18610   1.943   4.881   2.876
 5904SOL    HW118611   2.009   4.931   2.932
 5904SOL    HW218612   1.893   4.815   2.932
 5905SOL     OW18613   5.633   1.041   4.049
 5905SOL    HW118614   5.688   1.067   4.128
 5905SOL    HW218615   5.547   1.092   4.051
 5906SOL     OW18616   5.326   1.488   5.603
 5906SOL    HW118617   5.354   1.530   5.517
 5906SOL    HW218618   5.391   1.511   5.675
 5907SOL     OW18619   1.284   1.109   6.895
 5907SOL    HW118620   1.238   1.197   6.901
 5907SOL    HW218621   1.333   1.103   6.808
 5908SOL     OW18622   4.412   3.587   6.467
 5908SOL    HW118623   4.358   3.593   6.383
 5908SOL    HW218624   4.474   3.508   6.462
 5909SOL     OW18625   6.968   4.788   5.445
 5909SOL    HW118626   0.024   4.733   5.477
 5909SOL    HW218627   6.902   4.728   5.400
 5910SOL     OW18628   2.299   3.902   1.421
 5910SOL    HW118629   2.238   3.877   1.496
 5910SOL    HW218630   2.265   3.985   1.376
 5911SOL     OW18631   6.292   5.153   6.438
 5911SOL    HW118632   6.212   5.162   6.497
 5911SOL    HW218633   6.357   5.089   6.480
 5912SOL     OW18634   6.173   3.315   0.012
 5912SOL    HW118635   6.089   3.361   7.005
 5912SOL    HW218636   6.245   3.331   6.967
 5913SOL     OW18637   2.359   2.363   5.609
 5913SOL    HW118638   2.277   2.310   5.590
 5913SOL    HW218639   2.376   2.427   5.534
 5914SOL     OW18640   2.563   5.863   0.487
 5914SOL    HW118641   2.640   5.800   0.493
 5914SOL    HW218642   2.596   5.957   0.481
 5915SOL     OW18643   4.928   3.042   2.886
 5915SOL    HW118644   4.865   3.028   2.963
 5915SOL    HW218645   4.932   3.139   2.863
 5916SOL     OW18646   3.972   6.940   5.716
 5916SOL    HW118647   3.894   6.989   5.752
 5916SOL    HW218648   4.056   6.991   5.736
 5917SOL     OW18649   3.645   3.289   3.158
 5917SOL    HW118650   3.661   3.246   3.247
 5917SOL    HW218651   3.690   3.378   3.155
 5918SOL     OW18652   1.508   3.568   4.139
 5918SOL    HW118653   1.574   3.633   4.102
 5918SOL    HW218654   1.536   3.540   4.231
 5919SOL     OW18655   2.696   2.549   0.739
 5919SOL    HW118656   2.725   2.645   0.735
 5919SOL    HW218657   2.752   2.495   0.676
 5920SOL     OW18658   3.724   0.296   6.832
 5920SOL    HW118659   3.669   0.304   6.749
 5920SOL    HW218660   3.810   0.250   6.810
 5921SOL     OW18661   3.682   5.167   5.633
 5921SOL    HW118662   3.697   5.239   5.701
 5921SOL    HW218663   3.629   5.093   5.674
 5922SOL     OW18664   6.770   4.865   2.834
 5922SOL    HW118665   6.715   4.792   2.874
 5922SOL    HW218666   6.817   4.915   2.907
 5923SOL     OW18667   6.537   0.273   3.334
 5923SOL    HW118668   6.465   0.265   3.403
 5923SOL    HW218669   6.498   0.311   3.250
 5924SOL     OW18670   5.144   2.104   4.726
 5924SOL    HW118671   5.173   2.182   4.671
 5924SOL    HW218672   5.074   2.052   4.676
 5925SOL     OW18673   5.654   5.637   1.722
 5925SOL    HW118674   5.620   5.635   1.817
 5925SOL    HW218675   5.630   5.551   1.677
 5926SOL     OW18676   3.642   5.148   1.724
 5926SOL    HW118677   3.658   5.049   1.724
 5926SOL    HW218678   3.635   5.180   1.818
 5927SOL     OW18679   2.647   5.250   1.561
 5927SOL    HW118680   2.683   5.228   1.471
 5927SOL    HW218681   2.709   5.213   1.631
 5928SOL     OW18682   1.558   0.370   2.395
 5928SOL    HW118683   1.579   0.466   2.410
 5928SOL    HW218684   1.643   0.318   2.389
 5929SOL     OW18685   0.727   6.587   5.646
 5929SOL    HW118686   0.643   6.547   5.682
 5929SOL    HW218687   0.786   6.615   5.722
 5930SOL     OW18688   6.270   1.182   4.686
 5930SOL    HW118689   6.299   1.183   4.782
 5930SOL    HW218690   6.237   1.090   4.663
 5931SOL     OW18691   5.899   5.620   1.557
 5931SOL    HW118692   5.818   5.638   1.612
 5931SOL    HW218693   5.897   5.675   1.474
 5932SOL     OW18694   2.105   6.722   0.981
 5932SOL    HW118695   2.138   6.762   1.066
 5932SOL    HW218696   2.135   6.779   0.904
 5933SOL     OW18697   0.042   4.299   2.478
 5933SOL    HW118698   0.096   4.383   2.482
 5933SOL    HW218699   0.103   4.221   2.463
 5934SOL     OW18700   3.790   3.534   2.997
 5934SOL    HW118701   3.777   3.565   2.903
 5934SOL    HW218702   3.887   3.534   3.019
 5935SOL     OW18703   3.693   3.883   5.288
 5935SOL    HW118704   3.784   3.903   5.324
 5935SOL    HW218705   3.645   3.968   5.268
 5936SOL     OW18706   4.961   4.710   6.984
 5936SOL    HW118707   4.969   4.646   6.908
 5936SOL    HW218708   4.883   4.771   6.969
 5937SOL     OW18709   1.072   3.899   0.992
 5937SOL    HW118710   1.132   3.971   0.957
 5937SOL    HW218711   1.009   3.871   0.920
 5938SOL     OW18712   2.102   4.403   3.128
 5938SOL    HW118713   2.189   4.367   3.094
 5938SOL    HW218714   2.057   4.454   3.055
 5939SOL     OW18715   3.350   1.065   3.175
 5939SOL    HW118716   3.281   1.064   3.102
 5939SOL    HW218717   3.407   0.984   3.168
 5940SOL     OW18718   3.338   6.735   2.877
 5940SOL    HW118719   3.429   6.734   2.837
 5940SOL    HW218720   3.329   6.659   2.942
 5941SOL     OW18721   6.253   5.084   2.169
 5941SOL    HW118722   6.189   5.141   2.218
 5941SOL    HW218723   6.215   4.992   2.158
 5942SOL     OW18724   3.856   3.355   5.977
 5942SOL    HW118725   3.850   3.447   5.937
 5942SOL    HW218726   3.764   3.320   5.994
 5943SOL     OW18727   2.048   5.791   0.228
 5943SOL    HW118728   2.080   5.853   0.300
 5943SOL    HW218729   1.989   5.721   0.269
 5944SOL     OW18730   4.977   1.571   2.431
 5944SOL    HW118731   4.964   1.633   2.508
 5944SOL    HW218732   4.902   1.505   2.428
 5945SOL     OW18733   6.586   5.005   5.225
 5945SOL    HW118734   6.585   4.914   5.185
 5945SOL    HW218735   6.495   5.028   5.258
 5946SOL     OW18736   3.893   3.911   5.945
 5946SOL    HW118737   3.851   3.832   5.990
 5946SOL    HW218738   3.991   3.914   5.967
 5947SOL     OW18739   4.298   3.402   1.739
 5947SOL    HW118740   4.376   3.343   1.717
 5947SOL    HW218741   4.213   3.353   1.721
 5948SOL     OW18742   3.587   4.879   2.972
 5948SOL    HW118743   3.616   4.784   2.959
 5948SOL    HW218744   3.516   4.883   3.041
 5949SOL     OW18745   4.156   4.985   0.877
 5949SOL    HW118746   4.171   4.983   0.976
 5949SOL    HW218747   4.072   5.034   0.857
 5950SOL     OW18748   5.970   2.030   4.204
 5950SOL    HW118749   5.981   2.068   4.295
 5950SOL    HW218750   5.928   2.098   4.144
 5951SOL     OW18751   1.808   6.449   4.196
 5951SOL    HW118752   1.793   6.477   4.101
 5951SOL    HW218753   1.869   6.369   4.197
 5952SOL     OW18754   6.500   6.019   3.428
 5952SOL    HW118755   6.464   6.056   3.514
 5952SOL    HW218756   6.424   6.003   3.365
 5953SOL     OW18757   6.651   3.344   5.636
 5953SOL    HW118758   6.678   3.400   5.714
 5953SOL    HW218759   6.710   3.366   5.558
 5954SOL     OW18760   6.965   4.682   6.202
 5954SOL    HW118761   6.957   4.623   6.282
 5954SOL    HW218762   6.875   4.715   6.175
 5955SOL     OW18763   5.072   5.371   1.885
 5955SOL    HW118764   5.137   5.351   1.811
 5955SOL    HW218765   5.118   5.363   1.973
 5956SOL     OW18766   4.154   2.395   6.817
 5956SOL    HW118767   4.158   2.295   6.817
 5956SOL    HW218768   4.188   2.430   6.904
 5957SOL     OW18769   5.251   6.482   5.919
 5957SOL    HW118770   5.254   6.561   5.858
 5957SOL    HW218771   5.288   6.507   6.008
 5958SOL     OW18772   6.910   6.417   1.590
 5958SOL    HW118773   6.876   6.331   1.628
 5958SOL    HW218774   6.988   6.449   1.644
 5959SOL     OW18775   2.872   1.982   5.680
 5959SOL    HW118776   2.853   1.987   5.582
 5959SOL    HW218777   2.806   2.037   5.730
 5960SOL     OW18778   2.732   0.020   3.541
 5960SOL    HW118779   2.681   0.106   3.535
 5960SOL    HW218780   2.829   0.040   3.554
 5961SOL     OW18781   3.688   0.882   5.216
 5961SOL    HW118782   3.638   0.880   5.129
 5961SOL    HW218783   3.649   0.953   5.275
 5962SOL     OW18784   5.079   6.033   2.177
 5962SOL    HW118785   5.048   6.050   2.084
 5962SOL    HW218786   5.018   5.967   2.221
 5963SOL     OW18787   4.072   3.526   3.012
 5963SOL    HW118788   4.073   3.613   3.062
 5963SOL    HW218789   4.115   3.455   3.068
 5964SOL     OW18790   0.261   5.285   6.747
 5964SOL    HW118791   0.269   5.333   6.834
 5964SOL    HW218792   0.168   5.292   6.712
 5965SOL     OW18793   1.786   2.360   6.431
 5965SOL    HW118794   1.841   2.337   6.511
 5965SOL    HW218795   1.776   2.459   6.425
 5966SOL     OW18796   3.283   6.022   4.907
 5966SOL    HW118797   3.337   6.039   4.990
 5966SOL    HW218798   3.342   6.032   4.827
 5967SOL     OW18799   4.458   6.852   2.818
 5967SOL    HW118800   4.526   6.803   2.873
 5967SOL    HW218801   4.462   6.949   2.839
 5968SOL     OW18802   6.465   2.126   3.401
 5968SOL    HW118803   6.515   2.064   3.462
 5968SOL    HW218804   6.509   2.126   3.311
 5969SOL     OW18805   5.960   2.942   3.970
 5969SOL    HW118806   6.041   2.949   3.913
 5969SOL    HW218807   5.982   2.970   4.063
 5970SOL     OW18808   1.301   3.268   3.208
 5970SOL    HW118809   1.254   3.314   3.282
 5970SOL    HW218810   1.357   3.334   3.157
 5971SOL     OW18811   2.212   6.831   2.829
 5971SOL    HW118812   2.154   6.816   2.749
 5971SOL    HW218813   2.307   6.844   2.800
 5972SOL     OW18814   5.046   6.908   0.001
 5972SOL    HW118815   4.975   6.839   7.006
 5972SOL    HW218816   5.124   6.890   6.963
 5973SOL     OW18817   1.733   4.205   2.617
 5973SOL    HW118818   1.710   4.201   2.714
 5973SOL    HW218819   1.772   4.118   2.588
 5974SOL     OW18820   6.966   3.570   6.554
 5974SOL    HW118821   6.935   3.570   6.459
 5974SOL    HW218822   6.990   3.477   6.581
 5975SOL     OW18823   3.973   2.621   1.305
 5975SOL    HW118824   3.893   2.624   1.364
 5975SOL    HW218825   4.041   2.559   1.343
 5976SOL     OW18826   2.934   3.293   4.624
 5976SOL    HW118827   2.903   3.227   4.555
 5976SOL    HW218828   2.938   3.384   4.583
 5977SOL     OW18829   2.156   4.628   2.059
 5977SOL    HW118830   2.255   4.622   2.072
 5977SOL    HW218831   2.110   4.624   2.148
 5978SOL     OW18832   5.189   4.714   2.567
 5978SOL    HW118833   5.125   4.655   2.518
 5978SOL    HW218834   5.235   4.661   2.638
 5979SOL     OW18835   6.129   0.730   3.766
 5979SOL    HW118836   6.041   0.709   3.724
 5979SOL    HW218837   6.181   0.790   3.705
 5980SOL     OW18838   4.697   4.465   0.585
 5980SOL    HW118839   4.757   4.533   0.543
 5980SOL    HW218840   4.740   4.375   0.578
 5981SOL     OW18841   6.374   1.467   2.493
 5981SOL    HW118842   6.388   1.553   2.541
 5981SOL    HW218843   6.348   1.485   2.398
 5982SOL     OW18844   0.011   1.977   6.689
 5982SOL    HW118845   6.936   1.984   6.666
 5982SOL    HW218846   0.062   1.945   6.609
 5983SOL     OW18847   1.900   2.452   4.084
 5983SOL    HW118848   1.813   2.500   4.092
 5983SOL    HW218849   1.888   2.370   4.029
 5984SOL     OW18850   6.680   6.264   4.393
 5984SOL    HW118851   6.646   6.273   4.487
 5984SOL    HW218852   6.764   6.317   4.382
 5985SOL     OW18853   5.350   2.010   3.439
 5985SOL    HW118854   5.431   2.033   3.491
 5985SOL    HW218855   5.283   2.084   3.446
 5986SOL     OW18856   3.248   3.011   2.983
 5986SOL    HW118857   3.173   3.030   3.046
 5986SOL    HW218858   3.334   3.044   3.022
 5987SOL     OW18859   4.376   0.012   5.143
 5987SOL    HW118860   4.319   6.975   5.200
 5987SOL    HW218861   4.322   0.090   5.112
 5988SOL     OW18862   4.527   6.967   4.414
 5988SOL    HW118863   4.440   7.015   4.400
 5988SOL    HW218864   4.570   6.949   4.326
 5989SOL     OW18865   2.521   0.260   6.495
 5989SOL    HW118866   2.591   0.189   6.494
 5989SOL    HW218867   2.481   0.269   6.404
 5990SOL     OW18868   3.820   4.433   0.581
 5990SOL    HW118869   3.828   4.409   0.678
 5990SOL    HW218870   3.909   4.420   0.537
 5991SOL     OW18871   3.511   5.219   5.078
 5991SOL    HW118872   3.567   5.195   4.999
 5991SOL    HW218873   3.569   5.220   5.160
 5992SOL     OW18874   3.607   0.571   3.762
 5992SOL    HW118875   3.675   0.516   3.713
 5992SOL    HW218876   3.640   0.590   3.854
 5993SOL     OW18877   2.634   6.485   5.883
 5993SOL    HW118878   2.632   6.386   5.873
 5993SOL    HW218879   2.672   6.527   5.801
 5994SOL     OW18880   6.411   2.360   2.264
 5994SOL    HW118881   6.351   2.406   2.199
 5994SOL    HW218882   6.419   2.263   2.240
 5995SOL     OW18883   6.576   5.301   1.176
 5995SOL    HW118884   6.539   5.230   1.235
 5995SOL    HW218885   6.651   5.348   1.223
 5996SOL     OW18886   0.406   6.095   6.397
 5996SOL    HW118887   0.345   6.171   6.420
 5996SOL    HW218888   0.386   6.017   6.455
 5997SOL     OW18889   0.307   0.002   1.820
 5997SOL    HW118890   0.388   0.058   1.839
 5997SOL    HW218891   0.264   6.998   1.907
 5998SOL     OW18892   5.467   2.082   2.299
 5998SOL    HW118893   5.390   2.044   2.351
 5998SOL    HW218894   5.474   2.180   2.317
 5999SOL     OW18895   1.493   1.394   3.592
 5999SOL    HW118896   1.446   1.385   3.681
 5999SOL    HW218897   1.505   1.491   3.571
 6000SOL     OW18898   4.135   4.804   2.518
 6000SOL    HW118899   4.086   4.869   2.460
 6000SOL    HW218900   4.198   4.750   2.461
 6001SOL     OW18901   0.087   2.951   6.983
 6001SOL    HW118902   0.131   2.912   6.902
 6001SOL    HW218903   7.009   2.952   6.970
 6002SOL     OW18904   1.483   0.348   1.526
 6002SOL    HW118905   1.449   0.427   1.576
 6002SOL    HW218906   1.462   0.358   1.429
 6003SOL     OW18907   5.618   4.100   4.618
 6003SOL    HW118908   5.717   4.087   4.621
 6003SOL    HW218909   5.572   4.012   4.607
 6004SOL     OW18910   0.912   3.469   2.885
 6004SOL    HW118911   0.826   3.435   2.924
 6004SOL    HW218912   0.949   3.401   2.822
 6005SOL     OW18913   3.833   5.618   4.205
 6005SOL    HW118914   3.733   5.615   4.209
 6005SOL    HW218915   3.871   5.569   4.284
 6006SOL     OW18916   2.720   6.692   6.665
 6006SOL    HW118917   2.739   6.609   6.717
 6006SOL    HW218918   2.710   6.670   6.568
 6007SOL     OW18919   5.321   2.353   3.717
 6007SOL    HW118920   5.407   2.304   3.735
 6007SOL    HW218921   5.341   2.439   3.671
 6008SOL     OW18922   3.348   5.270   5.944
 6008SOL    HW118923   3.352   5.362   5.904
 6008SOL    HW218924   3.330   5.203   5.872
 6009SOL     OW18925   2.480   1.812   4.471
 6009SOL    HW118926   2.471   1.891   4.410
 6009SOL    HW218927   2.567   1.818   4.521
 6010SOL     OW18928   1.867   4.143   2.323
 6010SOL    HW118929   1.873   4.130   2.224
 6010SOL    HW218930   1.886   4.056   2.369
 6011SOL     OW18931   5.261   2.623   2.133
 6011SOL    HW118932   5.235   2.717   2.154
 6011SOL    HW218933   5.213   2.592   2.051
 6012SOL     OW18934   6.851   2.432   6.654
 6012SOL    HW118935   6.857   2.369   6.731
 6012SOL    HW218936   6.801   2.389   6.579
 6013SOL     OW18937   6.141   0.958   2.170
 6013SOL    HW118938   6.172   0.958   2.266
 6013SOL    HW218939   6.143   0.864   2.135
 6014SOL     OW18940   5.754   1.023   0.572
 6014SOL    HW118941   5.779   0.951   0.638
 6014SOL    HW218942   5.837   1.059   0.529
 6015SOL     OW18943   5.875   2.226   4.686
 6015SOL    HW118944   5.786   2.265   4.660
 6015SOL    HW218945   5.911   2.172   4.609
 6016SOL     OW18946   0.807   0.454   5.132
 6016SOL    HW118947   0.880   0.403   5.177
 6016SOL    HW218948   0.748   0.391   5.082
 6017SOL     OW18949   5.991   5.219   3.308
 6017SOL    HW118950   6.001   5.303   3.253
 6017SOL    HW218951   6.030   5.234   3.399
 6018SOL     OW18952   2.883   3.369   0.466
 6018SOL    HW118953   2.855   3.360   0.370
 6018SOL    HW218954   2.807   3.345   0.526
 6019SOL     OW18955   4.603   1.222   3.909
 6019SOL    HW118956   4.648   1.219   3.998
 6019SOL    HW218957   4.582   1.129   3.878
 6020SOL     OW18958   3.650   0.742   2.761
 6020SOL    HW118959   3.684   0.728   2.854
 6020SOL    HW218960   3.578   0.676   2.740
 6021SOL     OW18961   4.491   1.192   2.588
 6021SOL    HW118962   4.520   1.167   2.496
 6021SOL    HW218963   4.547   1.143   2.655
 6022SOL     OW18964   4.693   1.355   3.071
 6022SOL    HW118965   4.625   1.427   3.063
 6022SOL    HW218966   4.733   1.356   3.163
 6023SOL     OW18967   0.159   1.215   3.112
 6023SOL    HW118968   0.062   1.212   3.085
 6023SOL    HW218969   0.179   1.303   3.155
 6024SOL     OW18970   0.612   4.722   1.883
 6024SOL    HW118971   0.530   4.775   1.906
 6024SOL    HW218972   0.670   4.775   1.821
 6025SOL     OW18973   4.681   1.265   2.198
 6025SOL    HW118974   4.623   1.187   2.177
 6025SOL    HW218975   4.735   1.290   2.118
 6026SOL     OW18976   6.963   5.164   5.093
 6026SOL    HW118977   7.021   5.086   5.067
 6026SOL    HW218978   6.900   5.135   5.165
 6027SOL     OW18979   3.040   3.428   6.550
 6027SOL    HW118980   2.990   3.451   6.634
 6027SOL    HW218981   2.987   3.363   6.496
 6028SOL     OW18982   1.591   4.523   0.358
 6028SOL    HW118983   1.554   4.456   0.293
 6028SOL    HW218984   1.536   4.521   0.442
 6029SOL     OW18985   1.602   6.031   0.539
 6029SOL    HW118986   1.668   6.106   0.542
 6029SOL    HW218987   1.645   5.949   0.500
 6030SOL     OW18988   2.305   0.913   2.009
 6030SOL    HW118989   2.283   0.825   1.968
 6030SOL    HW218990   2.328   0.979   1.938
 6031SOL     OW18991   4.809   6.892   5.842
 6031SOL    HW118992   4.732   6.861   5.897
 6031SOL    HW218993   4.841   6.818   5.783
 6032SOL     OW18994   1.566   3.945   2.204
 6032SOL    HW118995   1.616   3.957   2.118
 6032SOL    HW218996   1.554   4.034   2.248
 6033SOL     OW18997   2.025   2.039   2.889
 6033SOL    HW118998   2.047   2.082   2.976
 6033SOL    HW218999   1.982   2.106   2.828
 6034SOL     OW19000   2.514   4.561   4.821
 6034SOL    HW119001   2.422   4.521   4.813
 6034SOL    HW219002   2.577   4.512   4.760
 6035SOL     OW19003   4.894   0.684   4.512
 6035SOL    HW119004   4.916   0.705   4.417
 6035SOL    HW219005   4.881   0.769   4.563
 6036SOL     OW19006   0.026   0.142   4.924
 6036SOL    HW119007   0.105   0.203   4.932
 6036SOL    HW219008   0.048   0.066   4.863
 6037SOL     OW19009   4.580   4.839   5.587
 6037SOL    HW119010   4.629   4.827   5.673
 6037SOL    HW219011   4.566   4.937   5.571
 6038SOL     OW19012   6.884   3.574   6.289
 6038SOL    HW119013   6.959   3.555   6.226
 6038SOL    HW219014   6.799   3.536   6.253
 6039SOL     OW19015   3.273   3.391   2.450
 6039SOL    HW119016   3.357   3.425   2.410
 6039SOL    HW219017   3.231   3.462   2.507
 6040SOL     OW19018   0.595   1.828   6.404
 6040SOL    HW119019   0.573   1.734   6.432
 6040SOL    HW219020   0.541   1.892   6.458
 6041SOL     OW19021   1.106   1.561   6.988
 6041SOL    HW119022   1.074   1.591   0.057
 6041SOL    HW219023   1.100   1.638   6.924
 6042SOL     OW19024   5.228   5.134   2.385
 6042SOL    HW119025   5.148   5.169   2.433
 6042SOL    HW219026   5.210   5.040   2.355
 6043SOL     OW19027   1.278   5.064   4.707
 6043SOL    HW119028   1.237   5.058   4.798
 6043SOL    HW219029   1.356   5.001   4.701
 6044SOL     OW19030   0.585   0.981   1.216
 6044SOL    HW119031   0.651   1.037   1.267
 6044SOL    HW219032   0.542   0.916   1.278
 6045SOL     OW19033   5.769   5.187   0.938
 6045SOL    HW119034   5.735   5.280   0.929
 6045SOL    HW219035   5.869   5.187   0.934
 6046SOL     OW19036   2.634   2.370   0.036
 6046SOL    HW119037   2.689   2.411   6.985
 6046SOL    HW219038   2.553   2.326   7.019
 6047SOL     OW19039   6.191   0.495   3.992
 6047SOL    HW119040   6.118   0.534   4.049
 6047SOL    HW219041   6.269   0.556   3.993
 6048SOL     OW19042   4.147   0.312   3.812
 6048SOL    HW119043   4.172   0.367   3.892
 6048SOL    HW219044   4.099   0.369   3.747
 6049SOL     OW19045   4.732   3.774   6.425
 6049SOL    HW119046   4.641   3.803   6.392
 6049SOL    HW219047   4.748   3.680   6.396
 6050SOL     OW19048   3.758   4.716   5.620
 6050SOL    HW119049   3.688   4.652   5.588
 6050SOL    HW219050   3.845   4.696   5.573
 6051SOL     OW19051   2.430   2.587   2.296
 6051SOL    HW119052   2.430   2.487   2.289
 6051SOL    HW219053   2.522   2.622   2.275
 6052SOL     OW19054   6.823   1.367   0.306
 6052SOL    HW119055   6.743   1.310   0.325
 6052SOL    HW219056   6.895   1.346   0.371
 6053SOL     OW19057   2.862   6.934   6.710
 6053SOL    HW119058   2.841   6.838   6.726
 6053SOL    HW219059   2.851   6.986   6.795
 6054SOL     OW19060   1.339   5.177   0.759
 6054SOL    HW119061   1.250   5.221   0.750
 6054SOL    HW219062   1.411   5.244   0.741
 6055SOL     OW19063   4.856   1.052   5.247
 6055SOL    HW119064   4.880   1.006   5.333
 6055SOL    HW219065   4.840   0.983   5.176
 6056SOL     OW19066   4.019   1.104   6.305
 6056SOL    HW119067   4.005   1.051   6.221
 6056SOL    HW219068   4.114   1.095   6.335
 6057SOL     OW19069   4.035   1.407   5.355
 6057SOL    HW119070   3.950   1.438   5.397
 6057SOL    HW219071   4.028   1.416   5.255
 6058SOL     OW19072   5.323   3.140   4.263
 6058SOL    HW119073   5.343   3.065   4.327
 6058SOL    HW219074   5.325   3.105   4.169
 6059SOL     OW19075   4.987   4.705   6.315
 6059SOL    HW119076   4.909   4.706   6.378
 6059SOL    HW219077   5.007   4.799   6.286
 6060SOL     OW19078   4.388   5.010   5.834
 6060SOL    HW119079   4.475   4.961   5.836
 6060SOL    HW219080   4.396   5.095   5.887
 6061SOL     OW19081   3.341   2.098   6.518
 6061SOL    HW119082   3.260   2.140   6.559
 6061SOL    HW219083   3.327   2.091   6.419
 6062SOL     OW19084   1.997   1.259   4.627
 6062SOL    HW119085   2.052   1.176   4.617
 6062SOL    HW219086   2.048   1.337   4.591
 6063SOL     OW19087   4.064   0.831   6.744
 6063SOL    HW119088   4.003   0.780   6.805
 6063SOL    HW219089   4.065   0.787   6.655
 6064SOL     OW19090   1.239   5.865   3.129
 6064SOL    HW119091   1.278   5.951   3.095
 6064SOL    HW219092   1.141   5.878   3.148
 6065SOL     OW19093   6.025   6.827   1.165
 6065SOL    HW119094   6.083   6.859   1.090
 6065SOL    HW219095   6.061   6.741   1.201
 6066SOL     OW19096   4.403   2.150   1.249
 6066SOL    HW119097   4.322   2.097   1.225
 6066SOL    HW219098   4.397   2.241   1.207
 6067SOL     OW19099   6.349   1.154   5.994
 6067SOL    HW119100   6.382   1.243   6.025
 6067SOL    HW219101   6.416   1.083   6.019
 6068SOL     OW19102   4.778   2.999   5.161
 6068SOL    HW119103   4.762   2.953   5.074
 6068SOL    HW219104   4.773   3.098   5.148
 6069SOL     OW19105   0.065   4.003   5.490
 6069SOL    HW119106   0.040   4.072   5.558
 6069SOL    HW219107   0.139   3.946   5.526
 6070SOL     OW19108   4.061   2.402   6.250
 6070SOL    HW119109   3.963   2.381   6.261
 6070SOL    HW219110   4.113   2.317   6.246
 6071SOL     OW19111   4.205   6.207   5.149
 6071SOL    HW119112   4.199   6.307   5.149
 6071SOL    HW219113   4.190   6.173   5.056
 6072SOL     OW19114   1.340   2.225   1.928
 6072SOL    HW119115   1.360   2.323   1.933
 6072SOL    HW219116   1.329   2.188   2.020
 6073SOL     OW19117   6.447   3.013   0.315
 6073SOL    HW119118   6.372   2.960   0.274
 6073SOL    HW219119   6.525   3.014   0.253
 6074SOL     OW19120   0.980   6.638   4.556
 6074SOL    HW119121   1.016   6.624   4.648
 6074SOL    HW219122   0.884   6.663   4.560
 6075SOL     OW19123   6.237   3.466   0.226
 6075SOL    HW119124   6.199   3.407   0.156
 6075SOL    HW219125   6.268   3.410   0.304
 6076SOL     OW19126   2.204   6.923   3.930
 6076SOL    HW119127   2.225   6.933   3.833
 6076SOL    HW219128   2.284   6.884   3.977
 6077SOL     OW19129   5.872   5.895   2.248
 6077SOL    HW119130   5.807   5.935   2.312
 6077SOL    HW219131   5.965   5.914   2.279
 6078SOL     OW19132   2.964   5.098   3.687
 6078SOL    HW119133   3.033   5.120   3.756
 6078SOL    HW219134   2.947   5.179   3.630
 6079SOL     OW19135   2.479   2.604   0.178
 6079SOL    HW119136   2.523   2.685   0.137
 6079SOL    HW219137   2.548   2.533   0.193
 6080SOL     OW19138   6.090   2.223   1.284
 6080SOL    HW119139   6.037   2.200   1.365
 6080SOL    HW219140   6.088   2.321   1.269
 6081SOL     OW19141   6.427   3.337   3.834
 6081SOL    HW119142   6.436   3.406   3.762
 6081SOL    HW219143   6.373   3.374   3.910
 6082SOL     OW19144   4.394   0.363   2.864
 6082SOL    HW119145   4.370   0.439   2.804
 6082SOL    HW219146   4.326   0.356   2.938
 6083SOL     OW19147   0.779   5.746   6.756
 6083SOL    HW119148   0.790   5.812   6.682
 6083SOL    HW219149   0.700   5.773   6.812
 6084SOL     OW19150   6.327   5.142   4.970
 6084SOL    HW119151   6.245   5.156   4.914
 6084SOL    HW219152   6.332   5.213   5.040
 6085SOL     OW19153   6.646   3.007   0.095
 6085SOL    HW119154   6.713   2.948   0.050
 6085SOL    HW219155   6.629   3.087   0.037
 6086SOL     OW19156   4.238   1.218   4.353
 6086SOL    HW119157   4.254   1.302   4.406
 6086SOL    HW219158   4.144   1.186   4.368
 6087SOL     OW19159   5.335   6.933   6.747
 6087SOL    HW119160   5.417   6.984   6.721
 6087SOL    HW219161   5.314   6.867   6.675
 6088SOL     OW19162   0.639   6.902   4.794
 6088SOL    HW119163   0.602   6.928   4.883
 6088SOL    HW219164   0.669   6.807   4.797
 6089SOL     OW19165   0.849   3.535   0.912
 6089SOL    HW119166   0.827   3.438   0.905
 6089SOL    HW219167   0.909   3.549   0.991
 6090SOL     OW19168   0.646   5.948   5.662
 6090SOL    HW119169   0.736   5.922   5.629
 6090SOL    HW219170   0.629   5.906   5.752
 6091SOL     OW19171   6.567   1.688   2.094
 6091SOL    HW119172   6.474   1.706   2.062
 6091SOL    HW219173   6.632   1.721   2.026
 6092SOL     OW19174   2.399   1.044   2.266
 6092SOL    HW119175   2.371   1.033   2.171
 6092SOL    HW219176   2.367   1.132   2.301
 6093SOL     OW19177   1.472   3.047   1.360
 6093SOL    HW119178   1.428   2.970   1.407
 6093SOL    HW219179   1.520   3.013   1.279
 6094SOL     OW19180   1.525   1.445   1.365
 6094SOL    HW119181   1.556   1.537   1.343
 6094SOL    HW219182   1.488   1.402   1.283
 6095SOL     OW19183   5.525   2.978   6.682
 6095SOL    HW119184   5.606   2.958   6.737
 6095SOL    HW219185   5.538   3.065   6.634
 6096SOL     OW19186   4.525   1.378   4.283
 6096SOL    HW119187   4.500   1.283   4.264
 6096SOL    HW219188   4.486   1.438   4.213
 6097SOL     OW19189   2.202   0.786   2.451
 6097SOL    HW119190   2.183   0.877   2.488
 6097SOL    HW219191   2.143   0.770   2.372
 6098SOL     OW19192   2.499   2.484   6.040
 6098SOL    HW119193   2.418   2.465   6.096
 6098SOL    HW219194   2.472   2.533   5.957
 6099SOL     OW19195   6.090   5.664   4.948
 6099SOL    HW119196   6.064   5.588   4.889
 6099SOL    HW219197   6.111   5.744   4.892
 6100SOL     OW19198   6.378   2.930   6.923
 6100SOL    HW119199   6.283   2.931   6.954
 6100SOL    HW219200   6.435   2.981   6.987
 6101SOL     OW19201   6.783   2.180   5.555
 6101SOL    HW119202   6.691   2.175   5.593
 6101SOL    HW219203   6.850   2.187   5.629
 6102SOL     OW19204   3.144   0.720   5.021
 6102SOL    HW119205   3.091   0.804   5.026
 6102SOL    HW219206   3.193   0.716   4.934
 6103SOL     OW19207   6.939   0.753   4.246
 6103SOL    HW119208   6.989   0.672   4.216
 6103SOL    HW219209   6.977   0.785   4.332
 6104SOL     OW19210   5.680   1.779   6.832
 6104SOL    HW119211   5.665   1.842   6.909
 6104SOL    HW219212   5.675   1.831   6.746
 6105SOL     OW19213   3.473   5.947   6.172
 6105SOL    HW119214   3.432   6.022   6.121
 6105SOL    HW219215   3.573   5.956   6.171
 6106SOL     OW19216   2.959   5.105   6.588
 6106SOL    HW119217   2.912   5.156   6.516
 6106SOL    HW219218   3.054   5.137   6.594
 6107SOL     OW19219   2.215   4.861   4.669
 6107SOL    HW119220   2.280   4.871   4.744
 6107SOL    HW219221   2.199   4.763   4.652
 6108SOL     OW19222   0.773   2.549   4.294
 6108SOL    HW119223   0.811   2.536   4.385
 6108SOL    HW219224   0.848   2.558   4.227
 6109SOL     OW19225   5.577   3.066   0.344
 6109SOL    HW119226   5.517   3.107   0.275
 6109SOL    HW219227   5.558   3.107   0.433
 6110SOL     OW19228   3.149   1.959   5.667
 6110SOL    HW119229   3.052   1.938   5.655
 6110SOL    HW219230   3.180   1.927   5.757
 6111SOL     OW19231   1.082   4.819   2.835
 6111SOL    HW119232   1.012   4.751   2.818
 6111SOL    HW219233   1.115   4.811   2.929
 6112SOL     OW19234   1.664   1.473   3.151
 6112SOL    HW119235   1.684   1.558   3.102
 6112SOL    HW219236   1.747   1.417   3.155
 6113SOL     OW19237   1.547   0.992   5.946
 6113SOL    HW119238   1.602   1.017   6.026
 6113SOL    HW219239   1.454   1.028   5.956
 6114SOL     OW19240   4.756   5.875   0.287
 6114SOL    HW119241   4.812   5.865   0.369
 6114SOL    HW219242   4.797   5.943   0.227
 6115SOL     OW19243   4.841   5.264   2.737
 6115SOL    HW119244   4.913   5.251   2.806
 6115SOL    HW219245   4.752   5.264   2.782
 6116SOL     OW19246   3.081   1.233   2.005
 6116SOL    HW119247   3.092   1.290   1.923
 6116SOL    HW219248   3.170   1.197   2.032
 6117SOL     OW19249   6.213   6.975   4.435
 6117SOL    HW119250   6.175   0.043   4.455
 6117SOL    HW219251   6.145   6.919   4.389
 6118SOL     OW19252   6.238   1.112   3.284
 6118SOL    HW119253   6.263   1.019   3.309
 6118SOL    HW219254   6.316   1.173   3.299
 6119SOL     OW19255   0.621   5.442   4.963
 6119SOL    HW119256   0.566   5.381   4.905
 6119SOL    HW219257   0.568   5.523   4.987
 6120SOL     OW19258   3.309   0.081   3.111
 6120SOL    HW119259   3.264   0.102   3.197
 6120SOL    HW219260   3.241   0.056   3.042
 6121SOL     OW19261   0.416   2.460   3.491
 6121SOL    HW119262   0.454   2.545   3.528
 6121SOL    HW219263   0.491   2.403   3.457
 6122SOL     OW19264   4.000   6.051   3.443
 6122SOL    HW119265   4.098   6.073   3.434
 6122SOL    HW219266   3.951   6.131   3.477
 6123SOL     OW19267   6.841   1.059   1.861
 6123SOL    HW119268   6.761   1.014   1.900
 6123SOL    HW219269   6.866   1.014   1.775
 6124SOL     OW19270   3.365   0.399   5.859
 6124SOL    HW119271   3.347   0.497   5.866
 6124SOL    HW219272   3.437   0.373   5.924
 6125SOL     OW19273   1.699   5.797   1.930
 6125SOL    HW119274   1.631   5.725   1.943
 6125SOL    HW219275   1.723   5.803   1.833
 6126SOL     OW19276   5.008   4.642   3.215
 6126SOL    HW119277   5.099   4.602   3.210
 6126SOL    HW219278   5.004   4.726   3.161
 6127SOL     OW19279   2.250   6.163   1.256
 6127SOL    HW119280   2.291   6.109   1.329
 6127SOL    HW219281   2.243   6.259   1.285
 6128SOL     OW19282   0.176   2.808   0.451
 6128SOL    HW119283   0.167   2.889   0.393
 6128SOL    HW219284   0.122   2.733   0.412
 6129SOL     OW19285   6.215   3.713   2.589
 6129SOL    HW119286   6.174   3.727   2.499
 6129SOL    HW219287   6.309   3.679   2.578
 6130SOL     OW19288   5.072   2.781   3.681
 6130SOL    HW119289   5.044   2.867   3.639
 6130SOL    HW219290   5.006   2.756   3.752
 6131SOL     OW19291   6.689   1.304   5.926
 6131SOL    HW119292   6.607   1.337   5.972
 6131SOL    HW219293   6.769   1.349   5.965
 6132SOL     OW19294   3.756   2.757   0.580
 6132SOL    HW119295   3.799   2.796   0.499
 6132SOL    HW219296   3.660   2.736   0.560
 6133SOL     OW19297   0.538   3.559   1.361
 6133SOL    HW119298   0.636   3.576   1.364
 6133SOL    HW219299   0.507   3.555   1.266
 6134SOL     OW19300   3.579   3.795   6.587
 6134SOL    HW119301   3.540   3.881   6.553
 6134SOL    HW219302   3.507   3.742   6.631
 6135SOL     OW19303   6.748   6.886   1.022
 6135SOL    HW119304   6.765   6.866   0.925
 6135SOL    HW219305   6.830   6.927   1.062
 6136SOL     OW19306   1.153   1.884   2.221
 6136SOL    HW119307   1.111   1.906   2.133
 6136SOL    HW219308   1.206   1.963   2.254
 6137SOL     OW19309   3.209   6.689   6.088
 6137SOL    HW119310   3.132   6.632   6.115
 6137SOL    HW219311   3.219   6.687   5.989
 6138SOL     OW19312   4.177   6.699   2.372
 6138SOL    HW119313   4.152   6.732   2.463
 6138SOL    HW219314   4.175   6.775   2.308
 6139SOL     OW19315   1.759   4.203   5.009
 6139SOL    HW119316   1.796   4.114   4.983
 6139SOL    HW219317   1.698   4.192   5.088
 6140SOL     OW19318   1.360   6.992   1.973
 6140SOL    HW119319   1.377   6.898   2.000
 6140SOL    HW219320   1.379   0.031   2.050
 6141SOL     OW19321   6.672   5.276   6.069
 6141SOL    HW119322   6.595   5.340   6.079
 6141SOL    HW219323   6.700   5.243   6.159
 6142SOL     OW19324   6.492   3.452   0.918
 6142SOL    HW119325   6.514   3.392   0.994
 6142SOL    HW219326   6.570   3.458   0.856
 6143SOL     OW19327   6.050   5.136   6.565
 6143SOL    HW119328   6.064   5.203   6.638
 6143SOL    HW219329   5.964   5.155   6.518
 6144SOL     OW19330   6.856   3.982   3.144
 6144SOL    HW119331   6.902   3.895   3.164
 6144SOL    HW219332   6.866   4.043   3.223
 6145SOL     OW19333   5.071   5.527   3.014
 6145SOL    HW119334   4.972   5.516   3.009
 6145SOL    HW219335   5.103   5.580   2.936
 6146SOL     OW19336   5.064   1.238   3.174
 6146SOL    HW119337   5.007   1.218   3.254
 6146SOL    HW219338   5.008   1.229   3.091
 6147SOL     OW19339   2.272   4.089   2.915
 6147SOL    HW119340   2.232   4.005   2.950
 6147SOL    HW219341   2.228   4.114   2.829
 6148SOL     OW19342   5.806   6.403   4.400
 6148SOL    HW119343   5.842   6.454   4.478
 6148SOL    HW219344   5.836   6.308   4.405
 6149SOL     OW19345   3.318   5.233   2.927
 6149SOL    HW119346   3.350   5.159   2.867
 6149SOL    HW219347   3.345   5.214   3.021
 6150SOL     OW19348   4.691   6.023   6.348
 6150SOL    HW119349   4.665   6.102   6.403
 6150SOL    HW219350   4.676   5.939   6.402
 6151SOL     OW19351   5.009   2.570   5.415
 6151SOL    HW119352   4.964   2.481   5.419
 6151SOL    HW219353   4.970   2.623   5.339
 6152SOL     OW19354   5.550   4.325   6.469
 6152SOL    HW119355   5.608   4.365   6.399
 6152SOL    HW219356   5.514   4.237   6.436
 6153SOL     OW19357   4.564   4.117   1.437
 6153SOL    HW119358   4.474   4.073   1.448
 6153SOL    HW219359   4.635   4.047   1.435
 6154SOL     OW19360   6.140   2.244   2.325
 6154SOL    HW119361   6.206   2.183   2.368
 6154SOL    HW219362   6.062   2.190   2.292
 6155SOL     OW19363   0.506   3.529   4.741
 6155SOL    HW119364   0.421   3.477   4.747
 6155SOL    HW219365   0.582   3.468   4.721
 6156SOL     OW19366   5.718   6.657   3.000
 6156SOL    HW119367   5.731   6.558   2.999
 6156SOL    HW219368   5.806   6.703   3.011
 6157SOL     OW19369   1.703   1.895   4.006
 6157SOL    HW119370   1.785   1.881   3.950
 6157SOL    HW219371   1.714   1.978   4.061
 6158SOL     OW19372   4.732   0.731   6.911
 6158SOL    HW119373   4.782   0.754   6.994
 6158SOL    HW219374   4.676   0.650   6.926
 6159SOL     OW19375   5.312   2.296   0.379
 6159SOL    HW119376   5.404   2.282   0.414
 6159SOL    HW219377   5.316   2.319   0.282
 6160SOL     OW19378   5.917   6.018   0.940
 6160SOL    HW119379   5.928   6.109   0.979
 6160SOL    HW219380   5.827   6.010   0.898
 6161SOL     OW19381   5.703   0.528   5.837
 6161SOL    HW119382   5.671   0.506   5.929
 6161SOL    HW219383   5.728   0.625   5.833
 6162SOL     OW19384   0.828   5.567   4.785
 6162SOL    HW119385   0.778   5.521   4.858
 6162SOL    HW219386   0.768   5.579   4.705
 6163SOL     OW19387   5.793   3.763   0.565
 6163SOL    HW119388   5.861   3.815   0.513
 6163SOL    HW219389   5.772   3.812   0.649
 6164SOL     OW19390   3.019   1.063   0.793
 6164SOL    HW119391   3.094   1.113   0.837
 6164SOL    HW219392   3.009   0.973   0.836
 6165SOL     OW19393   4.261   6.167   0.405
 6165SOL    HW119394   4.267   6.100   0.331
 6165SOL    HW219395   4.279   6.258   0.369
 6166SOL     OW19396   2.787   1.267   5.835
 6166SOL    HW119397   2.885   1.289   5.834
 6166SOL    HW219398   2.735   1.344   5.797
 6167SOL     OW19399   0.541   4.202   2.910
 6167SOL    HW119400   0.504   4.267   2.843
 6167SOL    HW219401   0.471   4.133   2.931
 6168SOL     OW19402   0.219   3.985   1.967
 6168SOL    HW119403   0.173   3.994   2.055
 6168SOL    HW219404   0.304   3.933   1.979
 6169SOL     OW19405   2.183   4.144   2.063
 6169SOL    HW119406   2.213   4.125   1.970
 6169SOL    HW219407   2.091   4.183   2.062
 6170SOL     OW19408   0.039   3.343   5.333
 6170SOL    HW119409   0.119   3.289   5.360
 6170SOL    HW219410   0.012   3.318   5.240
 6171SOL     OW19411   0.453   0.758   0.129
 6171SOL    HW119412   0.363   0.801   0.133
 6171SOL    HW219413   0.446   0.662   0.156
 6172SOL     OW19414   0.287   2.693   2.879
 6172SOL    HW119415   0.216   2.694   2.949
 6172SOL    HW219416   0.371   2.654   2.917
 6173SOL     OW19417   6.574   6.861   2.862
 6173SOL    HW119418   6.522   6.904   2.789
 6173SOL    HW219419   6.567   6.916   2.945
 6174SOL     OW19420   5.552   4.059   2.712
 6174SOL    HW119421   5.495   4.059   2.630
 6174SOL    HW219422   5.633   4.002   2.696
 6175SOL     OW19423   2.374   1.057   5.157
 6175SOL    HW119424   2.442   1.010   5.100
 6175SOL    HW219425   2.417   1.137   5.200
 6176SOL     OW19426   4.287   4.235   5.273
 6176SOL    HW119427   4.275   4.334   5.260
 6176SOL    HW219428   4.383   4.211   5.257
 6177SOL     OW19429   5.925   1.471   1.658
 6177SOL    HW119430   5.993   1.422   1.713
 6177SOL    HW219431   5.833   1.441   1.684
 6178SOL     OW19432   5.435   4.161   2.182
 6178SOL    HW119433   5.360   4.114   2.136
 6178SOL    HW219434   5.399   4.215   2.258
 6179SOL     OW19435   6.202   5.226   2.417
 6179SOL    HW119436   6.111   5.265   2.410
 6179SOL    HW219437   6.271   5.296   2.397
 6180SOL     OW19438   2.723   4.812   0.402
 6180SOL    HW119439   2.771   4.854   0.479
 6180SOL    HW219440   2.716   4.878   0.327
 6181SOL     OW19441   4.975   5.291   6.503
 6181SOL    HW119442   4.934   5.319   6.416
 6181SOL    HW219443   5.047   5.223   6.486
 6182SOL     OW19444   2.850   3.345   0.173
 6182SOL    HW119445   2.833   3.260   0.124
 6182SOL    HW219446   2.771   3.406   0.162
 6183SOL     OW19447   0.842   2.244   1.078
 6183SOL    HW119448   0.759   2.241   1.134
 6183SOL    HW219449   0.843   2.165   1.017
 6184SOL     OW19450   2.956   0.728   5.946
 6184SOL    HW119451   2.993   0.788   5.875
 6184SOL    HW219452   2.926   0.642   5.904
 6185SOL     OW19453   3.527   2.777   5.304
 6185SOL    HW119454   3.604   2.777   5.240
 6185SOL    HW219455   3.450   2.827   5.263
 6186SOL     OW19456   6.205   2.087   1.840
 6186SOL    HW119457   6.233   2.082   1.936
 6186SOL    HW219458   6.285   2.083   1.781
 6187SOL     OW19459   5.339   2.342   5.397
 6187SOL    HW119460   5.358   2.334   5.299
 6187SOL    HW219461   5.315   2.436   5.420
 6188SOL     OW19462   1.675   2.134   4.991
 6188SOL    HW119463   1.656   2.095   4.900
 6188SOL    HW219464   1.646   2.069   5.061
 6189SOL     OW19465   5.263   6.290   2.116
 6189SOL    HW119466   5.298   6.227   2.184
 6189SOL    HW219467   5.176   6.328   2.147
 6190SOL     OW19468   6.541   2.127   5.245
 6190SOL    HW119469   6.640   2.121   5.256
 6190SOL    HW219470   6.520   2.168   5.156
 6191SOL     OW19471   3.389   3.614   6.691
 6191SOL    HW119472   3.372   3.520   6.719
 6191SOL    HW219473   3.328   3.676   6.740
 6192SOL     OW19474   2.599   2.039   0.455
 6192SOL    HW119475   2.667   2.106   0.483
 6192SOL    HW219476   2.630   1.993   0.371
 6193SOL     OW19477   5.061   5.471   0.403
 6193SOL    HW119478   5.138   5.482   0.340
 6193SOL    HW219479   4.981   5.439   0.353
 6194SOL     OW19480   6.547   0.605   6.043
 6194SOL    HW119481   6.594   0.630   5.959
 6194SOL    HW219482   6.470   0.667   6.059
 6195SOL     OW19483   6.170   6.674   5.181
 6195SOL    HW119484   6.229   6.714   5.251
 6195SOL    HW219485   6.224   6.659   5.097
 6196SOL     OW19486   5.391   3.654   3.009
 6196SOL    HW119487   5.350   3.563   3.020
 6196SOL    HW219488   5.412   3.692   3.099
 6197SOL     OW19489   3.079   5.258   2.189
 6197SOL    HW119490   3.174   5.236   2.208
 6197SOL    HW219491   3.037   5.298   2.271
 6198SOL     OW19492   6.283   6.473   6.461
 6198SOL    HW119493   6.259   6.396   6.402
 6198SOL    HW219494   6.314   6.438   6.550
 6199SOL     OW19495   1.231   7.009   0.883
 6199SOL    HW119496   1.261   7.005   0.788
 6199SOL    HW219497   1.254   6.923   0.929
 6200SOL     OW19498   2.203   2.121   2.464
 6200SOL    HW119499   2.130   2.138   2.530
 6200SOL    HW219500   2.191   2.031   2.422
 6201SOL     OW19501   6.677   3.460   3.804
 6201SOL    HW119502   6.639   3.527   3.740
 6201SOL    HW219503   6.620   3.455   3.886
 6202SOL     OW19504   6.266   1.217   2.526
 6202SOL    HW119505   6.303   1.306   2.498
 6202SOL    HW219506   6.277   1.152   2.451
 6203SOL     OW19507   6.522   5.576   1.916
 6203SOL    HW119508   6.462   5.538   1.846
 6203SOL    HW219509   6.543   5.671   1.894
 6204SOL     OW19510   1.745   0.043   5.277
 6204SOL    HW119511   1.675   0.114   5.286
 6204SOL    HW219512   1.786   0.047   5.186
 6205SOL     OW19513   5.012   4.185   2.416
 6205SOL    HW119514   5.020   4.112   2.484
 6205SOL    HW219515   4.927   4.175   2.365
 6206SOL     OW19516   5.291   1.983   4.079
 6206SOL    HW119517   5.247   2.071   4.097
 6206SOL    HW219518   5.390   1.996   4.070
 6207SOL     OW19519   1.924   5.884   4.615
 6207SOL    HW119520   1.969   5.811   4.564
 6207SOL    HW219521   1.974   5.902   4.699
 6208SOL     OW19522   3.749   2.797   5.706
 6208SOL    HW119523   3.836   2.840   5.729
 6208SOL    HW219524   3.717   2.833   5.618
 6209SOL     OW19525   3.952   3.972   1.165
 6209SOL    HW119526   3.877   3.907   1.160
 6209SOL    HW219527   4.038   3.923   1.181
 6210SOL     OW19528   4.583   2.615   3.704
 6210SOL    HW119529   4.505   2.564   3.668
 6210SOL    HW219530   4.665   2.594   3.650
 6211SOL     OW19531   4.735   5.233   4.839
 6211SOL    HW119532   4.679   5.178   4.776
 6211SOL    HW219533   4.794   5.294   4.786
 6212SOL     OW19534   4.093   4.789   6.081
 6212SOL    HW119535   3.994   4.803   6.081
 6212SOL    HW219536   4.138   4.867   6.125
 6213SOL     OW19537   4.472   5.940   0.353
 6213SOL    HW119538   4.442   6.018   0.407
 6213SOL    HW219539   4.571   5.947   0.336
 6214SOL     OW19540   6.237   5.880   5.278
 6214SOL    HW119541   6.296   5.799   5.281
 6214SOL    HW219542   6.265   5.939   5.203
 6215SOL     OW19543   4.910   2.406   6.215
 6215SOL    HW119544   4.960   2.474   6.269
 6215SOL    HW219545   4.819   2.393   6.255
 6216SOL     OW19546   4.788   2.896   3.124
 6216SOL    HW119547   4.778   2.901   3.223
 6216SOL    HW219548   4.784   2.800   3.095
 6217SOL     OW19549   1.056   4.529   2.338
 6217SOL    HW119550   1.054   4.440   2.385
 6217SOL    HW219551   1.049   4.514   2.239
 6218SOL     OW19552   4.501   6.741   0.276
 6218SOL    HW119553   4.440   6.815   0.304
 6218SOL    HW219554   4.565   6.775   0.206
 6219SOL     OW19555   1.114   1.070   5.363
 6219SOL    HW119556   1.178   1.144   5.344
 6219SOL    HW219557   1.134   0.992   5.304
 6220SOL     OW19558   4.021   0.759   1.109
 6220SOL    HW119559   3.933   0.804   1.098
 6220SOL    HW219560   4.045   0.755   1.206
 6221SOL     OW19561   6.144   5.930   6.486
 6221SOL    HW119562   6.203   5.870   6.431
 6221SOL    HW219563   6.059   5.948   6.437
 6222SOL     OW19564   6.431   1.466   2.774
 6222SOL    HW119565   6.500   1.396   2.791
 6222SOL    HW219566   6.379   1.442   2.692
 6223SOL     OW19567   0.385   5.257   4.032
 6223SOL    HW119568   0.431   5.277   4.118
 6223SOL    HW219569   0.287   5.273   4.042
 6224SOL     OW19570   4.283   1.954   6.477
 6224SOL    HW119571   4.236   2.041   6.486
 6224SOL    HW219572   4.375   1.960   6.517
 6225SOL     OW19573   4.042   6.877   6.447
 6225SOL    HW119574   4.109   6.815   6.406
 6225SOL    HW219575   4.089   6.938   6.511
 6226SOL     OW19576   0.986   1.509   4.296
 6226SOL    HW119577   1.053   1.436   4.285
 6226SOL    HW219578   0.894   1.471   4.302
 6227SOL     OW19579   3.306   3.836   5.214
 6227SOL    HW119580   3.386   3.800   5.166
 6227SOL    HW219581   3.268   3.913   5.163
 6228SOL     OW19582   1.913   2.821   3.890
 6228SOL    HW119583   1.818   2.790   3.876
 6228SOL    HW219584   1.972   2.741   3.901
 6229SOL     OW19585   0.505   3.715   3.998
 6229SOL    HW119586   0.423   3.669   4.032
 6229SOL    HW219587   0.481   3.771   3.918
 6230SOL     OW19588   0.593   0.832   1.848
 6230SOL    HW119589   0.525   0.899   1.879
 6230SOL    HW219590   0.660   0.877   1.789
 6231SOL     OW19591   6.812   4.676   0.227
 6231SOL    HW119592   6.888   4.628   0.182
 6231SOL    HW219593   6.832   4.774   0.229
 6232SOL     OW19594   4.742   1.265   0.028
 6232SOL    HW119595   4.685   1.287   0.107
 6232SOL    HW219596   4.809   1.195   0.054
 6233SOL     OW19597   0.011   3.747   1.312
 6233SOL    HW119598   0.037   3.659   1.272
 6233SOL    HW219599   0.051   3.756   1.403
 6234SOL     OW19600   6.159   0.214   4.504
 6234SOL    HW119601   6.181   0.213   4.601
 6234SOL    HW219602   6.148   0.308   4.473
 6235SOL     OW19603   6.726   1.076   2.381
 6235SOL    HW119604   6.768   0.998   2.334
 6235SOL    HW219605   6.641   1.047   2.425
 6236SOL     OW19606   0.548   4.487   1.169
 6236SOL    HW119607   0.630   4.483   1.112
 6236SOL    HW219608   0.529   4.582   1.193
 6237SOL     OW19609   3.709   0.757   1.260
 6237SOL    HW119610   3.623   0.748   1.309
 6237SOL    HW219611   3.768   0.678   1.280
 6238SOL     OW19612   2.344   6.473   4.540
 6238SOL    HW119613   2.252   6.486   4.578
 6238SOL    HW219614   2.413   6.494   4.609
 6239SOL     OW19615   4.710   0.697   3.288
 6239SOL    HW119616   4.741   0.629   3.222
 6239SOL    HW219617   4.752   0.678   3.377
 6240SOL     OW19618   4.057   3.189   4.157
 6240SOL    HW119619   3.983   3.199   4.091
 6240SOL    HW219620   4.093   3.096   4.153
 6241SOL     OW19621   3.076   6.682   3.820
 6241SOL    HW119622   3.115   6.634   3.741
 6241SOL    HW219623   2.978   6.691   3.807
 6242SOL     OW19624   2.953   1.831   3.661
 6242SOL    HW119625   2.964   1.807   3.758
 6242SOL    HW219626   2.992   1.758   3.605
 6243SOL     OW19627   5.309   1.457   6.179
 6243SOL    HW119628   5.394   1.412   6.149
 6243SOL    HW219629   5.325   1.502   6.266
 6244SOL     OW19630   4.492   4.580   2.803
 6244SOL    HW119631   4.550   4.561   2.882
 6244SOL    HW219632   4.519   4.522   2.726
 6245SOL     OW19633   0.663   4.334   2.498
 6245SOL    HW119634   0.626   4.330   2.405
 6245SOL    HW219635   0.677   4.242   2.533
 6246SOL     OW19636   0.063   6.860   4.447
 6246SOL    HW119637   7.019   6.812   4.504
 6246SOL    HW219638   0.043   6.958   4.448
 6247SOL     OW19639   6.261   5.859   2.955
 6247SOL    HW119640   6.243   5.920   2.878
 6247SOL    HW219641   6.356   5.869   2.984
 6248SOL     OW19642   3.639   3.077   6.634
 6248SOL    HW119643   3.585   3.016   6.692
 6248SOL    HW219644   3.677   3.025   6.557
 6249SOL     OW19645   6.156   2.829   0.977
 6249SOL    HW119646   6.210   2.875   1.047
 6249SOL    HW219647   6.078   2.887   0.951
 6250SOL     OW19648   0.118   0.696   0.583
 6250SOL    HW119649   0.128   0.600   0.560
 6250SOL    HW219650   0.046   0.707   0.652
 6251SOL     OW19651   2.882   6.569   4.500
 6251SOL    HW119652   2.824   6.599   4.575
 6251SOL    HW219653   2.967   6.531   4.536
 6252SOL     OW19654   2.654   5.757   0.117
 6252SOL    HW119655   2.701   5.672   0.142
 6252SOL    HW219656   2.561   5.757   0.153
 6253SOL     OW19657   3.259   4.887   4.577
 6253SOL    HW119658   3.251   4.873   4.478
 6253SOL    HW219659   3.169   4.872   4.620
 6254SOL     OW19660   6.954   5.992   0.581
 6254SOL    HW119661   6.903   5.947   0.655
 6254SOL    HW219662   6.921   6.086   0.571
 6255SOL     OW19663   0.108   1.512   1.162
 6255SOL    HW119664   0.203   1.492   1.186
 6255SOL    HW219665   0.048   1.443   1.203
 6256SOL     OW19666   4.830   5.737   2.706
 6256SOL    HW119667   4.751   5.679   2.724
 6256SOL    HW219668   4.832   5.812   2.773
 6257SOL     OW19669   4.267   4.213   1.266
 6257SOL    HW119670   4.321   4.141   1.310
 6257SOL    HW219671   4.172   4.207   1.296
 6258SOL     OW19672   4.430   6.202   5.642
 6258SOL    HW119673   4.350   6.173   5.590
 6258SOL    HW219674   4.412   6.291   5.684
 6259SOL     OW19675   2.282   0.552   5.237
 6259SOL    HW119676   2.305   0.480   5.303
 6259SOL    HW219677   2.192   0.532   5.197
 6260SOL     OW19678   2.209   1.268   0.502
 6260SOL    HW119679   2.202   1.211   0.420
 6260SOL    HW219680   2.118   1.296   0.531
 6261SOL     OW19681   3.752   6.174   1.512
 6261SOL    HW119682   3.836   6.202   1.466
 6261SOL    HW219683   3.754   6.075   1.528
 6262SOL     OW19684   0.031   0.053   2.183
 6262SOL    HW119685   0.130   0.067   2.190
 6262SOL    HW219686   0.012   6.979   2.163
 6263SOL     OW19687   6.271   6.400   5.271
 6263SOL    HW119688   6.202   6.355   5.327
 6263SOL    HW219689   6.229   6.476   5.222
 6264SOL     OW19690   1.533   6.779   1.231
 6264SOL    HW119691   1.526   6.858   1.171
 6264SOL    HW219692   1.530   6.695   1.176
 6265SOL     OW19693   4.917   1.795   0.023
 6265SOL    HW119694   4.942   1.861   0.093
 6265SOL    HW219695   4.903   1.706   0.065
 6266SOL     OW19696   2.544   5.556   3.662
 6266SOL    HW119697   2.561   5.653   3.646
 6266SOL    HW219698   2.467   5.526   3.606
 6267SOL     OW19699   1.371   6.683   5.193
 6267SOL    HW119700   1.440   6.745   5.232
 6267SOL    HW219701   1.285   6.693   5.244
 6268SOL     OW19702   3.332   0.493   2.017
 6268SOL    HW119703   3.339   0.577   2.071
 6268SOL    HW219704   3.361   0.415   2.072
 6269SOL     OW19705   5.824   5.546   1.088
 6269SOL    HW119706   5.845   5.484   1.164
 6269SOL    HW219707   5.875   5.631   1.100
 6270SOL     OW19708   1.789   6.429   0.580
 6270SOL    HW119709   1.863   6.369   0.613
 6270SOL    HW219710   1.789   6.514   0.633
 6271SOL     OW19711   6.010   3.357   6.575
 6271SOL    HW119712   6.014   3.289   6.502
 6271SOL    HW219713   5.939   3.331   6.641
 6272SOL     OW19714   6.545   0.117   0.450
 6272SOL    HW119715   6.587   0.138   0.538
 6272SOL    HW219716   6.473   0.184   0.431
 6273SOL     OW19717   7.004   0.384   1.728
 6273SOL    HW119718   6.914   0.418   1.754
 6273SOL    HW219719   0.005   0.305   1.784
 6274SOL     OW19720   3.633   5.788   5.213
 6274SOL    HW119721   3.607   5.748   5.301
 6274SOL    HW219722   3.559   5.774   5.147
 6275SOL     OW19723   1.872   5.255   6.724
 6275SOL    HW119724   1.829   5.344   6.737
 6275SOL    HW219725   1.834   5.189   6.789
 6276SOL     OW19726   1.708   5.891   3.057
 6276SOL    HW119727   1.725   5.949   3.137
 6276SOL    HW219728   1.642   5.820   3.081
 6277SOL     OW19729   5.615   2.825   1.406
 6277SOL    HW119730   5.548   2.842   1.479
 6277SOL    HW219731   5.707   2.829   1.444
 6278SOL     OW19732   2.886   0.096   6.190
 6278SOL    HW119733   2.915   0.001   6.180
 6278SOL    HW219734   2.954   0.146   6.244
 6279SOL     OW19735   2.905   6.876   1.747
 6279SOL    HW119736   2.937   6.917   1.833
 6279SOL    HW219737   2.862   6.788   1.767
 6280SOL     OW19738   6.732   1.659   6.796
 6280SOL    HW119739   6.787   1.680   6.876
 6280SOL    HW219740   6.792   1.641   6.718
 6281SOL     OW19741   6.066   4.285   5.326
 6281SOL    HW119742   5.992   4.267   5.391
 6281SOL    HW219743   6.154   4.279   5.373
 6282SOL     OW19744   0.627   3.512   5.712
 6282SOL    HW119745   0.694   3.480   5.779
 6282SOL    HW219746   0.652   3.604   5.681
 6283SOL     OW19747   1.056   6.227   5.328
 6283SOL    HW119748   1.154   6.245   5.337
 6283SOL    HW219749   1.009   6.255   5.412
 6284SOL     OW19750   2.340   4.801   6.623
 6284SOL    HW119751   2.424   4.779   6.574
 6284SOL    HW219752   2.328   4.737   6.699
 6285SOL     OW19753   1.076   3.348   3.604
 6285SOL    HW119754   1.121   3.341   3.693
 6285SOL    HW219755   1.037   3.259   3.580
 6286SOL     OW19756   1.000   2.925   4.954
 6286SOL    HW119757   0.911   2.968   4.970
 6286SOL    HW219758   1.030   2.878   5.037
 6287SOL     OW19759   4.562   4.966   5.026
 6287SOL    HW119760   4.519   4.966   4.936
 6287SOL    HW219761   4.658   4.940   5.017
 6288SOL     OW19762   3.889   3.222   6.797
 6288SOL    HW119763   3.947   3.271   6.861
 6288SOL    HW219764   3.915   3.126   6.795
 6289SOL     OW19765   2.857   4.705   5.849
 6289SOL    HW119766   2.808   4.775   5.901
 6289SOL    HW219767   2.793   4.656   5.790
 6290SOL     OW19768   5.033   5.573   5.087
 6290SOL    HW119769   4.958   5.639   5.091
 6290SOL    HW219770   5.096   5.598   5.014
 6291SOL     OW19771   3.038   3.102   2.747
 6291SOL    HW119772   3.113   3.037   2.760
 6291SOL    HW219773   2.996   3.122   2.835
 6292SOL     OW19774   2.055   3.195   4.673
 6292SOL    HW119775   2.118   3.193   4.751
 6292SOL    HW219776   1.969   3.239   4.701
 6293SOL     OW19777   4.307   1.329   6.464
 6293SOL    HW119778   4.316   1.257   6.396
 6293SOL    HW219779   4.367   1.310   6.542
 6294SOL     OW19780   2.381   1.412   3.356
 6294SOL    HW119781   2.455   1.456   3.408
 6294SOL    HW219782   2.352   1.472   3.281
 6295SOL     OW19783   5.638   4.023   5.790
 6295SOL    HW119784   5.615   4.116   5.760
 6295SOL    HW219785   5.556   3.965   5.786
 6296SOL     OW19786   0.536   2.492   6.374
 6296SOL    HW119787   0.472   2.460   6.304
 6296SOL    HW219788   0.484   2.528   6.452
 6297SOL     OW19789   5.641   0.721   4.142
 6297SOL    HW119790   5.588   0.799   4.177
 6297SOL    HW219791   5.677   0.744   4.052
 6298SOL     OW19792   6.134   5.002   0.683
 6298SOL    HW119793   6.056   4.944   0.708
 6298SOL    HW219794   6.123   5.034   0.589
 6299SOL     OW19795   5.046   1.965   2.679
 6299SOL    HW119796   5.140   1.961   2.713
 6299SOL    HW219797   5.030   2.052   2.633
 6300SOL     OW19798   3.092   0.225   6.002
 6300SOL    HW119799   3.110   0.159   6.075
 6300SOL    HW219800   3.157   0.300   6.008
 6301SOL     OW19801   3.455   6.556   0.642
 6301SOL    HW119802   3.454   6.649   0.679
 6301SOL    HW219803   3.367   6.512   0.658
 6302SOL     OW19804   2.696   1.085   5.652
 6302SOL    HW119805   2.694   1.135   5.739
 6302SOL    HW219806   2.766   1.125   5.593
 6303SOL     OW19807   1.167   5.746   5.739
 6303SOL    HW119808   1.135   5.654   5.713
 6303SOL    HW219809   1.240   5.774   5.678
 6304SOL     OW19810   3.880   1.119   3.332
 6304SOL    HW119811   3.789   1.125   3.375
 6304SOL    HW219812   3.871   1.083   3.240
 6305SOL     OW19813   0.558   6.326   5.987
 6305SOL    HW119814   0.541   6.248   6.047
 6305SOL    HW219815   0.620   6.390   6.031
 6306SOL     OW19816   6.952   4.576   4.033
 6306SOL    HW119817   6.898   4.500   4.000
 6306SOL    HW219818   0.022   4.544   4.057
 6307SOL     OW19819   4.126   3.375   3.407
 6307SOL    HW119820   4.132   3.474   3.420
 6307SOL    HW219821   4.132   3.329   3.495
 6308SOL     OW19822   0.332   2.669   0.030
 6308SOL    HW119823   0.344   2.746   0.091
 6308SOL    HW219824   0.416   2.655   6.999
 6309SOL     OW19825   1.879   5.986   4.280
 6309SOL    HW119826   1.823   5.911   4.245
 6309SOL    HW219827   1.944   5.950   4.347
 6310SOL     OW19828   1.692   6.383   3.164
 6310SOL    HW119829   1.790   6.387   3.182
 6310SOL    HW219830   1.676   6.352   3.070
 6311SOL     OW19831   4.979   1.158   6.447
 6311SOL    HW119832   4.938   1.096   6.514
 6311SOL    HW219833   4.928   1.244   6.447
 6312SOL     OW19834   3.272   6.487   6.674
 6312SOL    HW119835   3.179   6.522   6.678
 6312SOL    HW219836   3.335   6.554   6.714
 6313SOL     OW19837   5.548   6.195   3.605
 6313SOL    HW119838   5.456   6.234   3.597
 6313SOL    HW219839   5.542   6.095   3.603
 6314SOL     OW19840   2.183   6.657   1.888
 6314SOL    HW119841   2.116   6.675   1.959
 6314SOL    HW219842   2.152   6.695   1.801
 6315SOL     OW19843   2.341   2.687   3.916
 6315SOL    HW119844   2.304   2.779   3.930
 6315SOL    HW219845   2.374   2.651   4.003
 6316SOL     OW19846   5.767   1.316   5.004
 6316SOL    HW119847   5.788   1.294   5.099
 6316SOL    HW219848   5.752   1.415   4.994
 6317SOL     OW19849   4.840   4.886   1.965
 6317SOL    HW119850   4.830   4.845   1.874
 6317SOL    HW219851   4.857   4.984   1.956
 6318SOL     OW19852   6.358   0.131   5.622
 6318SOL    HW119853   6.417   0.135   5.703
 6318SOL    HW219854   6.407   0.169   5.543
 6319SOL     OW19855   5.758   1.795   4.568
 6319SOL    HW119856   5.704   1.866   4.522
 6319SOL    HW219857   5.764   1.815   4.665
 6320SOL     OW19858   6.603   0.892   4.639
 6320SOL    HW119859   6.655   0.834   4.577
 6320SOL    HW219860   6.601   0.986   4.603
 6321SOL     OW19861   5.662   1.959   0.287
 6321SOL    HW119862   5.701   1.869   0.267
 6321SOL    HW219863   5.611   1.955   0.373
 6322SOL     OW19864   1.485   0.811   1.648
 6322SOL    HW119865   1.558   0.770   1.702
 6322SOL    HW219866   1.524   0.869   1.577
 6323SOL     OW19867   3.013   3.256   1.699
 6323SOL    HW119868   2.922   3.271   1.661
 6323SOL    HW219869   3.073   3.332   1.674
 6324SOL     OW19870   4.372   1.730   1.034
 6324SOL    HW119871   4.279   1.749   1.004
 6324SOL    HW219872   4.369   1.671   1.115
 6325SOL     OW19873   1.933   2.409   3.214
 6325SOL    HW119874   1.853   2.463   3.240
 6325SOL    HW219875   2.016   2.457   3.244
 6326SOL     OW19876   5.305   4.694   6.201
 6326SOL    HW119877   5.301   4.663   6.296
 6326SOL    HW219878   5.221   4.667   6.153
 6327SOL     OW19879   0.086   0.252   3.327
 6327SOL    HW119880   0.185   0.243   3.327
 6327SOL    HW219881   0.058   0.312   3.402
 6328SOL     OW19882   4.453   3.700   5.841
 6328SOL    HW119883   4.549   3.714   5.817
 6328SOL    HW219884   4.395   3.731   5.766
 6329SOL     OW19885   1.424   2.972   5.351
 6329SOL    HW119886   1.409   2.910   5.427
 6329SOL    HW219887   1.508   3.023   5.366
 6330SOL     OW19888   5.356   0.910   3.378
 6330SOL    HW119889   5.258   0.924   3.389
 6330SOL    HW219890   5.406   0.980   3.430
 6331SOL     OW19891   0.164   3.233   2.716
 6331SOL    HW119892   0.099   3.309   2.714
 6331SOL    HW219893   0.219   3.234   2.632
 6332SOL     OW19894   2.574   1.279   0.643
 6332SOL    HW119895   2.672   1.296   0.658
 6332SOL    HW219896   2.537   1.352   0.586
 6333SOL     OW19897   4.494   1.287   0.694
 6333SOL    HW119898   4.418   1.251   0.640
 6333SOL    HW219899   4.466   1.373   0.737
 6334SOL     OW19900   1.847   1.054   1.882
 6334SOL    HW119901   1.755   1.069   1.846
 6334SOL    HW219902   1.852   1.087   1.977
 6335SOL     OW19903   6.203   1.335   1.040
 6335SOL    HW119904   6.255   1.420   1.033
 6335SOL    HW219905   6.257   1.260   1.002
 6336SOL     OW19906   1.063   3.110   5.862
 6336SOL    HW119907   1.032   3.015   5.864
 6336SOL    HW219908   1.163   3.113   5.868
 6337SOL     OW19909   4.396   5.702   4.934
 6337SOL    HW119910   4.322   5.758   4.972
 6337SOL    HW219911   4.466   5.762   4.895
 6338SOL     OW19912   2.948   1.879   4.223
 6338SOL    HW119913   3.023   1.867   4.288
 6338SOL    HW219914   2.864   1.843   4.264
 6339SOL     OW19915   1.133   4.414   3.291
 6339SOL    HW119916   1.090   4.343   3.236
 6339SOL    HW219917   1.106   4.403   3.387
 6340SOL     OW19918   2.102   4.292   1.596
 6340SOL    HW119919   2.169   4.339   1.538
 6340SOL    HW219920   2.044   4.360   1.641
 6341SOL     OW19921   1.115   4.512   3.605
 6341SOL    HW119922   1.117   4.594   3.548
 6341SOL    HW219923   1.069   4.533   3.691
 6342SOL     OW19924   2.220   1.844   1.871
 6342SOL    HW119925   2.269   1.928   1.847
 6342SOL    HW219926   2.159   1.819   1.796
 6343SOL     OW19927   2.515   5.856   1.310
 6343SOL    HW119928   2.514   5.796   1.390
 6343SOL    HW219929   2.459   5.816   1.238
 6344SOL     OW19930   6.544   1.483   3.639
 6344SOL    HW119931   6.584   1.450   3.553
 6344SOL    HW219932   6.582   1.573   3.661
 6345SOL     OW19933   5.857   3.709   1.756
 6345SOL    HW119934   5.810   3.792   1.725
 6345SOL    HW219935   5.802   3.629   1.730
 6346SOL     OW19936   0.003   4.460   5.546
 6346SOL    HW119937   0.081   4.497   5.495
 6346SOL    HW219938   6.940   4.483   5.499
 6347SOL     OW19939   2.452   1.699   2.862
 6347SOL    HW119940   2.384   1.771   2.856
 6347SOL    HW219941   2.523   1.714   2.792
 6348SOL     OW19942   6.830   2.523   5.770
 6348SOL    HW119943   6.897   2.497   5.701
 6348SOL    HW219944   6.837   2.462   5.849
 6349SOL     OW19945   6.854   1.156   6.956
 6349SOL    HW119946   6.863   1.066   7.000
 6349SOL    HW219947   6.925   1.167   6.887
 6350SOL     OW19948   1.897   4.863   1.956
 6350SOL    HW119949   1.886   4.960   1.978
 6350SOL    HW219950   1.993   4.838   1.961
 6351SOL     OW19951   5.754   3.253   2.339
 6351SOL    HW119952   5.761   3.336   2.283
 6351SOL    HW219953   5.689   3.190   2.297
 6352SOL     OW19954   2.472   0.240   4.981
 6352SOL    HW119955   2.497   0.258   5.076
 6352SOL    HW219956   2.554   0.214   4.930
 6353SOL     OW19957   3.304   5.907   6.415
 6353SOL    HW119958   3.328   5.934   6.508
 6353SOL    HW219959   3.385   5.912   6.356
 6354SOL     OW19960   4.495   4.941   2.430
 6354SOL    HW119961   4.463   4.847   2.425
 6354SOL    HW219962   4.512   4.976   2.338
 6355SOL     OW19963   2.780   5.041   0.942
 6355SOL    HW119964   2.717   5.009   1.013
 6355SOL    HW219965   2.866   4.990   0.948
 6356SOL     OW19966   5.975   3.713   6.326
 6356SOL    HW119967   6.040   3.789   6.336
 6356SOL    HW219968   5.888   3.748   6.292
 6357SOL     OW19969   5.302   1.371   1.351
 6357SOL    HW119970   5.288   1.272   1.362
 6357SOL    HW219971   5.232   1.407   1.289
 6358SOL     OW19972   1.283   2.088   6.828
 6358SOL    HW119973   1.184   2.075   6.822
 6358SOL    HW219974   1.309   2.169   6.776
 6359SOL     OW19975   5.712   6.231   0.347
 6359SOL    HW119976   5.736   6.307   0.407
 6359SOL    HW219977   5.795   6.193   0.307
 6360SOL     OW19978   1.000   2.656   2.043
 6360SOL    HW119979   1.071   2.592   2.015
 6360SOL    HW219980   1.006   2.672   2.142
 6361SOL     OW19981   0.699   0.571   0.171
 6361SOL    HW119982   0.607   0.577   0.211
 6361SOL    HW219983   0.694   0.524   0.083
 6362SOL     OW19984   1.152   5.327   0.142
 6362SOL    HW119985   1.114   5.267   0.213
 6362SOL    HW219986   1.084   5.396   0.117
 6363SOL     OW19987   2.706   5.102   3.819
 6363SOL    HW119988   2.798   5.127   3.790
 6363SOL    HW219989   2.688   5.007   3.793
 6364SOL     OW19990   2.427   2.659   4.630
 6364SOL    HW119991   2.405   2.736   4.689
 6364SOL    HW219992   2.388   2.674   4.539
 6365SOL     OW19993   6.222   5.416   3.411
 6365SOL    HW119994   6.247   5.322   3.437
 6365SOL    HW219995   6.157   5.453   3.478
 6366SOL     OW19996   5.876   0.001   4.631
 6366SOL    HW119997   5.786   0.043   4.642
 6366SOL    HW219998   5.890   7.001   4.534
 6367SOL     OW19999   2.487   2.056   2.912
 6367SOL    HW120000   2.424   2.131   2.933
 6367SOL    HW220001   2.568   2.064   2.971
 6368SOL     OW20002   4.968   3.060   4.720
 6368SOL    HW120003   5.034   2.986   4.735
 6368SOL    HW220004   4.930   3.089   4.808
 6369SOL     OW20005   2.974   5.713   6.408
 6369SOL    HW120006   3.055   5.723   6.349
 6369SOL    HW220007   2.894   5.696   6.351
 6370SOL     OW20008   5.512   3.314   4.200
 6370SOL    HW120009   5.430   3.370   4.192
 6370SOL    HW220010   5.496   3.225   4.155
 6371SOL     OW20011   5.589   3.853   2.148
 6371SOL    HW120012   5.671   3.901   2.117
 6371SOL    HW220013   5.551   3.800   2.072
 6372SOL     OW20014   6.922   1.166   3.018
 6372SOL    HW120015   6.987   1.166   2.942
 6372SOL    HW220016   6.835   1.129   2.986
 6373SOL     OW20017   4.968   4.151   1.708
 6373SOL    HW120018   5.028   4.071   1.703
 6373SOL    HW220019   5.010   4.220   1.767
 6374SOL     OW20020   4.740   2.959   0.465
 6374SOL    HW120021   4.805   2.889   0.438
 6374SOL    HW220022   4.649   2.936   0.429
 6375SOL     OW20023   6.575   2.661   1.816
 6375SOL    HW120024   6.484   2.662   1.776
 6375SOL    HW220025   6.592   2.572   1.858
 6376SOL     OW20026   3.323   0.895   6.908
 6376SOL    HW120027   3.406   0.842   6.926
 6376SOL    HW220028   3.315   0.968   6.975
 6377SOL     OW20029   6.810   0.526   0.423
 6377SOL    HW120030   6.833   0.547   0.518
 6377SOL    HW220031   6.711   0.514   0.414
 6378SOL     OW20032   5.370   5.685   3.415
 6378SOL    HW120033   5.440   5.700   3.346
 6378SOL    HW220034   5.280   5.679   3.371
 6379SOL     OW20035   3.034   6.139   0.362
 6379SOL    HW120036   3.115   6.080   0.365
 6379SOL    HW220037   3.005   6.160   0.455
 6380SOL     OW20038   1.392   3.689   4.947
 6380SOL    HW120039   1.313   3.662   5.002
 6380SOL    HW220040   1.375   3.667   4.851
 6381SOL     OW20041   4.316   2.732   0.178
 6381SOL    HW120042   4.243   2.793   0.146
 6381SOL    HW220043   4.356   2.684   0.101
 6382SOL     OW20044   2.082   1.753   1.325
 6382SOL    HW120045   2.141   1.829   1.353
 6382SOL    HW220046   2.133   1.667   1.332
 6383SOL     OW20047   1.925   2.354   2.553
 6383SOL    HW120048   1.962   2.440   2.519
 6383SOL    HW220049   1.832   2.368   2.586
 6384SOL     OW20050   6.182   2.462   2.154
 6384SOL    HW120051   6.146   2.382   2.202
 6384SOL    HW220052   6.210   2.435   2.061
 6385SOL     OW20053   0.045   2.926   1.007
 6385SOL    HW120054   7.017   2.897   0.925
 6385SOL    HW220055   0.142   2.904   0.997
 6386SOL     OW20056   2.111   3.290   0.065
 6386SOL    HW120057   2.112   3.216   0.132
 6386SOL    HW220058   2.146   3.256   6.999
 6387SOL     OW20059   6.907   0.395   6.682
 6387SOL    HW120060   6.919   0.361   6.776
 6387SOL    HW220061   6.906   0.318   6.619
 6388SOL     OW20062   6.436   5.383   2.370
 6388SOL    HW120063   6.479   5.376   2.280
 6388SOL    HW220064   6.501   5.356   2.441
 6389SOL     OW20065   1.292   0.899   6.652
 6389SOL    HW120066   1.309   0.998   6.649
 6389SOL    HW220067   1.293   0.862   6.559
 6390SOL     OW20068   6.589   1.309   6.360
 6390SOL    HW120069   6.634   1.397   6.375
 6390SOL    HW220070   6.572   1.265   6.448
 6391SOL     OW20071   0.959   1.496   5.141
 6391SOL    HW120072   1.007   1.568   5.091
 6391SOL    HW220073   0.993   1.493   5.235
 6392SOL     OW20074   4.238   6.452   3.447
 6392SOL    HW120075   4.140   6.434   3.456
 6392SOL    HW220076   4.277   6.466   3.538
 6393SOL     OW20077   6.737   5.693   1.104
 6393SOL    HW120078   6.749   5.708   1.202
 6393SOL    HW220079   6.777   5.605   1.078
 6394SOL     OW20080   1.342   5.393   1.192
 6394SOL    HW120081   1.427   5.445   1.196
 6394SOL    HW220082   1.330   5.342   1.277
 6395SOL     OW20083   2.004   4.607   3.450
 6395SOL    HW120084   2.087   4.590   3.398
 6395SOL    HW220085   1.925   4.575   3.398
 6396SOL     OW20086   0.929   3.562   0.430
 6396SOL    HW120087   0.998   3.545   0.500
 6396SOL    HW220088   0.865   3.484   0.426
 6397SOL     OW20089   5.935   2.840   3.432
 6397SOL    HW120090   5.871   2.772   3.469
 6397SOL    HW220091   6.028   2.803   3.433
 6398SOL     OW20092   1.466   0.127   1.111
 6398SOL    HW120093   1.472   0.204   1.047
 6398SOL    HW220094   1.479   0.042   1.061
 6399SOL     OW20095   2.723   0.836   6.021
 6399SOL    HW120096   2.724   0.936   6.032
 6399SOL    HW220097   2.808   0.805   5.979
 6400SOL     OW20098   1.037   5.873   2.909
 6400SOL    HW120099   1.115   5.936   2.914
 6400SOL    HW220100   0.958   5.920   2.870
 6401SOL     OW20101   3.761   6.166   3.493
 6401SOL    HW120102   3.699   6.162   3.573
 6401SOL    HW220103   3.759   6.077   3.447
 6402SOL     OW20104   2.195   5.242   4.947
 6402SOL    HW120105   2.149   5.160   4.981
 6402SOL    HW220106   2.294   5.226   4.944
 6403SOL     OW20107   4.385   5.885   4.578
 6403SOL    HW120108   4.351   5.967   4.533
 6403SOL    HW220109   4.409   5.906   4.672
 6404SOL     OW20110   4.133   0.287   2.095
 6404SOL    HW120111   4.038   0.269   2.120
 6404SOL    HW220112   4.179   0.200   2.075
 6405SOL     OW20113   5.332   1.725   2.334
 6405SOL    HW120114   5.289   1.798   2.282
 6405SOL    HW220115   5.385   1.666   2.272
 6406SOL     OW20116   1.169   1.924   2.816
 6406SOL    HW120117   1.129   1.836   2.789
 6406SOL    HW220118   1.186   1.979   2.735
 6407SOL     OW20119   1.893   5.914   2.867
 6407SOL    HW120120   1.871   5.967   2.786
 6407SOL    HW220121   1.815   5.918   2.931
 6408SOL     OW20122   6.611   0.455   0.775
 6408SOL    HW120123   6.661   0.400   0.708
 6408SOL    HW220124   6.515   0.462   0.747
 6409SOL     OW20125   6.182   4.872   3.468
 6409SOL    HW120126   6.183   4.873   3.368
 6409SOL    HW220127   6.155   4.962   3.502
 6410SOL     OW20128   2.694   1.813   5.417
 6410SOL    HW120129   2.745   1.868   5.351
 6410SOL    HW220130   2.620   1.868   5.456
 6411SOL     OW20131   0.669   2.045   2.263
 6411SOL    HW120132   0.707   2.027   2.354
 6411SOL    HW220133   0.727   2.110   2.215
 6412SOL     OW20134   2.998   0.150   0.129
 6412SOL    HW120135   3.039   0.075   0.180
 6412SOL    HW220136   2.929   0.114   0.066
 6413SOL     OW20137   4.832   5.382   3.722
 6413SOL    HW120138   4.748   5.372   3.775
 6413SOL    HW220139   4.836   5.473   3.681
 6414SOL     OW20140   1.385   7.011   0.286
 6414SOL    HW120141   1.443   6.992   0.365
 6414SOL    HW220142   1.324   0.065   0.308
 6415SOL     OW20143   0.829   2.307   3.143
 6415SOL    HW120144   0.903   2.367   3.173
 6415SOL    HW220145   0.774   2.353   3.074
 6416SOL     OW20146   2.572   0.448   0.097
 6416SOL    HW120147   2.586   0.518   0.167
 6416SOL    HW220148   2.614   0.362   0.127
 6417SOL     OW20149   3.968   1.585   0.467
 6417SOL    HW120150   3.900   1.580   0.393
 6417SOL    HW220151   4.022   1.501   0.467
 6418SOL     OW20152   4.551   5.171   1.017
 6418SOL    HW120153   4.610   5.243   1.054
 6418SOL    HW220154   4.528   5.106   1.090
 6419SOL     OW20155   0.476   0.184   0.092
 6419SOL    HW120156   0.537   0.133   0.152
 6419SOL    HW220157   0.524   0.262   0.053
 6420SOL     OW20158   1.773   3.755   3.953
 6420SOL    HW120159   1.834   3.675   3.953
 6420SOL    HW220160   1.713   3.751   3.873
 6421SOL     OW20161   4.954   0.157   1.800
 6421SOL    HW120162   5.019   0.215   1.850
 6421SOL    HW220163   4.998   0.123   1.717
 6422SOL     OW20164   6.128   2.430   4.622
 6422SOL    HW120165   6.157   2.384   4.538
 6422SOL    HW220166   6.040   2.392   4.652
 6423SOL     OW20167   2.119   4.417   4.143
 6423SOL    HW120168   2.108   4.514   4.120
 6423SOL    HW220169   2.211   4.401   4.178
 6424SOL     OW20170   0.065   4.711   4.609
 6424SOL    HW120171   0.120   4.663   4.541
 6424SOL    HW220172   7.014   4.650   4.642
 6425SOL     OW20173   6.959   6.162   3.342
 6425SOL    HW120174   6.889   6.226   3.374
 6425SOL    HW220175   0.026   6.187   3.382
 6426SOL     OW20176   4.458   4.557   4.727
 6426SOL    HW120177   4.407   4.539   4.811
 6426SOL    HW220178   4.524   4.484   4.711
 6427SOL     OW20179   3.150   3.089   3.273
 6427SOL    HW120180   3.110   2.999   3.294
 6427SOL    HW220181   3.206   3.119   3.350
 6428SOL     OW20182   5.117   2.639   0.487
 6428SOL    HW120183   5.117   2.540   0.470
 6428SOL    HW220184   5.211   2.674   0.478
 6429SOL     OW20185   2.081   0.947   5.470
 6429SOL    HW120186   2.151   0.903   5.414
 6429SOL    HW220187   2.038   0.879   5.529
 6430SOL     OW20188   6.318   0.365   5.082
 6430SOL    HW120189   6.280   0.277   5.112
 6430SOL    HW220190   6.364   0.409   5.159
 6431SOL     OW20191   4.053   4.591   1.684
 6431SOL    HW120192   4.084   4.612   1.592
 6431SOL    HW220193   4.033   4.493   1.690
 6432SOL     OW20194   4.782   4.609   6.160
 6432SOL    HW120195   4.846   4.638   6.231
 6432SOL    HW220196   4.753   4.515   6.178
 6433SOL     OW20197   2.267   5.914   6.672
 6433SOL    HW120198   2.336   5.961   6.727
 6433SOL    HW220199   2.267   5.817   6.694
 6434SOL     OW20200   3.340   5.404   5.467
 6434SOL    HW120201   3.284   5.459   5.529
 6434SOL    HW220202   3.436   5.409   5.495
 6435SOL     OW20203   5.037   1.174   1.019
 6435SOL    HW120204   5.007   1.173   0.924
 6435SOL    HW220205   5.026   1.265   1.058
 6436SOL     OW20206   0.216   4.102   4.115
 6436SOL    HW120207   0.203   4.200   4.130
 6436SOL    HW220208   0.252   4.059   4.197
 6437SOL     OW20209   0.340   1.669   5.608
 6437SOL    HW120210   0.267   1.644   5.672
 6437SOL    HW220211   0.394   1.587   5.586
 6438SOL     OW20212   0.348   5.812   0.475
 6438SOL    HW120213   0.400   5.767   0.548
 6438SOL    HW220214   0.356   5.759   0.391
 6439SOL     OW20215   5.975   0.062   2.734
 6439SOL    HW120216   6.037   0.050   2.812
 6439SOL    HW220217   5.922   0.145   2.747
 6440SOL     OW20218   2.278   1.331   6.163
 6440SOL    HW120219   2.327   1.417   6.150
 6440SOL    HW220220   2.335   1.255   6.132
 6441SOL     OW20221   0.704   0.973   2.743
 6441SOL    HW120222   0.661   0.980   2.653
 6441SOL    HW220223   0.721   0.877   2.764
 6442SOL     OW20224   2.953   2.881   5.289
 6442SOL    HW120225   2.856   2.869   5.306
 6442SOL    HW220226   3.000   2.900   5.375
 6443SOL     OW20227   4.899   2.362   1.017
 6443SOL    HW120228   4.900   2.405   0.926
 6443SOL    HW220229   4.812   2.315   1.030
 6444SOL     OW20230   6.781   3.538   5.020
 6444SOL    HW120231   6.687   3.525   4.991
 6444SOL    HW220232   6.832   3.586   4.948
 6445SOL     OW20233   3.065   4.002   3.314
 6445SOL    HW120234   3.066   4.026   3.217
 6445SOL    HW220235   3.131   4.059   3.363
 6446SOL     OW20236   2.496   1.014   6.378
 6446SOL    HW120237   2.544   0.955   6.313
 6446SOL    HW220238   2.563   1.066   6.431
 6447SOL     OW20239   6.446   3.711   0.983
 6447SOL    HW120240   6.464   3.617   0.956
 6447SOL    HW220241   6.356   3.739   0.951
 6448SOL     OW20242   4.173   5.368   1.613
 6448SOL    HW120243   4.253   5.309   1.628
 6448SOL    HW220244   4.192   5.459   1.648
 6449SOL     OW20245   2.686   6.034   1.187
 6449SOL    HW120246   2.636   6.044   1.101
 6449SOL    HW220247   2.643   5.963   1.243
 6450SOL     OW20248   0.065   3.975   0.823
 6450SOL    HW120249   0.085   3.897   0.882
 6450SOL    HW220250   0.133   4.047   0.839
 6451SOL     OW20251   3.641   2.442   1.394
 6451SOL    HW120252   3.690   2.499   1.460
 6451SOL    HW220253   3.692   2.438   1.308
 6452SOL     OW20254   4.908   2.700   3.374
 6452SOL    HW120255   4.919   2.667   3.280
 6452SOL    HW220256   4.963   2.782   3.386
 6453SOL     OW20257   3.391   0.041   0.922
 6453SOL    HW120258   3.482   0.068   0.891
 6453SOL    HW220259   3.351   0.116   0.976
 6454SOL     OW20260   5.428   2.592   2.888
 6454SOL    HW120261   5.369   2.651   2.943
 6454SOL    HW220262   5.516   2.581   2.934
 6455SOL     OW20263   6.308   3.612   3.472
 6455SOL    HW120264   6.272   3.632   3.381
 6455SOL    HW220265   6.402   3.647   3.478
 6456SOL     OW20266   6.070   1.224   3.090
 6456SOL    HW120267   6.089   1.318   3.119
 6456SOL    HW220268   6.113   1.160   3.154
 6457SOL     OW20269   4.647   0.447   2.180
 6457SOL    HW120270   4.691   0.423   2.094
 6457SOL    HW220271   4.591   0.529   2.166
 6458SOL     OW20272   0.790   4.671   3.779
 6458SOL    HW120273   0.710   4.611   3.789
 6458SOL    HW220274   0.781   4.748   3.842
 6459SOL     OW20275   6.668   2.767   2.487
 6459SOL    HW120276   6.678   2.845   2.425
 6459SOL    HW220277   6.749   2.760   2.545
 6460SOL     OW20278   0.488   5.713   6.706
 6460SOL    HW120279   0.514   5.792   6.649
 6460SOL    HW220280   0.536   5.632   6.673
 6461SOL     OW20281   2.969   5.164   1.326
 6461SOL    HW120282   3.053   5.214   1.304
 6461SOL    HW220283   2.969   5.076   1.278
 6462SOL     OW20284   1.720   3.813   5.323
 6462SOL    HW120285   1.662   3.737   5.351
 6462SOL    HW220286   1.816   3.789   5.335
 6463SOL     OW20287   4.568   1.723   1.521
 6463SOL    HW120288   4.475   1.687   1.514
 6463SOL    HW220289   4.564   1.821   1.541
 6464SOL     OW20290   0.708   6.215   4.504
 6464SOL    HW120291   0.700   6.158   4.586
 6464SOL    HW220292   0.792   6.190   4.454
 6465SOL     OW20293   4.464   1.473   3.141
 6465SOL    HW120294   4.411   1.407   3.193
 6465SOL    HW220295   4.429   1.565   3.158
 6466SOL     OW20296   0.571   2.964   6.781
 6466SOL    HW120297   0.624   3.029   6.835
 6466SOL    HW220298   0.598   2.871   6.805
 6467SOL     OW20299   3.133   1.333   0.757
 6467SOL    HW120300   3.223   1.330   0.800
 6467SOL    HW220301   3.137   1.393   0.677
 6468SOL     OW20302   2.915   0.427   0.812
 6468SOL    HW120303   2.913   0.329   0.793
 6468SOL    HW220304   2.892   0.478   0.729
 6469SOL     OW20305   3.705   1.867   3.162
 6469SOL    HW120306   3.652   1.833   3.239
 6469SOL    HW220307   3.796   1.826   3.164
 6470SOL     OW20308   6.445   1.781   6.840
 6470SOL    HW120309   6.445   1.727   6.925
 6470SOL    HW220310   6.538   1.807   6.817
 6471SOL     OW20311   6.912   5.984   5.520
 6471SOL    HW120312   6.889   6.078   5.497
 6471SOL    HW220313   6.898   5.968   5.618
 6472SOL     OW20314   6.695   5.917   2.870
 6472SOL    HW120315   6.782   5.932   2.823
 6472SOL    HW220316   6.711   5.903   2.967
 6473SOL     OW20317   2.496   0.989   3.880
 6473SOL    HW120318   2.446   0.953   3.959
 6473SOL    HW220319   2.587   1.017   3.908
 6474SOL     OW20320   4.068   5.661   5.358
 6474SOL    HW120321   4.099   5.578   5.312
 6474SOL    HW220322   4.143   5.700   5.411
 6475SOL     OW20323   5.617   4.522   2.839
 6475SOL    HW120324   5.590   4.533   2.935
 6475SOL    HW220325   5.616   4.612   2.794
 6476SOL     OW20326   3.641   1.503   6.057
 6476SOL    HW120327   3.594   1.448   5.988
 6476SOL    HW220328   3.619   1.468   6.149
 6477SOL     OW20329   6.481   6.221   1.345
 6477SOL    HW120330   6.499   6.311   1.305
 6477SOL    HW220331   6.404   6.179   1.297
 6478SOL     OW20332   3.411   5.517   1.684
 6478SOL    HW120333   3.387   5.425   1.714
 6478SOL    HW220334   3.487   5.512   1.618
 6479SOL     OW20335   3.249   6.194   3.785
 6479SOL    HW120336   3.327   6.197   3.848
 6479SOL    HW220337   3.273   6.137   3.707
 6480SOL     OW20338   3.456   1.481   0.022
 6480SOL    HW120339   3.516   1.406   7.019
 6480SOL    HW220340   3.377   1.483   6.982
 6481SOL     OW20341   3.254   2.684   1.701
 6481SOL    HW120342   3.155   2.679   1.714
 6481SOL    HW220343   3.296   2.598   1.728
 6482SOL     OW20344   6.466   3.903   5.222
 6482SOL    HW120345   6.368   3.896   5.203
 6482SOL    HW220346   6.509   3.813   5.208
 6483SOL     OW20347   0.972   5.764   5.187
 6483SOL    HW120348   0.912   5.812   5.123
 6483SOL    HW220349   1.067   5.778   5.160
 6484SOL     OW20350   2.664   0.783   4.478
 6484SOL    HW120351   2.648   0.816   4.571
 6484SOL    HW220352   2.610   0.701   4.462
 6485SOL     OW20353   2.254   0.018   4.204
 6485SOL    HW120354   2.202   0.074   4.268
 6485SOL    HW220355   2.220   0.032   4.111
 6486SOL     OW20356   1.889   5.318   3.332
 6486SOL    HW120357   1.822   5.380   3.290
 6486SOL    HW220358   1.853   5.224   3.329
 6487SOL     OW20359   6.599   4.883   3.852
 6487SOL    HW120360   6.563   4.946   3.783
 6487SOL    HW220361   6.696   4.904   3.869
 6488SOL     OW20362   4.480   5.285   4.670
 6488SOL    HW120363   4.469   5.333   4.757
 6488SOL    HW220364   4.421   5.326   4.601
 6489SOL     OW20365   4.134   3.542   5.633
 6489SOL    HW120366   4.147   3.503   5.542
 6489SOL    HW220367   4.156   3.640   5.631
 6490SOL     OW20368   1.903   1.877   6.785
 6490SOL    HW120369   1.948   1.882   6.874
 6490SOL    HW220370   1.869   1.783   6.771
 6491SOL     OW20371   2.159   0.463   0.435
 6491SOL    HW120372   2.220   0.453   0.514
 6491SOL    HW220373   2.193   0.535   0.375
 6492SOL     OW20374   3.550   3.738   4.753
 6492SOL    HW120375   3.632   3.777   4.712
 6492SOL    HW220376   3.538   3.772   4.846
 6493SOL     OW20377   1.426   4.084   5.894
 6493SOL    HW120378   1.518   4.065   5.929
 6493SOL    HW220379   1.370   4.001   5.900
 6494SOL     OW20380   6.237   6.904   2.127
 6494SOL    HW120381   6.308   6.971   2.107
 6494SOL    HW220382   6.268   6.843   2.200
 6495SOL     OW20383   6.586   7.009   3.693
 6495SOL    HW120384   6.636   6.977   3.774
 6495SOL    HW220385   6.567   0.085   3.701
 6496SOL     OW20386   4.604   0.882   1.857
 6496SOL    HW120387   4.656   0.874   1.771
 6496SOL    HW220388   4.576   0.977   1.870
 6497SOL     OW20389   0.014   1.843   0.817
 6497SOL    HW120390   0.005   1.932   0.773
 6497SOL    HW220391   6.953   1.822   0.868
 6498SOL     OW20392   1.204   4.513   4.356
 6498SOL    HW120393   1.209   4.456   4.274
 6498SOL    HW220394   1.296   4.524   4.394
 6499SOL     OW20395   5.741   3.539   3.636
 6499SOL    HW120396   5.672   3.547   3.564
 6499SOL    HW220397   5.832   3.555   3.596
 6500SOL     OW20398   1.733   3.906   3.073
 6500SOL    HW120399   1.773   3.920   3.164
 6500SOL    HW220400   1.638   3.939   3.073
 6501SOL     OW20401   6.232   1.836   1.146
 6501SOL    HW120402   6.222   1.878   1.056
 6501SOL    HW220403   6.297   1.888   1.201
 6502SOL     OW20404   6.547   3.752   1.265
 6502SOL    HW120405   6.520   3.719   1.175
 6502SOL    HW220406   6.473   3.806   1.305
 6503SOL     OW20407   6.597   2.936   5.329
 6503SOL    HW120408   6.564   2.933   5.423
 6503SOL    HW220409   6.551   2.864   5.276
 6504SOL     OW20410   4.330   6.002   6.537
 6504SOL    HW120411   4.408   6.058   6.509
 6504SOL    HW220412   4.260   6.061   6.577
 6505SOL     OW20413   6.167   5.608   0.158
 6505SOL    HW120414   6.253   5.556   0.161
 6505SOL    HW220415   6.111   5.585   0.237
 6506SOL     OW20416   0.097   3.065   2.375
 6506SOL    HW120417   0.169   3.088   2.440
 6506SOL    HW220418   0.089   3.136   2.305
 6507SOL     OW20419   4.221   4.475   6.746
 6507SOL    HW120420   4.244   4.467   6.843
 6507SOL    HW220421   4.123   4.488   6.736
 6508SOL     OW20422   1.229   6.233   2.217
 6508SOL    HW120423   1.317   6.247   2.171
 6508SOL    HW220424   1.175   6.166   2.166
 6509SOL     OW20425   3.218   1.615   5.862
 6509SOL    HW120426   3.258   1.635   5.951
 6509SOL    HW220427   3.284   1.638   5.790
 6510SOL     OW20428   4.597   5.984   5.726
 6510SOL    HW120429   4.558   5.966   5.817
 6510SOL    HW220430   4.544   6.055   5.681
 6511SOL     OW20431   2.858   0.789   0.158
 6511SOL    HW120432   2.874   0.703   0.109
 6511SOL    HW220433   2.942   0.815   0.206
 6512SOL     OW20434   3.801   0.865   0.985
 6512SOL    HW120435   3.748   0.831   1.062
 6512SOL    HW220436   3.743   0.867   0.903
 6513SOL     OW20437   2.254   5.670   4.132
 6513SOL    HW120438   2.319   5.676   4.056
 6513SOL    HW220439   2.298   5.629   4.211
 6514SOL     OW20440   5.889   0.180   5.868
 6514SOL    HW120441   5.809   0.121   5.883
 6514SOL    HW220442   5.861   0.276   5.872
 6515SOL     OW20443   2.366   4.865   2.472
 6515SOL    HW120444   2.300   4.793   2.450
 6515SOL    HW220445   2.361   4.937   2.403
 6516SOL     OW20446   0.029   3.361   0.796
 6516SOL    HW120447   0.039   3.372   0.697
 6516SOL    HW220448   0.016   3.451   0.838
 6517SOL     OW20449   0.149   2.491   0.085
 6517SOL    HW120450   0.218   2.562   0.069
 6517SOL    HW220451   0.075   2.503   0.018
 6518SOL     OW20452   1.286   1.220   3.222
 6518SOL    HW120453   1.351   1.202   3.296
 6518SOL    HW220454   1.310   1.164   3.142
 6519SOL     OW20455   0.934   1.431   3.098
 6519SOL    HW120456   0.939   1.405   3.194
 6519SOL    HW220457   0.974   1.359   3.042
 6520SOL     OW20458   0.365   5.815   0.134
 6520SOL    HW120459   0.337   5.901   0.090
 6520SOL    HW220460   0.288   5.751   0.134
 6521SOL     OW20461   1.310   3.444   4.364
 6521SOL    HW120462   1.373   3.521   4.366
 6521SOL    HW220463   1.356   3.362   4.397
 6522SOL     OW20464   2.535   3.744   5.358
 6522SOL    HW120465   2.508   3.820   5.298
 6522SOL    HW220466   2.617   3.701   5.322
 6523SOL     OW20467   6.057   0.445   6.817
 6523SOL    HW120468   5.989   0.511   6.785
 6523SOL    HW220469   6.107   0.408   6.738
 6524SOL     OW20470   2.090   2.485   1.831
 6524SOL    HW120471   2.045   2.427   1.899
 6524SOL    HW220472   2.168   2.532   1.873
 6525SOL     OW20473   1.044   4.638   3.158
 6525SOL    HW120474   1.052   4.557   3.216
 6525SOL    HW220475   1.097   4.713   3.197
 6526SOL     OW20476   0.083   6.747   0.802
 6526SOL    HW120477   0.023   6.687   0.749
 6526SOL    HW220478   0.167   6.765   0.749
 6527SOL     OW20479   0.684   2.239   0.507
 6527SOL    HW120480   0.588   2.221   0.525
 6527SOL    HW220481   0.701   2.238   0.408
 6528SOL     OW20482   5.522   0.755   5.963
 6528SOL    HW120483   5.426   0.727   5.971
 6528SOL    HW220484   5.527   0.849   5.930
 6529SOL     OW20485   0.003   1.419   2.119
 6529SOL    HW120486   6.932   1.454   2.129
 6529SOL    HW220487   0.004   1.344   2.054
 6530SOL     OW20488   0.724   2.471   2.783
 6530SOL    HW120489   0.676   2.470   2.696
 6530SOL    HW220490   0.816   2.433   2.771
 6531SOL     OW20491   4.222   3.530   5.366
 6531SOL    HW120492   4.174   3.577   5.292
 6531SOL    HW220493   4.320   3.525   5.344
 6532SOL     OW20494   1.074   0.603   0.794
 6532SOL    HW120495   1.141   0.616   0.867
 6532SOL    HW220496   0.992   0.656   0.815
 6533SOL     OW20497   4.752   3.758   0.200
 6533SOL    HW120498   4.764   3.856   0.182
 6533SOL    HW220499   4.772   3.706   0.118
 6534SOL     OW20500   6.535   4.292   2.758
 6534SOL    HW120501   6.603   4.224   2.782
 6534SOL    HW220502   6.530   4.362   2.829
 6535SOL     OW20503   6.400   3.546   5.375
 6535SOL    HW120504   6.342   3.625   5.391
 6535SOL    HW220505   6.493   3.575   5.355
 6536SOL     OW20506   1.142   3.883   4.849
 6536SOL    HW120507   1.123   3.972   4.808
 6536SOL    HW220508   1.127   3.811   4.780
 6537SOL     OW20509   5.996   5.186   3.995
 6537SOL    HW120510   5.933   5.261   4.020
 6537SOL    HW220511   6.068   5.221   3.935
 6538SOL     OW20512   2.300   3.625   5.280
 6538SOL    HW120513   2.378   3.685   5.299
 6538SOL    HW220514   2.322   3.532   5.309
 6539SOL     OW20515   6.340   0.781   6.070
 6539SOL    HW120516   6.340   0.848   6.144
 6539SOL    HW220517   6.292   0.818   5.991
 6540SOL     OW20518   4.876   2.692   6.116
 6540SOL    HW120519   4.786   2.735   6.125
 6540SOL    HW220520   4.910   2.667   6.207
 6541SOL     OW20521   5.941   1.019   4.658
 6541SOL    HW120522   6.020   1.016   4.596
 6541SOL    HW220523   5.952   0.950   4.729
 6542SOL     OW20524   1.604   3.868   4.335
 6542SOL    HW120525   1.689   3.854   4.386
 6542SOL    HW220526   1.625   3.904   4.244
 6543SOL     OW20527   3.746   2.068   5.070
 6543SOL    HW120528   3.818   2.097   5.006
 6543SOL    HW220529   3.659   2.107   5.042
 6544SOL     OW20530   1.059   6.472   1.984
 6544SOL    HW120531   0.966   6.474   1.948
 6544SOL    HW220532   1.121   6.433   1.916
 6545SOL     OW20533   4.359   6.990   1.265
 6545SOL    HW120534   4.355   6.907   1.321
 6545SOL    HW220535   4.286   0.031   1.293
 6546SOL     OW20536   5.229   3.524   5.985
 6546SOL    HW120537   5.180   3.440   5.965
 6546SOL    HW220538   5.291   3.509   6.063
 6547SOL     OW20539   5.921   5.660   6.710
 6547SOL    HW120540   6.016   5.669   6.681
 6547SOL    HW220541   5.905   5.715   6.792
 6548SOL     OW20542   0.686   2.064   5.403
 6548SOL    HW120543   0.591   2.072   5.371
 6548SOL    HW220544   0.689   2.003   5.481
 6549SOL     OW20545   4.892   6.928   1.916
 6549SOL    HW120546   4.826   6.903   1.845
 6549SOL    HW220547   4.896   0.006   1.924
 6550SOL     OW20548   6.191   0.031   3.528
 6550SOL    HW120549   6.253   7.018   3.458
 6550SOL    HW220550   6.147   6.977   3.576
 6551SOL     OW20551   3.193   3.466   1.708
 6551SOL    HW120552   3.194   3.531   1.632
 6551SOL    HW220553   3.124   3.494   1.774
 6552SOL     OW20554   2.309   6.671   0.206
 6552SOL    HW120555   2.385   6.661   0.270
 6552SOL    HW220556   2.231   6.712   0.252
 6553SOL     OW20557   0.119   0.819   2.903
 6553SOL    HW120558   0.218   0.809   2.897
 6553SOL    HW220559   0.086   0.774   2.986
 6554SOL     OW20560   3.097   1.780   4.652
 6554SOL    HW120561   3.024   1.815   4.711
 6554SOL    HW220562   3.079   1.684   4.631
 6555SOL     OW20563   6.804   2.525   4.202
 6555SOL    HW120564   6.805   2.597   4.133
 6555SOL    HW220565   6.897   2.490   4.215
 6556SOL     OW20566   4.703   2.898   3.698
 6556SOL    HW120567   4.626   2.835   3.708
 6556SOL    HW220568   4.763   2.890   3.777
 6557SOL     OW20569   2.067   6.950   1.973
 6557SOL    HW120570   2.032   6.872   2.026
 6557SOL    HW220571   2.163   6.965   1.995
 6558SOL     OW20572   5.323   5.034   0.294
 6558SOL    HW120573   5.350   5.063   0.386
 6558SOL    HW220574   5.349   5.104   0.228
 6559SOL     OW20575   6.579   2.878   6.125
 6559SOL    HW120576   6.498   2.880   6.066
 6559SOL    HW220577   6.659   2.853   6.072
 6560SOL     OW20578   5.194   4.799   0.350
 6560SOL    HW120579   5.252   4.751   0.415
 6560SOL    HW220580   5.247   4.873   0.307
 6561SOL     OW20581   3.869   4.692   0.476
 6561SOL    HW120582   3.824   4.618   0.526
 6561SOL    HW220583   3.968   4.689   0.493
 6562SOL     OW20584   5.866   2.962   1.229
 6562SOL    HW120585   5.779   2.996   1.195
 6562SOL    HW220586   5.910   3.032   1.285
 6563SOL     OW20587   5.180   5.956   4.909
 6563SOL    HW120588   5.094   5.993   4.874
 6563SOL    HW220589   5.256   5.986   4.851
 6564SOL     OW20590   0.035   3.690   2.758
 6564SOL    HW120591   0.016   3.779   2.799
 6564SOL    HW220592   0.048   3.700   2.659
 6565SOL     OW20593   5.734   0.202   3.165
 6565SOL    HW120594   5.803   0.131   3.175
 6565SOL    HW220595   5.645   0.168   3.195
 6566SOL     OW20596   4.304   5.877   2.497
 6566SOL    HW120597   4.362   5.889   2.416
 6566SOL    HW220598   4.353   5.910   2.578
 6567SOL     OW20599   4.124   0.502   1.039
 6567SOL    HW120600   4.054   0.496   0.968
 6567SOL    HW220601   4.116   0.591   1.085
 6568SOL     OW20602   3.395   1.431   1.748
 6568SOL    HW120603   3.368   1.504   1.685
 6568SOL    HW220604   3.315   1.377   1.773
 6569SOL     OW20605   0.423   3.753   5.933
 6569SOL    HW120606   0.351   3.756   6.002
 6569SOL    HW220607   0.401   3.684   5.865
 6570SOL     OW20608   3.751   6.165   2.044
 6570SOL    HW120609   3.702   6.149   1.958
 6570SOL    HW220610   3.738   6.087   2.105
 6571SOL     OW20611   2.454   5.133   2.946
 6571SOL    HW120612   2.417   5.208   2.892
 6571SOL    HW220613   2.463   5.052   2.888
 6572SOL     OW20614   0.778   5.635   4.009
 6572SOL    HW120615   0.794   5.536   4.016
 6572SOL    HW220616   0.831   5.672   3.933
 6573SOL     OW20617   1.501   1.290   2.913
 6573SOL    HW120618   1.581   1.254   2.960
 6573SOL    HW220619   1.448   1.346   2.976
 6574SOL     OW20620   1.706   5.900   2.298
 6574SOL    HW120621   1.731   5.994   2.276
 6574SOL    HW220622   1.704   5.846   2.213
 6575SOL     OW20623   6.455   0.162   2.897
 6575SOL    HW120624   6.469   0.093   2.827
 6575SOL    HW220625   6.464   0.253   2.857
 6576SOL     OW20626   3.749   5.836   0.544
 6576SOL    HW120627   3.827   5.898   0.536
 6576SOL    HW220628   3.780   5.741   0.538
 6577SOL     OW20629   1.794   2.252   3.760
 6577SOL    HW120630   1.797   2.187   3.684
 6577SOL    HW220631   1.843   2.213   3.838
 6578SOL     OW20632   1.611   4.896   1.955
 6578SOL    HW120633   1.706   4.865   1.955
 6578SOL    HW220634   1.566   4.868   2.040
 6579SOL     OW20635   6.757   1.532   4.059
 6579SOL    HW120636   6.751   1.521   4.158
 6579SOL    HW220637   6.678   1.583   4.026
 6580SOL     OW20638   1.191   0.176   0.330
 6580SOL    HW120639   1.204   0.243   0.403
 6580SOL    HW220640   1.109   0.122   0.348
 6581SOL     OW20641   1.509   1.616   6.793
 6581SOL    HW120642   1.477   1.561   6.870
 6581SOL    HW220643   1.445   1.692   6.777
 6582SOL     OW20644   6.543   0.986   2.597
 6582SOL    HW120645   6.498   1.037   2.670
 6582SOL    HW220646   6.581   0.901   2.634
 6583SOL     OW20647   4.437   6.268   0.102
 6583SOL    HW120648   4.472   6.343   0.159
 6583SOL    HW220649   4.429   6.299   0.007
 6584SOL     OW20650   2.941   2.099   1.112
 6584SOL    HW120651   2.926   2.055   1.200
 6584SOL    HW220652   2.989   2.185   1.125
 6585SOL     OW20653   5.593   0.276   1.283
 6585SOL    HW120654   5.575   0.259   1.186
 6585SOL    HW220655   5.554   0.202   1.338
 6586SOL     OW20656   6.355   2.397   6.255
 6586SOL    HW120657   6.345   2.497   6.261
 6586SOL    HW220658   6.265   2.354   6.265
 6587SOL     OW20659   1.624   4.229   5.535
 6587SOL    HW120660   1.653   4.163   5.604
 6587SOL    HW220661   1.539   4.273   5.564
 6588SOL     OW20662   0.840   3.047   0.364
 6588SOL    HW120663   0.787   3.055   0.279
 6588SOL    HW220664   0.834   2.954   0.398
 6589SOL     OW20665   0.028   1.201   1.959
 6589SOL    HW120666   0.080   1.234   1.880
 6589SOL    HW220667   6.965   1.160   1.928
 6590SOL     OW20668   1.118   0.211   4.156
 6590SOL    HW120669   1.149   0.218   4.251
 6590SOL    HW220670   1.155   0.128   4.115
 6591SOL     OW20671   5.609   4.581   3.876
 6591SOL    HW120672   5.514   4.552   3.891
 6591SOL    HW220673   5.609   4.673   3.837
 6592SOL     OW20674   4.865   6.361   2.927
 6592SOL    HW120675   4.846   6.451   2.889
 6592SOL    HW220676   4.961   6.339   2.914
 6593SOL     OW20677   2.809   1.769   2.829
 6593SOL    HW120678   2.878   1.829   2.789
 6593SOL    HW220679   2.750   1.734   2.757
 6594SOL     OW20680   3.969   1.753   6.256
 6594SOL    HW120681   3.947   1.747   6.158
 6594SOL    HW220682   4.068   1.750   6.268
 6595SOL     OW20683   1.667   2.383   4.865
 6595SOL    HW120684   1.676   2.295   4.913
 6595SOL    HW220685   1.746   2.395   4.804
 6596SOL     OW20686   5.611   6.051   2.835
 6596SOL    HW120687   5.704   6.073   2.864
 6596SOL    HW220688   5.606   6.049   2.735
 6597SOL     OW20689   1.543   4.801   2.452
 6597SOL    HW120690   1.492   4.866   2.508
 6597SOL    HW220691   1.563   4.719   2.506
 6598SOL     OW20692   1.836   4.680   4.165
 6598SOL    HW120693   1.832   4.757   4.229
 6598SOL    HW220694   1.748   4.669   4.121
 6599SOL     OW20695   5.732   5.721   6.433
 6599SOL    HW120696   5.638   5.751   6.449
 6599SOL    HW220697   5.763   5.667   6.512
 6600SOL     OW20698   4.343   0.016   5.538
 6600SOL    HW120699   4.283   0.008   5.458
 6600SOL    HW220700   4.363   6.946   5.573
 6601SOL     OW20701   1.486   2.578   2.029
 6601SOL    HW120702   1.445   2.667   2.011
 6601SOL    HW220703   1.571   2.569   1.976
 6602SOL     OW20704   2.134   6.760   1.646
 6602SOL    HW120705   2.135   6.857   1.622
 6602SOL    HW220706   2.200   6.711   1.589
 6603SOL     OW20707   0.525   3.000   3.346
 6603SOL    HW120708   0.609   3.005   3.291
 6603SOL    HW220709   0.490   3.093   3.362
 6604SOL     OW20710   1.816   6.465   2.067
 6604SOL    HW120711   1.830   6.464   1.968
 6604SOL    HW220712   1.722   6.491   2.088
 6605SOL     OW20713   6.328   5.360   1.496
 6605SOL    HW120714   6.298   5.268   1.469
 6605SOL    HW220715   6.414   5.382   1.449
 6606SOL     OW20716   1.764   3.457   3.679
 6606SOL    HW120717   1.749   3.555   3.670
 6606SOL    HW220718   1.721   3.424   3.763
 6607SOL     OW20719   5.805   3.937   3.498
 6607SOL    HW120720   5.889   3.883   3.499
 6607SOL    HW220721   5.737   3.895   3.558
 6608SOL     OW20722   0.392   0.021   6.124
 6608SOL    HW120723   0.431   0.050   6.212
 6608SOL    HW220724   0.465   7.011   6.064
 6609SOL     OW20725   4.208   2.125   5.753
 6609SOL    HW120726   4.194   2.195   5.823
 6609SOL    HW220727   4.224   2.036   5.796
 6610SOL     OW20728   3.201   5.105   1.191
 6610SOL    HW120729   3.205   5.204   1.204
 6610SOL    HW220730   3.268   5.061   1.250
 6611SOL     OW20731   4.676   1.826   4.261
 6611SOL    HW120732   4.586   1.835   4.304
 6611SOL    HW220733   4.695   1.729   4.245
 6612SOL     OW20734   5.615   1.900   6.164
 6612SOL    HW120735   5.710   1.866   6.157
 6612SOL    HW220736   5.614   1.988   6.210
 6613SOL     OW20737   5.126   0.322   6.698
 6613SOL    HW120738   5.120   0.231   6.740
 6613SOL    HW220739   5.054   0.332   6.630
 6614SOL     OW20740   4.250   5.809   1.890
 6614SOL    HW120741   4.340   5.850   1.906
 6614SOL    HW220742   4.255   5.745   1.814
 6615SOL     OW20743   2.864   5.686   0.577
 6615SOL    HW120744   2.852   5.765   0.637
 6615SOL    HW220745   2.918   5.616   0.625
 6616SOL     OW20746   4.698   1.125   5.553
 6616SOL    HW120747   4.668   1.059   5.484
 6616SOL    HW220748   4.798   1.132   5.550
 6617SOL     OW20749   4.225   0.788   3.663
 6617SOL    HW120750   4.324   0.785   3.678
 6617SOL    HW220751   4.198   0.880   3.636
 6618SOL     OW20752   0.345   2.356   2.784
 6618SOL    HW120753   0.245   2.359   2.787
 6618SOL    HW220754   0.381   2.360   2.877
 6619SOL     OW20755   5.008   6.496   3.827
 6619SOL    HW120756   4.956   6.553   3.891
 6619SOL    HW220757   4.955   6.414   3.805
 6620SOL     OW20758   0.727   3.362   3.625
 6620SOL    HW120759   0.717   3.417   3.708
 6620SOL    HW220760   0.796   3.292   3.639
 6621SOL     OW20761   3.919   3.273   4.652
 6621SOL    HW120762   3.915   3.178   4.683
 6621SOL    HW220763   3.934   3.275   4.553
 6622SOL     OW20764   0.200   6.168   0.595
 6622SOL    HW120765   0.188   6.255   0.548
 6622SOL    HW220766   0.277   6.118   0.555
 6623SOL     OW20767   3.486   4.340   5.695
 6623SOL    HW120768   3.402   4.307   5.654
 6623SOL    HW220769   3.535   4.264   5.738
 6624SOL     OW20770   0.992   2.464   4.491
 6624SOL    HW120771   1.074   2.486   4.437
 6624SOL    HW220772   0.980   2.533   4.562
 6625SOL     OW20773   5.959   2.511   5.551
 6625SOL    HW120774   5.992   2.456   5.627
 6625SOL    HW220775   5.864   2.537   5.567
 6626SOL     OW20776   2.981   6.387   5.021
 6626SOL    HW120777   2.884   6.408   5.009
 6626SOL    HW220778   3.006   6.311   4.961
 6627SOL     OW20779   1.234   6.127   4.380
 6627SOL    HW120780   1.262   6.121   4.284
 6627SOL    HW220781   1.137   6.152   4.385
 6628SOL     OW20782   4.673   5.353   4.193
 6628SOL    HW120783   4.628   5.433   4.155
 6628SOL    HW220784   4.751   5.382   4.249
 6629SOL     OW20785   5.584   5.980   0.074
 6629SOL    HW120786   5.534   6.047   0.128
 6629SOL    HW220787   5.612   6.020   7.009
 6630SOL     OW20788   2.335   1.582   1.227
 6630SOL    HW120789   2.395   1.644   1.277
 6630SOL    HW220790   2.389   1.531   1.160
 6631SOL     OW20791   1.836   4.726   5.847
 6631SOL    HW120792   1.922   4.774   5.831
 6631SOL    HW220793   1.815   4.668   5.768
 6632SOL     OW20794   1.296   0.312   0.554
 6632SOL    HW120795   1.231   0.323   0.630
 6632SOL    HW220796   1.377   0.367   0.573
 6633SOL     OW20797   3.200   5.629   6.240
 6633SOL    HW120798   3.203   5.633   6.140
 6633SOL    HW220799   3.275   5.684   6.278
 6634SOL     OW20800   5.024   1.393   5.181
 6634SOL    HW120801   4.957   1.374   5.109
 6634SOL    HW220802   4.976   1.409   5.267
 6635SOL     OW20803   5.307   4.854   2.347
 6635SOL    HW120804   5.256   4.809   2.273
 6635SOL    HW220805   5.282   4.813   2.434
 6636SOL     OW20806   3.406   6.987   2.012
 6636SOL    HW120807   3.348   0.004   1.940
 6636SOL    HW220808   3.388   6.889   2.020
 6637SOL     OW20809   1.232   1.017   0.681
 6637SOL    HW120810   1.240   0.930   0.633
 6637SOL    HW220811   1.297   1.083   0.643
 6638SOL     OW20812   3.166   3.843   3.676
 6638SOL    HW120813   3.188   3.805   3.586
 6638SOL    HW220814   3.166   3.943   3.670
 6639SOL     OW20815   5.094   3.020   1.184
 6639SOL    HW120816   5.048   2.936   1.154
 6639SOL    HW220817   5.139   3.063   1.106
 6640SOL     OW20818   1.019   2.809   5.208
 6640SOL    HW120819   0.936   2.840   5.256
 6640SOL    HW220820   1.095   2.870   5.230
 6641SOL     OW20821   4.027   2.331   1.106
 6641SOL    HW120822   4.126   2.337   1.121
 6641SOL    HW220823   3.982   2.306   1.192
 6642SOL     OW20824   1.318   5.607   0.298
 6642SOL    HW120825   1.340   5.627   0.393
 6642SOL    HW220826   1.320   5.508   0.284
 6643SOL     OW20827   4.658   6.953   0.121
 6643SOL    HW120828   4.745   6.954   0.170
 6643SOL    HW220829   4.627   0.025   0.106
 6644SOL     OW20830   1.905   6.587   3.004
 6644SOL    HW120831   1.941   6.531   3.079
 6644SOL    HW220832   1.944   6.678   3.009
 6645SOL     OW20833   6.182   2.435   0.466
 6645SOL    HW120834   6.140   2.500   0.403
 6645SOL    HW220835   6.117   2.362   0.488
 6646SOL     OW20836   3.903   0.066   6.821
 6646SOL    HW120837   3.940   6.996   6.828
 6646SOL    HW220838   3.957   0.128   6.878
 6647SOL     OW20839   4.473   5.000   1.213
 6647SOL    HW120840   4.567   4.980   1.240
 6647SOL    HW220841   4.430   5.058   1.282
 6648SOL     OW20842   2.386   6.304   5.548
 6648SOL    HW120843   2.298   6.311   5.500
 6648SOL    HW220844   2.457   6.350   5.494
 6649SOL     OW20845   6.038   2.206   6.891
 6649SOL    HW120846   6.137   2.214   6.904
 6649SOL    HW220847   6.011   2.110   6.896
 6650SOL     OW20848   2.848   1.341   5.254
 6650SOL    HW120849   2.939   1.352   5.214
 6650SOL    HW220850   2.784   1.405   5.212
 6651SOL     OW20851   0.436   1.691   6.889
 6651SOL    HW120852   0.361   1.714   6.950
 6651SOL    HW220853   0.480   1.607   6.920
 6652SOL     OW20854   1.006   4.513   0.184
 6652SOL    HW120855   1.094   4.560   0.175
 6652SOL    HW220856   0.970   4.528   0.276
 6653SOL     OW20857   5.713   2.728   0.641
 6653SOL    HW120858   5.681   2.766   0.727
 6653SOL    HW220859   5.655   2.650   0.616
 6654SOL     OW20860   0.810   4.275   2.900
 6654SOL    HW120861   0.725   4.222   2.907
 6654SOL    HW220862   0.788   4.367   2.866
 6655SOL     OW20863   6.820   5.145   1.604
 6655SOL    HW120864   6.876   5.227   1.591
 6655SOL    HW220865   6.862   5.087   1.674
 6656SOL     OW20866   4.678   1.769   2.606
 6656SOL    HW120867   4.620   1.693   2.579
 6656SOL    HW220868   4.768   1.734   2.634
 6657SOL     OW20869   5.547   2.294   4.191
 6657SOL    HW120870   5.544   2.267   4.287
 6657SOL    HW220871   5.453   2.310   4.158
 6658SOL     OW20872   6.255   6.252   4.859
 6658SOL    HW120873   6.164   6.228   4.825
 6658SOL    HW220874   6.321   6.241   4.785
 6659SOL     OW20875   1.180   4.945   1.822
 6659SOL    HW120876   1.169   4.872   1.754
 6659SOL    HW220877   1.274   4.977   1.821
 6660SOL     OW20878   0.426   6.203   3.294
 6660SOL    HW120879   0.432   6.198   3.194
 6660SOL    HW220880   0.489   6.137   3.334
 6661SOL     OW20881   3.077   6.348   3.963
 6661SOL    HW120882   3.155   6.292   3.933
 6661SOL    HW220883   3.008   6.351   3.890
 6662SOL     OW20884   2.624   0.068   2.268
 6662SOL    HW120885   2.672   0.148   2.305
 6662SOL    HW220886   2.585   0.015   2.343
 6663SOL     OW20887   1.635   4.459   5.929
 6663SOL    HW120888   1.649   4.491   5.836
 6663SOL    HW220889   1.547   4.412   5.935
 6664SOL     OW20890   2.885   0.556   1.816
 6664SOL    HW120891   2.898   0.510   1.729
 6664SOL    HW220892   2.965   0.542   1.874
 6665SOL     OW20893   2.666   0.551   6.046
 6665SOL    HW120894   2.713   0.511   5.967
 6665SOL    HW220895   2.695   0.646   6.058
 6666SOL     OW20896   5.400   6.439   4.938
 6666SOL    HW120897   5.397   6.525   4.988
 6666SOL    HW220898   5.371   6.364   4.998
 6667SOL     OW20899   6.644   6.581   6.367
 6667SOL    HW120900   6.644   6.482   6.358
 6667SOL    HW220901   6.550   6.616   6.363
 6668SOL     OW20902   0.070   6.254   1.006
 6668SOL    HW120903   6.998   6.288   1.009
 6668SOL    HW220904   0.131   6.325   0.973
 6669SOL     OW20905   1.842   1.594   1.972
 6669SOL    HW120906   1.820   1.689   1.953
 6669SOL    HW220907   1.907   1.561   1.904
 6670SOL     OW20908   3.323   2.582   0.792
 6670SOL    HW120909   3.410   2.540   0.818
 6670SOL    HW220910   3.341   2.657   0.727
 6671SOL     OW20911   5.314   6.510   6.907
 6671SOL    HW120912   5.246   6.560   6.854
 6671SOL    HW220913   5.406   6.538   6.879
 6672SOL     OW20914   1.342   2.156   0.536
 6672SOL    HW120915   1.426   2.182   0.488
 6672SOL    HW220916   1.268   2.217   0.508
 6673SOL     OW20917   5.701   3.705   4.364
 6673SOL    HW120918   5.673   3.777   4.428
 6673SOL    HW220919   5.658   3.721   4.275
 6674SOL     OW20920   0.235   2.766   6.813
 6674SOL    HW120921   0.255   2.730   6.905
 6674SOL    HW220922   0.184   2.697   6.761
 6675SOL     OW20923   4.366   2.893   6.753
 6675SOL    HW120924   4.397   2.960   6.820
 6675SOL    HW220925   4.389   2.925   6.661
 6676SOL     OW20926   1.281   3.760   3.614
 6676SOL    HW120927   1.271   3.768   3.515
 6676SOL    HW220928   1.336   3.680   3.636
 6677SOL     OW20929   0.474   1.704   0.566
 6677SOL    HW120930   0.549   1.769   0.581
 6677SOL    HW220931   0.389   1.744   0.600
 6678SOL     OW20932   1.610   5.002   0.266
 6678SOL    HW120933   1.685   4.995   0.331
 6678SOL    HW220934   1.593   5.098   0.244
 6679SOL     OW20935   2.623   1.381   4.106
 6679SOL    HW120936   2.530   1.404   4.081
 6679SOL    HW220937   2.625   1.347   4.200
 6680SOL     OW20938   5.664   6.641   0.219
 6680SOL    HW120939   5.705   6.566   0.166
 6680SOL    HW220940   5.734   6.683   0.277
 6681SOL     OW20941   4.129   5.634   1.474
 6681SOL    HW120942   4.204   5.623   1.539
 6681SOL    HW220943   4.070   5.709   1.503
 6682SOL     OW20944   3.182   5.409   6.639
 6682SOL    HW120945   3.242   5.475   6.685
 6682SOL    HW220946   3.218   5.390   6.547
 6683SOL     OW20947   6.368   3.275   6.835
 6683SOL    HW120948   6.435   3.323   6.779
 6683SOL    HW220949   6.312   3.216   6.776
 6684SOL     OW20950   3.610   0.088   1.852
 6684SOL    HW120951   3.547   0.072   1.929
 6684SOL    HW220952   3.558   0.117   1.772
 6685SOL     OW20953   3.992   3.493   6.934
 6685SOL    HW120954   4.083   3.532   6.928
 6685SOL    HW220955   3.966   3.481   0.008
 6686SOL     OW20956   5.679   5.294   3.756
 6686SOL    HW120957   5.679   5.394   3.755
 6686SOL    HW220958   5.676   5.262   3.850
 6687SOL     OW20959   6.464   2.223   1.974
 6687SOL    HW120960   6.380   2.271   1.948
 6687SOL    HW220961   6.535   2.290   1.997
 6688SOL     OW20962   3.921   5.326   1.021
 6688SOL    HW120963   3.847   5.325   0.954
 6688SOL    HW220964   3.941   5.420   1.048
 6689SOL     OW20965   2.949   5.058   6.138
 6689SOL    HW120966   2.957   5.155   6.115
 6689SOL    HW220967   3.015   5.006   6.085
 6690SOL     OW20968   0.861   0.146   5.838
 6690SOL    HW120969   0.878   0.244   5.842
 6690SOL    HW220970   0.931   0.102   5.782
 6691SOL     OW20971   2.124   1.729   2.697
 6691SOL    HW120972   2.075   1.795   2.641
 6691SOL    HW220973   2.134   1.765   2.790
 6692SOL     OW20974   4.642   4.869   1.502
 6692SOL    HW120975   4.556   4.907   1.538
 6692SOL    HW220976   4.659   4.908   1.411
 6693SOL     OW20977   4.263   1.434   4.507
 6693SOL    HW120978   4.176   1.453   4.552
 6693SOL    HW220979   4.290   1.513   4.451
 6694SOL     OW20980   3.749   5.620   0.809
 6694SOL    HW120981   3.723   5.700   0.754
 6694SOL    HW220982   3.711   5.629   0.901
 6695SOL     OW20983   2.698   2.126   6.671
 6695SOL    HW120984   2.756   2.205   6.691
 6695SOL    HW220985   2.617   2.128   6.730
 6696SOL     OW20986   4.113   3.733   4.269
 6696SOL    HW120987   4.181   3.678   4.221
 6696SOL    HW220988   4.032   3.744   4.211
 6697SOL     OW20989   4.818   2.407   2.231
 6697SOL    HW120990   4.853   2.344   2.300
 6697SOL    HW220991   4.741   2.365   2.183
 6698SOL     OW20992   3.548   4.205   1.748
 6698SOL    HW120993   3.459   4.239   1.718
 6698SOL    HW220994   3.620   4.251   1.696
 6699SOL     OW20995   1.253   4.831   5.552
 6699SOL    HW120996   1.209   4.742   5.560
 6699SOL    HW220997   1.286   4.860   5.642
 6700SOL     OW20998   6.132   0.192   0.748
 6700SOL    HW120999   6.225   0.227   0.753
 6700SOL    HW221000   6.131   0.097   0.780
 6701SOL     OW21001   5.702   6.888   1.537
 6701SOL    HW121002   5.622   6.848   1.581
 6701SOL    HW221003   5.672   6.952   1.466
 6702SOL     OW21004   2.454   2.143   0.727
 6702SOL    HW121005   2.455   2.185   0.818
 6702SOL    HW221006   2.546   2.144   0.688
 6703SOL     OW21007   2.055   1.967   5.857
 6703SOL    HW121008   1.969   2.017   5.866
 6703SOL    HW221009   2.079   1.923   5.943
 6704SOL     OW21010   3.725   1.516   5.268
 6704SOL    HW121011   3.707   1.582   5.196
 6704SOL    HW221012   3.689   1.426   5.241
 6705SOL     OW21013   6.444   3.537   1.590
 6705SOL    HW121014   6.379   3.613   1.589
 6705SOL    HW221015   6.478   3.524   1.683
 6706SOL     OW21016   0.596   6.462   1.644
 6706SOL    HW121017   0.628   6.556   1.654
 6706SOL    HW221018   0.496   6.461   1.641
 6707SOL     OW21019   5.938   0.297   2.403
 6707SOL    HW121020   5.967   0.204   2.379
 6707SOL    HW221021   5.872   0.330   2.336
 6708SOL     OW21022   0.250   3.930   1.469
 6708SOL    HW121023   0.335   3.913   1.519
 6708SOL    HW221024   0.271   3.966   1.378
 6709SOL     OW21025   1.265   4.700   2.085
 6709SOL    HW121026   1.232   4.789   2.117
 6709SOL    HW221027   1.189   4.635   2.085
 6710SOL     OW21028   4.502   1.065   2.134
 6710SOL    HW121029   4.443   0.988   2.109
 6710SOL    HW221030   4.446   1.143   2.161
 6711SOL     OW21031   4.519   6.209   6.484
 6711SOL    HW121032   4.513   6.306   6.462
 6711SOL    HW221033   4.566   6.197   6.571
 6712SOL     OW21034   5.844   3.522   0.680
 6712SOL    HW121035   5.917   3.487   0.620
 6712SOL    HW221036   5.812   3.610   0.645
 6713SOL     OW21037   1.578   0.217   4.275
 6713SOL    HW121038   1.507   0.148   4.282
 6713SOL    HW221039   1.569   0.282   4.351
 6714SOL     OW21040   5.586   1.144   0.382
 6714SOL    HW121041   5.601   1.079   0.456
 6714SOL    HW221042   5.525   1.103   0.313
 6715SOL     OW21043   1.247   0.622   0.997
 6715SOL    HW121044   1.275   0.715   0.974
 6715SOL    HW221045   1.283   0.596   1.086
 6716SOL     OW21046   6.702   5.257   2.485
 6716SOL    HW121047   6.790   5.215   2.507
 6716SOL    HW221048   6.658   5.287   2.570
 6717SOL     OW21049   3.513   2.704   6.569
 6717SOL    HW121050   3.583   2.673   6.504
 6717SOL    HW221051   3.481   2.626   6.623
 6718SOL     OW21052   3.465   0.402   2.555
 6718SOL    HW121053   3.394   0.445   2.499
 6718SOL    HW221054   3.452   0.303   2.556
 6719SOL     OW21055   1.833   0.371   6.656
 6719SOL    HW121056   1.884   0.415   6.582
 6719SOL    HW221057   1.735   0.389   6.644
 6720SOL     OW21058   2.508   0.874   5.733
 6720SOL    HW121059   2.498   0.855   5.831
 6720SOL    HW221060   2.591   0.927   5.718
 6721SOL     OW21061   0.670   1.343   0.435
 6721SOL    HW121062   0.646   1.396   0.516
 6721SOL    HW221063   0.590   1.295   0.400
 6722SOL     OW21064   6.047   3.064   0.102
 6722SOL    HW121065   6.062   3.160   0.077
 6722SOL    HW221066   6.076   3.049   0.197
 6723SOL     OW21067   1.758   1.895   6.064
 6723SOL    HW121068   1.669   1.921   6.026
 6723SOL    HW221069   1.776   1.799   6.042
 6724SOL     OW21070   2.015   3.393   5.810
 6724SOL    HW121071   1.973   3.337   5.882
 6724SOL    HW221072   2.103   3.353   5.784
 6725SOL     OW21073   6.097   3.148   3.155
 6725SOL    HW121074   6.167   3.178   3.219
 6725SOL    HW221075   6.140   3.101   3.078
 6726SOL     OW21076   6.967   0.937   5.528
 6726SOL    HW121077   6.867   0.936   5.521
 6726SOL    HW221078   6.999   1.030   5.544
 6727SOL     OW21079   1.053   4.615   5.957
 6727SOL    HW121080   1.044   4.531   6.010
 6727SOL    HW221081   1.122   4.674   5.999
 6728SOL     OW21082   4.054   2.184   3.662
 6728SOL    HW121083   4.065   2.281   3.638
 6728SOL    HW221084   4.097   2.127   3.592
 6729SOL     OW21085   4.886   1.838   1.221
 6729SOL    HW121086   4.810   1.900   1.241
 6729SOL    HW221087   4.858   1.775   1.148
 6730SOL     OW21088   1.316   1.087   1.188
 6730SOL    HW121089   1.275   1.033   1.262
 6730SOL    HW221090   1.404   1.124   1.218
 6731SOL     OW21091   3.145   6.383   0.942
 6731SOL    HW121092   3.070   6.349   0.885
 6731SOL    HW221093   3.111   6.451   1.006
 6732SOL     OW21094   5.975   4.692   4.477
 6732SOL    HW121095   6.046   4.655   4.417
 6732SOL    HW221096   6.009   4.693   4.571
 6733SOL     OW21097   3.385   5.627   6.573
 6733SOL    HW121098   3.348   5.551   6.519
 6733SOL    HW221099   3.310   5.673   6.622
 6734SOL     OW21100   5.279   1.512   5.091
 6734SOL    HW121101   5.190   1.492   5.131
 6734SOL    HW221102   5.332   1.427   5.083
 6735SOL     OW21103   6.006   3.242   3.691
 6735SOL    HW121104   5.990   3.177   3.616
 6735SOL    HW221105   5.981   3.334   3.660
 6736SOL     OW21106   3.300   3.894   1.101
 6736SOL    HW121107   3.260   3.830   1.167
 6736SOL    HW221108   3.227   3.935   1.046
 6737SOL     OW21109   1.380   2.890   1.560
 6737SOL    HW121110   1.324   2.970   1.582
 6737SOL    HW221111   1.345   2.810   1.608
 6738SOL     OW21112   1.831   5.775   3.671
 6738SOL    HW121113   1.892   5.736   3.602
 6738SOL    HW221114   1.870   5.861   3.705
 6739SOL     OW21115   6.539   0.097   4.107
 6739SOL    HW121116   6.500   0.005   4.111
 6739SOL    HW221117   6.474   0.161   4.148
 6740SOL     OW21118   6.399   6.465   4.565
 6740SOL    HW121119   6.476   6.491   4.623
 6740SOL    HW221120   6.317   6.512   4.596
 6741SOL     OW21121   4.526   1.961   5.451
 6741SOL    HW121122   4.546   1.990   5.545
 6741SOL    HW221123   4.527   2.041   5.391
 6742SOL     OW21124   5.547   4.505   3.357
 6742SOL    HW121125   5.544   4.577   3.287
 6742SOL    HW221126   5.638   4.502   3.398
 6743SOL     OW21127   4.319   4.143   0.319
 6743SOL    HW121128   4.391   4.096   0.370
 6743SOL    HW221129   4.238   4.083   0.312
 6744SOL     OW21130   6.522   5.624   6.352
 6744SOL    HW121131   6.617   5.609   6.377
 6744SOL    HW221132   6.468   5.542   6.373
 6745SOL     OW21133   0.007   6.218   4.116
 6745SOL    HW121134   6.936   6.250   4.096
 6745SOL    HW221135   0.057   6.290   4.164
 6746SOL     OW21136   1.630   1.501   2.735
 6746SOL    HW121137   1.571   1.432   2.779
 6746SOL    HW221138   1.652   1.572   2.801
 6747SOL     OW21139   0.795   6.922   6.627
 6747SOL    HW121140   0.741   6.951   6.706
 6747SOL    HW221141   0.765   6.831   6.597
 6748SOL     OW21142   2.484   1.670   4.187
 6748SOL    HW121143   2.404   1.704   4.236
 6748SOL    HW221144   2.465   1.668   4.088
 6749SOL     OW21145   3.356   4.291   0.841
 6749SOL    HW121146   3.363   4.390   0.835
 6749SOL    HW221147   3.435   4.249   0.797
 6750SOL     OW21148   2.740   1.780   4.550
 6750SOL    HW121149   2.819   1.838   4.530
 6750SOL    HW221150   2.753   1.734   4.638
 6751SOL     OW21151   4.707   0.101   3.503
 6751SOL    HW121152   4.622   0.093   3.451
 6751SOL    HW221153   4.689   0.079   3.599
 6752SOL     OW21154   1.694   6.423   2.882
 6752SOL    HW121155   1.775   6.472   2.913
 6752SOL    HW221156   1.717   6.364   2.805
 6753SOL     OW21157   3.805   2.605   5.397
 6753SOL    HW121158   3.851   2.670   5.336
 6753SOL    HW221159   3.710   2.634   5.411
 6754SOL     OW21160   6.038   0.773   1.132
 6754SOL    HW121161   5.985   0.857   1.132
 6754SOL    HW221162   5.977   0.695   1.148
 6755SOL     OW21163   3.015   4.900   0.884
 6755SOL    HW121164   3.042   4.824   0.942
 6755SOL    HW221165   3.050   4.886   0.792
 6756SOL     OW21166   2.410   1.687   5.619
 6756SOL    HW121167   2.318   1.649   5.622
 6756SOL    HW221168   2.405   1.785   5.598
 6757SOL     OW21169   3.300   0.777   0.526
 6757SOL    HW121170   3.342   0.783   0.435
 6757SOL    HW221171   3.318   0.687   0.565
 6758SOL     OW21172   5.481   2.432   0.873
 6758SOL    HW121173   5.569   2.440   0.920
 6758SOL    HW221174   5.407   2.463   0.933
 6759SOL     OW21175   6.984   3.305   3.000
 6759SOL    HW121176   6.983   3.338   2.906
 6759SOL    HW221177   0.019   3.366   3.057
 6760SOL     OW21178   5.525   3.131   3.179
 6760SOL    HW121179   5.616   3.091   3.186
 6760SOL    HW221180   5.515   3.176   3.090
 6761SOL     OW21181   4.780   2.134   4.436
 6761SOL    HW121182   4.831   2.056   4.473
 6761SOL    HW221183   4.843   2.211   4.422
 6762SOL     OW21184   6.745   5.308   3.684
 6762SOL    HW121185   6.785   5.385   3.634
 6762SOL    HW221186   6.647   5.322   3.695
 6763SOL     OW21187   4.509   5.963   4.851
 6763SOL    HW121188   4.588   5.996   4.799
 6763SOL    HW221189   4.531   5.961   4.948
 6764SOL     OW21190   1.402   5.919   2.310
 6764SOL    HW121191   1.501   5.909   2.305
 6764SOL    HW221192   1.359   5.859   2.242
 6765SOL     OW21193   6.227   4.997   3.796
 6765SOL    HW121194   6.261   4.997   3.890
 6765SOL    HW221195   6.144   4.943   3.791
 6766SOL     OW21196   4.709   6.410   0.452
 6766SOL    HW121197   4.799   6.371   0.433
 6766SOL    HW221198   4.662   6.429   0.366
 6767SOL     OW21199   2.932   0.505   0.521
 6767SOL    HW121200   2.920   0.601   0.494
 6767SOL    HW221201   3.024   0.475   0.497
 6768SOL     OW21202   1.840   1.021   6.745
 6768SOL    HW121203   1.906   1.026   6.669
 6768SOL    HW221204   1.885   0.982   6.825
 6769SOL     OW21205   3.245   2.748   0.477
 6769SOL    HW121206   3.263   2.830   0.532
 6769SOL    HW221207   3.331   2.700   0.460
 6770SOL     OW21208   6.834   0.778   1.813
 6770SOL    HW121209   6.755   0.743   1.763
 6770SOL    HW221210   6.901   0.816   1.749
 6771SOL     OW21211   4.709   2.239   3.035
 6771SOL    HW121212   4.783   2.233   3.102
 6771SOL    HW221213   4.719   2.165   2.967
 6772SOL     OW21214   3.186   1.112   2.451
 6772SOL    HW121215   3.233   1.198   2.469
 6772SOL    HW221216   3.153   1.073   2.537
 6773SOL     OW21217   6.665   4.023   1.521
 6773SOL    HW121218   6.684   3.975   1.607
 6773SOL    HW221219   6.744   4.014   1.461
 6774SOL     OW21220   0.046   2.628   6.082
 6774SOL    HW121221   0.088   2.572   6.011
 6774SOL    HW221222   0.068   2.724   6.064
 6775SOL     OW21223   2.643   3.491   0.576
 6775SOL    HW121224   2.584   3.541   0.640
 6775SOL    HW221225   2.611   3.396   0.570
 6776SOL     OW21226   4.373   4.625   0.370
 6776SOL    HW121227   4.408   4.703   0.318
 6776SOL    HW221228   4.431   4.545   0.352
 6777SOL     OW21229   4.358   4.731   6.333
 6777SOL    HW121230   4.341   4.694   6.242
 6777SOL    HW221231   4.359   4.657   6.400
 6778SOL     OW21232   0.478   3.929   2.070
 6778SOL    HW121233   0.563   3.970   2.037
 6778SOL    HW221234   0.446   3.976   2.152
 6779SOL     OW21235   6.616   4.243   6.830
 6779SOL    HW121236   6.702   4.247   6.880
 6779SOL    HW221237   6.616   4.312   6.758
 6780SOL     OW21238   0.999   2.387   2.429
 6780SOL    HW121239   0.990   2.481   2.397
 6780SOL    HW221240   0.909   2.350   2.451
 6781SOL     OW21241   5.559   6.325   5.160
 6781SOL    HW121242   5.524   6.376   5.239
 6781SOL    HW221243   5.586   6.389   5.088
 6782SOL     OW21244   0.313   0.453   2.698
 6782SOL    HW121245   0.331   0.459   2.796
 6782SOL    HW221246   0.260   0.533   2.669
 6783SOL     OW21247   0.286   6.657   6.370
 6783SOL    HW121248   0.369   6.602   6.382
 6783SOL    HW221249   0.236   6.624   6.290
 6784SOL     OW21250   4.083   4.233   0.598
 6784SOL    HW121251   4.060   4.286   0.516
 6784SOL    HW221252   4.176   4.257   0.628
 6785SOL     OW21253   5.981   4.717   2.304
 6785SOL    HW121254   5.920   4.785   2.265
 6785SOL    HW221255   5.939   4.678   2.386
 6786SOL     OW21256   1.343   1.811   6.765
 6786SOL    HW121257   1.336   1.910   6.782
 6786SOL    HW221258   1.265   1.781   6.710
 6787SOL     OW21259   2.124   3.969   1.015
 6787SOL    HW121260   2.128   3.878   1.055
 6787SOL    HW221261   2.043   3.977   0.957
 6788SOL     OW21262   2.788   3.822   1.639
 6788SOL    HW121263   2.830   3.800   1.727
 6788SOL    HW221264   2.690   3.837   1.651
 6789SOL     OW21265   0.396   6.806   2.157
 6789SOL    HW121266   0.382   6.715   2.196
 6789SOL    HW221267   0.327   6.823   2.086
 6790SOL     OW21268   1.499   3.965   0.209
 6790SOL    HW121269   1.565   3.890   0.218
 6790SOL    HW221270   1.412   3.938   0.251
 6791SOL     OW21271   3.897   2.576   1.021
 6791SOL    HW121272   3.889   2.478   1.036
 6791SOL    HW221273   3.932   2.620   1.104
 6792SOL     OW21274   7.010   6.053   6.154
 6792SOL    HW121275   0.060   6.017   6.094
 6792SOL    HW221276   6.930   6.077   6.100
 6793SOL     OW21277   0.738   2.479   0.725
 6793SOL    HW121278   0.734   2.390   0.681
 6793SOL    HW221279   0.823   2.525   0.698
 6794SOL     OW21280   5.425   1.279   5.003
 6794SOL    HW121281   5.483   1.259   4.924
 6794SOL    HW221282   5.452   1.219   5.080
 6795SOL     OW21283   2.525   6.119   0.709
 6795SOL    HW121284   2.597   6.107   0.641
 6795SOL    HW221285   2.551   6.071   0.793
 6796SOL     OW21286   5.828   1.047   2.414
 6796SOL    HW121287   5.834   1.084   2.322
 6796SOL    HW221288   5.743   0.995   2.424
 6797SOL     OW21289   4.999   3.669   1.527
 6797SOL    HW121290   4.999   3.675   1.427
 6797SOL    HW221291   4.905   3.653   1.559
 6798SOL     OW21292   5.605   5.561   2.893
 6798SOL    HW121293   5.569   5.654   2.892
 6798SOL    HW221294   5.553   5.505   2.827
 6799SOL     OW21295   5.943   5.825   0.210
 6799SOL    HW121296   6.025   5.852   0.261
 6799SOL    HW221297   5.862   5.846   0.265
 6800SOL     OW21298   2.044   4.405   0.612
 6800SOL    HW121299   2.131   4.452   0.598
 6800SOL    HW221300   1.969   4.471   0.610
 6801SOL     OW21301   1.615   1.154   2.150
 6801SOL    HW121302   1.714   1.141   2.153
 6801SOL    HW221303   1.575   1.126   2.237
 6802SOL     OW21304   2.707   6.121   0.525
 6802SOL    HW121305   2.790   6.090   0.479
 6802SOL    HW221306   2.664   6.193   0.471
 6803SOL     OW21307   4.608   2.590   6.683
 6803SOL    HW121308   4.614   2.518   6.615
 6803SOL    HW221309   4.596   2.678   6.638
 6804SOL     OW21310   2.442   5.573   3.331
 6804SOL    HW121311   2.431   5.642   3.403
 6804SOL    HW221312   2.392   5.490   3.357
 6805SOL     OW21313   5.824   6.595   4.585
 6805SOL    HW121314   5.735   6.631   4.556
 6805SOL    HW221315   5.868   6.661   4.646
 6806SOL     OW21316   5.074   1.199   3.495
 6806SOL    HW121317   5.018   1.159   3.422
 6806SOL    HW221318   5.048   1.295   3.508
 6807SOL     OW21319   2.342   2.860   6.996
 6807SOL    HW121320   2.350   2.956   0.003
 6807SOL    HW221321   2.246   2.836   6.985
 6808SOL     OW21322   0.568   3.035   5.413
 6808SOL    HW121323   0.583   3.064   5.507
 6808SOL    HW221324   0.511   2.953   5.412
 6809SOL     OW21325   1.938   4.372   0.139
 6809SOL    HW121326   1.895   4.429   0.209
 6809SOL    HW221327   2.010   4.425   0.093
 6810SOL     OW21328   1.335   0.467   1.872
 6810SOL    HW121329   1.338   0.484   1.971
 6810SOL    HW221330   1.411   0.515   1.828
 6811SOL     OW21331   4.941   4.258   0.498
 6811SOL    HW121332   4.896   4.277   0.410
 6811SOL    HW221333   5.035   4.293   0.495
 6812SOL     OW21334   3.669   3.181   3.417
 6812SOL    HW121335   3.615   3.201   3.499
 6812SOL    HW221336   3.653   3.086   3.389
 6813SOL     OW21337   4.737   1.536   1.611
 6813SOL    HW121338   4.717   1.453   1.559
 6813SOL    HW221339   4.679   1.611   1.579
 6814SOL     OW21340   3.301   2.761   1.009
 6814SOL    HW121341   3.203   2.779   1.021
 6814SOL    HW221342   3.314   2.701   0.929
 6815SOL     OW21343   2.995   6.920   1.485
 6815SOL    HW121344   2.944   6.913   1.571
 6815SOL    HW221345   3.093   6.919   1.505
 6816SOL     OW21346   6.631   5.237   0.183
 6816SOL    HW121347   6.652   5.299   0.107
 6816SOL    HW221348   6.612   5.145   0.146
 6817SOL     OW21349   6.715   1.538   5.302
 6817SOL    HW121350   6.657   1.615   5.324
 6817SOL    HW221351   6.685   1.457   5.353
 6818SOL     OW21352   2.697   5.952   2.026
 6818SOL    HW121353   2.646   6.030   1.988
 6818SOL    HW221354   2.633   5.877   2.045
 6819SOL     OW21355   3.681   0.895   3.919
 6819SOL    HW121356   3.596   0.928   3.877
 6819SOL    HW221357   3.660   0.820   3.981
 6820SOL     OW21358   1.316   4.864   3.529
 6820SOL    HW121359   1.369   4.907   3.456
 6820SOL    HW221360   1.375   4.850   3.609
 6821SOL     OW21361   2.746   1.960   5.070
 6821SOL    HW121362   2.812   1.906   5.122
 6821SOL    HW221363   2.657   1.914   5.071
 6822SOL     OW21364   5.597   1.674   6.380
 6822SOL    HW121365   5.599   1.737   6.303
 6822SOL    HW221366   5.516   1.615   6.373
 6823SOL     OW21367   3.916   3.604   4.044
 6823SOL    HW121368   3.990   3.545   4.078
 6823SOL    HW221369   3.829   3.556   4.050
 6824SOL     OW21370   0.619   2.678   6.111
 6824SOL    HW121371   0.664   2.766   6.093
 6824SOL    HW221372   0.540   2.693   6.170
 6825SOL     OW21373   4.684   0.124   2.292
 6825SOL    HW121374   4.605   0.119   2.353
 6825SOL    HW221375   4.698   0.035   2.249
 6826SOL     OW21376   2.134   3.543   2.752
 6826SOL    HW121377   2.141   3.641   2.769
 6826SOL    HW221378   2.126   3.526   2.654
 6827SOL     OW21379   5.086   5.953   0.336
 6827SOL    HW121380   5.027   5.974   0.414
 6827SOL    HW221381   5.176   5.923   0.369
 6828SOL     OW21382   1.662   2.337   1.597
 6828SOL    HW121383   1.722   2.413   1.620
 6828SOL    HW221384   1.648   2.280   1.677
 6829SOL     OW21385   4.900   6.686   3.541
 6829SOL    HW121386   4.919   6.675   3.638
 6829SOL    HW221387   4.973   6.643   3.487
 6830SOL     OW21388   5.696   1.406   2.951
 6830SOL    HW121389   5.645   1.420   2.867
 6830SOL    HW221390   5.635   1.417   3.030
 6831SOL     OW21391   0.850   0.581   6.227
 6831SOL    HW121392   0.900   0.520   6.288
 6831SOL    HW221393   0.752   0.569   6.240
 6832SOL     OW21394   2.925   4.437   1.398
 6832SOL    HW121395   2.864   4.509   1.431
 6832SOL    HW221396   3.001   4.426   1.462
 6833SOL     OW21397   4.414   5.458   0.202
 6833SOL    HW121398   4.504   5.456   0.159
 6833SOL    HW221399   4.352   5.516   0.149
 6834SOL     OW21400   4.354   6.412   1.699
 6834SOL    HW121401   4.366   6.418   1.600
 6834SOL    HW221402   4.349   6.504   1.737
 6835SOL     OW21403   4.214   6.888   5.319
 6835SOL    HW121404   4.119   6.908   5.294
 6835SOL    HW221405   4.223   6.790   5.339
 6836SOL     OW21406   3.223   6.412   0.672
 6836SOL    HW121407   3.253   6.341   0.609
 6836SOL    HW221408   3.217   6.374   0.765
 6837SOL     OW21409   1.706   3.182   2.189
 6837SOL    HW121410   1.700   3.208   2.285
 6837SOL    HW221411   1.789   3.128   2.174
 6838SOL     OW21412   1.863   0.710   0.942
 6838SOL    HW121413   1.873   0.803   0.906
 6838SOL    HW221414   1.782   0.705   1.000
 6839SOL     OW21415   4.749   0.971   0.497
 6839SOL    HW121416   4.741   0.940   0.592
 6839SOL    HW221417   4.748   0.892   0.436
 6840SOL     OW21418   2.145   2.200   5.579
 6840SOL    HW121419   2.164   2.124   5.517
 6840SOL    HW221420   2.051   2.194   5.611
 6841SOL     OW21421   5.986   3.388   5.847
 6841SOL    HW121422   5.984   3.353   5.753
 6841SOL    HW221423   5.929   3.330   5.905
 6842SOL     OW21424   2.414   4.763   1.013
 6842SOL    HW121425   2.456   4.850   1.039
 6842SOL    HW221426   2.465   4.688   1.056
 6843SOL     OW21427   5.124   0.019   6.427
 6843SOL    HW121428   5.040   0.040   6.477
 6843SOL    HW221429   5.197   0.078   6.459
 6844SOL     OW21430   5.398   0.827   4.230
 6844SOL    HW121431   5.350   0.912   4.208
 6844SOL    HW221432   5.389   0.763   4.153
 6845SOL     OW21433   5.979   2.818   2.868
 6845SOL    HW121434   5.932   2.892   2.821
 6845SOL    HW221435   6.003   2.847   2.961
 6846SOL     OW21436   2.990   4.139   0.025
 6846SOL    HW121437   3.077   4.153   6.999
 6846SOL    HW221438   2.914   4.158   6.985
 6847SOL     OW21439   6.605   3.978   4.718
 6847SOL    HW121440   6.698   3.991   4.683
 6847SOL    HW221441   6.608   3.916   4.796
 6848SOL     OW21442   5.178   4.111   4.097
 6848SOL    HW121443   5.118   4.121   4.177
 6848SOL    HW221444   5.262   4.064   4.125
 6849SOL     OW21445   3.502   4.561   5.546
 6849SOL    HW121446   3.502   4.485   5.611
 6849SOL    HW221447   3.413   4.607   5.549
 6850SOL     OW21448   4.309   2.273   3.065
 6850SOL    HW121449   4.215   2.302   3.049
 6850SOL    HW221450   4.329   2.191   3.012
 6851SOL     OW21451   2.207   3.056   2.852
 6851SOL    HW121452   2.220   2.990   2.777
 6851SOL    HW221453   2.219   3.009   2.939
 6852SOL     OW21454   2.727   5.303   0.952
 6852SOL    HW121455   2.745   5.207   0.932
 6852SOL    HW221456   2.813   5.354   0.956
 6853SOL     OW21457   5.427   3.475   6.191
 6853SOL    HW121458   5.504   3.537   6.205
 6853SOL    HW221459   5.387   3.452   6.280
 6854SOL     OW21460   5.112   6.469   5.603
 6854SOL    HW121461   5.046   6.482   5.529
 6854SOL    HW221462   5.192   6.528   5.587
 6855SOL     OW21463   4.327   5.714   3.564
 6855SOL    HW121464   4.418   5.718   3.524
 6855SOL    HW221465   4.261   5.685   3.495
 6856SOL     OW21466   0.527   2.300   6.107
 6856SOL    HW121467   0.458   2.324   6.175
 6856SOL    HW221468   0.500   2.338   6.018
 6857SOL     OW21469   1.012   3.107   6.743
 6857SOL    HW121470   1.048   3.200   6.745
 6857SOL    HW221471   1.055   3.053   6.816
 6858SOL     OW21472   3.308   4.282   1.594
 6858SOL    HW121473   3.229   4.320   1.642
 6858SOL    HW221474   3.375   4.354   1.577
 6859SOL     OW21475   0.817   1.648   1.681
 6859SOL    HW121476   0.897   1.617   1.630
 6859SOL    HW221477   0.800   1.585   1.757
 6860SOL     OW21478   0.106   5.076   2.293
 6860SOL    HW121479   0.098   4.983   2.328
 6860SOL    HW221480   0.062   5.082   2.203
 6861SOL     OW21481   4.823   3.214   5.693
 6861SOL    HW121482   4.783   3.148   5.757
 6861SOL    HW221483   4.787   3.197   5.601
 6862SOL     OW21484   0.706   4.536   6.128
 6862SOL    HW121485   0.642   4.575   6.061
 6862SOL    HW221486   0.754   4.610   6.174
 6863SOL     OW21487   6.979   6.342   4.627
 6863SOL    HW121488   0.045   6.305   4.597
 6863SOL    HW221489   6.949   6.413   4.563
 6864SOL     OW21490   1.625   3.981   6.033
 6864SOL    HW121491   1.703   3.918   6.028
 6864SOL    HW221492   1.615   4.014   6.126
 6865SOL     OW21493   1.995   0.882   5.069
 6865SOL    HW121494   1.942   0.842   4.994
 6865SOL    HW221495   2.091   0.890   5.042
 6866SOL     OW21496   6.248   4.193   1.949
 6866SOL    HW121497   6.295   4.199   1.862
 6866SOL    HW221498   6.182   4.268   1.957
 6867SOL     OW21499   1.567   4.342   1.020
 6867SOL    HW121500   1.548   4.262   1.076
 6867SOL    HW221501   1.664   4.365   1.027
 6868SOL     OW21502   1.892   5.982   5.758
 6868SOL    HW121503   1.958   5.919   5.799
 6868SOL    HW221504   1.829   5.932   5.699
 6869SOL     OW21505   3.502   6.990   5.675
 6869SOL    HW121506   3.465   6.899   5.657
 6869SOL    HW221507   3.551   6.990   5.762
 6870SOL     OW21508   0.947   3.319   0.078
 6870SOL    HW121509   0.982   3.305   0.170
 6870SOL    HW221510   0.974   3.242   0.020
 6871SOL     OW21511   6.913   3.414   2.150
 6871SOL    HW121512   6.818   3.399   2.179
 6871SOL    HW221513   6.948   3.497   2.193
 6872SOL     OW21514   1.403   2.661   2.344
 6872SOL    HW121515   1.453   2.719   2.280
 6872SOL    HW221516   1.433   2.680   2.437
 6873SOL     OW21517   1.290   4.056   4.149
 6873SOL    HW121518   1.230   3.976   4.156
 6873SOL    HW221519   1.382   4.026   4.123
 6874SOL     OW21520   5.977   5.616   2.914
 6874SOL    HW121521   5.987   5.710   2.947
 6874SOL    HW221522   5.881   5.599   2.891
 6875SOL     OW21523   1.646   2.830   1.805
 6875SOL    HW121524   1.696   2.902   1.853
 6875SOL    HW221525   1.664   2.837   1.707
 6876SOL     OW21526   3.495   0.063   3.360
 6876SOL    HW121527   3.398   0.082   3.348
 6876SOL    HW221528   3.537   0.045   3.271
 6877SOL     OW21529   2.711   4.417   1.670
 6877SOL    HW121530   2.647   4.450   1.739
 6877SOL    HW221531   2.805   4.426   1.705
 6878SOL     OW21532   2.269   1.088   3.747
 6878SOL    HW121533   2.338   1.039   3.801
 6878SOL    HW221534   2.305   1.105   3.655
 6879SOL     OW21535   2.312   2.091   0.360
 6879SOL    HW121536   2.361   2.060   0.441
 6879SOL    HW221537   2.342   2.039   0.280
 6880SOL     OW21538   1.035   5.930   6.128
 6880SOL    HW121539   1.075   5.852   6.176
 6880SOL    HW221540   1.078   5.940   6.038
 6881SOL     OW21541   1.794   3.897   0.558
 6881SOL    HW121542   1.707   3.849   0.551
 6881SOL    HW221543   1.780   3.995   0.543
 6882SOL     OW21544   2.665   0.667   6.904
 6882SOL    HW121545   2.700   0.694   6.994
 6882SOL    HW221546   2.599   0.593   6.915
 6883SOL     OW21547   5.354   0.667   6.398
 6883SOL    HW121548   5.296   0.638   6.474
 6883SOL    HW221549   5.314   0.747   6.354
 6884SOL     OW21550   2.063   4.246   2.802
 6884SOL    HW121551   2.103   4.335   2.779
 6884SOL    HW221552   2.037   4.246   2.899
 6885SOL     OW21553   4.897   4.698   4.217
 6885SOL    HW121554   4.874   4.679   4.122
 6885SOL    HW221555   4.909   4.612   4.267
 6886SOL     OW21556   5.790   1.297   5.273
 6886SOL    HW121557   5.879   1.282   5.315
 6886SOL    HW221558   5.731   1.347   5.336
 6887SOL     OW21559   4.863   6.077   6.598
 6887SOL    HW121560   4.872   6.021   6.516
 6887SOL    HW221561   4.952   6.082   6.645
 6888SOL     OW21562   5.768   3.931   6.330
 6888SOL    HW121563   5.675   3.943   6.296
 6888SOL    HW221564   5.813   4.020   6.337
 6889SOL     OW21565   1.445   2.789   5.830
 6889SOL    HW121566   1.520   2.819   5.771
 6889SOL    HW221567   1.483   2.744   5.911
 6890SOL     OW21568   3.743   5.698   3.044
 6890SOL    HW121569   3.699   5.787   3.058
 6890SOL    HW221570   3.753   5.652   3.132
 6891SOL     OW21571   2.058   3.049   1.291
 6891SOL    HW121572   2.043   2.953   1.315
 6891SOL    HW221573   2.092   3.099   1.371
 6892SOL     OW21574   3.106   1.530   4.342
 6892SOL    HW121575   3.147   1.579   4.266
 6892SOL    HW221576   3.008   1.552   4.347
 6893SOL     OW21577   6.213   3.482   6.721
 6893SOL    HW121578   6.156   3.431   6.657
 6893SOL    HW221579   6.271   3.419   6.771
 6894SOL     OW21580   5.365   4.245   1.383
 6894SOL    HW121581   5.325   4.165   1.428
 6894SOL    HW221582   5.300   4.321   1.388
 6895SOL     OW21583   1.188   6.140   0.653
 6895SOL    HW121584   1.160   6.225   0.609
 6895SOL    HW221585   1.159   6.063   0.598
 6896SOL     OW21586   3.516   1.890   4.332
 6896SOL    HW121587   3.478   1.889   4.239
 6896SOL    HW221588   3.484   1.973   4.379
 6897SOL     OW21589   4.959   3.868   4.996
 6897SOL    HW121590   4.926   3.779   4.963
 6897SOL    HW221591   5.058   3.864   5.006
 6898SOL     OW21592   2.359   1.111   1.329
 6898SOL    HW121593   2.339   1.190   1.388
 6898SOL    HW221594   2.414   1.045   1.380
 6899SOL     OW21595   5.769   5.998   2.502
 6899SOL    HW121596   5.778   5.917   2.561
 6899SOL    HW221597   5.846   6.060   2.519
 6900SOL     OW21598   6.846   4.377   6.207
 6900SOL    HW121599   6.793   4.454   6.171
 6900SOL    HW221600   6.784   4.307   6.241
 6901SOL     OW21601   4.679   4.579   6.884
 6901SOL    HW121602   4.751   4.523   6.926
 6901SOL    HW221603   4.672   4.556   6.787
 6902SOL     OW21604   6.867   6.085   5.903
 6902SOL    HW121605   6.926   6.164   5.887
 6902SOL    HW221606   6.776   6.116   5.930
 6903SOL     OW21607   2.373   4.813   5.278
 6903SOL    HW121608   2.321   4.833   5.195
 6903SOL    HW221609   2.435   4.736   5.261
 6904SOL     OW21610   0.230   6.012   5.344
 6904SOL    HW121611   0.260   6.107   5.338
 6904SOL    HW221612   0.272   5.968   5.424
 6905SOL     OW21613   5.150   5.285   0.041
 6905SOL    HW121614   5.102   5.215   0.094
 6905SOL    HW221615   5.248   5.280   0.060
 6906SOL     OW21616   3.796   1.815   3.740
 6906SOL    HW121617   3.731   1.847   3.671
 6906SOL    HW221618   3.792   1.875   3.820
 6907SOL     OW21619   6.404   2.235   1.510
 6907SOL    HW121620   6.419   2.156   1.569
 6907SOL    HW221621   6.472   2.235   1.436
 6908SOL     OW21622   2.331   4.302   7.004
 6908SOL    HW121623   2.263   4.238   6.968
 6908SOL    HW221624   2.381   4.343   6.927
 6909SOL     OW21625   5.236   4.854   1.936
 6909SOL    HW121626   5.215   4.811   2.024
 6909SOL    HW221627   5.240   4.954   1.948
 6910SOL     OW21628   1.465   3.344   2.787
 6910SOL    HW121629   1.408   3.268   2.756
 6910SOL    HW221630   1.561   3.322   2.772
 6911SOL     OW21631   3.600   6.932   5.350
 6911SOL    HW121632   3.546   6.979   5.420
 6911SOL    HW221633   3.546   6.925   5.265
 6912SOL     OW21634   2.020   3.264   6.179
 6912SOL    HW121635   2.032   3.311   6.267
 6912SOL    HW221636   1.975   3.325   6.115
 6913SOL     OW21637   5.202   6.015   5.160
 6913SOL    HW121638   5.189   5.941   5.226
 6913SOL    HW221639   5.184   5.982   5.068
 6914SOL     OW21640   6.274   3.753   1.578
 6914SOL    HW121641   6.235   3.742   1.669
 6914SOL    HW221642   6.201   3.769   1.512
 6915SOL     OW21643   1.090   3.108   2.038
 6915SOL    HW121644   1.139   3.186   2.000
 6915SOL    HW221645   0.992   3.130   2.044
 6916SOL     OW21646   5.227   0.870   5.989
 6916SOL    HW121647   5.207   0.785   5.939
 6916SOL    HW221648   5.158   0.883   6.060
 6917SOL     OW21649   4.786   5.565   1.608
 6917SOL    HW121650   4.854   5.553   1.681
 6917SOL    HW221651   4.776   5.663   1.588
 6918SOL     OW21652   0.548   2.869   2.168
 6918SOL    HW121653   0.601   2.791   2.136
 6918SOL    HW221654   0.452   2.844   2.176
 6919SOL     OW21655   6.038   6.771   2.752
 6919SOL    HW121656   6.027   6.870   2.763
 6919SOL    HW221657   6.117   6.740   2.804
 6920SOL     OW21658   4.768   0.537   5.059
 6920SOL    HW121659   4.807   0.454   5.018
 6920SOL    HW221660   4.681   0.514   5.102
 6921SOL     OW21661   4.204   0.013   4.330
 6921SOL    HW121662   4.143   6.989   4.266
 6921SOL    HW221663   4.257   0.083   4.281
 6922SOL     OW21664   2.130   6.012   4.477
 6922SOL    HW121665   2.040   5.991   4.517
 6922SOL    HW221666   2.151   6.108   4.492
 6923SOL     OW21667   5.940   6.317   2.294
 6923SOL    HW121668   5.846   6.317   2.263
 6923SOL    HW221669   5.962   6.405   2.337
 6924SOL     OW21670   3.275   6.193   1.385
 6924SOL    HW121671   3.269   6.228   1.291
 6924SOL    HW221672   3.367   6.207   1.420
 6925SOL     OW21673   5.129   6.400   6.371
 6925SOL    HW121674   5.068   6.408   6.293
 6925SOL    HW221675   5.217   6.363   6.341
 6926SOL     OW21676   1.954   1.370   0.540
 6926SOL    HW121677   1.862   1.409   0.542
 6926SOL    HW221678   2.012   1.416   0.607
 6927SOL     OW21679   3.894   0.852   0.546
 6927SOL    HW121680   3.968   0.789   0.522
 6927SOL    HW221681   3.916   0.944   0.515
 6928SOL     OW21682   5.205   5.340   0.646
 6928SOL    HW121683   5.250   5.424   0.678
 6928SOL    HW221684   5.146   5.363   0.568
 6929SOL     OW21685   5.104   5.028   1.389
 6929SOL    HW121686   5.077   4.978   1.471
 6929SOL    HW221687   5.198   5.002   1.364
 6930SOL     OW21688   0.751   0.880   0.395
 6930SOL    HW121689   0.848   0.902   0.396
 6930SOL    HW221690   0.739   0.783   0.418
 6931SOL     OW21691   2.402   2.118   1.326
 6931SOL    HW121692   2.402   2.079   1.234
 6931SOL    HW221693   2.472   2.189   1.332
 6932SOL     OW21694   4.758   4.993   0.310
 6932SOL    HW121695   4.719   4.906   0.340
 6932SOL    HW221696   4.706   5.069   0.350
 6933SOL     OW21697   3.366   6.214   6.022
 6933SOL    HW121698   3.422   6.274   6.078
 6933SOL    HW221699   3.271   6.218   6.054
 6934SOL     OW21700   4.973   3.905   6.528
 6934SOL    HW121701   4.888   3.862   6.496
 6934SOL    HW221702   4.996   3.870   6.619
 6935SOL     OW21703   4.795   5.455   1.932
 6935SOL    HW121704   4.802   5.399   1.849
 6935SOL    HW221705   4.821   5.399   2.011
 6936SOL     OW21706   0.692   2.268   4.321
 6936SOL    HW121707   0.716   2.359   4.286
 6936SOL    HW221708   0.757   2.241   4.392
 6937SOL     OW21709   5.759   6.452   0.510
 6937SOL    HW121710   5.703   6.443   0.592
 6937SOL    HW221711   5.807   6.540   0.511
 6938SOL     OW21712   0.470   1.039   4.404
 6938SOL    HW121713   0.444   0.949   4.370
 6938SOL    HW221714   0.494   1.098   4.327
 6939SOL     OW21715   6.408   5.095   3.312
 6939SOL    HW121716   6.363   5.136   3.232
 6939SOL    HW221717   6.398   4.995   3.307
 6940SOL     OW21718   4.742   6.507   0.695
 6940SOL    HW121719   4.644   6.501   0.712
 6940SOL    HW221720   4.758   6.518   0.597
 6941SOL     OW21721   3.029   3.832   2.186
 6941SOL    HW121722   2.956   3.764   2.177
 6941SOL    HW221723   3.030   3.892   2.106
 6942SOL     OW21724   6.415   6.458   1.826
 6942SOL    HW121725   6.401   6.448   1.728
 6942SOL    HW221726   6.491   6.521   1.843
 6943SOL     OW21727   3.428   4.712   6.899
 6943SOL    HW121728   3.484   4.795   6.887
 6943SOL    HW221729   3.478   4.646   6.955
 6944SOL     OW21730   0.939   4.391   6.093
 6944SOL    HW121731   0.851   4.432   6.071
 6944SOL    HW221732   0.948   4.304   6.046
 6945SOL     OW21733   5.993   2.248   0.562
 6945SOL    HW121734   5.988   2.175   0.495
 6945SOL    HW221735   5.986   2.210   0.654
 6946SOL     OW21736   4.052   5.862   2.204
 6946SOL    HW121737   4.148   5.888   2.202
 6946SOL    HW221738   4.012   5.874   2.113
 6947SOL     OW21739   4.631   4.928   6.585
 6947SOL    HW121740   4.613   5.027   6.580
 6947SOL    HW221741   4.552   4.882   6.625
 6948SOL     OW21742   0.149   6.322   1.265
 6948SOL    HW121743   0.082   6.288   1.332
 6948SOL    HW221744   0.112   6.311   1.173
 6949SOL     OW21745   2.724   2.397   3.487
 6949SOL    HW121746   2.789   2.329   3.521
 6949SOL    HW221747   2.727   2.399   3.387
 6950SOL     OW21748   1.355   0.043   4.317
 6950SOL    HW121749   1.316   7.011   4.241
 6950SOL    HW221750   1.302   0.026   4.400
 6951SOL     OW21751   6.465   5.448   6.783
 6951SOL    HW121752   6.400   5.492   6.722
 6951SOL    HW221753   6.498   5.514   6.850
 6952SOL     OW21754   2.873   5.224   2.803
 6952SOL    HW121755   2.869   5.300   2.867
 6952SOL    HW221756   2.968   5.203   2.781
 6953SOL     OW21757   5.064   6.856   0.655
 6953SOL    HW121758   4.989   6.880   0.593
 6953SOL    HW221759   5.100   6.766   0.631
 6954SOL     OW21760   0.166   3.528   1.222
 6954SOL    HW121761   0.202   3.513   1.313
 6954SOL    HW221762   0.241   3.531   1.156
 6955SOL     OW21763   5.574   6.975   2.408
 6955SOL    HW121764   5.478   7.002   2.404
 6955SOL    HW221765   5.618   7.015   2.488
 6956SOL     OW21766   5.942   5.779   1.891
 6956SOL    HW121767   5.913   5.747   1.981
 6956SOL    HW221768   5.863   5.813   1.840
 6957SOL     OW21769   5.372   6.210   6.428
 6957SOL    HW121770   5.397   6.214   6.525
 6957SOL    HW221771   5.298   6.144   6.415
 6958SOL     OW21772   3.651   3.494   3.975
 6958SOL    HW121773   3.669   3.427   3.903
 6958SOL    HW221774   3.656   3.586   3.937
 6959SOL     OW21775   1.166   4.074   3.038
 6959SOL    HW121776   1.110   4.002   2.997
 6959SOL    HW221777   1.263   4.053   3.024
 6960SOL     OW21778   1.637   4.841   0.736
 6960SOL    HW121779   1.647   4.938   0.759
 6960SOL    HW221780   1.541   4.815   0.744
 6961SOL     OW21781   4.059   1.308   4.865
 6961SOL    HW121782   4.006   1.240   4.815
 6961SOL    HW221783   4.157   1.291   4.852
 6962SOL     OW21784   3.685   6.474   0.090
 6962SOL    HW121785   3.772   6.497   0.047
 6962SOL    HW221786   3.698   6.398   0.154
 6963SOL     OW21787   4.947   6.298   0.393
 6963SOL    HW121788   5.014   6.356   0.348
 6963SOL    HW221789   4.987   6.259   0.476
 6964SOL     OW21790   2.717   0.228   5.661
 6964SOL    HW121791   2.785   0.259   5.595
 6964SOL    HW221792   2.758   0.224   5.752
 6965SOL     OW21793   1.523   2.292   0.368
 6965SOL    HW121794   1.571   2.260   0.287
 6965SOL    HW221795   1.563   2.379   0.399
 6966SOL     OW21796   1.124   0.456   2.192
 6966SOL    HW121797   1.221   0.435   2.200
 6966SOL    HW221798   1.093   0.436   2.099
 6967SOL     OW21799   3.542   1.868   5.996
 6967SOL    HW121800   3.444   1.883   6.006
 6967SOL    HW221801   3.558   1.789   5.936
 6968SOL     OW21802   3.553   7.020   3.107
 6968SOL    HW121803   3.570   7.006   3.009
 6968SOL    HW221804   3.459   0.029   3.120
 6969SOL     OW21805   2.635   1.812   1.194
 6969SOL    HW121806   2.607   1.731   1.246
 6969SOL    HW221807   2.732   1.831   1.209
 6970SOL     OW21808   3.100   4.859   6.269
 6970SOL    HW121809   3.073   4.785   6.207
 6970SOL    HW221810   3.044   4.940   6.251
 6971SOL     OW21811   5.205   4.463   1.320
 6971SOL    HW121812   5.195   4.475   1.221
 6971SOL    HW221813   5.142   4.525   1.368
 6972SOL     OW21814   5.048   3.576   3.002
 6972SOL    HW121815   5.118   3.507   3.019
 6972SOL    HW221816   5.033   3.631   3.084
 6973SOL     OW21817   1.315   1.864   2.524
 6973SOL    HW121818   1.379   1.812   2.580
 6973SOL    HW221819   1.228   1.816   2.518
 6974SOL     OW21820   3.005   3.928   2.445
 6974SOL    HW121821   3.002   3.910   2.347
 6974SOL    HW221822   2.957   3.855   2.494
 6975SOL     OW21823   3.192   5.791   4.793
 6975SOL    HW121824   3.127   5.813   4.720
 6975SOL    HW221825   3.202   5.871   4.853
 6976SOL     OW21826   4.973   4.203   5.250
 6976SOL    HW121827   4.919   4.228   5.331
 6976SOL    HW221828   4.917   4.147   5.190
 6977SOL     OW21829   4.112   4.279   1.630
 6977SOL    HW121830   4.177   4.228   1.687
 6977SOL    HW221831   4.091   4.226   1.548
 6978SOL     OW21832   5.622   3.280   1.168
 6978SOL    HW121833   5.694   3.288   1.098
 6978SOL    HW221834   5.620   3.187   1.203
 6979SOL     OW21835   1.007   3.671   1.387
 6979SOL    HW121836   1.030   3.681   1.484
 6979SOL    HW221837   1.031   3.755   1.339
 6980SOL     OW21838   1.478   0.621   2.974
 6980SOL    HW121839   1.511   0.571   2.894
 6980SOL    HW221840   1.383   0.646   2.960
 6981SOL     OW21841   3.863   3.529   6.706
 6981SOL    HW121842   3.809   3.613   6.707
 6981SOL    HW221843   3.927   3.530   6.783
 6982SOL     OW21844   1.136   1.049   3.874
 6982SOL    HW121845   1.080   1.024   3.953
 6982SOL    HW221846   1.231   1.059   3.902
 6983SOL     OW21847   4.392   0.952   4.652
 6983SOL    HW121848   4.384   0.876   4.587
 6983SOL    HW221849   4.421   1.034   4.603
 6984SOL     OW21850   1.213   2.640   2.910
 6984SOL    HW121851   1.248   2.554   2.874
 6984SOL    HW221852   1.114   2.642   2.901
 6985SOL     OW21853   0.114   4.357   6.965
 6985SOL    HW121854   0.150   4.420   6.897
 6985SOL    HW221855   0.078   4.275   6.919
 6986SOL     OW21856   4.052   6.074   6.259
 6986SOL    HW121857   4.140   6.027   6.260
 6986SOL    HW221858   4.063   6.167   6.224
 6987SOL     OW21859   6.986   1.704   5.591
 6987SOL    HW121860   7.004   1.635   5.521
 6987SOL    HW221861   0.013   1.681   5.675
 6988SOL     OW21862   3.186   0.479   6.313
 6988SOL    HW121863   3.186   0.531   6.227
 6988SOL    HW221864   3.107   0.418   6.315
 6989SOL     OW21865   0.076   4.497   2.169
 6989SOL    HW121866   7.016   4.522   2.220
 6989SOL    HW221867   0.150   4.478   2.233
 6990SOL     OW21868   3.605   2.795   2.176
 6990SOL    HW121869   3.572   2.847   2.097
 6990SOL    HW221870   3.597   2.697   2.157
 6991SOL     OW21871   5.397   4.804   2.893
 6991SOL    HW121872   5.381   4.869   2.967
 6991SOL    HW221873   5.445   4.849   2.818
 6992SOL     OW21874   0.163   7.020   0.512
 6992SOL    HW121875   0.240   0.007   0.449
 6992SOL    HW221876   0.083   6.987   0.463
 6993SOL     OW21877   5.603   0.959   1.774
 6993SOL    HW121878   5.534   1.029   1.753
 6993SOL    HW221879   5.694   0.999   1.762
 6994SOL     OW21880   1.647   0.007   3.622
 6994SOL    HW121881   1.628   0.035   3.716
 6994SOL    HW221882   1.736   6.983   3.619
 6995SOL     OW21883   0.594   3.705   0.231
 6995SOL    HW121884   0.543   3.632   0.277
 6995SOL    HW221885   0.653   3.666   0.161
 6996SOL     OW21886   1.790   0.491   6.910
 6996SOL    HW121887   1.829   0.463   6.823
 6996SOL    HW221888   1.742   0.414   6.951
 6997SOL     OW21889   0.011   4.899   5.174
 6997SOL    HW121890   0.018   4.800   5.158
 6997SOL    HW221891   6.966   4.916   5.247
 6998SOL     OW21892   1.100   1.582   1.280
 6998SOL    HW121893   1.095   1.557   1.376
 6998SOL    HW221894   1.162   1.659   1.268
 6999SOL     OW21895   0.833   2.611   6.703
 6999SOL    HW121896   0.848   2.517   6.733
 6999SOL    HW221897   0.920   2.653   6.677
 7000SOL     OW21898   6.150   0.249   2.942
 7000SOL    HW121899   6.078   0.281   3.003
 7000SOL    HW221900   6.139   0.291   2.852
 7001SOL     OW21901   1.081   1.634   4.517
 7001SOL    HW121902   1.021   1.598   4.589
 7001SOL    HW221903   1.057   1.593   4.430
 7002SOL     OW21904   0.550   5.510   3.822
 7002SOL    HW121905   0.527   5.601   3.791
 7002SOL    HW221906   0.545   5.506   3.922
 7003SOL     OW21907   5.886   4.483   1.185
 7003SOL    HW121908   5.866   4.428   1.266
 7003SOL    HW221909   5.972   4.451   1.144
 7004SOL     OW21910   1.405   6.032   0.312
 7004SOL    HW121911   1.325   5.979   0.338
 7004SOL    HW221912   1.458   6.055   0.393
 7005SOL     OW21913   1.217   0.360   7.019
 7005SOL    HW121914   1.279   0.354   0.075
 7005SOL    HW221915   1.264   0.405   6.942
 7006SOL     OW21916   6.811   6.734   3.438
 7006SOL    HW121917   6.796   6.671   3.361
 7006SOL    HW221918   6.762   6.820   3.420
 7007SOL     OW21919   4.087   0.867   5.836
 7007SOL    HW121920   4.069   0.769   5.839
 7007SOL    HW221921   4.070   0.901   5.744
 7008SOL     OW21922   6.842   4.138   3.373
 7008SOL    HW121923   6.856   4.237   3.376
 7008SOL    HW221924   6.844   4.102   3.467
 7009SOL     OW21925   4.001   6.191   2.144
 7009SOL    HW121926   3.987   6.212   2.241
 7009SOL    HW221927   3.914   6.168   2.102
 7010SOL     OW21928   5.334   3.994   2.532
 7010SOL    HW121929   5.336   3.921   2.464
 7010SOL    HW221930   5.316   4.082   2.488
 7011SOL     OW21931   3.519   6.527   0.388
 7011SOL    HW121932   3.618   6.520   0.378
 7011SOL    HW221933   3.495   6.519   0.485
 7012SOL     OW21934   1.348   2.859   0.705
 7012SOL    HW121935   1.409   2.846   0.626
 7012SOL    HW221936   1.394   2.826   0.787
 7013SOL     OW21937   2.451   0.909   0.063
 7013SOL    HW121938   2.421   1.002   0.085
 7013SOL    HW221939   2.387   0.843   0.103
 7014SOL     OW21940   6.126   3.813   1.358
 7014SOL    HW121941   6.031   3.782   1.360
 7014SOL    HW221942   6.141   3.869   1.277
 7015SOL     OW21943   5.711   4.284   2.414
 7015SOL    HW121944   5.761   4.356   2.462
 7015SOL    HW221945   5.702   4.308   2.318
 7016SOL     OW21946   3.550   4.526   1.003
 7016SOL    HW121947   3.554   4.625   1.010
 7016SOL    HW221948   3.560   4.498   0.907
 7017SOL     OW21949   4.029   4.788   3.588
 7017SOL    HW121950   4.031   4.861   3.520
 7017SOL    HW221951   3.944   4.793   3.640
 7018SOL     OW21952   4.876   3.173   4.500
 7018SOL    HW121953   4.904   3.268   4.504
 7018SOL    HW221954   4.913   3.123   4.578
 7019SOL     OW21955   5.062   5.459   2.236
 7019SOL    HW121956   4.969   5.426   2.221
 7019SOL    HW221957   5.127   5.390   2.203
 7020SOL     OW21958   0.660   3.302   6.733
 7020SOL    HW121959   0.618   3.368   6.795
 7020SOL    HW221960   0.719   3.241   6.785
 7021SOL     OW21961   0.928   2.609   4.900
 7021SOL    HW121962   0.860   2.649   4.961
 7021SOL    HW221963   1.017   2.607   4.945
 7022SOL     OW21964   3.989   0.922   0.129
 7022SOL    HW121965   3.939   0.846   0.171
 7022SOL    HW221966   4.069   0.944   0.186
 7023SOL     OW21967   0.677   1.881   1.735
 7023SOL    HW121968   0.710   1.787   1.734
 7023SOL    HW221969   0.582   1.885   1.704
 7024SOL     OW21970   3.665   2.933   3.693
 7024SOL    HW121971   3.596   2.946   3.764
 7024SOL    HW221972   3.621   2.898   3.610
 7025SOL     OW21973   3.224   0.194   6.975
 7025SOL    HW121974   3.212   0.103   7.016
 7025SOL    HW221975   3.156   0.257   7.013
 7026SOL     OW21976   3.071   1.380   1.163
 7026SOL    HW121977   2.993   1.438   1.185
 7026SOL    HW221978   3.038   1.291   1.129
 7027SOL     OW21979   2.391   5.429   2.829
 7027SOL    HW121980   2.415   5.511   2.882
 7027SOL    HW221981   2.292   5.429   2.813
 7028SOL     OW21982   2.787   0.343   3.816
 7028SOL    HW121983   2.832   0.393   3.742
 7028SOL    HW221984   2.810   0.384   3.904
 7029SOL     OW21985   3.113   3.386   5.604
 7029SOL    HW121986   3.088   3.406   5.509
 7029SOL    HW221987   3.199   3.432   5.627
 7030SOL     OW21988   0.361   1.831   4.409
 7030SOL    HW121989   0.351   1.736   4.440
 7030SOL    HW221990   0.444   1.838   4.354
 7031SOL     OW21991   4.601   6.134   0.886
 7031SOL    HW121992   4.656   6.176   0.959
 7031SOL    HW221993   4.507   6.122   0.918
 7032SOL     OW21994   4.183   0.039   3.886
 7032SOL    HW121995   4.174   0.131   3.848
 7032SOL    HW221996   4.240   7.006   3.825
 7033SOL     OW21997   1.488   2.385   5.170
 7033SOL    HW121998   1.581   2.348   5.173
 7033SOL    HW221999   1.486   2.475   5.214
 7034SOL     OW22000   6.802   1.850   3.373
 7034SOL    HW122001   6.898   1.863   3.350
 7034SOL    HW222002   6.749   1.836   3.289
 7035SOL     OW22003   2.124   0.261   1.562
 7035SOL    HW122004   2.048   0.325   1.549
 7035SOL    HW222005   2.094   0.184   1.619
 7036SOL     OW22006   0.296   1.599   2.148
 7036SOL    HW122007   0.292   1.499   2.150
 7036SOL    HW222008   0.358   1.631   2.220
 7037SOL     OW22009   0.173   0.249   5.703
 7037SOL    HW122010   0.156   0.343   5.673
 7037SOL    HW222011   0.186   0.247   5.802
 7038SOL     OW22012   2.443   4.327   6.282
 7038SOL    HW122013   2.362   4.354   6.231
 7038SOL    HW222014   2.509   4.284   6.220
 7039SOL     OW22015   0.755   5.143   3.079
 7039SOL    HW122016   0.717   5.235   3.091
 7039SOL    HW222017   0.751   5.118   2.983
 7040SOL     OW22018   4.287   1.876   5.180
 7040SOL    HW122019   4.270   1.810   5.253
 7040SOL    HW222020   4.386   1.887   5.167
 7041SOL     OW22021   1.334   0.993   3.537
 7041SOL    HW122022   1.259   1.056   3.557
 7041SOL    HW222023   1.312   0.939   3.456
 7042SOL     OW22024   4.252   6.099   4.879
 7042SOL    HW122025   4.293   6.190   4.878
 7042SOL    HW222026   4.311   6.037   4.931
 7043SOL     OW22027   2.602   4.638   3.493
 7043SOL    HW122028   2.691   4.635   3.447
 7043SOL    HW222029   2.530   4.612   3.429
 7044SOL     OW22030   5.332   6.253   3.919
 7044SOL    HW122031   5.293   6.337   3.957
 7044SOL    HW222032   5.320   6.178   3.984
 7045SOL     OW22033   5.958   5.420   2.095
 7045SOL    HW122034   6.020   5.411   2.017
 7045SOL    HW222035   5.917   5.511   2.095
 7046SOL     OW22036   3.073   2.133   4.390
 7046SOL    HW122037   3.102   2.060   4.328
 7046SOL    HW222038   3.100   2.110   4.483
 7047SOL     OW22039   0.721   0.171   1.369
 7047SOL    HW122040   0.772   0.246   1.413
 7047SOL    HW222041   0.649   0.139   1.430
 7048SOL     OW22042   6.650   5.776   5.014
 7048SOL    HW122043   6.611   5.735   5.097
 7048SOL    HW222044   6.634   5.875   5.016
 7049SOL     OW22045   3.773   1.564   1.847
 7049SOL    HW122046   3.843   1.616   1.895
 7049SOL    HW222047   3.685   1.610   1.858
 7050SOL     OW22048   3.422   5.013   0.861
 7050SOL    HW122049   3.452   4.925   0.899
 7050SOL    HW222050   3.341   5.045   0.911
 7051SOL     OW22051   0.298   0.213   2.064
 7051SOL    HW122052   0.378   0.194   2.006
 7051SOL    HW222053   0.310   0.166   2.152
 7052SOL     OW22054   5.988   6.803   3.074
 7052SOL    HW122055   6.054   6.871   3.043
 7052SOL    HW222056   5.930   6.842   3.145
 7053SOL     OW22057   1.400   3.289   3.554
 7053SOL    HW122058   1.425   3.201   3.514
 7053SOL    HW222059   1.375   3.277   3.650
 7054SOL     OW22060   0.143   0.500   1.139
 7054SOL    HW122061   0.230   0.496   1.189
 7054SOL    HW222062   0.067   0.489   1.203
 7055SOL     OW22063   1.917   0.765   6.668
 7055SOL    HW122064   1.824   0.728   6.673
 7055SOL    HW222065   1.913   0.865   6.676
 7056SOL     OW22066   6.282   5.706   1.465
 7056SOL    HW122067   6.366   5.653   1.449
 7056SOL    HW222068   6.232   5.666   1.542
 7057SOL     OW22069   2.766   5.044   4.712
 7057SOL    HW122070   2.837   5.112   4.731
 7057SOL    HW222071   2.802   4.953   4.731
 7058SOL     OW22072   5.238   2.146   6.844
 7058SOL    HW122073   5.167   2.200   6.888
 7058SOL    HW222074   5.253   2.061   6.895
 7059SOL     OW22075   2.210   1.415   4.516
 7059SOL    HW122076   2.205   1.378   4.423
 7059SOL    HW222077   2.305   1.424   4.543
 7060SOL     OW22078   3.301   6.611   2.617
 7060SOL    HW122079   3.295   6.670   2.697
 7060SOL    HW222080   3.386   6.629   2.568
 7061SOL     OW22081   1.767   2.085   2.725
 7061SOL    HW122082   1.741   2.129   2.811
 7061SOL    HW222083   1.688   2.085   2.663
 7062SOL     OW22084   4.616   1.486   3.860
 7062SOL    HW122085   4.577   1.504   3.770
 7062SOL    HW222086   4.614   1.388   3.879
 7063SOL     OW22087   0.631   6.570   2.349
 7063SOL    HW122088   0.685   6.487   2.338
 7063SOL    HW222089   0.550   6.550   2.404
 7064SOL     OW22090   4.843   2.055   5.457
 7064SOL    HW122091   4.918   2.022   5.513
 7064SOL    HW222092   4.781   2.110   5.513
 7065SOL     OW22093   3.657   4.655   5.322
 7065SOL    HW122094   3.592   4.620   5.389
 7065SOL    HW222095   3.735   4.592   5.316
 7066SOL     OW22096   4.233   0.478   6.788
 7066SOL    HW122097   4.241   0.409   6.716
 7066SOL    HW222098   4.291   0.556   6.766
 7067SOL     OW22099   1.808   3.162   6.983
 7067SOL    HW122100   1.867   3.149   0.041
 7067SOL    HW222101   1.802   3.259   6.961
 7068SOL     OW22102   5.649   4.343   4.060
 7068SOL    HW122103   5.593   4.370   4.138
 7068SOL    HW222104   5.649   4.416   3.992
 7069SOL     OW22105   5.989   0.838   5.607
 7069SOL    HW122106   5.914   0.904   5.601
 7069SOL    HW222107   6.075   0.887   5.615
 7070SOL     OW22108   0.145   6.936   4.765
 7070SOL    HW122109   0.198   6.879   4.703
 7070SOL    HW222110   0.047   6.924   4.747
 7071SOL     OW22111   5.098   0.013   6.146
 7071SOL    HW122112   5.103   0.019   6.246
 7071SOL    HW222113   5.111   6.940   6.118
 7072SOL     OW22114   0.662   4.379   6.523
 7072SOL    HW122115   0.587   4.316   6.545
 7072SOL    HW222116   0.718   4.392   6.605
 7073SOL     OW22117   4.289   0.511   3.608
 7073SOL    HW122118   4.338   0.565   3.540
 7073SOL    HW222119   4.288   0.561   3.695
 7074SOL     OW22120   6.266   3.739   3.186
 7074SOL    HW122121   6.352   3.789   3.173
 7074SOL    HW222122   6.195   3.781   3.129
 7075SOL     OW22123   3.395   4.994   4.820
 7075SOL    HW122124   3.328   4.995   4.895
 7075SOL    HW222125   3.372   4.922   4.755
 7076SOL     OW22126   6.007   3.204   2.486
 7076SOL    HW122127   5.924   3.222   2.432
 7076SOL    HW222128   6.053   3.123   2.449
 7077SOL     OW22129   2.637   4.950   2.149
 7077SOL    HW122130   2.565   5.001   2.196
 7077SOL    HW222131   2.711   5.013   2.123
 7078SOL     OW22132   5.408   6.732   0.675
 7078SOL    HW122133   5.489   6.725   0.732
 7078SOL    HW222134   5.410   6.818   0.624
 7079SOL     OW22135   0.698   6.883   3.735
 7079SOL    HW122136   0.759   6.808   3.760
 7079SOL    HW222137   0.696   6.950   3.808
 7080SOL     OW22138   3.982   1.703   5.228
 7080SOL    HW122139   3.976   1.618   5.175
 7080SOL    HW222140   3.910   1.765   5.199
 7081SOL     OW22141   1.498   0.882   0.078
 7081SOL    HW122142   1.557   0.930   0.013
 7081SOL    HW222143   1.402   0.900   0.056
 7082SOL     OW22144   6.719   3.702   2.204
 7082SOL    HW122145   6.661   3.766   2.154
 7082SOL    HW222146   6.670   3.615   2.215
 7083SOL     OW22147   6.792   2.318   2.549
 7083SOL    HW122148   6.809   2.227   2.585
 7083SOL    HW222149   6.780   2.383   2.625
 7084SOL     OW22150   0.587   5.670   0.051
 7084SOL    HW122151   0.511   5.724   0.087
 7084SOL    HW222152   0.669   5.727   0.046
 7085SOL     OW22153   0.282   2.575   2.426
 7085SOL    HW122154   0.197   2.522   2.434
 7085SOL    HW222155   0.267   2.652   2.364
 7086SOL     OW22156   6.117   0.716   6.363
 7086SOL    HW122157   6.192   0.663   6.401
 7086SOL    HW222158   6.078   0.668   6.284
 7087SOL     OW22159   5.783   3.035   3.130
 7087SOL    HW122160   5.824   2.946   3.146
 7087SOL    HW222161   5.826   3.103   3.189
 7088SOL     OW22162   5.627   1.685   5.346
 7088SOL    HW122163   5.549   1.623   5.342
 7088SOL    HW222164   5.701   1.644   5.399
 7089SOL     OW22165   4.200   5.426   1.884
 7089SOL    HW122166   4.121   5.381   1.925
 7089SOL    HW222167   4.221   5.510   1.934
 7090SOL     OW22168   3.573   1.548   1.002
 7090SOL    HW122169   3.644   1.486   1.034
 7090SOL    HW222170   3.487   1.498   0.994
 7091SOL     OW22171   0.810   6.829   0.457
 7091SOL    HW122172   0.834   6.926   0.457
 7091SOL    HW222173   0.749   6.810   0.534
 7092SOL     OW22174   4.316   2.309   6.507
 7092SOL    HW122175   4.324   2.303   6.407
 7092SOL    HW222176   4.233   2.263   6.537
 7093SOL     OW22177   3.207   3.960   0.604
 7093SOL    HW122178   3.260   3.947   0.520
 7093SOL    HW222179   3.112   3.935   0.588
 7094SOL     OW22180   2.090   0.257   5.864
 7094SOL    HW122181   2.018   0.226   5.802
 7094SOL    HW222182   2.093   0.357   5.865
 7095SOL     OW22183   3.067   4.791   5.467
 7095SOL    HW122184   3.041   4.873   5.518
 7095SOL    HW222185   2.989   4.729   5.461
 7096SOL     OW22186   6.838   0.649   1.122
 7096SOL    HW122187   6.898   0.710   1.173
 7096SOL    HW222188   6.857   0.657   1.024
 7097SOL     OW22189   5.686   0.132   1.684
 7097SOL    HW122190   5.619   0.105   1.753
 7097SOL    HW222191   5.678   0.230   1.667
 7098SOL     OW22192   1.747   6.737   4.289
 7098SOL    HW122193   1.778   6.648   4.256
 7098SOL    HW222194   1.682   6.776   4.224
 7099SOL     OW22195   3.155   1.977   4.031
 7099SOL    HW122196   3.081   1.947   4.092
 7099SOL    HW222197   3.124   2.055   3.977
 7100SOL     OW22198   0.483   3.467   0.626
 7100SOL    HW122199   0.509   3.475   0.530
 7100SOL    HW222200   0.423   3.388   0.637
 7101SOL     OW22201   1.939   6.807   5.427
 7101SOL    HW122202   2.015   6.756   5.467
 7101SOL    HW222203   1.936   6.791   5.328
 7102SOL     OW22204   5.003   0.687   0.641
 7102SOL    HW122205   5.014   0.617   0.711
 7102SOL    HW222206   5.070   0.760   0.655
 7103SOL     OW22207   5.329   5.170   2.712
 7103SOL    HW122208   5.236   5.183   2.746
 7103SOL    HW222209   5.327   5.160   2.612
 7104SOL     OW22210   5.263   3.049   3.502
 7104SOL    HW122211   5.232   3.051   3.597
 7104SOL    HW222212   5.363   3.041   3.500
 7105SOL     OW22213   3.341   4.135   3.914
 7105SOL    HW122214   3.402   4.192   3.970
 7105SOL    HW222215   3.295   4.068   3.973
 7106SOL     OW22216   3.579   3.019   1.538
 7106SOL    HW122217   3.621   3.081   1.604
 7106SOL    HW222218   3.510   3.067   1.485
 7107SOL     OW22219   4.046   0.029   0.101
 7107SOL    HW122220   4.077   6.959   0.079
 7107SOL    HW222221   4.061   0.089   0.023
 7108SOL     OW22222   3.163   6.213   2.833
 7108SOL    HW122223   3.104   6.269   2.774
 7108SOL    HW222224   3.112   6.132   2.864
 7109SOL     OW22225   1.609   0.319   5.926
 7109SOL    HW122226   1.642   0.323   5.832
 7109SOL    HW222227   1.592   0.412   5.959
 7110SOL     OW22228   3.170   6.465   4.642
 7110SOL    HW122229   3.158   6.535   4.712
 7110SOL    HW222230   3.239   6.399   4.672
 7111SOL     OW22231   1.210   0.590   3.903
 7111SOL    HW122232   1.130   0.536   3.879
 7111SOL    HW222233   1.269   0.537   3.964
 7112SOL     OW22234   2.063   4.716   4.336
 7112SOL    HW122235   1.983   4.686   4.283
 7112SOL    HW222236   2.042   4.802   4.383
 7113SOL     OW22237   2.973   4.840   4.880
 7113SOL    HW122238   3.064   4.866   4.911
 7113SOL    HW222239   2.946   4.754   4.925
 7114SOL     OW22240   5.044   5.318   0.872
 7114SOL    HW122241   5.097   5.345   0.792
 7114SOL    HW222242   5.039   5.394   0.937
 7115SOL     OW22243   6.162   4.253   6.782
 7115SOL    HW122244   6.178   4.239   6.684
 7115SOL    HW222245   6.140   4.350   6.798
 7116SOL     OW22246   6.506   3.459   4.259
 7116SOL    HW122247   6.588   3.431   4.310
 7116SOL    HW222248   6.498   3.405   4.176
 7117SOL     OW22249   6.329   0.264   3.514
 7117SOL    HW122250   6.290   0.341   3.565
 7117SOL    HW222251   6.264   0.189   3.511
 7118SOL     OW22252   4.162   4.556   5.356
 7118SOL    HW122253   4.231   4.584   5.423
 7118SOL    HW222254   4.208   4.532   5.270
 7119SOL     OW22255   4.692   6.885   4.960
 7119SOL    HW122256   4.592   6.881   4.962
 7119SOL    HW222257   4.722   6.937   4.880
 7120SOL     OW22258   4.731   1.328   1.203
 7120SOL    HW122259   4.743   1.421   1.169
 7120SOL    HW222260   4.814   1.274   1.184
 7121SOL     OW22261   0.622   6.422   3.423
 7121SOL    HW122262   0.692   6.353   3.406
 7121SOL    HW222263   0.545   6.380   3.471
 7122SOL     OW22264   2.828   0.221   5.905
 7122SOL    HW122265   2.923   0.208   5.934
 7122SOL    HW222266   2.767   0.188   5.977
 7123SOL     OW22267   6.137   5.368   4.890
 7123SOL    HW122268   6.128   5.335   4.796
 7123SOL    HW222269   6.055   5.343   4.942
 7124SOL     OW22270   0.842   2.381   1.429
 7124SOL    HW122271   0.766   2.387   1.364
 7124SOL    HW222272   0.873   2.286   1.436
 7125SOL     OW22273   0.805   0.309   1.630
 7125SOL    HW122274   0.773   0.264   1.714
 7125SOL    HW222275   0.899   0.342   1.644
 7126SOL     OW22276   4.057   6.134   1.501
 7126SOL    HW122277   4.071   6.103   1.595
 7126SOL    HW222278   4.102   6.222   1.487
 7127SOL     OW22279   2.819   6.236   5.264
 7127SOL    HW122280   2.908   6.282   5.261
 7127SOL    HW222281   2.789   6.216   5.170
 7128SOL     OW22282   3.267   4.333   6.610
 7128SOL    HW122283   3.364   4.328   6.634
 7128SOL    HW222284   3.253   4.406   6.543
 7129SOL     OW22285   0.280   0.933   1.354
 7129SOL    HW122286   0.262   0.865   1.425
 7129SOL    HW222287   0.301   1.021   1.397
 7130SOL     OW22288   2.807   6.424   4.281
 7130SOL    HW122289   2.890   6.374   4.257
 7130SOL    HW222290   2.809   6.447   4.379
 7131SOL     OW22291   3.991   0.863   2.325
 7131SOL    HW122292   3.904   0.912   2.325
 7131SOL    HW222293   4.040   0.882   2.240
 7132SOL     OW22294   5.523   3.879   0.064
 7132SOL    HW122295   5.591   3.841   0.128
 7132SOL    HW222296   5.494   3.808   0.001
 7133SOL     OW22297   3.495   5.793   3.461
 7133SOL    HW122298   3.537   5.744   3.537
 7133SOL    HW222299   3.426   5.734   3.418
 7134SOL     OW22300   6.032   5.376   1.515
 7134SOL    HW122301   5.966   5.441   1.552
 7134SOL    HW222302   6.124   5.414   1.521
 7135SOL     OW22303   2.209   2.958   1.845
 7135SOL    HW122304   2.158   2.932   1.763
 7135SOL    HW222305   2.176   3.046   1.878
 7136SOL     OW22306   2.909   1.596   1.468
 7136SOL    HW122307   2.960   1.637   1.393
 7136SOL    HW222308   2.878   1.667   1.530
 7137SOL     OW22309   2.718   1.967   1.626
 7137SOL    HW122310   2.731   2.038   1.695
 7137SOL    HW222311   2.794   1.901   1.631
 7138SOL     OW22312   1.840   1.889   0.511
 7138SOL    HW122313   1.807   1.983   0.522
 7138SOL    HW222314   1.830   1.840   0.598
 7139SOL     OW22315   6.314   5.967   1.642
 7139SOL    HW122316   6.297   5.905   1.565
 7139SOL    HW222317   6.227   5.989   1.687
 7140SOL     OW22318   6.647   3.347   0.698
 7140SOL    HW122319   6.743   3.352   0.724
 7140SOL    HW222320   6.631   3.264   0.645
 7141SOL     OW22321   3.801   6.462   1.274
 7141SOL    HW122322   3.758   6.551   1.290
 7141SOL    HW222323   3.734   6.399   1.237
 7142SOL     OW22324   3.372   0.567   4.632
 7142SOL    HW122325   3.451   0.615   4.595
 7142SOL    HW222326   3.337   0.502   4.564
 7143SOL     OW22327   2.597   4.682   6.509
 7143SOL    HW122328   2.695   4.690   6.494
 7143SOL    HW222329   2.574   4.587   6.531
 7144SOL     OW22330   6.510   1.246   4.128
 7144SOL    HW122331   6.443   1.223   4.199
 7144SOL    HW222332   6.483   1.332   4.084
 7145SOL     OW22333   4.718   2.084   0.255
 7145SOL    HW122334   4.689   2.041   0.341
 7145SOL    HW222335   4.670   2.041   0.178
 7146SOL     OW22336   2.272   0.825   5.318
 7146SOL    HW122337   2.292   0.741   5.267
 7146SOL    HW222338   2.271   0.903   5.256
 7147SOL     OW22339   5.844   4.590   2.513
 7147SOL    HW122340   5.748   4.608   2.494
 7147SOL    HW222341   5.869   4.629   2.601
 7148SOL     OW22342   6.771   6.304   0.833
 7148SOL    HW122343   6.789   6.228   0.896
 7148SOL    HW222344   6.822   6.290   0.748
 7149SOL     OW22345   6.778   5.149   4.485
 7149SOL    HW122346   6.851   5.111   4.428
 7149SOL    HW222347   6.818   5.209   4.554
 7150SOL     OW22348   4.083   3.771   0.163
 7150SOL    HW122349   4.135   3.712   0.101
 7150SOL    HW222350   4.140   3.796   0.241
 7151SOL     OW22351   3.651   0.206   0.911
 7151SOL    HW122352   3.634   0.147   0.832
 7151SOL    HW222353   3.724   0.272   0.888
 7152SOL     OW22354   0.546   1.421   6.935
 7152SOL    HW122355   0.549   1.331   6.978
 7152SOL    HW222356   0.603   1.422   6.853
 7153SOL     OW22357   3.737   6.493   0.911
 7153SOL    HW122358   3.720   6.451   1.000
 7153SOL    HW222359   3.716   6.428   0.838
 7154SOL     OW22360   4.349   1.304   2.195
 7154SOL    HW122361   4.322   1.303   2.292
 7154SOL    HW222362   4.267   1.308   2.138
 7155SOL     OW22363   3.331   1.727   2.659
 7155SOL    HW122364   3.347   1.740   2.561
 7155SOL    HW222365   3.415   1.694   2.702
 7156SOL     OW22366   6.267   3.856   0.094
 7156SOL    HW122367   6.301   3.930   0.152
 7156SOL    HW222368   6.331   3.780   0.096
 7157SOL     OW22369   6.055   4.443   6.379
 7157SOL    HW122370   6.024   4.525   6.330
 7157SOL    HW222371   6.154   4.435   6.369
 7158SOL     OW22372   4.963   0.036   3.893
 7158SOL    HW122373   4.957   0.134   3.877
 7158SOL    HW222374   4.998   7.013   3.811
 7159SOL     OW22375   0.632   5.740   3.466
 7159SOL    HW122376   0.585   5.663   3.422
 7159SOL    HW222377   0.661   5.713   3.557
 7160SOL     OW22378   5.553   6.925   3.037
 7160SOL    HW122379   5.557   6.966   3.128
 7160SOL    HW222380   5.610   6.843   3.035
 7161SOL     OW22381   3.908   3.003   3.770
 7161SOL    HW122382   3.971   2.962   3.704
 7161SOL    HW222383   3.815   2.971   3.752
 7162SOL     OW22384   0.408   5.113   2.339
 7162SOL    HW122385   0.410   5.156   2.429
 7162SOL    HW222386   0.314   5.106   2.306
 7163SOL     OW22387   1.159   1.498   1.957
 7163SOL    HW122388   1.216   1.475   2.036
 7163SOL    HW222389   1.168   1.427   1.887
 7164SOL     OW22390   1.698   1.403   6.109
 7164SOL    HW122391   1.648   1.435   6.190
 7164SOL    HW222392   1.639   1.344   6.055
 7165SOL     OW22393   6.391   0.476   0.135
 7165SOL    HW122394   6.465   0.506   0.195
 7165SOL    HW222395   6.398   0.378   0.119
 7166SOL     OW22396   5.327   6.760   6.102
 7166SOL    HW122397   5.392   6.686   6.121
 7166SOL    HW222398   5.342   6.835   6.166
 7167SOL     OW22399   5.956   2.124   4.921
 7167SOL    HW122400   5.924   2.145   4.828
 7167SOL    HW222401   6.019   2.195   4.952
 7168SOL     OW22402   2.569   0.870   1.784
 7168SOL    HW122403   2.499   0.904   1.721
 7168SOL    HW222404   2.583   0.936   1.858
 7169SOL     OW22405   2.188   4.351   6.080
 7169SOL    HW122406   2.158   4.263   6.115
 7169SOL    HW222407   2.115   4.419   6.092
 7170SOL     OW22408   4.019   0.940   2.057
 7170SOL    HW122409   4.067   1.016   2.013
 7170SOL    HW222410   3.921   0.946   2.037
 7171SOL     OW22411   5.842   4.813   0.707
 7171SOL    HW122412   5.780   4.752   0.658
 7171SOL    HW222413   5.881   4.764   0.786
 7172SOL     OW22414   1.410   1.161   4.428
 7172SOL    HW122415   1.436   1.202   4.515
 7172SOL    HW222416   1.349   1.083   4.445
 7173SOL     OW22417   5.252   6.215   6.865
 7173SOL    HW122418   5.266   6.312   6.849
 7173SOL    HW222419   5.236   6.199   6.962
 7174SOL     OW22420   5.824   4.312   1.398
 7174SOL    HW122421   5.838   4.225   1.445
 7174SOL    HW222422   5.737   4.352   1.426
 7175SOL     OW22423   6.018   3.762   5.519
 7175SOL    HW122424   5.974   3.844   5.554
 7175SOL    HW222425   5.979   3.738   5.430
 7176SOL     OW22426   0.013   1.298   4.775
 7176SOL    HW122427   7.012   1.285   4.871
 7176SOL    HW222428   6.989   1.229   4.720
 7177SOL     OW22429   1.788   5.321   4.689
 7177SOL    HW122430   1.884   5.339   4.667
 7177SOL    HW222431   1.781   5.286   4.782
 7178SOL     OW22432   0.736   0.881   5.494
 7178SOL    HW122433   0.672   0.883   5.417
 7178SOL    HW222434   0.715   0.956   5.557
 7179SOL     OW22435   3.640   5.778   6.694
 7179SOL    HW122436   3.633   5.718   6.614
 7179SOL    HW222437   3.588   5.862   6.677
 7180SOL     OW22438   1.331   4.944   1.382
 7180SOL    HW122439   1.300   4.849   1.387
 7180SOL    HW222440   1.303   4.984   1.295
 7181SOL     OW22441   2.436   1.579   6.081
 7181SOL    HW122442   2.481   1.563   5.993
 7181SOL    HW222443   2.389   1.667   6.079
 7182SOL     OW22444   0.839   3.462   4.072
 7182SOL    HW122445   0.878   3.537   4.125
 7182SOL    HW222446   0.898   3.381   4.080
 7183SOL     OW22447   1.181   6.465   1.743
 7183SOL    HW122448   1.107   6.429   1.685
 7183SOL    HW222449   1.226   6.541   1.696
 7184SOL     OW22450   6.469   0.256   3.770
 7184SOL    HW122451   6.387   0.210   3.804
 7184SOL    HW222452   6.459   0.277   3.673
 7185SOL     OW22453   4.964   0.275   4.861
 7185SOL    HW122454   4.927   0.306   4.773
 7185SOL    HW222455   4.889   0.244   4.920
 7186SOL     OW22456   0.375   7.006   0.334
 7186SOL    HW122457   0.380   6.921   0.281
 7186SOL    HW222458   0.371   0.062   0.271
 7187SOL     OW22459   2.903   3.265   4.981
 7187SOL    HW122460   2.834   3.293   4.915
 7187SOL    HW222461   2.945   3.179   4.950
 7188SOL     OW22462   3.982   4.986   6.771
 7188SOL    HW122463   4.074   4.960   6.740
 7188SOL    HW222464   3.959   5.076   6.735
 7189SOL     OW22465   6.235   2.407   5.219
 7189SOL    HW122466   6.138   2.391   5.237
 7189SOL    HW222467   6.273   2.467   5.289
 7190SOL     OW22468   5.865   5.342   1.274
 7190SOL    HW122469   5.922   5.345   1.356
 7190SOL    HW222470   5.770   5.360   1.299
 7191SOL     OW22471   0.667   3.854   3.206
 7191SOL    HW122472   0.580   3.858   3.254
 7191SOL    HW222473   0.679   3.763   3.165
 7192SOL     OW22474   1.479   5.034   6.594
 7192SOL    HW122475   1.407   4.965   6.596
 7192SOL    HW222476   1.568   4.990   6.607
 7193SOL     OW22477   2.438   2.462   2.747
 7193SOL    HW122478   2.530   2.451   2.709
 7193SOL    HW222479   2.392   2.373   2.748
 7194SOL     OW22480   2.897   2.463   6.206
 7194SOL    HW122481   2.854   2.449   6.295
 7194SOL    HW222482   2.910   2.561   6.191
 7195SOL     OW22483   0.444   3.012   6.221
 7195SOL    HW122484   0.413   3.066   6.143
 7195SOL    HW222485   0.519   3.060   6.268
 7196SOL     OW22486   3.400   4.136   2.338
 7196SOL    HW122487   3.353   4.123   2.250
 7196SOL    HW222488   3.497   4.151   2.322
 7197SOL     OW22489   1.931   3.873   5.582
 7197SOL    HW122490   1.838   3.839   5.569
 7197SOL    HW222491   1.990   3.839   5.509
 7198SOL     OW22492   6.547   1.146   0.768
 7198SOL    HW122493   6.569   1.106   0.856
 7198SOL    HW222494   6.524   1.243   0.780
 7199SOL     OW22495   0.929   0.717   2.257
 7199SOL    HW122496   0.878   0.715   2.343
 7199SOL    HW222497   0.870   0.685   2.183
 7200SOL     OW22498   1.985   2.412   0.690
 7200SOL    HW122499   2.027   2.344   0.750
 7200SOL    HW222500   1.889   2.387   0.673
 7201SOL     OW22501   5.701   5.706   4.045
 7201SOL    HW122502   5.713   5.710   4.145
 7201SOL    HW222503   5.790   5.699   4.001
 7202SOL     OW22504   4.884   0.820   5.501
 7202SOL    HW122505   4.920   0.727   5.503
 7202SOL    HW222506   4.916   0.870   5.582
 7203SOL     OW22507   0.093   1.723   2.013
 7203SOL    HW122508   0.037   1.656   1.964
 7203SOL    HW222509   0.171   1.677   2.056
 7204SOL     OW22510   6.973   1.307   1.220
 7204SOL    HW122511   6.873   1.305   1.219
 7204SOL    HW222512   7.007   1.259   1.300
 7205SOL     OW22513   1.884   2.248   5.536
 7205SOL    HW122514   1.853   2.174   5.476
 7205SOL    HW222515   1.864   2.336   5.493
 7206SOL     OW22516   1.900   2.108   1.372
 7206SOL    HW122517   1.892   2.132   1.275
 7206SOL    HW222518   1.896   2.191   1.428
 7207SOL     OW22519   1.620   2.272   4.048
 7207SOL    HW122520   1.609   2.222   3.961
 7207SOL    HW222521   1.597   2.211   4.124
 7208SOL     OW22522   3.531   1.016   4.426
 7208SOL    HW122523   3.439   1.053   4.440
 7208SOL    HW222524   3.574   1.065   4.350
 7209SOL     OW22525   2.649   2.380   2.176
 7209SOL    HW122526   2.623   2.308   2.241
 7209SOL    HW222527   2.734   2.354   2.130
 7210SOL     OW22528   2.894   1.754   3.333
 7210SOL    HW122529   2.873   1.682   3.266
 7210SOL    HW222530   2.810   1.783   3.378
 7211SOL     OW22531   3.132   5.989   5.389
 7211SOL    HW122532   3.221   5.975   5.346
 7211SOL    HW222533   3.128   6.079   5.431
 7212SOL     OW22534   5.838   5.133   6.123
 7212SOL    HW122535   5.769   5.166   6.059
 7212SOL    HW222536   5.917   5.098   6.072
 7213SOL     OW22537   3.676   0.898   0.752
 7213SOL    HW122538   3.751   0.872   0.691
 7213SOL    HW222539   3.665   0.997   0.750
 7214SOL     OW22540   0.750   1.041   6.292
 7214SOL    HW122541   0.726   0.987   6.372
 7214SOL    HW222542   0.736   0.986   6.209
 7215SOL     OW22543   6.994   2.917   3.016
 7215SOL    HW122544   6.928   2.988   3.039
 7215SOL    HW222545   0.011   2.937   2.925
 7216SOL     OW22546   2.982   6.119   3.333
 7216SOL    HW122547   2.891   6.118   3.376
 7216SOL    HW222548   2.985   6.190   3.263
 7217SOL     OW22549   1.244   4.299   3.676
 7217SOL    HW122550   1.188   4.241   3.735
 7217SOL    HW222551   1.187   4.370   3.636
 7218SOL     OW22552   6.176   3.666   4.957
 7218SOL    HW122553   6.153   3.624   4.869
 7218SOL    HW222554   6.186   3.765   4.945
 7219SOL     OW22555   3.126   6.269   1.981
 7219SOL    HW122556   3.168   6.215   1.908
 7219SOL    HW222557   3.037   6.230   2.004
 7220SOL     OW22558   6.786   4.209   4.329
 7220SOL    HW122559   6.850   4.132   4.339
 7220SOL    HW222560   6.745   4.206   4.238
 7221SOL     OW22561   3.567   6.109   4.836
 7221SOL    HW122562   3.614   6.174   4.896
 7221SOL    HW222563   3.598   6.122   4.742
 7222SOL     OW22564   6.735   6.576   3.235
 7222SOL    HW122565   6.753   6.646   3.166
 7222SOL    HW222566   6.785   6.493   3.213
 7223SOL     OW22567   1.932   2.057   0.959
 7223SOL    HW122568   1.931   1.987   1.030
 7223SOL    HW222569   2.026   2.088   0.945
 7224SOL     OW22570   4.448   1.941   3.566
 7224SOL    HW122571   4.378   1.994   3.519
 7224SOL    HW222572   4.531   1.996   3.577
 7225SOL     OW22573   1.889   6.719   0.628
 7225SOL    HW122574   1.904   6.817   0.630
 7225SOL    HW222575   1.962   6.674   0.577
 7226SOL     OW22576   6.015   1.469   6.988
 7226SOL    HW122577   6.091   1.512   6.939
 7226SOL    HW222578   6.012   1.371   6.967
 7227SOL     OW22579   2.601   0.821   2.184
 7227SOL    HW122580   2.523   0.759   2.175
 7227SOL    HW222581   2.568   0.913   2.205
 7228SOL     OW22582   0.836   1.962   2.511
 7228SOL    HW122583   0.858   1.900   2.435
 7228SOL    HW222584   0.919   2.005   2.544
 7229SOL     OW22585   6.846   0.394   4.403
 7229SOL    HW122586   6.933   0.427   4.438
 7229SOL    HW222587   6.776   0.398   4.475
 7230SOL     OW22588   2.621   4.949   4.164
 7230SOL    HW122589   2.541   4.992   4.122
 7230SOL    HW222590   2.646   4.868   4.111
 7231SOL     OW22591   4.073   1.433   6.653
 7231SOL    HW122592   3.992   1.403   6.602
 7231SOL    HW222593   4.155   1.393   6.611
 7232SOL     OW22594   5.320   0.092   2.406
 7232SOL    HW122595   5.260   0.122   2.332
 7232SOL    HW222596   5.268   0.040   2.473
 7233SOL     OW22597   6.072   1.296   5.830
 7233SOL    HW122598   6.141   1.366   5.845
 7233SOL    HW222599   6.011   1.291   5.909
 7234SOL     OW22600   4.831   3.768   3.360
 7234SOL    HW122601   4.829   3.679   3.314
 7234SOL    HW222602   4.816   3.840   3.292
 7235SOL     OW22603   6.702   5.480   1.626
 7235SOL    HW122604   6.711   5.578   1.613
 7235SOL    HW222605   6.607   5.458   1.651
 7236SOL     OW22606   2.141   2.693   3.128
 7236SOL    HW122607   2.155   2.631   3.051
 7236SOL    HW222608   2.178   2.783   3.105
 7237SOL     OW22609   5.214   0.616   6.636
 7237SOL    HW122610   5.179   0.525   6.661
 7237SOL    HW222611   5.160   0.686   6.683
 7238SOL     OW22612   4.587   2.649   0.152
 7238SOL    HW122613   4.684   2.635   0.133
 7238SOL    HW222614   4.534   2.637   0.068
 7239SOL     OW22615   0.410   3.466   2.328
 7239SOL    HW122616   0.382   3.466   2.232
 7239SOL    HW222617   0.505   3.495   2.335
 7240SOL     OW22618   6.603   1.858   5.919
 7240SOL    HW122619   6.578   1.794   5.991
 7240SOL    HW222620   6.637   1.808   5.840
 7241SOL     OW22621   2.325   0.528   0.968
 7241SOL    HW122622   2.418   0.564   0.956
 7241SOL    HW222623   2.276   0.585   1.033
 7242SOL     OW22624   0.612   5.965   4.214
 7242SOL    HW122625   0.524   5.949   4.170
 7242SOL    HW222626   0.664   6.032   4.161
 7243SOL     OW22627   6.745   4.124   6.218
 7243SOL    HW122628   6.828   4.092   6.264
 7243SOL    HW222629   6.693   4.045   6.185
 7244SOL     OW22630   0.318   6.761   0.220
 7244SOL    HW122631   0.378   6.705   0.164
 7244SOL    HW222632   0.225   6.724   0.218
 7245SOL     OW22633   1.861   2.585   7.020
 7245SOL    HW122634   1.837   2.667   6.969
 7245SOL    HW222635   1.932   2.535   6.971
 7246SOL     OW22636   3.006   0.335   4.531
 7246SOL    HW122637   3.007   0.378   4.622
 7246SOL    HW222638   2.940   0.382   4.473
 7247SOL     OW22639   2.946   2.608   5.333
 7247SOL    HW122640   3.030   2.568   5.370
 7247SOL    HW222641   2.968   2.691   5.281
 7248SOL     OW22642   3.523   0.616   4.293
 7248SOL    HW122643   3.584   0.666   4.354
 7248SOL    HW222644   3.537   0.518   4.305
 7249SOL     OW22645   4.211   4.683   2.112
 7249SOL    HW122646   4.240   4.649   2.023
 7249SOL    HW222647   4.120   4.724   2.105
 7250SOL     OW22648   5.262   4.730   5.734
 7250SOL    HW122649   5.343   4.771   5.778
 7250SOL    HW222650   5.232   4.789   5.659
 7251SOL     OW22651   0.414   6.615   5.630
 7251SOL    HW122652   0.441   6.711   5.619
 7251SOL    HW222653   0.317   6.605   5.609
 7252SOL     OW22654   3.335   4.081   2.068
 7252SOL    HW122655   3.340   4.028   1.983
 7252SOL    HW222656   3.419   4.135   2.079
 7253SOL     OW22657   1.298   6.054   5.960
 7253SOL    HW122658   1.390   6.051   5.922
 7253SOL    HW222659   1.294   6.123   6.032
 7254SOL     OW22660   5.761   4.430   3.656
 7254SOL    HW122661   5.777   4.335   3.684
 7254SOL    HW222662   5.666   4.455   3.673
 7255SOL     OW22663   4.898   3.531   6.579
 7255SOL    HW122664   4.840   3.596   6.628
 7255SOL    HW222665   4.989   3.570   6.568
 7256SOL     OW22666   3.415   6.723   5.579
 7256SOL    HW122667   3.338   6.767   5.533
 7256SOL    HW222668   3.382   6.649   5.637
 7257SOL     OW22669   6.914   1.958   4.905
 7257SOL    HW122670   6.895   1.861   4.921
 7257SOL    HW222671   7.006   1.980   4.939
 7258SOL     OW22672   5.850   2.528   2.141
 7258SOL    HW122673   5.801   2.493   2.221
 7258SOL    HW222674   5.832   2.468   2.063
 7259SOL     OW22675   1.174   3.795   2.944
 7259SOL    HW122676   1.196   3.700   2.923
 7259SOL    HW222677   1.119   3.798   3.028
 7260SOL     OW22678   5.255   2.432   1.067
 7260SOL    HW122679   5.261   2.336   1.093
 7260SOL    HW222680   5.174   2.473   1.109
 7261SOL     OW22681   0.107   4.060   0.332
 7261SOL    HW122682   0.104   4.022   0.240
 7261SOL    HW222683   0.015   4.059   0.372
 7262SOL     OW22684   5.246   1.635   5.982
 7262SOL    HW122685   5.276   1.586   6.063
 7262SOL    HW222686   5.228   1.731   6.005
 7263SOL     OW22687   0.671   6.652   0.626
 7263SOL    HW122688   0.736   6.611   0.690
 7263SOL    HW222689   0.608   6.581   0.593
 7264SOL     OW22690   5.566   1.226   0.836
 7264SOL    HW122691   5.546   1.323   0.842
 7264SOL    HW222692   5.665   1.212   0.837
 7265SOL     OW22693   5.195   5.606   4.589
 7265SOL    HW122694   5.177   5.686   4.646
 7265SOL    HW222695   5.159   5.524   4.633
 7266SOL     OW22696   6.924   0.674   3.820
 7266SOL    HW122697   6.991   0.729   3.770
 7266SOL    HW222698   6.890   0.726   3.898
 7267SOL     OW22699   6.413   6.260   5.095
 7267SOL    HW122700   6.385   6.295   5.185
 7267SOL    HW222701   6.359   6.304   5.024
 7268SOL     OW22702   6.502   5.725   4.220
 7268SOL    HW122703   6.475   5.629   4.225
 7268SOL    HW222704   6.515   5.751   4.125
 7269SOL     OW22705   1.811   5.627   5.813
 7269SOL    HW122706   1.818   5.529   5.827
 7269SOL    HW222707   1.892   5.672   5.851
 7270SOL     OW22708   0.160   2.024   4.022
 7270SOL    HW122709   0.233   2.089   4.044
 7270SOL    HW222710   0.181   1.979   3.935
 7271SOL     OW22711   1.567   5.064   4.059
 7271SOL    HW122712   1.484   5.106   4.021
 7271SOL    HW222713   1.592   4.984   4.005
 7272SOL     OW22714   6.596   6.517   1.558
 7272SOL    HW122715   6.578   6.460   1.478
 7272SOL    HW222716   6.695   6.530   1.568
 7273SOL     OW22717   5.099   3.229   6.059
 7273SOL    HW122718   5.161   3.212   5.984
 7273SOL    HW222719   5.039   3.150   6.072
 7274SOL     OW22720   0.686   4.583   6.786
 7274SOL    HW122721   0.732   4.666   6.754
 7274SOL    HW222722   0.753   4.525   6.834
 7275SOL     OW22723   6.847   6.671   2.784
 7275SOL    HW122724   6.924   6.648   2.723
 7275SOL    HW222725   6.834   6.597   2.849
 7276SOL     OW22726   5.620   0.259   3.809
 7276SOL    HW122727   5.678   0.235   3.731
 7276SOL    HW222728   5.657   0.340   3.855
 7277SOL     OW22729   4.932   0.754   5.925
 7277SOL    HW122730   4.991   0.679   5.895
 7277SOL    HW222731   4.945   0.769   6.023
 7278SOL     OW22732   3.082   4.025   1.997
 7278SOL    HW122733   3.048   4.090   1.930
 7278SOL    HW222734   3.173   4.054   2.028
 7279SOL     OW22735   3.992   6.218   0.039
 7279SOL    HW122736   3.916   6.218   0.104
 7279SOL    HW222737   4.030   6.126   0.032
 7280SOL     OW22738   5.672   6.596   4.994
 7280SOL    HW122739   5.737   6.646   5.051
 7280SOL    HW222740   5.632   6.658   4.926
 7281SOL     OW22741   3.219   1.411   6.898
 7281SOL    HW122742   3.203   1.466   6.815
 7281SOL    HW222743   3.132   1.397   6.945
 7282SOL     OW22744   6.058   4.886   2.601
 7282SOL    HW122745   6.017   4.972   2.632
 7282SOL    HW222746   6.146   4.905   2.557
 7283SOL     OW22747   2.614   1.236   3.296
 7283SOL    HW122748   2.640   1.265   3.204
 7283SOL    HW222749   2.517   1.253   3.310
 7284SOL     OW22750   0.674   4.171   5.397
 7284SOL    HW122751   0.694   4.101   5.328
 7284SOL    HW222752   0.749   4.173   5.464
 7285SOL     OW22753   5.204   4.675   2.183
 7285SOL    HW122754   5.113   4.715   2.173
 7285SOL    HW222755   5.198   4.593   2.239
 7286SOL     OW22756   2.384   1.966   1.106
 7286SOL    HW122757   2.456   1.904   1.136
 7286SOL    HW222758   2.313   1.914   1.059
 7287SOL     OW22759   1.009   2.077   6.764
 7287SOL    HW122760   0.993   2.175   6.773
 7287SOL    HW222761   0.999   2.050   6.668
 7288SOL     OW22762   4.020   0.730   6.477
 7288SOL    HW122763   3.925   0.704   6.461
 7288SOL    HW222764   4.055   0.779   6.397
 7289SOL     OW22765   6.108   1.504   3.154
 7289SOL    HW122766   6.195   1.515   3.202
 7289SOL    HW222767   6.040   1.566   3.193
 7290SOL     OW22768   2.697   5.620   5.595
 7290SOL    HW122769   2.714   5.718   5.591
 7290SOL    HW222770   2.781   5.573   5.624
 7291SOL     OW22771   2.287   0.332   1.286
 7291SOL    HW122772   2.223   0.336   1.363
 7291SOL    HW222773   2.235   0.332   1.200
 7292SOL     OW22774   2.289   0.436   3.756
 7292SOL    HW122775   2.327   0.509   3.813
 7292SOL    HW222776   2.233   0.477   3.683
 7293SOL     OW22777   1.697   1.526   4.738
 7293SOL    HW122778   1.708   1.584   4.818
 7293SOL    HW222779   1.748   1.564   4.661
 7294SOL     OW22780   2.665   5.161   0.510
 7294SOL    HW122781   2.622   5.235   0.563
 7294SOL    HW222782   2.712   5.100   0.573
 7295SOL     OW22783   1.187   2.400   0.744
 7295SOL    HW122784   1.159   2.368   0.835
 7295SOL    HW222785   1.107   2.433   0.694
 7296SOL     OW22786   3.085   4.726   1.073
 7296SOL    HW122787   3.106   4.638   1.115
 7296SOL    HW222788   3.053   4.789   1.143
 7297SOL     OW22789   4.229   5.791   0.684
 7297SOL    HW122790   4.147   5.849   0.685
 7297SOL    HW222791   4.215   5.712   0.743
 7298SOL     OW22792   5.135   4.368   5.651
 7298SOL    HW122793   5.088   4.301   5.709
 7298SOL    HW222794   5.211   4.409   5.702
 7299SOL     OW22795   0.687   2.137   6.704
 7299SOL    HW122796   0.673   2.172   6.612
 7299SOL    HW222797   0.708   2.039   6.700
 7300SOL     OW22798   5.231   5.322   1.675
 7300SOL    HW122799   5.302   5.384   1.708
 7300SOL    HW222800   5.254   5.293   1.582
 7301SOL     OW22801   6.221   0.924   4.631
 7301SOL    HW122802   6.292   0.898   4.696
 7301SOL    HW222803   6.213   0.854   4.560
 7302SOL     OW22804   0.348   1.463   0.164
 7302SOL    HW122805   0.399   1.434   0.084
 7302SOL    HW222806   0.400   1.533   0.213
 7303SOL     OW22807   5.093   0.830   6.769
 7303SOL    HW122808   5.160   0.900   6.792
 7303SOL    HW222809   5.043   0.805   6.852
 7304SOL     OW22810   3.653   4.505   6.505
 7304SOL    HW122811   3.708   4.572   6.456
 7304SOL    HW222812   3.594   4.457   6.441
 7305SOL     OW22813   4.569   1.916   0.971
 7305SOL    HW122814   4.499   1.851   1.000
 7305SOL    HW222815   4.527   1.986   0.913
 7306SOL     OW22816   5.275   3.260   1.289
 7306SOL    HW122817   5.357   3.251   1.345
 7306SOL    HW222818   5.203   3.303   1.343
 7307SOL     OW22819   3.254   6.716   1.706
 7307SOL    HW122820   3.167   6.668   1.715
 7307SOL    HW222821   3.322   6.655   1.665
 7308SOL     OW22822   0.098   3.628   5.386
 7308SOL    HW122823   0.072   3.533   5.371
 7308SOL    HW222824   0.097   3.678   5.299
 7309SOL     OW22825   5.330   6.119   0.499
 7309SOL    HW122826   5.319   6.023   0.526
 7309SOL    HW222827   5.374   6.170   0.573
 7310SOL     OW22828   2.366   4.320   1.152
 7310SOL    HW122829   2.445   4.270   1.118
 7310SOL    HW222830   2.395   4.384   1.223
 7311SOL     OW22831   3.315   1.996   2.280
 7311SOL    HW122832   3.247   2.069   2.280
 7311SOL    HW222833   3.299   1.935   2.202
 7312SOL     OW22834   0.331   3.037   5.630
 7312SOL    HW122835   0.379   3.122   5.649
 7312SOL    HW222836   0.249   3.032   5.687
 7313SOL     OW22837   4.539   2.547   6.261
 7313SOL    HW122838   4.586   2.460   6.275
 7313SOL    HW222839   4.467   2.557   6.330
 7314SOL     OW22840   6.740   4.299   5.322
 7314SOL    HW122841   6.692   4.297   5.410
 7314SOL    HW222842   6.692   4.240   5.257
 7315SOL     OW22843   6.634   0.922   3.165
 7315SOL    HW122844   6.668   0.865   3.240
 7315SOL    HW222845   6.627   0.867   3.082
 7316SOL     OW22846   3.013   3.667   5.862
 7316SOL    HW122847   2.952   3.640   5.936
 7316SOL    HW222848   2.959   3.689   5.780
 7317SOL     OW22849   4.442   0.843   2.353
 7317SOL    HW122850   4.509   0.823   2.425
 7317SOL    HW222851   4.362   0.888   2.394
 7318SOL     OW22852   0.826   1.639   0.986
 7318SOL    HW122853   0.883   1.562   0.958
 7318SOL    HW222854   0.839   1.716   0.924
 7319SOL     OW22855   6.464   3.776   6.278
 7319SOL    HW122856   6.424   3.738   6.361
 7319SOL    HW222857   6.400   3.841   6.237
 7320SOL     OW22858   6.813   3.642   1.830
 7320SOL    HW122859   6.855   3.593   1.907
 7320SOL    HW222860   6.879   3.648   1.755
 7321SOL     OW22861   2.935   0.314   5.498
 7321SOL    HW122862   3.000   0.239   5.486
 7321SOL    HW222863   2.956   0.387   5.433
 7322SOL     OW22864   0.741   2.833   2.662
 7322SOL    HW122865   0.654   2.868   2.696
 7322SOL    HW222866   0.746   2.847   2.563
 7323SOL     OW22867   2.228   2.346   2.105
 7323SOL    HW122868   2.295   2.377   2.037
 7323SOL    HW222869   2.276   2.318   2.189
 7324SOL     OW22870   5.345   6.661   2.291
 7324SOL    HW122871   5.347   6.744   2.346
 7324SOL    HW222872   5.259   6.612   2.306
 7325SOL     OW22873   3.946   0.230   6.108
 7325SOL    HW122874   4.026   0.174   6.129
 7325SOL    HW222875   3.908   0.268   6.192
 7326SOL     OW22876   2.216   6.356   5.343
 7326SOL    HW122877   2.144   6.286   5.344
 7326SOL    HW222878   2.183   6.438   5.295
 7327SOL     OW22879   6.473   2.704   5.166
 7327SOL    HW122880   6.391   2.697   5.223
 7327SOL    HW222881   6.480   2.625   5.105
 7328SOL     OW22882   3.511   0.335   6.658
 7328SOL    HW122883   3.534   0.297   6.568
 7328SOL    HW222884   3.455   0.269   6.708
 7329SOL     OW22885   4.397   3.805   1.684
 7329SOL    HW122886   4.333   3.757   1.743
 7329SOL    HW222887   4.473   3.745   1.660
 7330SOL     OW22888   3.076   2.194   0.100
 7330SOL    HW122889   3.141   2.246   0.157
 7330SOL    HW222890   2.992   2.247   0.090
 7331SOL     OW22891   5.520   0.055   1.450
 7331SOL    HW122892   5.423   0.044   1.429
 7331SOL    HW222893   5.531   0.080   1.547
 7332SOL     OW22894   2.270   6.074   0.616
 7332SOL    HW122895   2.255   5.979   0.643
 7332SOL    HW222896   2.354   6.108   0.658
 7333SOL     OW22897   0.237   3.077   3.621
 7333SOL    HW122898   0.325   3.118   3.600
 7333SOL    HW222899   0.227   3.065   3.720
 7334SOL     OW22900   4.241   6.082   6.896
 7334SOL    HW122901   4.155   6.035   6.911
 7334SOL    HW222902   4.290   6.091   6.983
 7335SOL     OW22903   1.950   2.781   2.594
 7335SOL    HW122904   1.857   2.813   2.577
 7335SOL    HW222905   1.951   2.721   2.674
 7336SOL     OW22906   1.529   6.176   3.302
 7336SOL    HW122907   1.578   6.260   3.281
 7336SOL    HW222908   1.445   6.171   3.247
 7337SOL     OW22909   0.330   2.735   2.105
 7337SOL    HW122910   0.387   2.684   2.041
 7337SOL    HW222911   0.234   2.727   2.078
 7338SOL     OW22912   6.539   2.784   1.264
 7338SOL    HW122913   6.441   2.804   1.255
 7338SOL    HW222914   6.585   2.863   1.304
 7339SOL     OW22915   5.163   5.949   3.517
 7339SOL    HW122916   5.235   5.955   3.585
 7339SOL    HW222917   5.093   6.019   3.536
 7340SOL     OW22918   1.557   1.123   0.660
 7340SOL    HW122919   1.565   1.047   0.596
 7340SOL    HW222920   1.648   1.148   0.693
 7341SOL     OW22921   6.778   2.033   6.570
 7341SOL    HW122922   6.697   2.000   6.618
 7341SOL    HW222923   6.757   2.121   6.528
 7342SOL     OW22924   6.467   1.055   2.200
 7342SOL    HW122925   6.373   1.036   2.228
 7342SOL    HW222926   6.485   1.153   2.205
 7343SOL     OW22927   4.310   3.179   0.237
 7343SOL    HW122928   4.255   3.189   0.154
 7343SOL    HW222929   4.254   3.200   0.317
 7344SOL     OW22930   1.409   0.192   6.121
 7344SOL    HW122931   1.408   0.209   6.219
 7344SOL    HW222932   1.499   0.159   6.092
 7345SOL     OW22933   3.662   3.086   5.159
 7345SOL    HW122934   3.724   3.015   5.124
 7345SOL    HW222935   3.593   3.106   5.089
 7346SOL     OW22936   4.001   6.560   3.125
 7346SOL    HW122937   3.951   6.487   3.079
 7346SOL    HW222938   3.957   6.580   3.213
 7347SOL     OW22939   0.389   2.088   7.014
 7347SOL    HW122940   0.331   2.007   7.011
 7347SOL    HW222941   0.431   2.096   0.083
 7348SOL     OW22942   1.222   3.608   4.008
 7348SOL    HW122943   1.184   3.517   4.023
 7348SOL    HW222944   1.319   3.608   4.031
 7349SOL     OW22945   4.062   0.406   1.504
 7349SOL    HW122946   4.138   0.412   1.440
 7349SOL    HW222947   4.090   0.355   1.585
 7350SOL     OW22948   2.610   0.975   5.412
 7350SOL    HW122949   2.551   0.895   5.398
 7350SOL    HW222950   2.632   0.984   5.509
 7351SOL     OW22951   5.116   5.187   3.610
 7351SOL    HW122952   5.133   5.094   3.641
 7351SOL    HW222953   5.086   5.243   3.688
 7352SOL     OW22954   1.337   1.555   2.819
 7352SOL    HW122955   1.342   1.486   2.891
 7352SOL    HW222956   1.242   1.584   2.807
 7353SOL     OW22957   0.628   0.527   6.481
 7353SOL    HW122958   0.600   0.563   6.570
 7353SOL    HW222959   0.721   0.491   6.488
 7354SOL     OW22960   2.090   1.082   4.393
 7354SOL    HW122961   2.029   1.049   4.465
 7354SOL    HW222962   2.039   1.137   4.327
 7355SOL     OW22963   0.114   2.382   6.397
 7355SOL    HW122964   0.159   2.431   6.472
 7355SOL    HW222965   0.016   2.404   6.398
 7356SOL     OW22966   3.830   4.484   6.042
 7356SOL    HW122967   3.874   4.490   5.952
 7356SOL    HW222968   3.775   4.401   6.046
 7357SOL     OW22969   3.702   5.983   2.239
 7357SOL    HW122970   3.758   5.966   2.320
 7357SOL    HW222971   3.699   5.900   2.182
 7358SOL     OW22972   5.966   3.092   1.967
 7358SOL    HW122973   6.060   3.062   1.953
 7358SOL    HW222974   5.922   3.033   2.034
 7359SOL     OW22975   4.417   2.411   6.016
 7359SOL    HW122976   4.453   2.478   6.080
 7359SOL    HW222977   4.486   2.393   5.945
 7360SOL     OW22978   2.182   3.570   5.537
 7360SOL    HW122979   2.189   3.489   5.595
 7360SOL    HW222980   2.216   3.548   5.446
 7361SOL     OW22981   5.165   0.364   2.783
 7361SOL    HW122982   5.088   0.428   2.782
 7361SOL    HW222983   5.249   0.411   2.758
 7362SOL     OW22984   3.730   5.500   6.144
 7362SOL    HW122985   3.776   5.558   6.077
 7362SOL    HW222986   3.633   5.525   6.149
 7363SOL     OW22987   4.286   0.931   1.580
 7363SOL    HW122988   4.198   0.918   1.532
 7363SOL    HW222989   4.269   0.966   1.672
 7364SOL     OW22990   4.205   6.898   1.835
 7364SOL    HW122991   4.120   6.853   1.861
 7364SOL    HW222992   4.225   6.972   1.900
 7365SOL     OW22993   6.345   5.735   2.616
 7365SOL    HW122994   6.278   5.790   2.665
 7365SOL    HW222995   6.429   5.728   2.671
 7366SOL     OW22996   2.055   0.245   4.748
 7366SOL    HW122997   2.107   0.228   4.664
 7366SOL    HW222998   2.113   0.225   4.828
 7367SOL     OW22999   4.387   2.239   0.266
 7367SOL    HW123000   4.357   2.254   0.360
 7367SOL    HW223001   4.438   2.154   0.260
 7368SOL     OW23002   3.544   3.140   2.737
 7368SOL    HW123003   3.484   3.219   2.745
 7368SOL    HW223004   3.634   3.170   2.706
 7369SOL     OW23005   3.611   2.641   1.134
 7369SOL    HW123006   3.623   2.700   1.054
 7369SOL    HW223007   3.656   2.684   1.213
 7370SOL     OW23008   2.256   2.467   5.124
 7370SOL    HW123009   2.243   2.512   5.036
 7370SOL    HW223010   2.354   2.457   5.142
 7371SOL     OW23011   3.214   6.719   4.076
 7371SOL    HW123012   3.198   6.643   4.138
 7371SOL    HW223013   3.161   6.706   3.992
 7372SOL     OW23014   4.075   0.109   5.052
 7372SOL    HW123015   4.044   0.019   5.019
 7372SOL    HW223016   4.016   0.138   5.127
 7373SOL     OW23017   5.028   1.680   5.373
 7373SOL    HW123018   4.961   1.737   5.324
 7373SOL    HW223019   4.985   1.593   5.396
 7374SOL     OW23020   1.413   1.762   4.912
 7374SOL    HW123021   1.347   1.765   4.838
 7374SOL    HW223022   1.404   1.675   4.961
 7375SOL     OW23023   2.167   2.880   2.254
 7375SOL    HW123024   2.127   2.822   2.326
 7375SOL    HW223025   2.224   2.825   2.194
 7376SOL     OW23026   1.372   3.474   1.382
 7376SOL    HW123027   1.461   3.428   1.375
 7376SOL    HW223028   1.317   3.454   1.301
 7377SOL     OW23029   3.726   5.079   0.420
 7377SOL    HW123030   3.799   5.148   0.416
 7377SOL    HW223031   3.662   5.094   0.345
 7378SOL     OW23032   1.829   0.142   4.206
 7378SOL    HW123033   1.749   0.187   4.246
 7378SOL    HW223034   1.813   0.128   4.108
 7379SOL     OW23035   3.259   0.245   1.558
 7379SOL    HW123036   3.275   0.213   1.651
 7379SOL    HW223037   3.173   0.206   1.523
 7380SOL     OW23038   6.396   4.268   3.679
 7380SOL    HW123039   6.314   4.289   3.732
 7380SOL    HW223040   6.398   4.170   3.660
 7381SOL     OW23041   4.144   2.551   0.903
 7381SOL    HW123042   4.054   2.559   0.946
 7381SOL    HW223043   4.213   2.593   0.963
 7382SOL     OW23044   6.074   2.052   5.916
 7382SOL    HW123045   6.155   2.106   5.893
 7382SOL    HW223046   6.060   2.054   6.015
 7383SOL     OW23047   1.707   6.164   2.190
 7383SOL    HW123048   1.712   6.263   2.177
 7383SOL    HW223049   1.705   6.118   2.101
 7384SOL     OW23050   6.633   6.718   1.223
 7384SOL    HW123051   6.638   6.759   1.314
 7384SOL    HW223052   6.665   6.784   1.155
 7385SOL     OW23053   3.154   5.222   2.656
 7385SOL    HW123054   3.181   5.174   2.739
 7385SOL    HW223055   3.218   5.297   2.638
 7386SOL     OW23056   0.248   3.118   6.423
 7386SOL    HW123057   0.300   3.181   6.480
 7386SOL    HW223058   0.306   3.084   6.349
 7387SOL     OW23059   6.107   5.195   5.682
 7387SOL    HW123060   6.015   5.235   5.687
 7387SOL    HW223061   6.126   5.144   5.766
 7388SOL     OW23062   0.983   5.554   2.592
 7388SOL    HW123063   0.892   5.572   2.629
 7388SOL    HW223064   1.052   5.573   2.662
 7389SOL     OW23065   0.156   3.007   0.221
 7389SOL    HW123066   0.062   3.035   0.242
 7389SOL    HW223067   0.163   2.979   0.126
 7390SOL     OW23068   2.940   1.893   2.272
 7390SOL    HW123069   3.003   1.863   2.200
 7390SOL    HW223070   2.983   1.882   2.361
 7391SOL     OW23071   3.704   3.674   2.776
 7391SOL    HW123072   3.622   3.691   2.722
 7391SOL    HW223073   3.771   3.746   2.759
 7392SOL     OW23074   3.749   6.343   6.671
 7392SOL    HW123075   3.658   6.322   6.706
 7392SOL    HW223076   3.806   6.260   6.674
 7393SOL     OW23077   6.920   4.760   3.621
 7393SOL    HW123078   6.858   4.795   3.550
 7393SOL    HW223079   6.950   4.668   3.596
 7394SOL     OW23080   2.105   2.836   6.351
 7394SOL    HW123081   2.184   2.787   6.315
 7394SOL    HW223082   2.075   2.904   6.284
 7395SOL     OW23083   2.228   3.343   1.326
 7395SOL    HW123084   2.169   3.301   1.395
 7395SOL    HW223085   2.296   3.400   1.372
 7396SOL     OW23086   2.497   5.823   1.784
 7396SOL    HW123087   2.529   5.779   1.868
 7396SOL    HW223088   2.420   5.883   1.806
 7397SOL     OW23089   4.902   3.885   4.681
 7397SOL    HW123090   4.915   3.921   4.773
 7397SOL    HW223091   4.898   3.785   4.685
 7398SOL     OW23092   1.561   4.706   3.271
 7398SOL    HW123093   1.543   4.753   3.358
 7398SOL    HW223094   1.580   4.774   3.200
 7399SOL     OW23095   6.063   3.135   4.515
 7399SOL    HW123096   6.050   3.100   4.423
 7399SOL    HW223097   5.973   3.148   4.559
 7400SOL     OW23098   5.442   2.313   5.135
 7400SOL    HW123099   5.408   2.291   5.044
 7400SOL    HW223100   5.485   2.403   5.133
 7401SOL     OW23101   1.651   2.723   3.071
 7401SOL    HW123102   1.644   2.783   3.151
 7401SOL    HW223103   1.702   2.770   2.999
 7402SOL     OW23104   2.582   5.229   5.416
 7402SOL    HW123105   2.659   5.223   5.352
 7402SOL    HW223106   2.543   5.138   5.429
 7403SOL     OW23107   2.151   3.001   3.332
 7403SOL    HW123108   2.218   2.930   3.351
 7403SOL    HW223109   2.060   2.969   3.359
 7404SOL     OW23110   3.275   4.085   1.398
 7404SOL    HW123111   3.299   4.163   1.456
 7404SOL    HW223112   3.189   4.046   1.430
 7405SOL     OW23113   2.955   5.558   5.363
 7405SOL    HW123114   2.901   5.528   5.284
 7405SOL    HW223115   2.994   5.648   5.345
 7406SOL     OW23116   0.186   1.479   5.273
 7406SOL    HW123117   0.111   1.499   5.335
 7406SOL    HW223118   0.155   1.488   5.178
 7407SOL     OW23119   0.734   6.429   6.578
 7407SOL    HW123120   0.697   6.394   6.664
 7407SOL    HW223121   0.745   6.353   6.514
 7408SOL     OW23122   3.451   4.378   5.282
 7408SOL    HW123123   3.502   4.464   5.278
 7408SOL    HW223124   3.364   4.393   5.330
 7409SOL     OW23125   5.576   4.119   0.220
 7409SOL    HW123126   5.555   4.210   0.184
 7409SOL    HW223127   5.539   4.050   0.158
 7410SOL     OW23128   0.230   0.878   0.218
 7410SOL    HW123129   0.168   0.802   0.240
 7410SOL    HW223130   0.186   0.965   0.241
 7411SOL     OW23131   1.250   1.699   5.982
 7411SOL    HW123132   1.224   1.681   5.888
 7411SOL    HW223133   1.339   1.744   5.984
 7412SOL     OW23134   3.946   6.980   0.345
 7412SOL    HW123135   3.991   7.014   0.263
 7412SOL    HW223136   3.871   6.919   0.319
 7413SOL     OW23137   5.083   4.889   3.063
 7413SOL    HW123138   5.183   4.899   3.067
 7413SOL    HW223139   5.057   4.856   2.972
 7414SOL     OW23140   1.867   2.329   4.499
 7414SOL    HW123141   1.874   2.396   4.572
 7414SOL    HW223142   1.771   2.316   4.474
 7415SOL     OW23143   3.453   6.704   6.709
 7415SOL    HW123144   3.540   6.678   6.666
 7415SOL    HW223145   3.461   6.797   6.747
 7416SOL     OW23146   1.548   1.371   2.500
 7416SOL    HW123147   1.448   1.365   2.501
 7416SOL    HW223148   1.578   1.434   2.571
 7417SOL     OW23149   1.170   2.464   3.475
 7417SOL    HW123150   1.095   2.404   3.504
 7417SOL    HW223151   1.139   2.523   3.401
 7418SOL     OW23152   1.801   4.731   6.546
 7418SOL    HW123153   1.761   4.667   6.611
 7418SOL    HW223154   1.901   4.720   6.545
 7419SOL     OW23155   6.342   3.992   3.640
 7419SOL    HW123156   6.281   3.993   3.560
 7419SOL    HW223157   6.287   3.980   3.723
 7420SOL     OW23158   0.017   5.826   1.880
 7420SOL    HW123159   0.028   5.732   1.847
 7420SOL    HW223160   0.046   5.832   1.975
 7421SOL     OW23161   4.912   3.587   1.274
 7421SOL    HW123162   4.821   3.620   1.298
 7421SOL    HW223163   4.924   3.589   1.175
 7422SOL     OW23164   6.275   3.143   2.173
 7422SOL    HW123165   6.200   3.209   2.181
 7422SOL    HW223166   6.275   3.102   2.082
 7423SOL     OW23167   5.767   1.962   5.723
 7423SOL    HW123168   5.667   1.968   5.712
 7423SOL    HW223169   5.791   1.978   5.819
 7424SOL     OW23170   6.561   1.032   5.166
 7424SOL    HW123171   6.593   1.100   5.100
 7424SOL    HW223172   6.510   0.961   5.119
 7425SOL     OW23173   5.188   0.094   0.462
 7425SOL    HW123174   5.200   0.048   0.374
 7425SOL    HW223175   5.130   0.039   0.521
 7426SOL     OW23176   3.157   2.742   5.966
 7426SOL    HW123177   3.250   2.709   5.954
 7426SOL    HW223178   3.094   2.664   5.972
 7427SOL     OW23179   3.707   1.406   4.146
 7427SOL    HW123180   3.719   1.448   4.236
 7427SOL    HW223181   3.750   1.464   4.077
 7428SOL     OW23182   3.976   6.416   5.767
 7428SOL    HW123183   3.898   6.386   5.822
 7428SOL    HW223184   3.976   6.515   5.761
 7429SOL     OW23185   1.075   6.686   3.043
 7429SOL    HW123186   1.003   6.644   3.098
 7429SOL    HW223187   1.134   6.615   3.005
 7430SOL     OW23188   6.535   4.395   2.487
 7430SOL    HW123189   6.631   4.389   2.460
 7430SOL    HW223190   6.524   4.352   2.577
 7431SOL     OW23191   2.122   2.654   4.540
 7431SOL    HW123192   2.070   2.667   4.456
 7431SOL    HW223193   2.123   2.557   4.564
 7432SOL     OW23194   1.922   0.568   3.151
 7432SOL    HW123195   1.979   0.648   3.132
 7432SOL    HW223196   1.828   0.597   3.167
 7433SOL     OW23197   2.976   6.587   0.043
 7433SOL    HW123198   3.070   6.558   0.026
 7433SOL    HW223199   2.919   6.563   6.986
 7434SOL     OW23200   4.678   6.161   6.121
 7434SOL    HW123201   4.689   6.106   6.204
 7434SOL    HW223202   4.658   6.255   6.146
 7435SOL     OW23203   4.967   6.241   1.798
 7435SOL    HW123204   4.969   6.314   1.866
 7435SOL    HW223205   5.060   6.223   1.765
 7436SOL     OW23206   4.835   4.112   6.274
 7436SOL    HW123207   4.932   4.097   6.296
 7436SOL    HW223208   4.779   4.080   6.350
 7437SOL     OW23209   2.962   5.419   0.990
 7437SOL    HW123210   3.046   5.443   0.942
 7437SOL    HW223211   2.985   5.373   1.076
 7438SOL     OW23212   2.110   0.694   0.600
 7438SOL    HW123213   2.155   0.612   0.635
 7438SOL    HW223214   2.023   0.669   0.557
 7439SOL     OW23215   2.033   5.431   6.184
 7439SOL    HW123216   1.997   5.345   6.148
 7439SOL    HW223217   2.130   5.439   6.162
 7440SOL     OW23218   5.047   3.227   4.212
 7440SOL    HW123219   5.143   3.223   4.240
 7440SOL    HW223220   5.001   3.143   4.240
 7441SOL     OW23221   5.572   6.571   2.507
 7441SOL    HW123222   5.587   6.654   2.561
 7441SOL    HW223223   5.496   6.585   2.443
 7442SOL     OW23224   5.926   0.992   6.440
 7442SOL    HW123225   6.001   0.990   6.374
 7442SOL    HW223226   5.844   0.953   6.398
 7443SOL     OW23227   6.881   5.632   2.262
 7443SOL    HW123228   6.847   5.541   2.283
 7443SOL    HW223229   6.915   5.635   2.168
 7444SOL     OW23230   6.919   0.772   6.165
 7444SOL    HW123231   6.884   0.735   6.251
 7444SOL    HW223232   6.921   0.700   6.095
 7445SOL     OW23233   3.764   6.920   2.086
 7445SOL    HW123234   3.842   6.981   2.098
 7445SOL    HW223235   3.783   6.856   2.011
 7446SOL     OW23236   5.237   3.021   0.655
 7446SOL    HW123237   5.196   3.072   0.579
 7446SOL    HW223238   5.287   3.085   0.714
 7447SOL     OW23239   0.657   4.340   0.358
 7447SOL    HW123240   0.627   4.282   0.282
 7447SOL    HW223241   0.603   4.319   0.439
 7448SOL     OW23242   5.456   6.153   6.694
 7448SOL    HW123243   5.380   6.157   6.759
 7448SOL    HW223244   5.517   6.077   6.718
 7449SOL     OW23245   0.403   4.650   0.343
 7449SOL    HW123246   0.396   4.595   0.426
 7449SOL    HW223247   0.433   4.592   0.267
 7450SOL     OW23248   4.858   1.902   5.814
 7450SOL    HW123249   4.891   1.936   5.902
 7450SOL    HW223250   4.918   1.935   5.741
 7451SOL     OW23251   5.825   5.656   2.107
 7451SOL    HW123252   5.865   5.726   2.166
 7451SOL    HW223253   5.729   5.642   2.132
 7452SOL     OW23254   5.863   6.382   4.991
 7452SOL    HW123255   5.901   6.400   5.081
 7452SOL    HW223256   5.786   6.444   4.974
 7453SOL     OW23257   5.440   5.769   6.512
 7453SOL    HW123258   5.381   5.691   6.494
 7453SOL    HW223259   5.434   5.794   6.609
 7454SOL     OW23260   3.256   1.987   0.769
 7454SOL    HW123261   3.331   2.041   0.810
 7454SOL    HW223262   3.191   1.961   0.841
 7455SOL     OW23263   6.432   2.790   2.642
 7455SOL    HW123264   6.515   2.774   2.589
 7455SOL    HW223265   6.453   2.785   2.740
 7456SOL     OW23266   2.584   2.451   4.857
 7456SOL    HW123267   2.539   2.518   4.797
 7456SOL    HW223268   2.585   2.485   4.950
 7457SOL     OW23269   2.352   0.194   3.825
 7457SOL    HW123270   2.435   0.156   3.783
 7457SOL    HW223271   2.324   0.276   3.777
 7458SOL     OW23272   1.217   6.947   4.526
 7458SOL    HW123273   1.252   6.853   4.526
 7458SOL    HW223274   1.135   6.952   4.582
 7459SOL     OW23275   6.696   1.324   2.723
 7459SOL    HW123276   6.702   1.290   2.629
 7459SOL    HW223277   6.665   1.250   2.783
 7460SOL     OW23278   1.586   6.857   0.162
 7460SOL    HW123279   1.589   6.779   0.224
 7460SOL    HW223280   1.518   6.923   0.194
 7461SOL     OW23281   0.060   6.287   5.919
 7461SOL    HW123282   0.048   6.374   5.873
 7461SOL    HW223283   0.149   6.248   5.893
 7462SOL     OW23284   1.105   5.542   1.232
 7462SOL    HW123285   1.100   5.632   1.275
 7462SOL    HW223286   1.200   5.510   1.232
 7463SOL     OW23287   3.560   4.834   0.212
 7463SOL    HW123288   3.552   4.804   0.307
 7463SOL    HW223289   3.623   4.775   0.163
 7464SOL     OW23290   0.460   5.518   4.570
 7464SOL    HW123291   0.485   5.565   4.486
 7464SOL    HW223292   0.377   5.559   4.608
 7465SOL     OW23293   2.380   5.075   0.060
 7465SOL    HW123294   2.388   5.059   6.984
 7465SOL    HW223295   2.411   5.167   0.082
 7466SOL     OW23296   0.353   0.608   5.285
 7466SOL    HW123297   0.302   0.549   5.222
 7466SOL    HW223298   0.443   0.567   5.302
 7467SOL     OW23299   0.372   2.816   5.977
 7467SOL    HW123300   0.381   2.796   6.075
 7467SOL    HW223301   0.463   2.817   5.936
 7468SOL     OW23302   5.735   2.895   4.885
 7468SOL    HW123303   5.744   2.843   4.970
 7468SOL    HW223304   5.825   2.901   4.840
 7469SOL     OW23305   6.646   1.846   0.653
 7469SOL    HW123306   6.689   1.786   0.585
 7469SOL    HW223307   6.708   1.859   0.730
 7470SOL     OW23308   5.996   3.751   3.444
 7470SOL    HW123309   5.920   3.707   3.395
 7470SOL    HW223310   6.026   3.692   3.519
 7471SOL     OW23311   5.611   5.780   6.032
 7471SOL    HW123312   5.635   5.684   6.016
 7471SOL    HW223313   5.518   5.785   6.069
 7472SOL     OW23314   6.785   0.227   5.469
 7472SOL    HW123315   6.882   0.202   5.459
 7472SOL    HW223316   6.737   0.207   5.384
 7473SOL     OW23317   4.484   0.237   3.945
 7473SOL    HW123318   4.580   0.246   3.971
 7473SOL    HW223319   4.474   0.259   3.848
 7474SOL     OW23320   5.619   2.281   6.471
 7474SOL    HW123321   5.702   2.263   6.525
 7474SOL    HW223322   5.544   2.226   6.507
 7475SOL     OW23323   4.590   1.974   2.061
 7475SOL    HW123324   4.600   1.879   2.091
 7475SOL    HW223325   4.529   1.977   1.981
 7476SOL     OW23326   2.260   1.911   2.880
 7476SOL    HW123327   2.186   1.978   2.879
 7476SOL    HW223328   2.346   1.956   2.854
 7477SOL     OW23329   0.553   3.990   4.912
 7477SOL    HW123330   0.506   4.078   4.899
 7477SOL    HW223331   0.504   3.919   4.861
 7478SOL     OW23332   6.233   2.215   5.001
 7478SOL    HW123333   6.252   2.271   4.920
 7478SOL    HW223334   6.275   2.257   5.081
 7479SOL     OW23335   5.592   3.203   0.093
 7479SOL    HW123336   5.675   3.225   0.144
 7479SOL    HW223337   5.512   3.234   0.143
 7480SOL     OW23338   3.017   5.040   2.479
 7480SOL    HW123339   3.062   5.114   2.528
 7480SOL    HW223340   3.079   5.004   2.409
 7481SOL     OW23341   6.341   4.355   6.472
 7481SOL    HW123342   6.428   4.309   6.454
 7481SOL    HW223343   6.348   4.407   6.557
 7482SOL     OW23344   4.092   2.240   2.525
 7482SOL    HW123345   3.994   2.226   2.515
 7482SOL    HW223346   4.128   2.284   2.442
 7483SOL     OW23347   4.559   2.211   5.038
 7483SOL    HW123348   4.640   2.192   4.983
 7483SOL    HW223349   4.481   2.229   4.978
 7484SOL     OW23350   2.244   6.403   4.974
 7484SOL    HW123351   2.265   6.413   4.877
 7484SOL    HW223352   2.151   6.368   4.985
 7485SOL     OW23353   2.444   6.805   4.021
 7485SOL    HW123354   2.534   6.848   4.032
 7485SOL    HW223355   2.407   6.781   4.111
 7486SOL     OW23356   0.428   6.059   0.471
 7486SOL    HW123357   0.398   5.964   0.465
 7486SOL    HW223358   0.526   6.062   0.492
 7487SOL     OW23359   4.922   0.240   3.541
 7487SOL    HW123360   4.947   0.327   3.499
 7487SOL    HW223361   4.825   0.221   3.524
 7488SOL     OW23362   0.881   6.155   4.096
 7488SOL    HW123363   0.970   6.189   4.067
 7488SOL    HW223364   0.824   6.135   4.016
 7489SOL     OW23365   6.072   3.718   0.190
 7489SOL    HW123366   6.099   3.622   0.204
 7489SOL    HW223367   6.148   3.767   0.145
 7490SOL     OW23368   1.297   2.410   2.786
 7490SOL    HW123369   1.298   2.313   2.807
 7490SOL    HW223370   1.281   2.423   2.688
 7491SOL     OW23371   4.623   3.226   1.000
 7491SOL    HW123372   4.584   3.306   1.045
 7491SOL    HW223373   4.703   3.195   1.051
 7492SOL     OW23374   1.671   0.745   4.013
 7492SOL    HW123375   1.738   0.724   4.084
 7492SOL    HW223376   1.580   0.752   4.054
 7493SOL     OW23377   6.424   3.710   5.645
 7493SOL    HW123378   6.515   3.716   5.604
 7493SOL    HW223379   6.355   3.716   5.573
 7494SOL     OW23380   6.139   0.676   2.581
 7494SOL    HW123381   6.075   0.660   2.506
 7494SOL    HW223382   6.088   0.689   2.666
 7495SOL     OW23383   2.265   2.839   4.778
 7495SOL    HW123384   2.283   2.915   4.841
 7495SOL    HW223385   2.167   2.826   4.768
 7496SOL     OW23386   6.003   3.874   3.071
 7496SOL    HW123387   5.916   3.859   3.118
 7496SOL    HW223388   5.992   3.948   3.004
 7497SOL     OW23389   1.240   6.609   0.663
 7497SOL    HW123390   1.213   6.513   0.655
 7497SOL    HW223391   1.179   6.665   0.607
 7498SOL     OW23392   3.515   0.355   3.108
 7498SOL    HW123393   3.533   0.297   3.029
 7498SOL    HW223394   3.511   0.451   3.079
 7499SOL     OW23395   4.081   2.190   4.083
 7499SOL    HW123396   4.029   2.247   4.146
 7499SOL    HW223397   4.019   2.156   4.011
 7500SOL     OW23398   4.168   6.917   3.510
 7500SOL    HW123399   4.083   6.894   3.462
 7500SOL    HW223400   4.176   7.016   3.519
 7501SOL     OW23401   5.585   2.935   4.177
 7501SOL    HW123402   5.537   3.014   4.140
 7501SOL    HW223403   5.611   2.875   4.102
 7502SOL     OW23404   3.401   0.245   4.724
 7502SOL    HW123405   3.484   0.206   4.684
 7502SOL    HW223406   3.328   0.248   4.655
 7503SOL     OW23407   1.791   5.994   0.901
 7503SOL    HW123408   1.778   6.088   0.869
 7503SOL    HW223409   1.824   5.994   0.995
 7504SOL     OW23410   0.308   6.113   2.736
 7504SOL    HW123411   0.302   6.207   2.703
 7504SOL    HW223412   0.245   6.055   2.686
 7505SOL     OW23413   6.990   0.762   5.115
 7505SOL    HW123414   0.021   0.847   5.108
 7505SOL    HW223415   6.900   0.782   5.154
 7506SOL     OW23416   3.132   1.828   3.248
 7506SOL    HW123417   3.044   1.794   3.281
 7506SOL    HW223418   3.156   1.912   3.297
 7507SOL     OW23419   6.433   3.265   4.808
 7507SOL    HW123420   6.463   3.175   4.840
 7507SOL    HW223421   6.335   3.261   4.786
 7508SOL     OW23422   1.630   5.903   0.146
 7508SOL    HW123423   1.716   5.953   0.155
 7508SOL    HW223424   1.560   5.947   0.201
 7509SOL     OW23425   5.204   3.972   6.976
 7509SOL    HW123426   5.247   3.915   0.024
 7509SOL    HW223427   5.275   4.021   6.925
 7510SOL     OW23428   4.141   3.428   3.877
 7510SOL    HW123429   4.154   3.356   3.809
 7510SOL    HW223430   4.072   3.492   3.845
 7511SOL     OW23431   3.665   5.659   2.757
 7511SOL    HW123432   3.590   5.597   2.781
 7511SOL    HW223433   3.709   5.692   2.840
 7512SOL     OW23434   2.816   0.045   6.936
 7512SOL    HW123435   2.787   7.014   7.015
 7512SOL    HW223436   2.764   0.130   6.932
 7513SOL     OW23437   2.046   2.715   3.553
 7513SOL    HW123438   2.038   2.810   3.523
 7513SOL    HW223439   1.958   2.683   3.587
 7514SOL     OW23440   2.232   4.553   3.304
 7514SOL    HW123441   2.331   4.543   3.304
 7514SOL    HW223442   2.191   4.484   3.244
 7515SOL     OW23443   6.908   4.529   5.271
 7515SOL    HW123444   6.980   4.524   5.201
 7515SOL    HW223445   6.852   4.447   5.266
 7516SOL     OW23446   1.055   5.531   5.639
 7516SOL    HW123447   1.011   5.569   5.558
 7516SOL    HW223448   1.133   5.475   5.611
 7517SOL     OW23449   1.388   2.734   6.999
 7517SOL    HW123450   1.327   2.722   0.056
 7517SOL    HW223451   1.437   2.648   6.982
 7518SOL     OW23452   4.872   3.026   4.272
 7518SOL    HW123453   4.842   3.074   4.355
 7518SOL    HW223454   4.792   3.001   4.218
 7519SOL     OW23455   4.518   6.998   4.701
 7519SOL    HW123456   4.492   6.953   4.616
 7519SOL    HW223457   4.476   0.067   4.705
 7520SOL     OW23458   1.949   1.336   2.089
 7520SOL    HW123459   1.909   1.375   2.172
 7520SOL    HW223460   1.938   1.401   2.014
 7521SOL     OW23461   5.311   1.429   4.654
 7521SOL    HW123462   5.330   1.485   4.735
 7521SOL    HW223463   5.350   1.474   4.574
 7522SOL     OW23464   1.338   6.611   3.943
 7522SOL    HW123465   1.343   6.700   3.897
 7522SOL    HW223466   1.277   6.618   4.022
 7523SOL     OW23467   5.351   1.150   6.144
 7523SOL    HW123468   5.310   1.196   6.065
 7523SOL    HW223469   5.299   1.172   6.226
 7524SOL     OW23470   7.019   2.743   4.266
 7524SOL    HW123471   0.041   2.774   4.182
 7524SOL    HW223472   0.059   2.760   4.343
 7525SOL     OW23473   4.534   6.492   6.509
 7525SOL    HW123474   4.590   6.470   6.589
 7525SOL    HW223475   4.454   6.545   6.539
 7526SOL     OW23476   1.997   3.523   1.858
 7526SOL    HW123477   2.018   3.465   1.780
 7526SOL    HW223478   2.081   3.540   1.910
 7527SOL     OW23479   4.195   5.823   3.758
 7527SOL    HW123480   4.232   5.768   3.684
 7527SOL    HW223481   4.159   5.763   3.829
 7528SOL     OW23482   5.673   2.089   6.916
 7528SOL    HW123483   5.582   2.117   6.948
 7528SOL    HW223484   5.741   2.109   6.986
 7529SOL     OW23485   5.922   1.728   3.675
 7529SOL    HW123486   5.839   1.676   3.655
 7529SOL    HW223487   5.960   1.765   3.591
 7530SOL     OW23488   0.023   1.553   2.343
 7530SOL    HW123489   0.012   1.517   2.250
 7530SOL    HW223490   0.036   1.477   2.407
 7531SOL     OW23491   4.423   2.460   3.555
 7531SOL    HW123492   4.389   2.409   3.476
 7531SOL    HW223493   4.361   2.447   3.632
 7532SOL     OW23494   5.116   6.051   6.722
 7532SOL    HW123495   5.132   5.957   6.753
 7532SOL    HW223496   5.167   6.114   6.780
 7533SOL     OW23497   4.489   3.215   1.664
 7533SOL    HW123498   4.537   3.172   1.741
 7533SOL    HW223499   4.545   3.207   1.582
 7534SOL     OW23500   5.166   6.837   4.468
 7534SOL    HW123501   5.218   6.772   4.413
 7534SOL    HW223502   5.135   6.792   4.552
 7535SOL     OW23503   1.243   6.679   4.465
 7535SOL    HW123504   1.151   6.648   4.490
 7535SOL    HW223505   1.253   6.676   4.365
 7536SOL     OW23506   5.441   6.010   4.559
 7536SOL    HW123507   5.441   6.073   4.481
 7536SOL    HW223508   5.431   6.061   4.644
 7537SOL     OW23509   2.433   5.672   2.213
 7537SOL    HW123510   2.468   5.586   2.252
 7537SOL    HW223511   2.434   5.743   2.284
 7538SOL     OW23512   0.806   3.476   1.502
 7538SOL    HW123513   0.895   3.520   1.510
 7538SOL    HW223514   0.804   3.420   1.419
 7539SOL     OW23515   1.328   5.543   3.825
 7539SOL    HW123516   1.245   5.574   3.778
 7539SOL    HW223517   1.302   5.492   3.907
 7540SOL     OW23518   4.820   5.564   4.300
 7540SOL    HW123519   4.902   5.616   4.327
 7540SOL    HW223520   4.804   5.576   4.202
 7541SOL     OW23521   0.927   3.853   6.561
 7541SOL    HW123522   0.947   3.951   6.556
 7541SOL    HW223523   0.867   3.835   6.639
 7542SOL     OW23524   6.009   6.196   5.849
 7542SOL    HW123525   6.101   6.229   5.871
 7542SOL    HW223526   6.016   6.116   5.789
 7543SOL     OW23527   2.736   0.589   5.407
 7543SOL    HW123528   2.813   0.651   5.413
 7543SOL    HW223529   2.652   0.636   5.434
 7544SOL     OW23530   6.821   2.673   3.969
 7544SOL    HW123531   6.769   2.747   3.926
 7544SOL    HW223532   6.914   2.704   3.987
 7545SOL     OW23533   0.567   5.933   6.562
 7545SOL    HW123534   0.626   6.014   6.568
 7545SOL    HW223535   0.563   5.902   6.467
 7546SOL     OW23536   3.416   2.904   2.007
 7546SOL    HW123537   3.341   2.863   2.057
 7546SOL    HW223538   3.398   2.898   1.909
 7547SOL     OW23539   4.438   0.350   1.868
 7547SOL    HW123540   4.423   0.407   1.787
 7547SOL    HW223541   4.533   0.358   1.896
 7548SOL     OW23542   4.608   2.332   6.591
 7548SOL    HW123543   4.656   2.272   6.528
 7548SOL    HW223544   4.510   2.309   6.593
 7549SOL     OW23545   4.575   2.505   5.828
 7549SOL    HW123546   4.616   2.555   5.904
 7549SOL    HW223547   4.601   2.549   5.742
 7550SOL     OW23548   1.746   4.035   3.858
 7550SOL    HW123549   1.722   3.990   3.772
 7550SOL    HW223550   1.844   4.026   3.874
 7551SOL     OW23551   5.106   2.202   5.327
 7551SOL    HW123552   5.046   2.178   5.404
 7551SOL    HW223553   5.192   2.240   5.362
 7552SOL     OW23554   2.521   6.052   4.035
 7552SOL    HW123555   2.444   6.008   4.080
 7552SOL    HW223556   2.540   6.140   4.078
 7553SOL     OW23557   5.883   5.822   6.003
 7553SOL    HW123558   5.786   5.804   6.018
 7553SOL    HW223559   5.913   5.777   5.919
 7554SOL     OW23560   5.344   1.362   0.207
 7554SOL    HW123561   5.428   1.409   0.237
 7554SOL    HW223562   5.333   1.278   0.260
 7555SOL     OW23563   3.026   6.610   6.650
 7555SOL    HW123564   3.009   6.562   6.564
 7555SOL    HW223565   2.949   6.593   6.713
 7556SOL     OW23566   1.105   1.369   0.574
 7556SOL    HW123567   1.081   1.359   0.477
 7556SOL    HW223568   1.196   1.331   0.590
 7557SOL     OW23569   4.958   0.134   0.052
 7557SOL    HW123570   5.009   0.186   0.120
 7557SOL    HW223571   4.984   0.038   0.056
 7558SOL     OW23572   1.114   2.796   4.447
 7558SOL    HW123573   1.197   2.842   4.478
 7558SOL    HW223574   1.062   2.763   4.526
 7559SOL     OW23575   3.351   2.150   4.802
 7559SOL    HW123576   3.356   2.229   4.863
 7559SOL    HW223577   3.412   2.078   4.836
 7560SOL     OW23578   6.702   0.359   6.429
 7560SOL    HW123579   6.647   0.288   6.385
 7560SOL    HW223580   6.793   0.324   6.448
 7561SOL     OW23581   5.039   1.993   5.641
 7561SOL    HW123582   5.108   2.065   5.631
 7561SOL    HW223583   5.083   1.905   5.656
 7562SOL     OW23584   1.045   5.325   4.906
 7562SOL    HW123585   1.018   5.371   4.991
 7562SOL    HW223586   1.073   5.393   4.839
 7563SOL     OW23587   2.778   6.650   2.353
 7563SOL    HW123588   2.737   6.723   2.298
 7563SOL    HW223589   2.706   6.587   2.382
 7564SOL     OW23590   4.458   0.561   4.914
 7564SOL    HW123591   4.477   0.463   4.906
 7564SOL    HW223592   4.360   0.577   4.898
 7565SOL     OW23593   5.563   3.668   6.356
 7565SOL    HW123594   5.512   3.745   6.318
 7565SOL    HW223595   5.567   3.677   6.456
 7566SOL     OW23596   5.005   4.866   2.208
 7566SOL    HW123597   4.962   4.887   2.296
 7566SOL    HW223598   4.934   4.855   2.138
 7567SOL     OW23599   0.202   0.957   4.113
 7567SOL    HW123600   0.216   1.046   4.157
 7567SOL    HW223601   0.112   0.955   4.070
 7568SOL     OW23602   5.846   5.148   1.782
 7568SOL    HW123603   5.761   5.124   1.736
 7568SOL    HW223604   5.922   5.145   1.717
 7569SOL     OW23605   3.915   4.705   6.516
 7569SOL    HW123606   3.946   4.646   6.441
 7569SOL    HW223607   3.937   4.800   6.495
 7570SOL     OW23608   6.780   3.115   3.017
 7570SOL    HW123609   6.736   3.145   2.933
 7570SOL    HW223610   6.861   3.171   3.034
 7571SOL     OW23611   5.748   3.318   2.806
 7571SOL    HW123612   5.690   3.306   2.726
 7571SOL    HW223613   5.785   3.411   2.808
 7572SOL     OW23614   4.915   6.595   2.729
 7572SOL    HW123615   4.936   6.507   2.685
 7572SOL    HW223616   4.988   6.660   2.708
 7573SOL     OW23617   5.767   6.754   5.902
 7573SOL    HW123618   5.739   6.667   5.944
 7573SOL    HW223619   5.818   6.735   5.818
 7574SOL     OW23620   6.348   0.744   3.919
 7574SOL    HW123621   6.258   0.721   3.881
 7574SOL    HW223622   6.389   0.817   3.864
 7575SOL     OW23623   6.401   6.669   0.885
 7575SOL    HW123624   6.427   6.585   0.933
 7575SOL    HW223625   6.433   6.663   0.790
 7576SOL     OW23626   5.601   2.813   0.943
 7576SOL    HW123627   5.535   2.889   0.948
 7576SOL    HW223628   5.572   2.741   1.006
 7577SOL     OW23629   0.489   0.183   0.469
 7577SOL    HW123630   0.448   0.097   0.437
 7577SOL    HW223631   0.439   0.216   0.549
 7578SOL     OW23632   0.540   5.172   3.381
 7578SOL    HW123633   0.588   5.259   3.366
 7578SOL    HW223634   0.607   5.098   3.383
 7579SOL     OW23635   6.629   1.846   1.596
 7579SOL    HW123636   6.670   1.884   1.513
 7579SOL    HW223637   6.700   1.827   1.663
 7580SOL     OW23638   1.774   4.532   3.326
 7580SOL    HW123639   1.764   4.433   3.313
 7580SOL    HW223640   1.683   4.574   3.330
 7581SOL     OW23641   0.591   1.129   1.526
 7581SOL    HW123642   0.633   1.136   1.617
 7581SOL    HW223643   0.621   1.206   1.470
 7582SOL     OW23644   4.415   1.543   4.087
 7582SOL    HW123645   4.488   1.545   4.019
 7582SOL    HW223646   4.328   1.522   4.042
 7583SOL     OW23647   4.870   3.315   3.450
 7583SOL    HW123648   4.860   3.279   3.357
 7583SOL    HW223649   4.861   3.241   3.516
 7584SOL     OW23650   1.496   1.089   2.721
 7584SOL    HW123651   1.508   1.011   2.660
 7584SOL    HW223652   1.552   1.166   2.690
 7585SOL     OW23653   1.042   2.281   6.390
 7585SOL    HW123654   0.974   2.312   6.324
 7585SOL    HW223655   1.131   2.275   6.346
 7586SOL     OW23656   1.315   0.887   2.061
 7586SOL    HW123657   1.360   0.959   2.009
 7586SOL    HW223658   1.280   0.925   2.146
 7587SOL     OW23659   3.486   0.728   0.830
 7587SOL    HW123660   3.403   0.718   0.775
 7587SOL    HW223661   3.541   0.803   0.794
 7588SOL     OW23662   1.139   3.168   4.624
 7588SOL    HW123663   1.142   3.094   4.691
 7588SOL    HW223664   1.227   3.217   4.624
 7589SOL     OW23665   0.740   0.720   2.797
 7589SOL    HW123666   0.725   0.715   2.896
 7589SOL    HW223667   0.739   0.627   2.759
 7590SOL     OW23668   0.546   1.628   0.292
 7590SOL    HW123669   0.635   1.618   0.246
 7590SOL    HW223670   0.558   1.616   0.390
 7591SOL     OW23671   4.299   3.294   6.840
 7591SOL    HW123672   4.379   3.234   6.843
 7591SOL    HW223673   4.255   3.286   6.750
 7592SOL     OW23674   6.407   5.334   5.219
 7592SOL    HW123675   6.381   5.413   5.162
 7592SOL    HW223676   6.327   5.301   5.269
 7593SOL     OW23677   7.013   1.908   5.423
 7593SOL    HW123678   6.935   1.968   5.405
 7593SOL    HW223679   6.990   1.847   5.499
 7594SOL     OW23680   0.228   4.114   1.011
 7594SOL    HW123681   0.297   4.084   1.076
 7594SOL    HW223682   0.242   4.210   0.988
 7595SOL     OW23683   6.098   2.920   5.947
 7595SOL    HW123684   6.064   2.849   6.009
 7595SOL    HW223685   6.022   2.956   5.893
 7596SOL     OW23686   3.132   0.474   5.408
 7596SOL    HW123687   3.186   0.407   5.459
 7596SOL    HW223688   3.157   0.471   5.311
 7597SOL     OW23689   2.017   5.699   2.712
 7597SOL    HW123690   1.987   5.752   2.792
 7597SOL    HW223691   1.960   5.722   2.633
 7598SOL     OW23692   6.036   0.541   2.322
 7598SOL    HW123693   6.041   0.444   2.345
 7598SOL    HW223694   5.946   0.577   2.350
 7599SOL     OW23695   4.103   3.396   0.853
 7599SOL    HW123696   4.198   3.406   0.883
 7599SOL    HW223697   4.044   3.447   0.915
 7600SOL     OW23698   1.467   1.039   3.770
 7600SOL    HW123699   1.434   0.996   3.854
 7600SOL    HW223700   1.420   0.999   3.691
 7601SOL     OW23701   3.952   5.339   2.223
 7601SOL    HW123702   4.039   5.334   2.272
 7601SOL    HW223703   3.881   5.294   2.276
 7602SOL     OW23704   0.428   2.175   0.550
 7602SOL    HW123705   0.392   2.089   0.512
 7602SOL    HW223706   0.364   2.249   0.530
 7603SOL     OW23707   2.476   0.061   5.948
 7603SOL    HW123708   2.531   7.001   5.959
 7603SOL    HW223709   2.487   0.098   5.856
 7604SOL     OW23710   1.272   1.995   5.047
 7604SOL    HW123711   1.274   2.090   5.014
 7604SOL    HW223712   1.351   1.945   5.011
 7605SOL     OW23713   2.065   0.259   6.702
 7605SOL    HW123714   1.973   0.293   6.682
 7605SOL    HW223715   2.132   0.314   6.651
 7606SOL     OW23716   6.222   1.380   4.210
 7606SOL    HW123717   6.156   1.352   4.279
 7606SOL    HW223718   6.276   1.457   4.245
 7607SOL     OW23719   2.911   6.279   6.957
 7607SOL    HW123720   2.858   6.200   6.989
 7607SOL    HW223721   2.939   6.335   0.014
 7608SOL     OW23722   5.000   2.608   6.372
 7608SOL    HW123723   4.972   2.584   6.465
 7608SOL    HW223724   5.051   2.694   6.374
 7609SOL     OW23725   0.327   2.972   3.902
 7609SOL    HW123726   0.353   2.927   3.987
 7609SOL    HW223727   0.400   2.959   3.834
 7610SOL     OW23728   3.446   5.031   6.442
 7610SOL    HW123729   3.496   4.961   6.493
 7610SOL    HW223730   3.510   5.102   6.413
 7611SOL     OW23731   4.805   3.125   1.143
 7611SOL    HW123732   4.824   3.149   1.238
 7611SOL    HW223733   4.873   3.168   1.084
 7612SOL     OW23734   3.365   2.010   2.923
 7612SOL    HW123735   3.413   2.043   3.005
 7612SOL    HW223736   3.431   1.967   2.861
 7613SOL     OW23737   1.543   1.647   2.438
 7613SOL    HW123738   1.556   1.548   2.425
 7613SOL    HW223739   1.535   1.667   2.535
 7614SOL     OW23740   4.971   3.275   0.970
 7614SOL    HW123741   4.947   3.284   0.873
 7614SOL    HW223742   5.069   3.256   0.978
 7615SOL     OW23743   5.221   3.380   5.165
 7615SOL    HW123744   5.195   3.316   5.237
 7615SOL    HW223745   5.311   3.355   5.128
 7616SOL     OW23746   5.778   6.594   3.481
 7616SOL    HW123747   5.867   6.597   3.435
 7616SOL    HW223748   5.714   6.656   3.434
 7617SOL     OW23749   5.068   5.164   3.151
 7617SOL    HW123750   5.052   5.067   3.132
 7617SOL    HW223751   4.991   5.201   3.202
 7618SOL     OW23752   2.386   1.996   0.088
 7618SOL    HW123753   2.455   1.949   0.033
 7618SOL    HW223754   2.365   2.085   0.046
 7619SOL     OW23755   0.881   2.172   4.502
 7619SOL    HW123756   0.942   2.241   4.541
 7619SOL    HW223757   0.934   2.092   4.475
 7620SOL     OW23758   3.554   4.567   0.730
 7620SOL    HW123759   3.650   4.588   0.712
 7620SOL    HW223760   3.496   4.621   0.668
 7621SOL     OW23761   0.208   5.584   1.018
 7621SOL    HW123762   0.227   5.498   0.971
 7621SOL    HW223763   0.293   5.636   1.027
 7622SOL     OW23764   4.475   4.585   0.663
 7622SOL    HW123765   4.419   4.592   0.580
 7622SOL    HW223766   4.553   4.525   0.646
 7623SOL     OW23767   4.245   4.892   1.455
 7623SOL    HW123768   4.248   4.797   1.485
 7623SOL    HW223769   4.150   4.921   1.441
 7624SOL     OW23770   0.363   2.098   1.824
 7624SOL    HW123771   0.324   2.048   1.901
 7624SOL    HW223772   0.461   2.109   1.838
 7625SOL     OW23773   5.186   1.740   0.255
 7625SOL    HW123774   5.123   1.816   0.272
 7625SOL    HW223775   5.151   1.657   0.299
 7626SOL     OW23776   5.786   0.400   5.624
 7626SOL    HW123777   5.760   0.471   5.690
 7626SOL    HW223778   5.837   0.328   5.671
 7627SOL     OW23779   3.478   2.159   0.174
 7627SOL    HW123780   3.569   2.128   0.147
 7627SOL    HW223781   3.474   2.166   0.274
 7628SOL     OW23782   3.382   2.192   0.952
 7628SOL    HW123783   3.285   2.179   0.934
 7628SOL    HW223784   3.403   2.290   0.954
 7629SOL     OW23785   5.560   3.322   3.671
 7629SOL    HW123786   5.624   3.397   3.684
 7629SOL    HW223787   5.609   3.242   3.638
 7630SOL     OW23788   1.327   0.387   5.197
 7630SOL    HW123789   1.227   0.381   5.197
 7630SOL    HW223790   1.362   0.354   5.110
 7631SOL     OW23791   2.199   6.858   4.809
 7631SOL    HW123792   2.272   6.926   4.816
 7631SOL    HW223793   2.146   6.874   4.726
 7632SOL     OW23794   4.662   5.770   0.986
 7632SOL    HW123795   4.592   5.833   0.953
 7632SOL    HW223796   4.752   5.801   0.956
 7633SOL     OW23797   5.481   0.562   1.139
 7633SOL    HW123798   5.410   0.536   1.204
 7633SOL    HW223799   5.469   0.511   1.054
 7634SOL     OW23800   1.598   2.105   0.850
 7634SOL    HW123801   1.587   2.015   0.892
 7634SOL    HW223802   1.562   2.175   0.912
 7635SOL     OW23803   2.780   4.991   5.006
 7635SOL    HW123804   2.725   5.028   4.931
 7635SOL    HW223805   2.848   4.928   4.971
 7636SOL     OW23806   1.049   4.934   4.578
 7636SOL    HW123807   0.979   5.004   4.583
 7636SOL    HW223808   1.138   4.973   4.600
 7637SOL     OW23809   0.353   6.518   4.206
 7637SOL    HW123810   0.315   6.460   4.134
 7637SOL    HW223811   0.445   6.486   4.230
 7638SOL     OW23812   0.642   5.118   1.843
 7638SOL    HW123813   0.548   5.135   1.813
 7638SOL    HW223814   0.662   5.175   1.922
 7639SOL     OW23815   0.805   1.306   0.183
 7639SOL    HW123816   0.772   1.305   0.278
 7639SOL    HW223817   0.735   1.267   0.123
 7640SOL     OW23818   3.079   1.072   6.799
 7640SOL    HW123819   3.025   1.150   6.768
 7640SOL    HW223820   3.176   1.099   6.802
 7641SOL     OW23821   6.502   4.165   3.032
 7641SOL    HW123822   6.457   4.105   2.965
 7641SOL    HW223823   6.487   4.128   3.124
 7642SOL     OW23824   5.780   1.470   3.410
 7642SOL    HW123825   5.793   1.555   3.359
 7642SOL    HW223826   5.864   1.416   3.407
 7643SOL     OW23827   5.085   2.746   3.094
 7643SOL    HW123828   5.103   2.741   2.996
 7643SOL    HW223829   5.110   2.837   3.128
 7644SOL     OW23830   4.876   3.429   1.658
 7644SOL    HW123831   4.969   3.422   1.620
 7644SOL    HW223832   4.847   3.339   1.690
 7645SOL     OW23833   3.355   4.027   5.880
 7645SOL    HW123834   3.433   3.966   5.870
 7645SOL    HW223835   3.326   4.061   5.791
 7646SOL     OW23836   1.256   2.820   2.735
 7646SOL    HW123837   1.339   2.795   2.685
 7646SOL    HW223838   1.241   2.753   2.809
 7647SOL     OW23839   6.937   3.075   4.944
 7647SOL    HW123840   6.924   3.169   4.975
 7647SOL    HW223841   6.891   3.013   5.007
 7648SOL     OW23842   2.045   2.150   3.143
 7648SOL    HW123843   2.008   2.236   3.177
 7648SOL    HW223844   2.136   2.135   3.180
 7649SOL     OW23845   6.632   1.121   4.493
 7649SOL    HW123846   6.596   1.161   4.409
 7649SOL    HW223847   6.724   1.085   4.476
 7650SOL     OW23848   4.029   0.912   1.562
 7650SOL    HW123849   3.980   0.996   1.585
 7650SOL    HW223850   3.975   0.833   1.591
 7651SOL     OW23851   2.430   5.090   4.380
 7651SOL    HW123852   2.423   4.992   4.363
 7651SOL    HW223853   2.524   5.114   4.404
 7652SOL     OW23854   6.137   1.639   4.553
 7652SOL    HW123855   6.132   1.539   4.547
 7652SOL    HW223856   6.087   1.670   4.634
 7653SOL     OW23857   0.541   1.854   6.710
 7653SOL    HW123858   0.490   1.778   6.750
 7653SOL    HW223859   0.483   1.904   6.646
 7654SOL     OW23860   6.010   3.486   5.128
 7654SOL    HW123861   6.005   3.484   5.228
 7654SOL    HW223862   6.069   3.562   5.100
 7655SOL     OW23863   2.909   0.534   3.642
 7655SOL    HW123864   3.008   0.552   3.645
 7655SOL    HW223865   2.867   0.590   3.571
 7656SOL     OW23866   6.883   3.835   6.286
 7656SOL    HW123867   6.867   3.738   6.273
 7656SOL    HW223868   6.937   3.870   6.209
 7657SOL     OW23869   1.403   4.101   4.829
 7657SOL    HW123870   1.413   4.140   4.920
 7657SOL    HW223871   1.306   4.081   4.812
 7658SOL     OW23872   2.514   0.553   0.527
 7658SOL    HW123873   2.556   0.638   0.560
 7658SOL    HW223874   2.430   0.536   0.578
 7659SOL     OW23875   4.542   4.155   5.230
 7659SOL    HW123876   4.610   4.082   5.231
 7659SOL    HW223877   4.580   4.235   5.184
 7660SOL     OW23878   0.053   5.235   4.611
 7660SOL    HW123879   0.070   5.298   4.535
 7660SOL    HW223880   7.014   5.279   4.677
 7661SOL     OW23881   4.616   1.951   6.034
 7661SOL    HW123882   4.703   2.000   6.039
 7661SOL    HW223883   4.631   1.855   6.060
 7662SOL     OW23884   1.409   1.725   2.207
 7662SOL    HW123885   1.319   1.754   2.241
 7662SOL    HW223886   1.464   1.690   2.284
 7663SOL     OW23887   5.830   5.291   5.764
 7663SOL    HW123888   5.802   5.329   5.676
 7663SOL    HW223889   5.758   5.233   5.800
 7664SOL     OW23890   4.201   1.211   2.915
 7664SOL    HW123891   4.173   1.189   2.821
 7664SOL    HW223892   4.121   1.210   2.975
 7665SOL     OW23893   4.342   2.348   4.045
 7665SOL    HW123894   4.323   2.357   3.947
 7665SOL    HW223895   4.277   2.284   4.086
 7666SOL     OW23896   5.985   5.552   3.862
 7666SOL    HW123897   6.083   5.535   3.857
 7666SOL    HW223898   5.945   5.500   3.937
 7667SOL     OW23899   4.924   6.319   2.496
 7667SOL    HW123900   4.904   6.242   2.556
 7667SOL    HW223901   5.011   6.362   2.524
 7668SOL     OW23902   2.184   5.055   0.697
 7668SOL    HW123903   2.276   5.026   0.721
 7668SOL    HW223904   2.136   5.085   0.779
 7669SOL     OW23905   3.497   6.430   6.146
 7669SOL    HW123906   3.581   6.485   6.141
 7669SOL    HW223907   3.433   6.472   6.210
 7670SOL     OW23908   0.425   6.300   0.333
 7670SOL    HW123909   0.419   6.210   0.376
 7670SOL    HW223910   0.450   6.289   0.237
 7671SOL     OW23911   5.289   0.407   2.147
 7671SOL    HW123912   5.386   0.381   2.154
 7671SOL    HW223913   5.276   0.495   2.192
 7672SOL     OW23914   5.498   4.669   3.152
 7672SOL    HW123915   5.569   4.734   3.177
 7672SOL    HW223916   5.452   4.700   3.069
 7673SOL     OW23917   1.148   5.894   3.658
 7673SOL    HW123918   1.208   5.845   3.596
 7673SOL    HW223919   1.202   5.931   3.735
 7674SOL     OW23920   3.624   0.216   4.489
 7674SOL    HW123921   3.689   0.174   4.552
 7674SOL    HW223922   3.666   0.297   4.448
 7675SOL     OW23923   3.714   6.563   2.998
 7675SOL    HW123924   3.619   6.529   3.002
 7675SOL    HW223925   3.776   6.485   2.991
 7676SOL     OW23926   3.134   3.256   5.874
 7676SOL    HW123927   3.156   3.164   5.842
 7676SOL    HW223928   3.094   3.309   5.799
 7677SOL     OW23929   6.116   4.498   1.538
 7677SOL    HW123930   6.052   4.475   1.464
 7677SOL    HW223931   6.153   4.590   1.522
 7678SOL     OW23932   1.481   2.183   5.764
 7678SOL    HW123933   1.452   2.236   5.685
 7678SOL    HW223934   1.418   2.106   5.778
 7679SOL     OW23935   2.550   5.531   4.992
 7679SOL    HW123936   2.481   5.566   5.055
 7679SOL    HW223937   2.548   5.584   4.907
 7680SOL     OW23938   1.669   0.522   5.171
 7680SOL    HW123939   1.599   0.543   5.240
 7680SOL    HW223940   1.742   0.590   5.176
 7681SOL     OW23941   3.248   2.836   6.209
 7681SOL    HW123942   3.201   2.786   6.137
 7681SOL    HW223943   3.230   2.793   6.297
 7682SOL     OW23944   2.910   1.508   2.924
 7682SOL    HW123945   2.980   1.493   2.854
 7682SOL    HW223946   2.865   1.595   2.908
 7683SOL     OW23947   0.116   1.158   4.561
 7683SOL    HW123948   0.171   1.083   4.599
 7683SOL    HW223949   0.103   1.228   4.632
 7684SOL     OW23950   4.128   2.605   1.689
 7684SOL    HW123951   4.052   2.540   1.687
 7684SOL    HW223952   4.099   2.689   1.735
 7685SOL     OW23953   3.430   0.501   0.314
 7685SOL    HW123954   3.498   0.508   0.388
 7685SOL    HW223955   3.427   0.406   0.281
 7686SOL     OW23956   4.425   0.286   4.545
 7686SOL    HW123957   4.349   0.351   4.550
 7686SOL    HW223958   4.482   0.308   4.466
 7687SOL     OW23959   5.685   4.992   4.426
 7687SOL    HW123960   5.691   4.899   4.462
 7687SOL    HW223961   5.733   4.997   4.338
 7688SOL     OW23962   0.686   5.165   6.222
 7688SOL    HW123963   0.703   5.089   6.285
 7688SOL    HW223964   0.693   5.252   6.271
 7689SOL     OW23965   4.253   0.519   1.700
 7689SOL    HW123966   4.201   0.527   1.615
 7689SOL    HW223967   4.327   0.586   1.700
 7690SOL     OW23968   6.144   5.144   0.424
 7690SOL    HW123969   6.104   5.102   0.343
 7690SOL    HW223970   6.081   5.213   0.460
 7691SOL     OW23971   4.296   4.662   3.514
 7691SOL    HW123972   4.265   4.580   3.563
 7691SOL    HW223973   4.392   4.680   3.535
 7692SOL     OW23974   1.115   6.477   2.251
 7692SOL    HW123975   1.110   6.378   2.264
 7692SOL    HW223976   1.101   6.499   2.155
 7693SOL     OW23977   2.534   1.023   0.915
 7693SOL    HW123978   2.448   1.028   0.864
 7693SOL    HW223979   2.610   1.030   0.851
 7694SOL     OW23980   5.893   2.761   4.530
 7694SOL    HW123981   5.932   2.821   4.599
 7694SOL    HW223982   5.811   2.803   4.492
 7695SOL     OW23983   6.517   0.619   3.099
 7695SOL    HW123984   6.436   0.663   3.061
 7695SOL    HW223985   6.501   0.596   3.195
 7696SOL     OW23986   0.659   2.229   6.464
 7696SOL    HW123987   0.576   2.186   6.428
 7696SOL    HW223988   0.663   2.324   6.434
 7697SOL     OW23989   3.612   6.730   2.792
 7697SOL    HW123990   3.614   6.829   2.804
 7697SOL    HW223991   3.654   6.686   2.872
 7698SOL     OW23992   6.273   2.219   6.690
 7698SOL    HW123993   6.264   2.125   6.721
 7698SOL    HW223994   6.299   2.278   6.767
 7699SOL     OW23995   3.280   5.586   6.922
 7699SOL    HW123996   3.297   5.649   6.998
 7699SOL    HW223997   3.244   5.636   6.843
 7700SOL     OW23998   4.636   6.165   2.752
 7700SOL    HW123999   4.616   6.244   2.810
 7700SOL    HW224000   4.615   6.081   2.802
 7701SOL     OW24001   0.357   2.756   6.267
 7701SOL    HW124002   0.406   2.842   6.283
 7701SOL    HW224003   0.298   2.736   6.346
 7702SOL     OW24004   4.678   6.807   5.478
 7702SOL    HW124005   4.766   6.824   5.522
 7702SOL    HW224006   4.624   6.890   5.478
 7703SOL     OW24007   6.412   0.171   4.401
 7703SOL    HW124008   6.318   0.191   4.430
 7703SOL    HW224009   6.416   0.080   4.361
 7704SOL     OW24010   6.367   1.449   3.991
 7704SOL    HW124011   6.287   1.440   4.050
 7704SOL    HW224012   6.339   1.441   3.895
 7705SOL     OW24013   2.233   4.844   0.443
 7705SOL    HW124014   2.251   4.858   0.540
 7705SOL    HW224015   2.155   4.782   0.432
 7706SOL     OW24016   3.793   2.942   2.838
 7706SOL    HW124017   3.785   3.034   2.876
 7706SOL    HW224018   3.860   2.942   2.764
 7707SOL     OW24019   6.455   5.929   0.399
 7707SOL    HW124020   6.486   5.961   0.488
 7707SOL    HW224021   6.506   5.846   0.374
 7708SOL     OW24022   2.616   6.630   4.271
 7708SOL    HW124023   2.639   6.696   4.342
 7708SOL    HW224024   2.686   6.558   4.268
 7709SOL     OW24025   6.669   4.506   0.862
 7709SOL    HW124026   6.639   4.530   0.770
 7709SOL    HW224027   6.644   4.579   0.926
 7710SOL     OW24028   1.905   3.342   0.540
 7710SOL    HW124029   1.891   3.244   0.547
 7710SOL    HW224030   1.970   3.372   0.610
 7711SOL     OW24031   6.663   4.546   5.527
 7711SOL    HW124032   6.594   4.618   5.514
 7711SOL    HW224033   6.670   4.524   5.624
 7712SOL     OW24034   6.562   4.721   5.908
 7712SOL    HW124035   6.614   4.805   5.888
 7712SOL    HW224036   6.469   4.731   5.874
 7713SOL     OW24037   1.907   4.892   0.667
 7713SOL    HW124038   1.816   4.895   0.707
 7713SOL    HW224039   1.954   4.978   0.686
 7714SOL     OW24040   6.660   0.765   4.181
 7714SOL    HW124041   6.758   0.770   4.199
 7714SOL    HW224042   6.644   0.730   4.089
 7715SOL     OW24043   1.869   2.623   6.380
 7715SOL    HW124044   1.959   2.624   6.424
 7715SOL    HW224045   1.820   2.707   6.403
 7716SOL     OW24046   0.665   6.221   6.385
 7716SOL    HW124047   0.688   6.163   6.307
 7716SOL    HW224048   0.571   6.203   6.414
 7717SOL     OW24049   1.563   1.980   6.512
 7717SOL    HW124050   1.488   2.046   6.516
 7717SOL    HW224051   1.634   2.013   6.449
 7718SOL     OW24052   1.472   4.264   2.548
 7718SOL    HW124053   1.561   4.264   2.595
 7718SOL    HW224054   1.480   4.213   2.462
 7719SOL     OW24055   1.650   3.788   4.895
 7719SOL    HW124056   1.634   3.812   4.799
 7719SOL    HW224057   1.564   3.756   4.936
 7720SOL     OW24058   6.280   1.855   6.351
 7720SOL    HW124059   6.369   1.860   6.396
 7720SOL    HW224060   6.208   1.845   6.420
 7721SOL     OW24061   1.519   0.207   2.636
 7721SOL    HW124062   1.615   0.181   2.651
 7721SOL    HW224063   1.508   0.239   2.542
 7722SOL     OW24064   2.188   5.222   4.094
 7722SOL    HW124065   2.102   5.194   4.136
 7722SOL    HW224066   2.255   5.244   4.165
 7723SOL     OW24067   5.085   3.013   6.891
 7723SOL    HW124068   5.114   3.060   6.975
 7723SOL    HW224069   4.989   3.034   6.873
 7724SOL     OW24070   2.807   4.113   1.637
 7724SOL    HW124071   2.817   4.153   1.546
 7724SOL    HW224072   2.769   4.021   1.629
 7725SOL     OW24073   5.700   2.694   2.463
 7725SOL    HW124074   5.786   2.643   2.471
 7725SOL    HW224075   5.717   2.791   2.477
 7726SOL     OW24076   0.670   3.363   5.982
 7726SOL    HW124077   0.639   3.453   6.013
 7726SOL    HW224078   0.691   3.305   6.061
 7727SOL     OW24079   4.930   2.617   2.142
 7727SOL    HW124080   4.887   2.703   2.169
 7727SOL    HW224081   4.887   2.541   2.191
 7728SOL     OW24082   2.170   2.992   5.351
 7728SOL    HW124083   2.200   3.080   5.314
 7728SOL    HW224084   2.214   2.918   5.302
 7729SOL     OW24085   6.025   2.060   2.870
 7729SOL    HW124086   5.946   2.035   2.814
 7729SOL    HW224087   6.064   1.978   2.912
 7730SOL     OW24088   5.755   4.848   5.424
 7730SOL    HW124089   5.749   4.853   5.524
 7730SOL    HW224090   5.681   4.901   5.383
 7731SOL     OW24091   5.886   0.150   0.562
 7731SOL    HW124092   5.950   0.207   0.613
 7731SOL    HW224093   5.936   0.100   0.490
 7732SOL     OW24094   4.878   0.473   6.338
 7732SOL    HW124095   4.821   0.479   6.420
 7732SOL    HW224096   4.821   0.450   6.259
 7733SOL     OW24097   6.277   5.921   2.236
 7733SOL    HW124098   6.215   5.927   2.314
 7733SOL    HW224099   6.353   5.860   2.258
 7734SOL     OW24100   2.871   4.299   5.433
 7734SOL    HW124101   2.793   4.235   5.425
 7734SOL    HW224102   2.917   4.306   5.345
 7735SOL     OW24103   6.358   6.430   0.305
 7735SOL    HW124104   6.364   6.428   0.405
 7735SOL    HW224105   6.328   6.341   0.271
 7736SOL     OW24106   2.900   3.196   0.920
 7736SOL    HW124107   2.994   3.213   0.889
 7736SOL    HW224108   2.884   3.098   0.926
 7737SOL     OW24109   4.233   5.441   0.929
 7737SOL    HW124110   4.289   5.444   1.012
 7737SOL    HW224111   4.200   5.348   0.915
 7738SOL     OW24112   2.746   6.130   6.762
 7738SOL    HW124113   2.731   6.064   6.836
 7738SOL    HW224114   2.663   6.183   6.747
 7739SOL     OW24115   1.397   2.809   1.909
 7739SOL    HW124116   1.319   2.799   1.849
 7739SOL    HW224117   1.480   2.821   1.854
 7740SOL     OW24118   1.193   0.720   3.666
 7740SOL    HW124119   1.242   0.807   3.671
 7740SOL    HW224120   1.191   0.677   3.756
 7741SOL     OW24121   1.728   4.771   6.119
 7741SOL    HW124122   1.721   4.676   6.149
 7741SOL    HW224123   1.748   4.774   6.021
 7742SOL     OW24124   3.492   1.657   4.030
 7742SOL    HW124125   3.510   1.754   4.012
 7742SOL    HW224126   3.578   1.607   4.030
 7743SOL     OW24127   5.323   1.071   6.842
 7743SOL    HW124128   5.369   1.152   6.877
 7743SOL    HW224129   5.258   1.037   6.910
 7744SOL     OW24130   0.669   6.004   4.691
 7744SOL    HW124131   0.611   5.946   4.634
 7744SOL    HW224132   0.727   5.946   4.750
 7745SOL     OW24133   1.684   6.436   0.057
 7745SOL    HW124134   1.759   6.484   0.011
 7745SOL    HW224135   1.707   6.339   0.066
 7746SOL     OW24136   0.768   6.064   1.098
 7746SOL    HW124137   0.859   6.098   1.073
 7746SOL    HW224138   0.776   6.000   1.175
 7747SOL     OW24139   0.237   6.486   0.871
 7747SOL    HW124140   0.263   6.561   0.932
 7747SOL    HW224141   0.245   6.517   0.776
 7748SOL     OW24142   4.116   2.795   5.854
 7748SOL    HW124143   4.104   2.875   5.796
 7748SOL    HW224144   4.140   2.824   5.947
 7749SOL     OW24145   3.904   3.503   3.650
 7749SOL    HW124146   3.948   3.592   3.658
 7749SOL    HW224147   3.826   3.510   3.588
 7750SOL     OW24148   5.762   4.865   6.157
 7750SOL    HW124149   5.750   4.840   6.253
 7750SOL    HW224150   5.778   4.964   6.150
 7751SOL     OW24151   6.786   1.540   4.658
 7751SOL    HW124152   6.739   1.606   4.717
 7751SOL    HW224153   6.882   1.564   4.650
 7752SOL     OW24154   5.815   5.436   5.210
 7752SOL    HW124155   5.873   5.398   5.137
 7752SOL    HW224156   5.842   5.531   5.226
 7753SOL     OW24157   2.515   0.402   3.957
 7753SOL    HW124158   2.587   0.359   4.012
 7753SOL    HW224159   2.445   0.335   3.935
 7754SOL     OW24160   5.903   0.367   1.383
 7754SOL    HW124161   5.828   0.422   1.420
 7754SOL    HW224162   5.879   0.270   1.389
 7755SOL     OW24163   0.297   6.277   5.401
 7755SOL    HW124164   0.253   6.324   5.478
 7755SOL    HW224165   0.391   6.308   5.392
 7756SOL     OW24166   2.632   4.821   2.505
 7756SOL    HW124167   2.681   4.908   2.515
 7756SOL    HW224168   2.535   4.838   2.488
 7757SOL     OW24169   4.657   6.197   5.496
 7757SOL    HW124170   4.669   6.102   5.464
 7757SOL    HW224171   4.567   6.206   5.539
 7758SOL     OW24172   2.294   2.725   6.199
 7758SOL    HW124173   2.241   2.673   6.133
 7758SOL    HW224174   2.383   2.681   6.212
 7759SOL     OW24175   2.142   0.650   4.391
 7759SOL    HW124176   2.065   0.692   4.439
 7759SOL    HW224177   2.154   0.695   4.302
 7760SOL     OW24178   5.364   3.246   1.990
 7760SOL    HW124179   5.420   3.163   1.984
 7760SOL    HW224180   5.418   3.320   2.028
 7761SOL     OW24181   3.184   0.053   6.305
 7761SOL    HW124182   3.226   0.136   6.341
 7761SOL    HW224183   3.130   0.009   6.376
 7762SOL     OW24184   4.286   1.238   0.272
 7762SOL    HW124185   4.284   1.337   0.278
 7762SOL    HW224186   4.197   1.205   0.239
 7763SOL     OW24187   1.122   2.274   0.981
 7763SOL    HW124188   1.027   2.297   1.001
 7763SOL    HW224189   1.179   2.297   1.059
 7764SOL     OW24190   3.873   3.367   2.510
 7764SOL    HW124191   3.924   3.387   2.594
 7764SOL    HW224192   3.777   3.389   2.524
 7765SOL     OW24193   6.075   3.530   3.614
 7765SOL    HW124194   6.152   3.555   3.555
 7765SOL    HW224195   6.099   3.547   3.709
 7766SOL     OW24196   6.012   1.446   0.251
 7766SOL    HW124197   5.941   1.383   0.281
 7766SOL    HW224198   5.997   1.470   0.155
 7767SOL     OW24199   3.879   6.403   3.703
 7767SOL    HW124200   3.872   6.308   3.670
 7767SOL    HW224201   3.790   6.448   3.694
 7768SOL     OW24202   3.430   4.931   2.489
 7768SOL    HW124203   3.432   4.909   2.586
 7768SOL    HW224204   3.339   4.916   2.452
 7769SOL     OW24205   4.619   1.955   1.230
 7769SOL    HW124206   4.613   1.963   1.131
 7769SOL    HW224207   4.558   2.021   1.273
 7770SOL     OW24208   3.001   4.969   1.834
 7770SOL    HW124209   3.058   4.888   1.852
 7770SOL    HW224210   3.050   5.051   1.864
 7771SOL     OW24211   2.252   2.126   4.822
 7771SOL    HW124212   2.233   2.100   4.727
 7771SOL    HW224213   2.351   2.130   4.835
 7772SOL     OW24214   4.779   1.224   4.134
 7772SOL    HW124215   4.855   1.284   4.110
 7772SOL    HW224216   4.749   1.244   4.228
 7773SOL     OW24217   3.972   4.317   6.224
 7773SOL    HW124218   4.022   4.350   6.143
 7773SOL    HW224219   3.999   4.223   6.243
 7774SOL     OW24220   5.226   1.221   6.390
 7774SOL    HW124221   5.252   1.317   6.381
 7774SOL    HW224222   5.138   1.215   6.436
 7775SOL     OW24223   3.625   6.758   3.210
 7775SOL    HW124224   3.688   6.834   3.193
 7775SOL    HW224225   3.623   6.698   3.130
 7776SOL     OW24226   3.564   3.421   6.044
 7776SOL    HW124227   3.494   3.357   6.013
 7776SOL    HW224228   3.573   3.416   6.143
 7777SOL     OW24229   1.984   0.941   6.260
 7777SOL    HW124230   1.966   0.884   6.180
 7777SOL    HW224231   2.053   1.010   6.237
 7778SOL     OW24232   5.647   0.431   0.553
 7778SOL    HW124233   5.612   0.354   0.606
 7778SOL    HW224234   5.743   0.448   0.576
 7779SOL     OW24235   3.108   2.235   0.862
 7779SOL    HW124236   3.016   2.199   0.850
 7779SOL    HW224237   3.107   2.335   0.853
 7780SOL     OW24238   1.245   6.163   4.115
 7780SOL    HW124239   1.218   6.115   4.032
 7780SOL    HW224240   1.344   6.182   4.112
 7781SOL     OW24241   1.657   3.538   5.809
 7781SOL    HW124242   1.681   3.562   5.715
 7781SOL    HW224243   1.703   3.601   5.872
 7782SOL     OW24244   2.085   4.072   6.376
 7782SOL    HW124245   2.182   4.074   6.401
 7782SOL    HW224246   2.066   3.988   6.325
 7783SOL     OW24247   2.518   6.380   6.536
 7783SOL    HW124248   2.571   6.449   6.486
 7783SOL    HW224249   2.421   6.403   6.531
 7784SOL     OW24250   1.111   2.985   6.954
 7784SOL    HW124251   1.202   3.026   6.961
 7784SOL    HW224252   1.108   2.902   7.011
 7785SOL     OW24253   2.341   6.828   3.696
 7785SOL    HW124254   2.353   6.741   3.744
 7785SOL    HW224255   2.423   6.884   3.708
 7786SOL     OW24256   3.153   4.708   5.201
 7786SOL    HW124257   3.156   4.732   5.297
 7786SOL    HW224258   3.075   4.648   5.184
 7787SOL     OW24259   2.151   2.815   5.074
 7787SOL    HW124260   2.218   2.883   5.045
 7787SOL    HW224261   2.060   2.844   5.046
 7788SOL     OW24262   1.646   1.940   1.665
 7788SOL    HW124263   1.555   1.904   1.683
 7788SOL    HW224264   1.670   1.924   1.569
 7789SOL     OW24265   2.846   0.391   1.075
 7789SOL    HW124266   2.806   0.300   1.090
 7789SOL    HW224267   2.855   0.408   0.977
 7790SOL     OW24268   6.709   4.277   3.157
 7790SOL    HW124269   6.644   4.220   3.106
 7790SOL    HW224270   6.781   4.219   3.196
 7791SOL     OW24271   2.499   6.053   4.600
 7791SOL    HW124272   2.596   6.035   4.582
 7791SOL    HW224273   2.486   6.075   4.696
 7792SOL     OW24274   1.473   5.708   6.347
 7792SOL    HW124275   1.566   5.675   6.363
 7792SOL    HW224276   1.429   5.651   6.278
 7793SOL     OW24277   1.346   1.202   5.296
 7793SOL    HW124278   1.358   1.144   5.216
 7793SOL    HW224279   1.416   1.273   5.298
 7794SOL     OW24280   4.780   4.902   4.327
 7794SOL    HW124281   4.791   4.806   4.300
 7794SOL    HW224282   4.862   4.932   4.375
 7795SOL     OW24283   1.917   4.303   5.604
 7795SOL    HW124284   1.960   4.375   5.658
 7795SOL    HW224285   1.898   4.338   5.512
 7796SOL     OW24286   3.902   3.964   3.636
 7796SOL    HW124287   3.844   4.041   3.661
 7796SOL    HW224288   3.920   3.907   3.716
 7797SOL     OW24289   0.840   6.248   3.431
 7797SOL    HW124290   0.903   6.238   3.355
 7797SOL    HW224291   0.801   6.159   3.455
 7798SOL     OW24292   3.144   5.531   0.156
 7798SOL    HW124293   3.134   5.517   0.057
 7798SOL    HW224294   3.072   5.593   0.188
 7799SOL     OW24295   6.926   5.982   1.324
 7799SOL    HW124296   6.901   5.901   1.378
 7799SOL    HW224297   7.002   5.959   1.263
 7800SOL     OW24298   0.476   4.912   1.529
 7800SOL    HW124299   0.426   4.929   1.444
 7800SOL    HW224300   0.559   4.968   1.532
 7801SOL     OW24301   2.396   1.170   0.151
 7801SOL    HW124302   2.332   1.157   0.227
 7801SOL    HW224303   2.389   1.264   0.118
 7802SOL     OW24304   6.152   2.848   1.924
 7802SOL    HW124305   6.201   2.842   2.011
 7802SOL    HW224306   6.092   2.768   1.914
 7803SOL     OW24307   4.584   3.510   5.550
 7803SOL    HW124308   4.603   3.445   5.624
 7803SOL    HW224309   4.552   3.596   5.589
 7804SOL     OW24310   5.641   1.514   4.584
 7804SOL    HW124311   5.541   1.517   4.587
 7804SOL    HW224312   5.677   1.607   4.573
 7805SOL     OW24313   5.497   2.006   1.616
 7805SOL    HW124314   5.467   1.979   1.525
 7805SOL    HW224315   5.453   2.093   1.641
 7806SOL     OW24316   5.407   2.922   5.832
 7806SOL    HW124317   5.450   2.832   5.825
 7806SOL    HW224318   5.377   2.937   5.927
 7807SOL     OW24319   0.107   4.567   5.990
 7807SOL    HW124320   0.055   4.606   6.066
 7807SOL    HW224321   0.108   4.631   5.914
 7808SOL     OW24322   0.669   1.539   4.991
 7808SOL    HW124323   0.746   1.508   5.046
 7808SOL    HW224324   0.586   1.540   5.047
 7809SOL     OW24325   2.293   5.619   4.716
 7809SOL    HW124326   2.340   5.542   4.671
 7809SOL    HW224327   2.283   5.694   4.652
 7810SOL     OW24328   3.072   1.074   5.436
 7810SOL    HW124329   3.049   0.978   5.420
 7810SOL    HW224330   2.992   1.122   5.471
 7811SOL     OW24331   6.183   4.692   3.955
 7811SOL    HW124332   6.099   4.672   3.904
 7811SOL    HW224333   6.249   4.618   3.941
 7812SOL     OW24334   1.462   1.836   4.348
 7812SOL    HW124335   1.371   1.845   4.386
 7812SOL    HW224336   1.466   1.753   4.291
 7813SOL     OW24337   5.269   2.885   6.715
 7813SOL    HW124338   5.201   2.932   6.771
 7813SOL    HW224339   5.355   2.936   6.717
 7814SOL     OW24340   6.837   2.554   3.521
 7814SOL    HW124341   6.777   2.485   3.560
 7814SOL    HW224342   6.910   2.510   3.468
 7815SOL     OW24343   5.069   1.297   6.967
 7815SOL    HW124344   5.100   1.237   6.893
 7815SOL    HW224345   4.993   1.354   6.934
 7816SOL     OW24346   0.701   3.670   5.979
 7816SOL    HW124347   0.628   3.737   5.964
 7816SOL    HW224348   0.780   3.694   5.923
 7817SOL     OW24349   6.050   3.827   4.305
 7817SOL    HW124350   5.985   3.752   4.316
 7817SOL    HW224351   6.134   3.792   4.264
 7818SOL     OW24352   5.839   0.083   1.427
 7818SOL    HW124353   5.935   0.057   1.437
 7818SOL    HW224354   5.787   0.044   1.503
 7819SOL     OW24355   0.224   2.828   1.408
 7819SOL    HW124356   0.222   2.825   1.508
 7819SOL    HW224357   0.203   2.920   1.376
 7820SOL     OW24358   1.859   2.043   5.363
 7820SOL    HW124359   1.844   1.952   5.402
 7820SOL    HW224360   1.796   2.056   5.286
 7821SOL     OW24361   4.052   5.586   0.783
 7821SOL    HW124362   4.105   5.540   0.855
 7821SOL    HW224363   3.958   5.599   0.814
 7822SOL     OW24364   0.691   6.632   5.366
 7822SOL    HW124365   0.610   6.686   5.343
 7822SOL    HW224366   0.692   6.613   5.464
 7823SOL     OW24367   2.219   4.160   4.468
 7823SOL    HW124368   2.290   4.231   4.466
 7823SOL    HW224369   2.201   4.129   4.375
 7824SOL     OW24370   6.879   2.482   5.355
 7824SOL    HW124371   6.905   2.553   5.420
 7824SOL    HW224372   6.786   2.451   5.375
 7825SOL     OW24373   2.287   2.918   6.677
 7825SOL    HW124374   2.259   2.824   6.695
 7825SOL    HW224375   2.210   2.970   6.640
 7826SOL     OW24376   6.804   2.090   0.265
 7826SOL    HW124377   6.893   2.108   0.306
 7826SOL    HW224378   6.803   1.999   0.224
 7827SOL     OW24379   0.436   5.767   2.879
 7827SOL    HW124380   0.494   5.708   2.935
 7827SOL    HW224381   0.453   5.863   2.904
 7828SOL     OW24382   0.121   3.752   6.681
 7828SOL    HW124383   0.174   3.799   6.611
 7828SOL    HW224384   0.053   3.692   6.638
 7829SOL     OW24385   3.316   3.079   1.428
 7829SOL    HW124386   3.252   3.032   1.488
 7829SOL    HW224387   3.329   3.026   1.344
 7830SOL     OW24388   3.328   5.750   5.087
 7830SOL    HW124389   3.384   5.670   5.106
 7830SOL    HW224390   3.296   5.747   4.992
 7831SOL     OW24391   2.015   1.495   1.070
 7831SOL    HW124392   1.957   1.556   1.016
 7831SOL    HW224393   1.960   1.455   1.144
 7832SOL     OW24394   5.387   0.532   4.612
 7832SOL    HW124395   5.340   0.594   4.675
 7832SOL    HW224396   5.485   0.538   4.626
 7833SOL     OW24397   1.494   0.298   4.016
 7833SOL    HW124398   1.422   0.366   4.031
 7833SOL    HW224399   1.527   0.264   4.105
 7834SOL     OW24400   6.309   2.116   4.220
 7834SOL    HW124401   6.380   2.162   4.166
 7834SOL    HW224402   6.273   2.039   4.168
 7835SOL     OW24403   3.975   1.734   5.502
 7835SOL    HW124404   4.049   1.700   5.560
 7835SOL    HW224405   3.999   1.720   5.406
 7836SOL     OW24406   3.941   3.976   5.392
 7836SOL    HW124407   4.025   3.931   5.424
 7836SOL    HW224408   3.954   4.009   5.299
 7837SOL     OW24409   5.884   6.731   0.375
 7837SOL    HW124410   5.977   6.694   0.382
 7837SOL    HW224411   5.879   6.793   0.297
 7838SOL     OW24412   5.605   5.432   1.397
 7838SOL    HW124413   5.551   5.516   1.385
 7838SOL    HW224414   5.544   5.357   1.424
 7839SOL     OW24415   6.431   4.584   4.678
 7839SOL    HW124416   6.506   4.631   4.631
 7839SOL    HW224417   6.469   4.528   4.752
 7840SOL     OW24418   1.336   4.004   3.764
 7840SOL    HW124419   1.362   4.091   3.723
 7840SOL    HW224420   1.308   3.940   3.693
 7841SOL     OW24421   4.892   1.651   6.595
 7841SOL    HW124422   4.817   1.689   6.540
 7841SOL    HW224423   4.927   1.722   6.656
 7842SOL     OW24424   2.316   1.543   2.646
 7842SOL    HW124425   2.407   1.578   2.669
 7842SOL    HW224426   2.247   1.612   2.668
 7843SOL     OW24427   6.646   6.610   4.142
 7843SOL    HW124428   6.735   6.634   4.178
 7843SOL    HW224429   6.657   6.558   4.057
 7844SOL     OW24430   3.879   1.214   2.575
 7844SOL    HW124431   3.828   1.298   2.592
 7844SOL    HW224432   3.817   1.136   2.584
 7845SOL     OW24433   5.982   1.827   2.033
 7845SOL    HW124434   5.937   1.810   1.945
 7845SOL    HW224435   5.920   1.876   2.094
 7846SOL     OW24436   1.751   2.802   0.376
 7846SOL    HW124437   1.771   2.884   0.322
 7846SOL    HW224438   1.830   2.779   0.433
 7847SOL     OW24439   5.905   2.498   3.710
 7847SOL    HW124440   5.936   2.560   3.782
 7847SOL    HW224441   5.903   2.405   3.745
 7848SOL     OW24442   2.660   4.497   0.936
 7848SOL    HW124443   2.700   4.406   0.925
 7848SOL    HW224444   2.566   4.496   0.902
 7849SOL     OW24445   5.479   3.315   5.916
 7849SOL    HW124446   5.449   3.374   5.991
 7849SOL    HW224447   5.401   3.296   5.856
 7850SOL     OW24448   6.896   1.561   3.356
 7850SOL    HW124449   6.915   1.575   3.453
 7850SOL    HW224450   6.810   1.512   3.345
 7851SOL     OW24451   1.172   3.946   1.602
 7851SOL    HW124452   1.182   4.005   1.522
 7851SOL    HW224453   1.235   3.868   1.594
 7852SOL     OW24454   3.278   1.673   0.410
 7852SOL    HW124455   3.258   1.696   0.505
 7852SOL    HW224456   3.238   1.742   0.350
 7853SOL     OW24457   4.004   3.194   1.660
 7853SOL    HW124458   3.962   3.182   1.750
 7853SOL    HW224459   4.081   3.131   1.650
 7854SOL     OW24460   4.342   1.901   6.004
 7854SOL    HW124461   4.437   1.924   6.025
 7854SOL    HW224462   4.338   1.812   5.960
 7855SOL     OW24463   4.993   6.453   4.375
 7855SOL    HW124464   4.960   6.429   4.466
 7855SOL    HW224465   4.971   6.549   4.355
 7856SOL     OW24466   2.054   4.606   4.656
 7856SOL    HW124467   1.985   4.571   4.592
 7856SOL    HW224468   2.013   4.618   4.746
 7857SOL     OW24469   5.215   4.344   0.164
 7857SOL    HW124470   5.269   4.313   0.243
 7857SOL    HW224471   5.119   4.351   0.190
 7858SOL     OW24472   0.009   5.518   5.936
 7858SOL    HW124473   0.045   5.594   5.991
 7858SOL    HW224474   0.066   5.437   5.950
 7859SOL     OW24475   5.012   3.339   6.301
 7859SOL    HW124476   5.025   3.302   6.209
 7859SOL    HW224477   5.100   3.346   6.347
 7860SOL     OW24478   3.036   1.142   4.415
 7860SOL    HW124479   3.033   1.054   4.463
 7860SOL    HW224480   2.943   1.178   4.406
 7861SOL     OW24481   2.751   5.510   1.880
 7861SOL    HW124482   2.743   5.533   1.783
 7861SOL    HW224483   2.846   5.489   1.901
 7862SOL     OW24484   3.355   5.700   1.866
 7862SOL    HW124485   3.408   5.695   1.951
 7862SOL    HW224486   3.363   5.614   1.817
 7863SOL     OW24487   6.850   4.403   3.443
 7863SOL    HW124488   6.931   4.426   3.497
 7863SOL    HW224489   6.810   4.487   3.406
 7864SOL     OW24490   2.002   6.113   6.097
 7864SOL    HW124491   2.006   6.208   6.068
 7864SOL    HW224492   1.912   6.093   6.135
 7865SOL     OW24493   5.987   6.029   4.092
 7865SOL    HW124494   5.918   6.099   4.074
 7865SOL    HW224495   5.954   5.966   4.162
 7866SOL     OW24496   2.008   0.633   5.784
 7866SOL    HW124497   2.077   0.603   5.850
 7866SOL    HW224498   2.009   0.733   5.778
 7867SOL     OW24499   5.705   0.453   3.964
 7867SOL    HW124500   5.665   0.483   4.051
 7867SOL    HW224501   5.758   0.370   3.979
 7868SOL     OW24502   4.016   5.949   0.682
 7868SOL    HW124503   3.940   5.957   0.745
 7868SOL    HW224504   4.070   6.033   0.683
 7869SOL     OW24505   5.608   4.679   5.685
 7869SOL    HW124506   5.565   4.732   5.758
 7869SOL    HW224507   5.547   4.677   5.605
 7870SOL     OW24508   4.170   6.470   5.082
 7870SOL    HW124509   4.242   6.539   5.087
 7870SOL    HW224510   4.096   6.503   5.024
 7871SOL     OW24511   5.360   1.303   2.187
 7871SOL    HW124512   5.435   1.340   2.242
 7871SOL    HW224513   5.276   1.353   2.207
 7872SOL     OW24514   1.629   5.108   2.782
 7872SOL    HW124515   1.710   5.050   2.767
 7872SOL    HW224516   1.635   5.151   2.872
 7873SOL     OW24517   6.857   1.298   0.818
 7873SOL    HW124518   6.811   1.380   0.783
 7873SOL    HW224519   6.855   1.226   0.748
 7874SOL     OW24520   5.750   2.438   0.956
 7874SOL    HW124521   5.764   2.431   1.055
 7874SOL    HW224522   5.819   2.382   0.910
 7875SOL     OW24523   3.910   3.867   6.995
 7875SOL    HW124524   3.918   3.836   6.901
 7875SOL    HW224525   3.975   3.818   0.031
 7876SOL     OW24526   0.800   6.732   2.537
 7876SOL    HW124527   0.793   6.780   2.625
 7876SOL    HW224528   0.740   6.775   2.471
 7877SOL     OW24529   6.341   1.831   2.762
 7877SOL    HW124530   6.382   1.798   2.677
 7877SOL    HW224531   6.335   1.756   2.828
 7878SOL     OW24532   4.819   4.139   3.406
 7878SOL    HW124533   4.810   4.235   3.381
 7878SOL    HW224534   4.761   4.083   3.347
 7879SOL     OW24535   2.945   5.350   3.533
 7879SOL    HW124536   3.026   5.380   3.482
 7879SOL    HW224537   2.924   5.417   3.605
 7880SOL     OW24538   2.531   3.859   1.674
 7880SOL    HW124539   2.502   3.938   1.728
 7880SOL    HW224540   2.454   3.796   1.664
 7881SOL     OW24541   4.950   4.029   4.446
 7881SOL    HW124542   4.928   3.974   4.527
 7881SOL    HW224543   4.871   4.033   4.386
 7882SOL     OW24544   2.605   3.659   1.299
 7882SOL    HW124545   2.694   3.655   1.345
 7882SOL    HW224546   2.546   3.587   1.335
 7883SOL     OW24547   0.166   0.837   5.385
 7883SOL    HW124548   0.130   0.849   5.478
 7883SOL    HW224549   0.153   0.743   5.355
 7884SOL     OW24550   0.406   2.999   4.485
 7884SOL    HW124551   0.484   2.938   4.474
 7884SOL    HW224552   0.366   2.987   4.576
 7885SOL     OW24553   5.943   5.265   0.581
 7885SOL    HW124554   5.939   5.320   0.664
 7885SOL    HW224555   5.856   5.218   0.568
 7886SOL     OW24556   4.805   5.755   0.664
 7886SOL    HW124557   4.759   5.696   0.597
 7886SOL    HW224558   4.814   5.848   0.626
 7887SOL     OW24559   4.282   1.682   6.887
 7887SOL    HW124560   4.379   1.701   6.873
 7887SOL    HW224561   4.269   1.586   6.910
 7888SOL     OW24562   4.976   0.461   4.630
 7888SOL    HW124563   5.045   0.497   4.693
 7888SOL    HW224564   4.942   0.534   4.572
 7889SOL     OW24565   0.333   5.827   2.352
 7889SOL    HW124566   0.387   5.752   2.313
 7889SOL    HW224567   0.381   5.865   2.431
 7890SOL     OW24568   2.034   3.935   2.190
 7890SOL    HW124569   2.082   4.007   2.140
 7890SOL    HW224570   2.028   3.960   2.287
 7891SOL     OW24571   2.623   4.689   2.172
 7891SOL    HW124572   2.694   4.639   2.123
 7891SOL    HW224573   2.631   4.787   2.151
 7892SOL     OW24574   1.819   2.547   5.523
 7892SOL    HW124575   1.723   2.530   5.543
 7892SOL    HW224576   1.827   2.578   5.428
 7893SOL     OW24577   5.653   6.773   0.822
 7893SOL    HW124578   5.670   6.794   0.918
 7893SOL    HW224579   5.706   6.835   0.764
 7894SOL     OW24580   2.007   6.124   2.510
 7894SOL    HW124581   2.006   6.207   2.454
 7894SOL    HW224582   2.028   6.045   2.451
 7895SOL     OW24583   6.113   1.146   4.956
 7895SOL    HW124584   6.074   1.136   5.047
 7895SOL    HW224585   6.048   1.194   4.897
 7896SOL     OW24586   5.116   3.922   5.582
 7896SOL    HW124587   5.138   3.998   5.522
 7896SOL    HW224588   5.183   3.849   5.571
 7897SOL     OW24589   2.095   3.737   6.407
 7897SOL    HW124590   2.115   3.786   6.323
 7897SOL    HW224591   2.180   3.724   6.459
 7898SOL     OW24592   4.449   2.008   3.912
 7898SOL    HW124593   4.411   1.930   3.861
 7898SOL    HW224594   4.385   2.035   3.983
 7899SOL     OW24595   5.772   2.385   1.923
 7899SOL    HW124596   5.674   2.366   1.921
 7899SOL    HW224597   5.823   2.304   1.895
 7900SOL     OW24598   1.791   5.462   1.066
 7900SOL    HW124599   1.824   5.403   0.993
 7900SOL    HW224600   1.850   5.542   1.074
 7901SOL     OW24601   6.094   6.369   6.175
 7901SOL    HW124602   6.022   6.393   6.240
 7901SOL    HW224603   6.065   6.397   6.083
 7902SOL     OW24604   4.693   4.476   0.933
 7902SOL    HW124605   4.600   4.448   0.952
 7902SOL    HW224606   4.693   4.570   0.899
 7903SOL     OW24607   6.654   1.807   0.266
 7903SOL    HW124608   6.747   1.789   0.296
 7903SOL    HW224609   6.631   1.747   0.190
 7904SOL     OW24610   0.094   1.571   2.706
 7904SOL    HW124611   7.016   1.570   2.716
 7904SOL    HW224612   0.130   1.657   2.742
 7905SOL     OW24613   3.802   1.620   1.349
 7905SOL    HW124614   3.834   1.701   1.300
 7905SOL    HW224615   3.866   1.599   1.424
 7906SOL     OW24616   5.815   6.022   6.652
 7906SOL    HW124617   5.810   6.115   6.687
 7906SOL    HW224618   5.868   6.020   6.568
 7907SOL     OW24619   6.355   2.493   4.123
 7907SOL    HW124620   6.402   2.562   4.069
 7907SOL    HW224621   6.281   2.453   4.069
 7908SOL     OW24622   0.232   1.216   3.945
 7908SOL    HW124623   0.223   1.314   3.964
 7908SOL    HW224624   0.329   1.190   3.947
 7909SOL     OW24625   4.752   4.312   4.544
 7909SOL    HW124626   4.767   4.232   4.487
 7909SOL    HW224627   4.812   4.308   4.624
 7910SOL     OW24628   4.318   3.380   5.796
 7910SOL    HW124629   4.255   3.444   5.751
 7910SOL    HW224630   4.389   3.432   5.844
 7911SOL     OW24631   6.606   4.608   0.581
 7911SOL    HW124632   6.597   4.551   0.499
 7911SOL    HW224633   6.548   4.689   0.572
 7912SOL     OW24634   6.123   4.629   6.018
 7912SOL    HW124635   6.074   4.652   6.102
 7912SOL    HW224636   6.220   4.652   6.029
 7913SOL     OW24637   0.010   5.252   6.660
 7913SOL    HW124638   6.976   5.331   6.635
 7913SOL    HW224639   7.012   5.176   6.598
 7914SOL     OW24640   5.834   4.066   1.030
 7914SOL    HW124641   5.745   4.064   1.075
 7914SOL    HW224642   5.850   4.156   0.990
 7915SOL     OW24643   4.482   1.692   3.454
 7915SOL    HW124644   4.487   1.778   3.504
 7915SOL    HW224645   4.438   1.707   3.365
 7916SOL     OW24646   5.327   3.158   5.536
 7916SOL    HW124647   5.411   3.104   5.539
 7916SOL    HW224648   5.269   3.126   5.460
 7917SOL     OW24649   4.127   3.743   4.793
 7917SOL    HW124650   4.124   3.645   4.775
 7917SOL    HW224651   4.215   3.767   4.833
 7918SOL     OW24652   6.292   1.515   2.226
 7918SOL    HW124653   6.200   1.550   2.247
 7918SOL    HW224654   6.341   1.582   2.170
 7919SOL     OW24655   5.503   5.038   2.253
 7919SOL    HW124656   5.594   4.997   2.244
 7919SOL    HW224657   5.447   4.981   2.313
 7920SOL     OW24658   0.349   5.004   1.300
 7920SOL    HW124659   0.251   5.022   1.285
 7920SOL    HW224660   0.400   5.023   1.217
 7921SOL     OW24661   2.759   6.632   1.709
 7921SOL    HW124662   2.699   6.603   1.783
 7921SOL    HW224663   2.743   6.575   1.629
 7922SOL     OW24664   0.774   5.477   6.771
 7922SOL    HW124665   0.776   5.574   6.747
 7922SOL    HW224666   0.866   5.447   6.799
 7923SOL     OW24667   1.492   1.192   3.420
 7923SOL    HW124668   1.480   1.107   3.471
 7923SOL    HW224669   1.509   1.267   3.483
 7924SOL     OW24670   3.344   6.886   3.855
 7924SOL    HW124671   3.305   6.842   3.936
 7924SOL    HW224672   3.342   6.823   3.778
 7925SOL     OW24673   6.339   1.603   6.170
 7925SOL    HW124674   6.284   1.530   6.211
 7925SOL    HW224675   6.306   1.691   6.203
 7926SOL     OW24676   2.829   0.821   2.947
 7926SOL    HW124677   2.754   0.886   2.937
 7926SOL    HW224678   2.815   0.744   2.884
 7927SOL     OW24679   4.025   5.342   5.464
 7927SOL    HW124680   4.001   5.429   5.507
 7927SOL    HW224681   4.002   5.267   5.525
 7928SOL     OW24682   2.127   5.165   3.250
 7928SOL    HW124683   2.045   5.162   3.307
 7928SOL    HW224684   2.117   5.104   3.172
 7929SOL     OW24685   4.012   3.812   4.524
 7929SOL    HW124686   4.051   3.769   4.442
 7929SOL    HW224687   4.077   3.805   4.599
 7930SOL     OW24688   4.148   5.336   3.407
 7930SOL    HW124689   4.166   5.280   3.488
 7930SOL    HW224690   4.208   5.308   3.333
 7931SOL     OW24691   2.088   2.249   0.299
 7931SOL    HW124692   2.072   2.289   0.209
 7931SOL    HW224693   2.177   2.203   0.300
 7932SOL     OW24694   2.017   0.059   0.093
 7932SOL    HW124695   1.953   7.016   0.052
 7932SOL    HW224696   2.076   0.012   0.158
 7933SOL     OW24697   1.059   0.271   6.803
 7933SOL    HW124698   1.106   0.219   6.731
 7933SOL    HW224699   1.113   0.267   6.887
 7934SOL     OW24700   2.680   3.671   0.377
 7934SOL    HW124701   2.602   3.732   0.379
 7934SOL    HW224702   2.670   3.602   0.448
 7935SOL     OW24703   4.961   5.997   1.117
 7935SOL    HW124704   5.008   6.073   1.073
 7935SOL    HW224705   4.911   5.944   1.048
 7936SOL     OW24706   4.086   6.244   3.189
 7936SOL    HW124707   4.088   6.163   3.131
 7936SOL    HW224708   4.138   6.318   3.145
 7937SOL     OW24709   6.029   6.382   5.425
 7937SOL    HW124710   5.978   6.389   5.510
 7937SOL    HW224711   5.968   6.399   5.348
 7938SOL     OW24712   4.219   5.138   4.988
 7938SOL    HW124713   4.298   5.187   4.952
 7938SOL    HW224714   4.176   5.192   5.060
 7939SOL     OW24715   0.486   1.428   5.606
 7939SOL    HW124716   0.460   1.380   5.522
 7939SOL    HW224717   0.465   1.370   5.684
 7940SOL     OW24718   2.110   5.434   1.280
 7940SOL    HW124719   2.035   5.370   1.264
 7940SOL    HW224720   2.078   5.510   1.336
 7941SOL     OW24721   0.197   1.135   0.515
 7941SOL    HW124722   0.266   1.152   0.445
 7941SOL    HW224723   0.200   1.208   0.584
 7942SOL     OW24724   0.606   6.799   1.982
 7942SOL    HW124725   0.682   6.859   2.007
 7942SOL    HW224726   0.546   6.787   2.061
 7943SOL     OW24727   5.527   2.207   0.723
 7943SOL    HW124728   5.537   2.295   0.768
 7943SOL    HW224729   5.434   2.198   0.688
 7944SOL     OW24730   0.466   3.240   1.066
 7944SOL    HW124731   0.390   3.192   1.024
 7944SOL    HW224732   0.495   3.191   1.148
 7945SOL     OW24733   5.268   6.660   2.815
 7945SOL    HW124734   5.240   6.643   2.910
 7945SOL    HW224735   5.354   6.612   2.797
 7946SOL     OW24736   1.770   2.291   6.148
 7946SOL    HW124737   1.781   2.317   6.244
 7946SOL    HW224738   1.687   2.332   6.111
 7947SOL     OW24739   3.867   2.769   6.257
 7947SOL    HW124740   3.953   2.730   6.290
 7947SOL    HW224741   3.887   2.844   6.194
 7948SOL     OW24742   6.636   6.897   0.525
 7948SOL    HW124743   6.578   6.978   0.516
 7948SOL    HW224744   6.698   6.892   0.447
 7949SOL     OW24745   5.142   4.723   3.948
 7949SOL    HW124746   5.184   4.774   3.874
 7949SOL    HW224747   5.152   4.773   4.034
 7950SOL     OW24748   4.256   4.702   3.792
 7950SOL    HW124749   4.182   4.725   3.856
 7950SOL    HW224750   4.232   4.734   3.700
 7951SOL     OW24751   3.312   3.425   0.352
 7951SOL    HW124752   3.358   3.473   0.427
 7951SOL    HW224753   3.288   3.333   0.381
 7952SOL     OW24754   6.680   2.707   0.104
 7952SOL    HW124755   6.711   2.771   0.034
 7952SOL    HW224756   6.736   2.625   0.101
 7953SOL     OW24757   2.444   2.635   3.225
 7953SOL    HW124758   2.495   2.602   3.145
 7953SOL    HW224759   2.402   2.558   3.272
 7954SOL     OW24760   4.859   5.051   5.235
 7954SOL    HW124761   4.863   5.142   5.276
 7954SOL    HW224762   4.859   5.059   5.135
 7955SOL     OW24763   6.832   6.525   6.843
 7955SOL    HW124764   6.846   6.433   6.805
 7955SOL    HW224765   6.796   6.585   6.772
 7956SOL     OW24766   6.752   5.933   3.408
 7956SOL    HW124767   6.654   5.947   3.423
 7956SOL    HW224768   6.804   5.992   3.470
 7957SOL     OW24769   1.249   1.895   0.527
 7957SOL    HW124770   1.250   1.846   0.614
 7957SOL    HW224771   1.277   1.990   0.542
 7958SOL     OW24772   3.162   5.493   4.084
 7958SOL    HW124773   3.217   5.443   4.151
 7958SOL    HW224774   3.203   5.483   3.994
 7959SOL     OW24775   5.985   4.813   0.473
 7959SOL    HW124776   6.044   4.734   0.494
 7959SOL    HW224777   5.943   4.847   0.557
 7960SOL     OW24778   3.177   0.877   1.367
 7960SOL    HW124779   3.106   0.874   1.437
 7960SOL    HW224780   3.267   0.883   1.411
 7961SOL     OW24781   1.077   6.005   5.797
 7961SOL    HW124782   1.089   5.906   5.789
 7961SOL    HW224783   1.156   6.044   5.845
 7962SOL     OW24784   2.343   1.113   1.799
 7962SOL    HW124785   2.414   1.171   1.760
 7962SOL    HW224786   2.254   1.141   1.763
 7963SOL     OW24787   0.495   1.137   5.647
 7963SOL    HW124788   0.593   1.120   5.648
 7963SOL    HW224789   0.461   1.144   5.741
 7964SOL     OW24790   5.306   5.302   3.228
 7964SOL    HW124791   5.321   5.347   3.316
 7964SOL    HW224792   5.226   5.242   3.234
 7965SOL     OW24793   4.936   2.443   0.764
 7965SOL    HW124794   4.950   2.542   0.768
 7965SOL    HW224795   4.989   2.405   0.689
 7966SOL     OW24796   1.340   5.238   4.004
 7966SOL    HW124797   1.270   5.167   4.004
 7966SOL    HW224798   1.308   5.317   4.057
 7967SOL     OW24799   3.553   5.889   2.579
 7967SOL    HW124800   3.477   5.952   2.595
 7967SOL    HW224801   3.597   5.868   2.666
 7968SOL     OW24802   2.203   2.370   4.051
 7968SOL    HW124803   2.118   2.317   4.042
 7968SOL    HW224804   2.208   2.410   4.142
 7969SOL     OW24805   4.208   0.716   3.277
 7969SOL    HW124806   4.219   0.786   3.348
 7969SOL    HW224807   4.212   0.759   3.187
 7970SOL     OW24808   0.024   3.938   2.854
 7970SOL    HW124809   0.107   3.992   2.851
 7970SOL    HW224810   6.966   3.998   2.859
 7971SOL     OW24811   3.047   0.728   2.289
 7971SOL    HW124812   2.991   0.655   2.249
 7971SOL    HW224813   3.059   0.801   2.221
 7972SOL     OW24814   0.018   4.541   1.443
 7972SOL    HW124815   0.060   4.458   1.480
 7972SOL    HW224816   6.964   4.517   1.383
 7973SOL     OW24817   4.863   3.388   3.777
 7973SOL    HW124818   4.931   3.439   3.724
 7973SOL    HW224819   4.799   3.343   3.714
 7974SOL     OW24820   5.419   0.559   4.341
 7974SOL    HW124821   5.400   0.555   4.439
 7974SOL    HW224822   5.448   0.651   4.316
 7975SOL     OW24823   3.582   0.471   4.808
 7975SOL    HW124824   3.544   0.387   4.770
 7975SOL    HW224825   3.518   0.547   4.790
 7976SOL     OW24826   0.775   6.285   4.926
 7976SOL    HW124827   0.684   6.242   4.932
 7976SOL    HW224828   0.784   6.330   4.837
 7977SOL     OW24829   4.918   5.980   1.940
 7977SOL    HW124830   4.864   5.901   1.966
 7977SOL    HW224831   4.881   6.022   1.857
 7978SOL     OW24832   4.514   3.455   6.005
 7978SOL    HW124833   4.609   3.435   5.981
 7978SOL    HW224834   4.498   3.553   5.998
 7979SOL     OW24835   2.787   0.524   4.535
 7979SOL    HW124836   2.699   0.485   4.564
 7979SOL    HW224837   2.789   0.531   4.436
 7980SOL     OW24838   3.550   5.928   0.337
 7980SOL    HW124839   3.636   5.939   0.387
 7980SOL    HW224840   3.569   5.925   0.239
 7981SOL     OW24841   1.099   5.003   2.071
 7981SOL    HW124842   1.130   4.991   1.977
 7981SOL    HW224843   1.170   5.049   2.125
 7982SOL     OW24844   6.428   2.343   0.574
 7982SOL    HW124845   6.337   2.366   0.539
 7982SOL    HW224846   6.443   2.245   0.566
 7983SOL     OW24847   5.666   1.984   2.460
 7983SOL    HW124848   5.626   1.998   2.550
 7983SOL    HW224849   5.596   2.000   2.390
 7984SOL     OW24850   1.150   2.344   2.168
 7984SOL    HW124851   1.106   2.284   2.102
 7984SOL    HW224852   1.111   2.327   2.259
 7985SOL     OW24853   1.205   0.744   2.299
 7985SOL    HW124854   1.261   0.663   2.316
 7985SOL    HW224855   1.111   0.716   2.279
 7986SOL     OW24856   3.939   1.326   6.442
 7986SOL    HW124857   3.980   1.254   6.386
 7986SOL    HW224858   3.862   1.367   6.393
 7987SOL     OW24859   0.524   2.544   5.383
 7987SOL    HW124860   0.591   2.531   5.310
 7987SOL    HW224861   0.507   2.642   5.397
 7988SOL     OW24862   2.858   2.317   4.407
 7988SOL    HW124863   2.803   2.309   4.491
 7988SOL    HW224864   2.926   2.244   4.405
 7989SOL     OW24865   3.183   2.492   5.429
 7989SOL    HW124866   3.153   2.431   5.501
 7989SOL    HW224867   3.194   2.441   5.344
 7990SOL     OW24868   0.893   3.179   4.255
 7990SOL    HW124869   0.843   3.214   4.334
 7990SOL    HW224870   0.991   3.175   4.277
 7991SOL     OW24871   0.301   2.644   5.690
 7991SOL    HW124872   0.384   2.684   5.727
 7991SOL    HW224873   0.322   2.557   5.646
 7992SOL     OW24874   1.704   0.186   0.800
 7992SOL    HW124875   1.765   0.107   0.803
 7992SOL    HW224876   1.703   0.230   0.890
 7993SOL     OW24877   1.780   5.500   6.826
 7993SOL    HW124878   1.701   5.551   6.793
 7993SOL    HW224879   1.861   5.559   6.823
 7994SOL     OW24880   4.700   0.658   3.940
 7994SOL    HW124881   4.725   0.624   3.850
 7994SOL    HW224882   4.712   0.586   4.009
 7995SOL     OW24883   3.463   5.206   3.577
 7995SOL    HW124884   3.547   5.259   3.586
 7995SOL    HW224885   3.477   5.131   3.513
 7996SOL     OW24886   3.443   7.005   4.447
 7996SOL    HW124887   3.515   0.036   4.402
 7996SOL    HW224888   3.479   6.964   4.531
 7997SOL     OW24889   6.163   2.162   1.036
 7997SOL    HW124890   6.161   2.171   1.136
 7997SOL    HW224891   6.184   2.251   0.995
 7998SOL     OW24892   5.669   4.640   0.611
 7998SOL    HW124893   5.600   4.701   0.650
 7998SOL    HW224894   5.692   4.569   0.678
 7999SOL     OW24895   1.569   0.292   5.298
 7999SOL    HW124896   1.638   0.357   5.267
 7999SOL    HW224897   1.479   0.322   5.266
 8000SOL     OW24898   6.346   0.390   5.889
 8000SOL    HW124899   6.403   0.382   5.970
 8000SOL    HW224900   6.404   0.392   5.807
 8001SOL     OW24901   1.518   6.456   1.820
 8001SOL    HW124902   1.434   6.490   1.860
 8001SOL    HW224903   1.554   6.522   1.755
 8002SOL     OW24904   6.838   3.874   5.075
 8002SOL    HW124905   6.819   3.971   5.058
 8002SOL    HW224906   6.934   3.863   5.098
 8003SOL     OW24907   3.343   4.945   3.089
 8003SOL    HW124908   3.243   4.937   3.086
 8003SOL    HW224909   3.372   4.963   3.182
 8004SOL     OW24910   1.894   4.228   3.064
 8004SOL    HW124911   1.870   4.202   3.157
 8004SOL    HW224912   1.965   4.299   3.066
 8005SOL     OW24913   3.231   0.495   2.449
 8005SOL    HW124914   3.164   0.496   2.375
 8005SOL    HW224915   3.183   0.492   2.537
 8006SOL     OW24916   2.923   5.642   0.285
 8006SOL    HW124917   2.881   5.683   0.366
 8006SOL    HW224918   2.851   5.607   0.224
 8007SOL     OW24919   0.355   0.530   4.089
 8007SOL    HW124920   0.340   0.447   4.035
 8007SOL    HW224921   0.451   0.558   4.083
 8008SOL     OW24922   6.040   6.621   0.080
 8008SOL    HW124923   6.114   6.612   0.013
 8008SOL    HW224924   5.955   6.640   0.032
 8009SOL     OW24925   6.998   0.602   3.390
 8009SOL    HW124926   6.909   0.580   3.430
 8009SOL    HW224927   0.047   0.592   3.460
 8010SOL     OW24928   2.585   1.876   6.933
 8010SOL    HW124929   2.685   1.883   6.923
 8010SOL    HW224930   2.558   1.780   6.922
 8011SOL     OW24931   2.546   2.374   1.177
 8011SOL    HW124932   2.554   2.369   1.276
 8011SOL    HW224933   2.590   2.457   1.143
 8012SOL     OW24934   1.943   6.805   1.443
 8012SOL    HW124935   1.959   6.901   1.422
 8012SOL    HW224936   1.980   6.783   1.533
 8013SOL     OW24937   5.911   4.991   4.155
 8013SOL    HW124938   5.953   5.054   4.090
 8013SOL    HW224939   5.982   4.934   4.197
 8014SOL     OW24940   1.748   6.288   6.415
 8014SOL    HW124941   1.728   6.258   6.509
 8014SOL    HW224942   1.666   6.327   6.374
 8015SOL     OW24943   2.606   2.916   1.007
 8015SOL    HW124944   2.518   2.917   0.958
 8015SOL    HW224945   2.671   2.859   0.956
 8016SOL     OW24946   4.508   0.195   0.705
 8016SOL    HW124947   4.570   0.118   0.717
 8016SOL    HW224948   4.491   0.209   0.607
 8017SOL     OW24949   6.645   4.599   5.179
 8017SOL    HW124950   6.718   4.557   5.233
 8017SOL    HW224951   6.576   4.530   5.157
 8018SOL     OW24952   4.383   1.749   5.578
 8018SOL    HW124953   4.292   1.762   5.618
 8018SOL    HW224954   4.402   1.823   5.513
 8019SOL     OW24955   1.902   5.597   0.369
 8019SOL    HW124956   1.986   5.551   0.397
 8019SOL    HW224957   1.853   5.540   0.302
 8020SOL     OW24958   5.595   5.943   6.766
 8020SOL    HW124959   5.606   5.846   6.786
 8020SOL    HW224960   5.682   5.981   6.734
 8021SOL     OW24961   1.145   2.013   1.449
 8021SOL    HW124962   1.119   1.980   1.540
 8021SOL    HW224963   1.211   1.950   1.408
 8022SOL     OW24964   4.820   7.009   3.291
 8022SOL    HW124965   4.917   6.988   3.301
 8022SOL    HW224966   4.792   0.052   3.361
 8023SOL     OW24967   6.092   5.950   2.433
 8023SOL    HW124968   6.128   5.893   2.507
 8023SOL    HW224969   6.040   6.026   2.471
 8024SOL     OW24970   4.165   5.608   5.921
 8024SOL    HW124971   4.157   5.694   5.970
 8024SOL    HW224972   4.242   5.613   5.857
 8025SOL     OW24973   3.495   6.006   6.687
 8025SOL    HW124974   3.457   6.099   6.682
 8025SOL    HW224975   3.433   5.949   6.741
 8026SOL     OW24976   1.278   3.593   6.646
 8026SOL    HW124977   1.253   3.684   6.613
 8026SOL    HW224978   1.348   3.602   6.717
 8027SOL     OW24979   4.558   1.899   5.129
 8027SOL    HW124980   4.601   1.861   5.211
 8027SOL    HW224981   4.578   1.997   5.123
 8028SOL     OW24982   4.562   5.263   5.908
 8028SOL    HW124983   4.579   5.353   5.949
 8028SOL    HW224984   4.639   5.237   5.851
 8029SOL     OW24985   4.340   4.825   6.964
 8029SOL    HW124986   4.298   4.735   6.976
 8029SOL    HW224987   4.426   4.829   7.015
 8030SOL     OW24988   5.443   4.651   5.475
 8030SOL    HW124989   5.458   4.552   5.468
 8030SOL    HW224990   5.371   4.679   5.412
 8031SOL     OW24991   4.489   5.338   1.668
 8031SOL    HW124992   4.491   5.429   1.707
 8031SOL    HW224993   4.560   5.330   1.598
 8032SOL     OW24994   5.934   4.308   4.935
 8032SOL    HW124995   5.884   4.221   4.930
 8032SOL    HW224996   5.870   4.384   4.920
 8033SOL     OW24997   5.322   2.391   0.130
 8033SOL    HW124998   5.262   2.436   0.064
 8033SOL    HW224999   5.389   2.458   0.164
 8034SOL     OW25000   5.053   6.603   5.166
 8034SOL    HW125001   5.106   6.624   5.083
 8034SOL    HW225002   4.963   6.646   5.159
 8035SOL     OW25003   5.870   6.052   6.134
 8035SOL    HW125004   5.874   5.958   6.102
 8035SOL    HW225005   5.900   6.114   6.062
 8036SOL     OW25006   2.190   3.868   1.835
 8036SOL    HW125007   2.194   3.872   1.935
 8036SOL    HW225008   2.207   3.959   1.797
 8037SOL     OW25009   2.257   3.077   0.642
 8037SOL    HW125010   2.200   3.137   0.699
 8037SOL    HW225011   2.291   3.128   0.563
 8038SOL     OW25012   0.116   1.887   3.275
 8038SOL    HW125013   0.142   1.795   3.244
 8038SOL    HW225014   0.117   1.950   3.197
 8039SOL     OW25015   2.453   0.404   2.763
 8039SOL    HW125016   2.370   0.443   2.723
 8039SOL    HW225017   2.500   0.474   2.817
 8040SOL     OW25018   0.586   5.351   1.087
 8040SOL    HW125019   0.585   5.449   1.109
 8040SOL    HW225020   0.496   5.325   1.051
 8041SOL     OW25021   3.932   1.293   1.396
 8041SOL    HW125022   3.948   1.226   1.323
 8041SOL    HW225023   3.878   1.250   1.468
 8042SOL     OW25024   3.447   2.923   2.379
 8042SOL    HW125025   3.481   2.910   2.472
 8042SOL    HW225026   3.511   2.882   2.314
 8043SOL     OW25027   2.615   0.533   0.954
 8043SOL    HW125028   2.702   0.494   0.985
 8043SOL    HW225029   2.628   0.582   0.868
 8044SOL     OW25030   3.152   3.027   1.630
 8044SOL    HW125031   3.148   2.963   1.707
 8044SOL    HW225032   3.092   3.104   1.647
 8045SOL     OW25033   6.274   1.943   3.079
 8045SOL    HW125034   6.309   1.867   3.025
 8045SOL    HW225035   6.349   2.003   3.105
 8046SOL     OW25036   5.565   4.386   5.444
 8046SOL    HW125037   5.633   4.433   5.387
 8046SOL    HW225038   5.501   4.336   5.385
 8047SOL     OW25039   3.444   5.719   4.718
 8047SOL    HW125040   3.479   5.776   4.792
 8047SOL    HW225041   3.345   5.725   4.715
 8048SOL     OW25042   6.449   0.304   5.437
 8048SOL    HW125043   6.519   0.256   5.384
 8048SOL    HW225044   6.426   0.390   5.391
 8049SOL     OW25045   1.154   6.544   1.223
 8049SOL    HW125046   1.083   6.610   1.245
 8049SOL    HW225047   1.222   6.587   1.163
 8050SOL     OW25048   1.853   3.593   0.709
 8050SOL    HW125049   1.902   3.669   0.667
 8050SOL    HW225050   1.837   3.521   0.642
 8051SOL     OW25051   4.247   0.819   3.036
 8051SOL    HW125052   4.178   0.770   2.982
 8051SOL    HW225053   4.312   0.862   2.974
 8052SOL     OW25054   3.053   1.803   2.519
 8052SOL    HW125055   3.152   1.812   2.510
 8052SOL    HW225056   3.025   1.830   2.611
 8053SOL     OW25057   3.852   4.006   2.852
 8053SOL    HW125058   3.872   4.100   2.827
 8053SOL    HW225059   3.928   3.947   2.825
 8054SOL     OW25060   4.700   6.543   4.159
 8054SOL    HW125061   4.749   6.610   4.215
 8054SOL    HW225062   4.761   6.466   4.137
 8055SOL     OW25063   1.079   6.815   5.904
 8055SOL    HW125064   1.090   6.909   5.872
 8055SOL    HW225065   1.145   6.797   5.978
 8056SOL     OW25066   4.812   1.648   2.923
 8056SOL    HW125067   4.781   1.726   2.977
 8056SOL    HW225068   4.850   1.579   2.984
 8057SOL     OW25069   2.930   6.938   3.093
 8057SOL    HW125070   2.910   0.011   3.118
 8057SOL    HW225071   3.000   6.935   3.022
 8058SOL     OW25072   2.563   0.409   2.489
 8058SOL    HW125073   2.559   0.443   2.583
 8058SOL    HW225074   2.481   0.436   2.440
 8059SOL     OW25075   2.958   2.179   4.787
 8059SOL    HW125076   2.958   2.206   4.883
 8059SOL    HW225077   3.052   2.183   4.751
 8060SOL     OW25078   0.133   0.952   4.743
 8060SOL    HW125079   0.034   0.957   4.758
 8060SOL    HW225080   0.160   0.856   4.735
 8061SOL     OW25081   6.246   5.558   2.454
 8061SOL    HW125082   6.278   5.619   2.526
 8061SOL    HW225083   6.324   5.515   2.410
 8062SOL     OW25084   1.381   3.757   4.424
 8062SOL    HW125085   1.460   3.802   4.383
 8062SOL    HW225086   1.300   3.774   4.369
 8063SOL     OW25087   3.334   3.382   6.811
 8063SOL    HW125088   3.302   3.288   6.796
 8063SOL    HW225089   3.259   3.438   6.846
 8064SOL     OW25090   0.326   4.061   0.053
 8064SOL    HW125091   0.369   4.090   6.990
 8064SOL    HW225092   0.295   4.142   0.103
 8065SOL     OW25093   4.728   6.806   4.467
 8065SOL    HW125094   4.769   6.771   4.551
 8065SOL    HW225095   4.674   6.888   4.488
 8066SOL     OW25096   1.772   1.410   0.830
 8066SOL    HW125097   1.831   1.490   0.840
 8066SOL    HW225098   1.676   1.439   0.833
 8067SOL     OW25099   4.199   3.035   1.587
 8067SOL    HW125100   4.280   3.093   1.594
 8067SOL    HW225101   4.208   2.975   1.508
 8068SOL     OW25102   0.390   4.683   4.678
 8068SOL    HW125103   0.336   4.624   4.618
 8068SOL    HW225104   0.446   4.744   4.622
 8069SOL     OW25105   1.445   6.258   0.781
 8069SOL    HW125106   1.490   6.182   0.827
 8069SOL    HW225107   1.358   6.228   0.743
 8070SOL     OW25108   3.550   6.185   1.822
 8070SOL    HW125109   3.589   6.093   1.814
 8070SOL    HW225110   3.516   6.199   1.915
 8071SOL     OW25111   3.744   6.330   5.455
 8071SOL    HW125112   3.680   6.349   5.380
 8071SOL    HW225113   3.802   6.252   5.430
 8072SOL     OW25114   4.452   1.596   0.550
 8072SOL    HW125115   4.548   1.621   0.546
 8072SOL    HW225116   4.426   1.581   0.646
 8073SOL     OW25117   4.661   6.748   6.015
 8073SOL    HW125118   4.636   6.700   6.099
 8073SOL    HW225119   4.592   6.729   5.944
 8074SOL     OW25120   3.395   3.682   0.258
 8074SOL    HW125121   3.426   3.676   0.353
 8074SOL    HW225122   3.357   3.594   0.229
 8075SOL     OW25123   6.715   1.354   2.378
 8075SOL    HW125124   6.721   1.254   2.378
 8075SOL    HW225125   6.792   1.392   2.429
 8076SOL     OW25126   5.503   2.587   5.155
 8076SOL    HW125127   5.407   2.576   5.180
 8076SOL    HW225128   5.518   2.681   5.122
 8077SOL     OW25129   1.082   0.337   1.593
 8077SOL    HW125130   1.077   0.293   1.503
 8077SOL    HW225131   1.159   0.299   1.644
 8078SOL     OW25132   6.642   2.472   0.722
 8078SOL    HW125133   6.645   2.571   0.734
 8078SOL    HW225134   6.550   2.444   0.696
 8079SOL     OW25135   6.820   2.220   3.195
 8079SOL    HW125136   6.767   2.292   3.149
 8079SOL    HW225137   6.890   2.186   3.132
 8080SOL     OW25138   2.451   3.694   0.010
 8080SOL    HW125139   2.522   3.623   0.005
 8080SOL    HW225140   2.362   3.651   0.028
 8081SOL     OW25141   5.921   0.654   5.157
 8081SOL    HW125142   5.997   0.683   5.099
 8081SOL    HW225143   5.921   0.554   5.164
 8082SOL     OW25144   6.306   2.504   3.560
 8082SOL    HW125145   6.342   2.555   3.639
 8082SOL    HW225146   6.260   2.422   3.593
 8083SOL     OW25147   4.708   2.800   2.784
 8083SOL    HW125148   4.634   2.809   2.717
 8083SOL    HW225149   4.769   2.878   2.776
 8084SOL     OW25150   6.539   6.451   1.232
 8084SOL    HW125151   6.583   6.389   1.168
 8084SOL    HW225152   6.555   6.546   1.204
 8085SOL     OW25153   5.266   0.290   0.710
 8085SOL    HW125154   5.320   0.279   0.627
 8085SOL    HW225155   5.260   0.202   0.758
 8086SOL     OW25156   3.826   0.103   4.650
 8086SOL    HW125157   3.809   0.022   4.595
 8086SOL    HW225158   3.804   0.084   4.746
 8087SOL     OW25159   2.687   2.588   1.013
 8087SOL    HW125160   2.759   2.658   1.013
 8087SOL    HW225161   2.678   2.550   0.920
 8088SOL     OW25162   5.647   0.984   2.082
 8088SOL    HW125163   5.651   0.952   1.988
 8088SOL    HW225164   5.658   1.084   2.084
 8089SOL     OW25165   5.044   2.818   0.692
 8089SOL    HW125166   5.076   2.759   0.618
 8089SOL    HW225167   5.097   2.902   0.693
 8090SOL     OW25168   5.118   1.948   6.507
 8090SOL    HW125169   5.187   1.892   6.552
 8090SOL    HW225170   5.162   2.027   6.464
 8091SOL     OW25171   3.244   4.529   6.836
 8091SOL    HW125172   3.288   4.439   6.832
 8091SOL    HW225173   3.314   4.600   6.839
 8092SOL     OW25174   1.288   0.982   4.927
 8092SOL    HW125175   1.257   1.069   4.888
 8092SOL    HW225176   1.237   0.907   4.885
 8093SOL     OW25177   5.810   5.793   1.364
 8093SOL    HW125178   5.854   5.875   1.403
 8093SOL    HW225179   5.837   5.783   1.269
 8094SOL     OW25180   1.500   4.128   6.591
 8094SOL    HW125181   1.576   4.066   6.570
 8094SOL    HW225182   1.416   4.075   6.601
 8095SOL     OW25183   5.425   3.394   4.782
 8095SOL    HW125184   5.356   3.322   4.788
 8095SOL    HW225185   5.447   3.410   4.685
 8096SOL     OW25186   3.148   5.558   1.520
 8096SOL    HW125187   3.055   5.521   1.526
 8096SOL    HW225188   3.187   5.563   1.612
 8097SOL     OW25189   5.237   1.128   3.695
 8097SOL    HW125190   5.304   1.198   3.719
 8097SOL    HW225191   5.179   1.162   3.621
 8098SOL     OW25192   2.967   6.013   4.187
 8098SOL    HW125193   2.896   5.996   4.255
 8098SOL    HW225194   2.933   5.989   4.096
 8099SOL     OW25195   5.213   6.273   4.733
 8099SOL    HW125196   5.299   6.299   4.689
 8099SOL    HW225197   5.169   6.353   4.773
 8100SOL     OW25198   6.985   6.878   0.396
 8100SOL    HW125199   6.978   6.787   0.436
 8100SOL    HW225200   6.940   6.879   0.307
 8101SOL     OW25201   1.606   6.593   3.932
 8101SOL    HW125202   1.600   6.539   3.848
 8101SOL    HW225203   1.514   6.622   3.959
 8102SOL     OW25204   0.184   5.322   5.994
 8102SOL    HW125205   0.256   5.360   6.053
 8102SOL    HW225206   0.142   5.243   6.039
 8103SOL     OW25207   3.690   1.843   2.031
 8103SOL    HW125208   3.776   1.856   2.082
 8103SOL    HW225209   3.659   1.748   2.044
 8104SOL     OW25210   2.914   6.866   5.674
 8104SOL    HW125211   2.965   6.952   5.674
 8104SOL    HW225212   2.878   6.849   5.766
 8105SOL     OW25213   2.396   2.189   3.543
 8105SOL    HW125214   2.302   2.157   3.537
 8105SOL    HW225215   2.401   2.265   3.607
 8106SOL     OW25216   1.079   4.139   3.805
 8106SOL    HW125217   1.036   4.202   3.870
 8106SOL    HW225218   1.111   4.058   3.854
 8107SOL     OW25219   2.071   6.323   5.948
 8107SOL    HW125220   2.081   6.412   5.992
 8107SOL    HW225221   2.160   6.278   5.942
 8108SOL     OW25222   0.372   3.901   4.671
 8108SOL    HW125223   0.303   3.915   4.741
 8108SOL    HW225224   0.380   3.984   4.614
 8109SOL     OW25225   1.766   4.569   5.148
 8109SOL    HW125226   1.776   4.652   5.204
 8109SOL    HW225227   1.689   4.581   5.085
 8110SOL     OW25228   2.003   6.316   0.724
 8110SOL    HW125229   1.995   6.226   0.680
 8110SOL    HW225230   1.949   6.317   0.808
 8111SOL     OW25231   2.863   5.964   4.850
 8111SOL    HW125232   2.838   5.874   4.888
 8111SOL    HW225233   2.909   5.951   4.762
 8112SOL     OW25234   2.553   0.459   5.629
 8112SOL    HW125235   2.627   0.396   5.651
 8112SOL    HW225236   2.569   0.499   5.538
 8113SOL     OW25237   3.686   2.450   0.144
 8113SOL    HW125238   3.635   2.364   0.142
 8113SOL    HW225239   3.668   2.502   0.061
 8114SOL     OW25240   2.195   2.897   2.636
 8114SOL    HW125241   2.096   2.903   2.617
 8114SOL    HW225242   2.227   2.806   2.610
 8115SOL     OW25243   3.268   1.455   1.313
 8115SOL    HW125244   3.318   1.371   1.335
 8115SOL    HW225245   3.178   1.432   1.278
 8116SOL     OW25246   6.047   6.862   5.007
 8116SOL    HW125247   5.959   6.910   5.018
 8116SOL    HW225248   6.076   6.828   5.096
 8117SOL     OW25249   1.326   1.493   4.970
 8117SOL    HW125250   1.348   1.488   5.068
 8117SOL    HW225251   1.228   1.508   4.959
 8118SOL     OW25252   1.295   4.114   5.639
 8118SOL    HW125253   1.358   4.103   5.715
 8118SOL    HW225254   1.316   4.046   5.568
 8119SOL     OW25255   0.742   5.850   3.213
 8119SOL    HW125256   0.693   5.816   3.293
 8119SOL    HW225257   0.679   5.855   3.136
 8120SOL     OW25258   4.006   4.667   0.884
 8120SOL    HW125259   4.059   4.679   0.799
 8120SOL    HW225260   4.069   4.663   0.961
 8121SOL     OW25261   0.071   0.162   2.764
 8121SOL    HW125262   0.152   0.161   2.823
 8121SOL    HW225263   0.001   0.221   2.805
 8122SOL     OW25264   0.192   6.231   1.760
 8122SOL    HW125265   0.182   6.310   1.699
 8122SOL    HW225266   0.105   6.213   1.805
 8123SOL     OW25267   1.452   6.717   6.347
 8123SOL    HW125268   1.504   6.774   6.284
 8123SOL    HW225269   1.391   6.775   6.402
 8124SOL     OW25270   1.547   5.491   1.720
 8124SOL    HW125271   1.471   5.505   1.656
 8124SOL    HW225272   1.594   5.406   1.698
 8125SOL     OW25273   5.959   4.361   3.067
 8125SOL    HW125274   5.919   4.373   2.977
 8125SOL    HW225275   5.886   4.343   3.134
 8126SOL     OW25276   5.849   4.372   2.800
 8126SOL    HW125277   5.900   4.375   2.714
 8126SOL    HW225278   5.769   4.432   2.793
 8127SOL     OW25279   2.053   5.063   0.205
 8127SOL    HW125280   1.961   5.025   0.218
 8127SOL    HW225281   2.055   5.116   0.120
 8128SOL     OW25282   3.167   2.988   5.858
 8128SOL    HW125283   3.262   2.978   5.828
 8128SOL    HW225284   3.139   2.906   5.908
 8129SOL     OW25285   5.823   0.850   6.725
 8129SOL    HW125286   5.851   0.817   6.635
 8129SOL    HW225287   5.776   0.938   6.715
 8130SOL     OW25288   1.146   5.348   6.813
 8130SOL    HW125289   1.144   5.297   6.726
 8130SOL    HW225290   1.120   5.443   6.796
 8131SOL     OW25291   3.179   0.346   0.455
 8131SOL    HW125292   3.166   0.268   0.394
 8131SOL    HW225293   3.264   0.393   0.431
 8132SOL     OW25294   5.752   5.307   4.314
 8132SOL    HW125295   5.664   5.275   4.350
 8132SOL    HW225296   5.825   5.249   4.348
 8133SOL     OW25297   2.713   5.283   3.393
 8133SOL    HW125298   2.796   5.294   3.447
 8133SOL    HW225299   2.658   5.367   3.399
 8134SOL     OW25300   2.073   2.571   3.884
 8134SOL    HW125301   2.173   2.579   3.876
 8134SOL    HW225302   2.050   2.528   3.971
 8135SOL     OW25303   3.864   5.415   2.622
 8135SOL    HW125304   3.786   5.380   2.674
 8135SOL    HW225305   3.858   5.515   2.617
 8136SOL     OW25306   4.089   5.722   2.705
 8136SOL    HW125307   4.031   5.646   2.735
 8136SOL    HW225308   4.152   5.690   2.634
 8137SOL     OW25309   2.182   3.918   4.837
 8137SOL    HW125310   2.086   3.946   4.841
 8137SOL    HW225311   2.233   3.965   4.909
 8138SOL     OW25312   5.557   1.728   2.730
 8138SOL    HW125313   5.569   1.656   2.800
 8138SOL    HW225314   5.485   1.700   2.666
 8139SOL     OW25315   1.914   3.093   3.084
 8139SOL    HW125316   1.991   3.155   3.078
 8139SOL    HW225317   1.870   3.103   3.174
 8140SOL     OW25318   5.214   0.562   0.091
 8140SOL    HW125319   5.235   0.478   0.041
 8140SOL    HW225320   5.300   0.607   0.117
 8141SOL     OW25321   4.694   1.691   6.014
 8141SOL    HW125322   4.791   1.665   6.012
 8141SOL    HW225323   4.653   1.675   5.924
 8142SOL     OW25324   1.870   5.985   0.156
 8142SOL    HW125325   1.943   5.919   0.175
 8142SOL    HW225326   1.911   6.073   0.132
 8143SOL     OW25327   5.331   4.630   0.888
 8143SOL    HW125328   5.357   4.722   0.918
 8143SOL    HW225329   5.261   4.594   0.949
 8144SOL     OW25330   0.014   4.894   5.974
 8144SOL    HW125331   0.082   4.858   6.039
 8144SOL    HW225332   0.028   4.851   5.885
 8145SOL     OW25333   5.921   5.835   6.950
 8145SOL    HW125334   5.952   5.810   0.020
 8145SOL    HW225335   5.902   5.933   6.947
 8146SOL     OW25336   5.888   0.344   4.551
 8146SOL    HW125337   5.967   0.289   4.522
 8146SOL    HW225338   5.900   0.438   4.519
 8147SOL     OW25339   0.877   0.901   5.872
 8147SOL    HW125340   0.969   0.864   5.883
 8147SOL    HW225341   0.821   0.877   5.951
 8148SOL     OW25342   4.103   4.764   0.069
 8148SOL    HW125343   4.142   4.851   0.040
 8148SOL    HW225344   4.078   4.769   0.166
 8149SOL     OW25345   1.405   6.716   4.226
 8149SOL    HW125346   1.474   6.785   4.245
 8149SOL    HW225347   1.439   6.626   4.253
 8150SOL     OW25348   1.245   3.049   0.537
 8150SOL    HW125349   1.153   3.078   0.567
 8150SOL    HW225350   1.269   2.963   0.583
 8151SOL     OW25351   6.538   4.499   4.149
 8151SOL    HW125352   6.519   4.585   4.101
 8151SOL    HW225353   6.495   4.423   4.100
 8152SOL     OW25354   4.699   2.289   3.418
 8152SOL    HW125355   4.760   2.291   3.339
 8152SOL    HW225356   4.720   2.210   3.475
 8153SOL     OW25357   0.254   1.552   3.943
 8153SOL    HW125358   0.248   1.550   3.843
 8153SOL    HW225359   0.165   1.576   3.981
 8154SOL     OW25360   2.326   1.761   3.530
 8154SOL    HW125361   2.322   1.719   3.620
 8154SOL    HW225362   2.412   1.811   3.520
 8155SOL     OW25363   1.579   4.744   1.692
 8155SOL    HW125364   1.550   4.760   1.787
 8155SOL    HW225365   1.562   4.649   1.668
 8156SOL     OW25366   5.807   4.876   2.161
 8156SOL    HW125367   5.709   4.873   2.143
 8156SOL    HW225368   5.849   4.946   2.103
 8157SOL     OW25369   6.927   2.884   6.643
 8157SOL    HW125370   6.871   2.809   6.608
 8157SOL    HW225371   7.000   2.904   6.577
 8158SOL     OW25372   5.574   4.645   6.143
 8158SOL    HW125373   5.622   4.714   6.089
 8158SOL    HW225374   5.489   4.683   6.179
 8159SOL     OW25375   3.433   5.758   5.806
 8159SOL    HW125376   3.447   5.857   5.811
 8159SOL    HW225377   3.522   5.712   5.808
 8160SOL     OW25378   4.863   1.125   3.343
 8160SOL    HW125379   4.766   1.113   3.363
 8160SOL    HW225380   4.888   1.071   3.262
 8161SOL     OW25381   6.023   3.122   0.881
 8161SOL    HW125382   6.098   3.098   0.818
 8161SOL    HW225383   5.947   3.058   0.868
 8162SOL     OW25384   0.316   5.088   6.559
 8162SOL    HW125385   0.291   4.997   6.591
 8162SOL    HW225386   0.310   5.152   6.636
 8163SOL     OW25387   4.553   4.681   5.159
 8163SOL    HW125388   4.622   4.743   5.197
 8163SOL    HW225389   4.588   4.588   5.157
 8164SOL     OW25390   5.844   1.239   0.323
 8164SOL    HW125391   5.908   1.187   0.380
 8164SOL    HW225392   5.751   1.206   0.340
 8165SOL     OW25393   6.825   2.117   6.217
 8165SOL    HW125394   6.893   2.190   6.206
 8165SOL    HW225395   6.745   2.154   6.265
 8166SOL     OW25396   1.600   2.280   4.470
 8166SOL    HW125397   1.530   2.244   4.408
 8166SOL    HW225398   1.608   2.221   4.550
 8167SOL     OW25399   6.591   1.681   4.372
 8167SOL    HW125400   6.513   1.647   4.319
 8167SOL    HW225401   6.563   1.701   4.466
 8168SOL     OW25402   2.482   0.665   1.387
 8168SOL    HW125403   2.489   0.575   1.430
 8168SOL    HW225404   2.508   0.657   1.290
 8169SOL     OW25405   5.242   2.125   0.708
 8169SOL    HW125406   5.225   2.157   0.801
 8169SOL    HW225407   5.292   2.039   0.711
 8170SOL     OW25408   6.423   4.319   2.232
 8170SOL    HW125409   6.432   4.347   2.328
 8170SOL    HW225410   6.512   4.288   2.198
 8171SOL     OW25411   1.846   1.172   0.249
 8171SOL    HW125412   1.935   1.175   0.295
 8171SOL    HW225413   1.786   1.243   0.285
 8172SOL     OW25414   0.785   2.684   1.804
 8172SOL    HW125415   0.687   2.667   1.815
 8172SOL    HW225416   0.827   2.698   1.894
 8173SOL     OW25417   5.503   2.304   1.884
 8173SOL    HW125418   5.461   2.338   1.968
 8173SOL    HW225419   5.437   2.307   1.809
 8174SOL     OW25420   1.979   5.462   2.566
 8174SOL    HW125421   1.913   5.416   2.625
 8174SOL    HW225422   2.013   5.544   2.612
 8175SOL     OW25423   0.415   2.597   4.503
 8175SOL    HW125424   0.484   2.531   4.533
 8175SOL    HW225425   0.325   2.570   4.539
 8176SOL     OW25426   1.498   4.606   0.972
 8176SOL    HW125427   1.495   4.511   1.003
 8176SOL    HW225428   1.548   4.611   0.886
 8177SOL     OW25429   3.588   1.622   2.734
 8177SOL    HW125430   3.671   1.588   2.690
 8177SOL    HW225431   3.601   1.622   2.833
 8178SOL     OW25432   2.209   6.398   1.356
 8178SOL    HW125433   2.231   6.477   1.413
 8178SOL    HW225434   2.110   6.382   1.358
 8179SOL     OW25435   5.603   0.925   3.724
 8179SOL    HW125436   5.577   0.829   3.709
 8179SOL    HW225437   5.595   0.947   3.821
 8180SOL     OW25438   5.525   6.808   6.962
 8180SOL    HW125439   5.488   6.812   0.033
 8180SOL    HW225440   5.457   6.845   6.898
 8181SOL     OW25441   0.908   1.395   1.208
 8181SOL    HW125442   0.976   1.467   1.226
 8181SOL    HW225443   0.928   1.350   1.121
 8182SOL     OW25444   3.228   3.570   4.718
 8182SOL    HW125445   3.144   3.516   4.718
 8182SOL    HW225446   3.287   3.540   4.793
 8183SOL     OW25447   6.241   0.433   4.818
 8183SOL    HW125448   6.184   0.355   4.792
 8183SOL    HW225449   6.270   0.423   4.913
 8184SOL     OW25450   0.900   6.905   0.112
 8184SOL    HW125451   0.998   6.910   0.091
 8184SOL    HW225452   0.882   6.823   0.166
 8185SOL     OW25453   1.059   0.361   0.667
 8185SOL    HW125454   1.033   0.436   0.727
 8185SOL    HW225455   1.011   0.370   0.579
 8186SOL     OW25456   1.066   4.894   6.350
 8186SOL    HW125457   1.080   4.856   6.441
 8186SOL    HW225458   1.154   4.927   6.314
 8187SOL     OW25459   1.387   1.564   5.240
 8187SOL    HW125460   1.335   1.637   5.285
 8187SOL    HW225461   1.417   1.497   5.307
 8188SOL     OW25462   3.593   2.150   3.863
 8188SOL    HW125463   3.583   2.091   3.783
 8188SOL    HW225464   3.508   2.150   3.916
 8189SOL     OW25465   4.754   4.803   3.787
 8189SOL    HW125466   4.662   4.762   3.780
 8189SOL    HW225467   4.810   4.773   3.709
 8190SOL     OW25468   5.433   3.244   2.938
 8190SOL    HW125469   5.425   3.194   2.852
 8190SOL    HW225470   5.510   3.308   2.933
 8191SOL     OW25471   4.263   5.157   1.817
 8191SOL    HW125472   4.262   5.252   1.849
 8191SOL    HW225473   4.319   5.102   1.878
 8192SOL     OW25474   1.821   5.048   3.339
 8192SOL    HW125475   1.725   5.048   3.369
 8192SOL    HW225476   1.868   4.970   3.380
 8193SOL     OW25477   6.848   5.036   5.358
 8193SOL    HW125478   6.861   4.952   5.411
 8193SOL    HW225479   6.752   5.043   5.331
 8194SOL     OW25480   4.394   6.722   1.724
 8194SOL    HW125481   4.342   6.790   1.775
 8194SOL    HW225482   4.416   6.757   1.633
 8195SOL     OW25483   5.624   0.104   3.580
 8195SOL    HW125484   5.560   0.046   3.630
 8195SOL    HW225485   5.716   0.064   3.586
 8196SOL     OW25486   4.684   0.466   6.891
 8196SOL    HW125487   4.782   0.453   6.881
 8196SOL    HW225488   4.646   0.393   6.947
 8197SOL     OW25489   4.964   1.552   1.400
 8197SOL    HW125490   5.026   1.615   1.448
 8197SOL    HW225491   4.876   1.548   1.448
 8198SOL     OW25492   2.426   6.800   1.711
 8198SOL    HW125493   2.428   6.704   1.683
 8198SOL    HW225494   2.347   6.816   1.771
 8199SOL     OW25495   5.238   2.816   6.044
 8199SOL    HW125496   5.142   2.837   6.062
 8199SOL    HW225497   5.244   2.731   5.991
 8200SOL     OW25498   5.447   3.685   0.991
 8200SOL    HW125499   5.410   3.617   0.928
 8200SOL    HW225500   5.413   3.776   0.967
 8201SOL     OW25501   0.114   0.359   5.345
 8201SOL    HW125502   0.148   0.411   5.267
 8201SOL    HW225503   0.092   0.422   5.420
 8202SOL     OW25504   0.127   6.383   2.063
 8202SOL    HW125505   0.220   6.411   2.039
 8202SOL    HW225506   0.112   6.289   2.032
 8203SOL     OW25507   1.838   3.070   0.511
 8203SOL    HW125508   1.868   2.975   0.505
 8203SOL    HW225509   1.771   3.079   0.584
 8204SOL     OW25510   4.597   3.472   1.171
 8204SOL    HW125511   4.525   3.527   1.126
 8204SOL    HW225512   4.685   3.494   1.130
 8205SOL     OW25513   0.768   2.782   0.419
 8205SOL    HW125514   0.834   2.711   0.444
 8205SOL    HW225515   0.715   2.753   0.340
 8206SOL     OW25516   3.921   1.515   0.095
 8206SOL    HW125517   3.839   1.524   0.152
 8206SOL    HW225518   3.966   1.604   0.087
 8207SOL     OW25519   3.507   3.000   4.169
 8207SOL    HW125520   3.409   2.981   4.178
 8207SOL    HW225521   3.555   2.971   4.251
 8208SOL     OW25522   0.967   0.959   0.798
 8208SOL    HW125523   1.053   0.987   0.754
 8208SOL    HW225524   0.892   1.013   0.761
 8209SOL     OW25525   6.277   0.967   5.246
 8209SOL    HW125526   6.321   0.968   5.336
 8209SOL    HW225527   6.183   0.998   5.254
 8210SOL     OW25528   2.022   2.859   0.238
 8210SOL    HW125529   2.090   2.860   0.312
 8210SOL    HW225530   1.976   2.770   0.236
 8211SOL     OW25531   3.244   3.687   1.264
 8211SOL    HW125532   3.217   3.701   1.359
 8211SOL    HW225533   3.207   3.600   1.231
 8212SOL     OW25534   1.637   2.339   3.020
 8212SOL    HW125535   1.624   2.241   3.031
 8212SOL    HW225536   1.563   2.388   3.066
 8213SOL     OW25537   0.673   5.109   1.483
 8213SOL    HW125538   0.704   5.177   1.549
 8213SOL    HW225539   0.748   5.047   1.460
 8214SOL     OW25540   5.453   4.437   3.622
 8214SOL    HW125541   5.387   4.362   3.618
 8214SOL    HW225542   5.476   4.466   3.529
 8215SOL     OW25543   3.614   5.115   4.678
 8215SOL    HW125544   3.681   5.078   4.742
 8215SOL    HW225545   3.526   5.125   4.725
 8216SOL     OW25546   5.325   4.496   3.942
 8216SOL    HW125547   5.305   4.407   3.901
 8216SOL    HW225548   5.287   4.568   3.884
 8217SOL     OW25549   1.771   5.523   0.640
 8217SOL    HW125550   1.803   5.594   0.702
 8217SOL    HW225551   1.799   5.545   0.546
 8218SOL     OW25552   0.716   1.788   6.953
 8218SOL    HW125553   0.737   1.740   0.016
 8218SOL    HW225554   0.617   1.801   6.946
 8219SOL     OW25555   4.525   1.977   0.095
 8219SOL    HW125556   4.497   1.997   0.001
 8219SOL    HW225557   4.507   1.881   0.115
 8220SOL     OW25558   3.509   3.438   2.798
 8220SOL    HW125559   3.595   3.453   2.846
 8220SOL    HW225560   3.434   3.475   2.852
 8221SOL     OW25561   4.273   6.227   3.845
 8221SOL    HW125562   4.273   6.240   3.944
 8221SOL    HW225563   4.339   6.157   3.821
 8222SOL     OW25564   5.499   1.942   2.049
 8222SOL    HW125565   5.506   1.996   2.133
 8222SOL    HW225566   5.404   1.937   2.020
 8223SOL     OW25567   0.692   4.370   5.654
 8223SOL    HW125568   0.604   4.402   5.618
 8223SOL    HW225569   0.676   4.317   5.738
 8224SOL     OW25570   1.033   2.488   3.208
 8224SOL    HW125571   1.085   2.563   3.167
 8224SOL    HW225572   1.095   2.416   3.237
 8225SOL     OW25573   4.657   1.094   6.841
 8225SOL    HW125574   4.688   1.168   6.901
 8225SOL    HW225575   4.585   1.042   6.887
 8226SOL     OW25576   5.195   0.503   1.576
 8226SOL    HW125577   5.276   0.544   1.619
 8226SOL    HW225578   5.216   0.479   1.482
 8227SOL     OW25579   6.521   2.816   4.106
 8227SOL    HW125580   6.588   2.790   4.175
 8227SOL    HW225581   6.458   2.883   4.145
 8228SOL     OW25582   0.342   2.349   5.277
 8228SOL    HW125583   0.404   2.417   5.316
 8228SOL    HW225584   0.396   2.280   5.228
 8229SOL     OW25585   2.730   5.483   0.166
 8229SOL    HW125586   2.738   5.394   0.211
 8229SOL    HW225587   2.720   5.469   0.067
 8230SOL     OW25588   5.289   0.201   5.246
 8230SOL    HW125589   5.270   0.239   5.155
 8230SOL    HW225590   5.219   0.134   5.270
 8231SOL     OW25591   4.807   5.869   1.618
 8231SOL    HW125592   4.877   5.867   1.547
 8231SOL    HW225593   4.792   5.963   1.648
 8232SOL     OW25594   4.280   1.532   0.310
 8232SOL    HW125595   4.343   1.542   0.386
 8232SOL    HW225596   4.273   1.618   0.259
 8233SOL     OW25597   0.420   5.341   6.133
 8233SOL    HW125598   0.454   5.267   6.191
 8233SOL    HW225599   0.461   5.333   6.042
 8234SOL     OW25600   3.079   2.844   0.245
 8234SOL    HW125601   3.154   2.810   0.301
 8234SOL    HW225602   3.027   2.913   0.296
 8235SOL     OW25603   2.907   3.636   0.679
 8235SOL    HW125604   2.982   3.573   0.661
 8235SOL    HW225605   2.822   3.597   0.643
 8236SOL     OW25606   6.718   3.522   6.993
 8236SOL    HW125607   6.654   3.579   6.942
 8236SOL    HW225608   6.802   3.573   7.009
 8237SOL     OW25609   4.922   5.665   5.495
 8237SOL    HW125610   4.935   5.762   5.474
 8237SOL    HW225611   4.994   5.612   5.452
 8238SOL     OW25612   1.435   4.006   6.965
 8238SOL    HW125613   1.511   3.952   6.927
 8238SOL    HW225614   1.432   3.993   0.042
 8239SOL     OW25615   6.164   1.954   5.509
 8239SOL    HW125616   6.092   2.001   5.458
 8239SOL    HW225617   6.241   1.935   5.448
 8240SOL     OW25618   3.176   3.728   2.718
 8240SOL    HW125619   3.112   3.804   2.730
 8240SOL    HW225620   3.179   3.701   2.621
 8241SOL     OW25621   2.919   6.563   1.079
 8241SOL    HW125622   2.988   6.629   1.051
 8241SOL    HW225623   2.926   6.548   1.178
 8242SOL     OW25624   0.950   4.349   5.516
 8242SOL    HW125625   0.942   4.319   5.421
 8242SOL    HW225626   0.861   4.379   5.550
 8243SOL     OW25627   0.515   3.216   5.766
 8243SOL    HW125628   0.590   3.185   5.707
 8243SOL    HW225629   0.540   3.305   5.805
 8244SOL     OW25630   0.179   0.106   4.149
 8244SOL    HW125631   0.136   0.017   4.133
 8244SOL    HW225632   0.110   0.178   4.145
 8245SOL     OW25633   4.447   1.646   2.033
 8245SOL    HW125634   4.445   1.600   1.944
 8245SOL    HW225635   4.540   1.639   2.072
 8246SOL     OW25636   6.597   4.117   5.808
 8246SOL    HW125637   6.566   4.172   5.885
 8246SOL    HW225638   6.525   4.053   5.781
 8247SOL     OW25639   0.836   1.130   1.283
 8247SOL    HW125640   0.875   1.051   1.237
 8247SOL    HW225641   0.884   1.213   1.254
 8248SOL     OW25642   6.199   4.630   3.644
 8248SOL    HW125643   6.200   4.721   3.604
 8248SOL    HW225644   6.289   4.611   3.684
 8249SOL     OW25645   1.805   4.410   4.309
 8249SOL    HW125646   1.818   4.341   4.237
 8249SOL    HW225647   1.849   4.495   4.282
 8250SOL     OW25648   3.490   4.138   3.152
 8250SOL    HW125649   3.462   4.051   3.111
 8250SOL    HW225650   3.550   4.187   3.088
 8251SOL     OW25651   5.540   1.980   4.969
 8251SOL    HW125652   5.517   1.909   5.036
 8251SOL    HW225653   5.588   2.054   5.014
 8252SOL     OW25654   3.359   3.568   6.252
 8252SOL    HW125655   3.343   3.555   6.154
 8252SOL    HW225656   3.275   3.599   6.296
 8253SOL     OW25657   3.795   2.823   5.198
 8253SOL    HW125658   3.833   2.876   5.274
 8253SOL    HW225659   3.861   2.820   5.123
 8254SOL     OW25660   4.344   4.792   4.838
 8254SOL    HW125661   4.373   4.877   4.793
 8254SOL    HW225662   4.399   4.716   4.804
 8255SOL     OW25663   3.892   6.104   4.227
 8255SOL    HW125664   3.854   6.127   4.138
 8255SOL    HW225665   3.921   6.188   4.273
 8256SOL     OW25666   6.441   0.613   3.375
 8256SOL    HW125667   6.379   0.553   3.427
 8256SOL    HW225668   6.492   0.671   3.439
 8257SOL     OW25669   5.987   5.024   3.089
 8257SOL    HW125670   5.985   5.046   3.186
 8257SOL    HW225671   5.899   5.049   3.047
 8258SOL     OW25672   4.467   1.544   0.835
 8258SOL    HW125673   4.566   1.550   0.829
 8258SOL    HW225674   4.434   1.602   0.910
 8259SOL     OW25675   4.322   1.212   3.502
 8259SOL    HW125676   4.256   1.251   3.437
 8259SOL    HW225677   4.340   1.278   3.575
 8260SOL     OW25678   2.425   6.641   2.018
 8260SOL    HW125679   2.346   6.644   1.957
 8260SOL    HW225680   2.394   6.626   2.112
 8261SOL     OW25681   5.438   0.721   1.499
 8261SOL    HW125682   5.352   0.767   1.478
 8261SOL    HW225683   5.451   0.717   1.598
 8262SOL     OW25684   1.279   2.296   1.518
 8262SOL    HW125685   1.306   2.331   1.607
 8262SOL    HW225686   1.187   2.256   1.524
 8263SOL     OW25687   0.186   1.743   1.044
 8263SOL    HW125688   0.108   1.765   0.985
 8263SOL    HW225689   0.155   1.684   1.119
 8264SOL     OW25690   1.139   5.530   2.286
 8264SOL    HW125691   1.133   5.438   2.324
 8264SOL    HW225692   1.143   5.596   2.361
 8265SOL     OW25693   1.561   0.102   1.421
 8265SOL    HW125694   1.519   0.184   1.459
 8265SOL    HW225695   1.534   0.093   1.325
 8266SOL     OW25696   2.080   6.712   2.616
 8266SOL    HW125697   1.990   6.727   2.577
 8266SOL    HW225698   2.145   6.689   2.544
 8267SOL     OW25699   2.185   3.763   1.181
 8267SOL    HW125700   2.122   3.709   1.236
 8267SOL    HW225701   2.256   3.803   1.240
 8268SOL     OW25702   2.119   6.550   6.130
 8268SOL    HW125703   2.047   6.528   6.195
 8268SOL    HW225704   2.205   6.507   6.158
 8269SOL     OW25705   5.942   1.309   1.065
 8269SOL    HW125706   5.914   1.395   1.107
 8269SOL    HW225707   6.041   1.310   1.048
 8270SOL     OW25708   2.554   6.844   4.418
 8270SOL    HW125709   2.557   6.937   4.383
 8270SOL    HW225710   2.490   6.790   4.363
 8271SOL     OW25711   6.769   0.847   2.874
 8271SOL    HW125712   6.847   0.826   2.932
 8271SOL    HW225713   6.767   0.784   2.796
 8272SOL     OW25714   4.798   0.854   1.662
 8272SOL    HW125715   4.736   0.800   1.605
 8272SOL    HW225716   4.882   0.802   1.678
 8273SOL     OW25717   2.088   6.460   1.031
 8273SOL    HW125718   2.093   6.558   1.009
 8273SOL    HW225719   1.993   6.435   1.048
 8274SOL     OW25720   4.572   4.844   2.778
 8274SOL    HW125721   4.499   4.886   2.725
 8274SOL    HW225722   4.551   4.747   2.792
 8275SOL     OW25723   4.470   1.735   6.543
 8275SOL    HW125724   4.465   1.718   6.642
 8275SOL    HW225725   4.378   1.735   6.505
 8276SOL     OW25726   1.037   1.698   3.886
 8276SOL    HW125727   0.940   1.695   3.860
 8276SOL    HW225728   1.085   1.763   3.827
 8277SOL     OW25729   0.206   0.665   6.367
 8277SOL    HW125730   0.298   0.639   6.397
 8277SOL    HW225731   0.197   0.764   6.369
 8278SOL     OW25732   2.430   2.081   6.767
 8278SOL    HW125733   2.423   1.989   6.806
 8278SOL    HW225734   2.372   2.087   6.685
 8279SOL     OW25735   0.622   6.504   4.542
 8279SOL    HW125736   0.687   6.433   4.515
 8279SOL    HW225737   0.639   6.587   4.490
 8280SOL     OW25738   2.699   3.247   6.919
 8280SOL    HW125739   2.601   3.241   6.900
 8280SOL    HW225740   2.740   3.316   6.859
 8281SOL     OW25741   0.766   5.530   1.529
 8281SOL    HW125742   0.744   5.540   1.626
 8281SOL    HW225743   0.797   5.437   1.511
 8282SOL     OW25744   5.803   2.949   6.444
 8282SOL    HW125745   5.859   2.953   6.527
 8282SOL    HW225746   5.806   2.856   6.406
 8283SOL     OW25747   1.262   4.555   6.474
 8283SOL    HW125748   1.197   4.483   6.498
 8283SOL    HW225749   1.355   4.519   6.481
 8284SOL     OW25750   0.516   4.205   1.785
 8284SOL    HW125751   0.506   4.265   1.706
 8284SOL    HW225752   0.425   4.184   1.823
 8285SOL     OW25753   3.878   3.021   4.973
 8285SOL    HW125754   3.861   3.119   4.983
 8285SOL    HW225755   3.975   3.001   4.990
 8286SOL     OW25756   5.474   2.674   6.143
 8286SOL    HW125757   5.528   2.604   6.191
 8286SOL    HW225758   5.420   2.631   6.071
 8287SOL     OW25759   1.364   5.715   4.772
 8287SOL    HW125760   1.343   5.788   4.707
 8287SOL    HW225761   1.282   5.659   4.787
 8288SOL     OW25762   2.736   2.403   3.210
 8288SOL    HW125763   2.703   2.491   3.176
 8288SOL    HW225764   2.791   2.358   3.140
 8289SOL     OW25765   0.573   6.931   1.049
 8289SOL    HW125766   0.473   6.927   1.052
 8289SOL    HW225767   0.604   7.018   1.087
 8290SOL     OW25768   6.483   1.381   0.133
 8290SOL    HW125769   6.519   1.373   0.226
 8290SOL    HW225770   6.536   1.323   0.071
 8291SOL     OW25771   5.149   0.084   6.836
 8291SOL    HW125772   5.055   0.052   6.826
 8291SOL    HW225773   5.212   0.013   6.802
 8292SOL     OW25774   2.667   6.323   0.343
 8292SOL    HW125775   2.717   6.243   0.310
 8292SOL    HW225776   2.699   6.405   0.296
 8293SOL     OW25777   3.951   6.585   0.025
 8293SOL    HW125778   3.975   6.517   6.977
 8293SOL    HW225779   3.901   6.660   7.004
 8294SOL     OW25780   5.664   3.631   5.635
 8294SOL    HW125781   5.647   3.578   5.718
 8294SOL    HW225782   5.731   3.703   5.654
 8295SOL     OW25783   5.614   4.847   1.826
 8295SOL    HW125784   5.580   4.853   1.919
 8295SOL    HW225785   5.642   4.753   1.806
 8296SOL     OW25786   1.482   6.672   5.904
 8296SOL    HW125787   1.504   6.575   5.907
 8296SOL    HW225788   1.412   6.693   5.973
 8297SOL     OW25789   6.109   2.571   3.188
 8297SOL    HW125790   6.037   2.521   3.139
 8297SOL    HW225791   6.159   2.508   3.247
 8298SOL     OW25792   5.767   1.346   1.397
 8298SOL    HW125793   5.805   1.414   1.460
 8298SOL    HW225794   5.783   1.376   1.303
 8299SOL     OW25795   0.361   2.440   1.926
 8299SOL    HW125796   0.436   2.498   1.894
 8299SOL    HW225797   0.279   2.459   1.872
 8300SOL     OW25798   0.463   5.269   5.529
 8300SOL    HW125799   0.493   5.304   5.440
 8300SOL    HW225800   0.543   5.250   5.586
 8301SOL     OW25801   4.164   1.798   1.717
 8301SOL    HW125802   4.070   1.825   1.698
 8301SOL    HW225803   4.223   1.824   1.641
 8302SOL     OW25804   6.203   5.873   6.091
 8302SOL    HW125805   6.107   5.865   6.062
 8302SOL    HW225806   6.219   5.965   6.127
 8303SOL     OW25807   7.015   0.303   4.184
 8303SOL    HW125808   0.059   0.377   4.198
 8303SOL    HW225809   6.923   0.335   4.207
 8304SOL     OW25810   1.451   3.770   6.806
 8304SOL    HW125811   1.545   3.764   6.771
 8304SOL    HW225812   1.406   3.851   6.769
 8305SOL     OW25813   3.577   5.130   4.183
 8305SOL    HW125814   3.553   5.106   4.277
 8305SOL    HW225815   3.659   5.187   4.183
 8306SOL     OW25816   0.262   3.284   4.853
 8306SOL    HW125817   0.208   3.201   4.865
 8306SOL    HW225818   0.285   3.295   4.756
 8307SOL     OW25819   3.983   5.225   1.969
 8307SOL    HW125820   3.985   5.242   2.068
 8307SOL    HW225821   3.905   5.274   1.929
 8308SOL     OW25822   4.455   6.507   1.446
 8308SOL    HW125823   4.498   6.541   1.362
 8308SOL    HW225824   4.516   6.523   1.524
 8309SOL     OW25825   5.611   5.423   3.205
 8309SOL    HW125826   5.652   5.366   3.276
 8309SOL    HW225827   5.561   5.365   3.141
 8310SOL     OW25828   0.889   4.633   0.617
 8310SOL    HW125829   0.802   4.597   0.651
 8310SOL    HW225830   0.931   4.567   0.555
 8311SOL     OW25831   0.316   1.173   5.872
 8311SOL    HW125832   0.375   1.202   5.947
 8311SOL    HW225833   0.293   1.076   5.883
 8312SOL     OW25834   5.050   6.285   1.468
 8312SOL    HW125835   4.956   6.254   1.482
 8312SOL    HW225836   5.079   6.341   1.545
 8313SOL     OW25837   4.070   1.728   2.392
 8313SOL    HW125838   4.070   1.676   2.477
 8313SOL    HW225839   4.147   1.791   2.391
 8314SOL     OW25840   5.090   6.429   0.843
 8314SOL    HW125841   5.150   6.494   0.796
 8314SOL    HW225842   4.998   6.435   0.804
 8315SOL     OW25843   3.886   2.767   0.831
 8315SOL    HW125844   3.897   2.687   0.890
 8315SOL    HW225845   3.847   2.739   0.744
 8316SOL     OW25846   0.422   3.147   1.366
 8316SOL    HW125847   0.466   3.080   1.306
 8316SOL    HW225848   0.329   3.117   1.386
 8317SOL     OW25849   2.074   3.126   2.391
 8317SOL    HW125850   2.122   3.050   2.348
 8317SOL    HW225851   2.084   3.208   2.334
 8318SOL     OW25852   4.733   2.158   4.807
 8318SOL    HW125853   4.816   2.158   4.862
 8318SOL    HW225854   4.725   2.070   4.759
 8319SOL     OW25855   3.050   2.225   5.828
 8319SOL    HW125856   3.112   2.170   5.773
 8319SOL    HW225857   2.955   2.203   5.805
 8320SOL     OW25858   3.555   4.845   1.018
 8320SOL    HW125859   3.556   4.931   1.069
 8320SOL    HW225860   3.643   4.832   0.972
 8321SOL     OW25861   0.451   1.133   6.227
 8321SOL    HW125862   0.388   1.060   6.201
 8321SOL    HW225863   0.534   1.127   6.172
 8322SOL     OW25864   6.936   0.219   0.203
 8322SOL    HW125865   6.920   0.318   0.193
 8322SOL    HW225866   7.000   0.188   0.133
 8323SOL     OW25867   6.998   6.976   2.500
 8323SOL    HW125868   0.055   0.008   2.472
 8323SOL    HW225869   0.001   6.879   2.505
 8324SOL     OW25870   6.573   0.224   2.476
 8324SOL    HW125871   6.665   0.185   2.484
 8324SOL    HW225872   6.553   0.279   2.557
 8325SOL     OW25873   3.645   2.911   4.386
 8325SOL    HW125874   3.743   2.896   4.400
 8325SOL    HW225875   3.599   2.912   4.475
 8326SOL     OW25876   4.233   3.177   5.346
 8326SOL    HW125877   4.297   3.251   5.369
 8326SOL    HW225878   4.139   3.210   5.358
 8327SOL     OW25879   4.811   2.262   5.731
 8327SOL    HW125880   4.751   2.185   5.751
 8327SOL    HW225881   4.778   2.311   5.651
 8328SOL     OW25882   2.606   3.905   6.053
 8328SOL    HW125883   2.523   3.941   6.096
 8328SOL    HW225884   2.681   3.907   6.119
 8329SOL     OW25885   0.259   3.183   5.406
 8329SOL    HW125886   0.288   3.166   5.312
 8329SOL    HW225887   0.264   3.098   5.459
 8330SOL     OW25888   1.893   0.403   0.456
 8330SOL    HW125889   1.863   0.474   0.520
 8330SOL    HW225890   1.991   0.413   0.440
 8331SOL     OW25891   3.053   0.009   1.024
 8331SOL    HW125892   3.132   0.068   1.042
 8331SOL    HW225893   2.977   0.036   1.083
 8332SOL     OW25894   4.451   5.186   2.558
 8332SOL    HW125895   4.472   5.113   2.492
 8332SOL    HW225896   4.352   5.191   2.572
 8333SOL     OW25897   0.307   6.069   0.012
 8333SOL    HW125898   0.250   6.101   0.088
 8333SOL    HW225899   0.250   6.060   6.952
 8334SOL     OW25900   5.843   1.361   3.984
 8334SOL    HW125901   5.924   1.345   3.927
 8334SOL    HW225902   5.761   1.356   3.928
 8335SOL     OW25903   6.358   5.394   5.719
 8335SOL    HW125904   6.258   5.389   5.728
 8335SOL    HW225905   6.400   5.370   5.807
 8336SOL     OW25906   6.986   1.081   2.565
 8336SOL    HW125907   6.893   1.078   2.529
 8336SOL    HW225908   0.006   0.990   2.556
 8337SOL     OW25909   0.427   6.808   3.832
 8337SOL    HW125910   0.422   6.904   3.804
 8337SOL    HW225911   0.496   6.761   3.777
 8338SOL     OW25912   2.240   4.771   1.834
 8338SOL    HW125913   2.330   4.805   1.859
 8338SOL    HW225914   2.205   4.711   1.906
 8339SOL     OW25915   6.078   1.331   1.894
 8339SOL    HW125916   6.032   1.397   1.953
 8339SOL    HW225917   6.176   1.349   1.893
 8340SOL     OW25918   5.037   3.674   1.005
 8340SOL    HW125919   5.013   3.766   0.972
 8340SOL    HW225920   5.055   3.614   0.928
 8341SOL     OW25921   2.338   6.117   0.179
 8341SOL    HW125922   2.339   6.088   0.275
 8341SOL    HW225923   2.390   6.053   0.124
 8342SOL     OW25924   3.530   6.525   1.824
 8342SOL    HW125925   3.616   6.494   1.783
 8342SOL    HW225926   3.463   6.543   1.752
 8343SOL     OW25927   1.654   5.123   6.052
 8343SOL    HW125928   1.673   5.060   6.127
 8343SOL    HW225929   1.572   5.177   6.074
 8344SOL     OW25930   4.665   6.414   5.849
 8344SOL    HW125931   4.664   6.430   5.947
 8344SOL    HW225932   4.729   6.339   5.829
 8345SOL     OW25933   5.432   1.636   3.392
 8345SOL    HW125934   5.362   1.594   3.450
 8345SOL    HW225935   5.388   1.701   3.330
 8346SOL     OW25936   2.396   4.811   0.210
 8346SOL    HW125937   2.426   4.736   0.268
 8346SOL    HW225938   2.427   4.795   0.116
 8347SOL     OW25939   2.901   6.949   4.920
 8347SOL    HW125940   2.996   6.932   4.948
 8347SOL    HW225941   2.895   6.946   4.820
 8348SOL     OW25942   1.843   0.098   1.500
 8348SOL    HW125943   1.882   0.081   1.409
 8348SOL    HW225944   1.744   0.112   1.491
 8349SOL     OW25945   5.777   3.840   0.846
 8349SOL    HW125946   5.819   3.777   0.912
 8349SOL    HW225947   5.790   3.934   0.876
 8350SOL     OW25948   5.370   0.570   5.031
 8350SOL    HW125949   5.467   0.564   5.052
 8350SOL    HW225950   5.357   0.575   4.932
 8351SOL     OW25951   3.823   5.019   4.877
 8351SOL    HW125952   3.904   4.963   4.863
 8351SOL    HW225953   3.850   5.109   4.911
 8352SOL     OW25954   6.810   0.229   1.991
 8352SOL    HW125955   6.906   0.206   1.971
 8352SOL    HW225956   6.799   0.247   2.088
 8353SOL     OW25957   5.296   3.551   2.328
 8353SOL    HW125958   5.299   3.649   2.309
 8353SOL    HW225959   5.362   3.529   2.401
 8354SOL     OW25960   3.390   1.236   6.803
 8354SOL    HW125961   3.311   1.294   6.824
 8354SOL    HW225962   3.460   1.248   6.873
 8355SOL     OW25963   2.778   0.941   6.688
 8355SOL    HW125964   2.784   0.897   6.598
 8355SOL    HW225965   2.683   0.939   6.719
 8356SOL     OW25966   0.873   6.366   0.643
 8356SOL    HW125967   0.970   6.388   0.634
 8356SOL    HW225968   0.838   6.406   0.728
 8357SOL     OW25969   3.959   5.960   5.863
 8357SOL    HW125970   3.867   5.935   5.894
 8357SOL    HW225971   4.026   5.922   5.927
 8358SOL     OW25972   2.010   2.807   5.433
 8358SOL    HW125973   2.063   2.746   5.491
 8358SOL    HW225974   2.069   2.880   5.398
 8359SOL     OW25975   3.621   5.961   4.420
 8359SOL    HW125976   3.635   5.932   4.325
 8359SOL    HW225977   3.655   5.890   4.482
 8360SOL     OW25978   3.382   6.906   2.564
 8360SOL    HW125979   3.455   6.839   2.550
 8360SOL    HW225980   3.295   6.858   2.573
 8361SOL     OW25981   1.478   1.101   1.919
 8361SOL    HW125982   1.528   1.115   2.004
 8361SOL    HW225983   1.530   1.139   1.843
 8362SOL     OW25984   2.829   2.375   0.257
 8362SOL    HW125985   2.906   2.432   0.228
 8362SOL    HW225986   2.761   2.370   0.183
 8363SOL     OW25987   1.079   2.581   0.398
 8363SOL    HW125988   1.158   2.575   0.336
 8363SOL    HW225989   1.002   2.530   0.359
 8364SOL     OW25990   0.543   3.340   2.713
 8364SOL    HW125991   0.585   3.355   2.623
 8364SOL    HW225992   0.479   3.415   2.732
 8365SOL     OW25993   1.335   4.271   1.263
 8365SOL    HW125994   1.405   4.321   1.314
 8365SOL    HW225995   1.378   4.194   1.215
 8366SOL     OW25996   4.469   5.915   2.275
 8366SOL    HW125997   4.382   5.951   2.241
 8366SOL    HW225998   4.501   5.843   2.214
 8367SOL     OW25999   4.266   6.218   4.126
 8367SOL    HW126000   4.329   6.274   4.179
 8367SOL    HW226001   4.291   6.122   4.134
 8368SOL     OW26002   2.838   6.006   6.330
 8368SOL    HW126003   2.933   5.995   6.302
 8368SOL    HW226004   2.784   6.038   6.252
 8369SOL     OW26005   1.853   1.266   6.446
 8369SOL    HW126006   1.909   1.320   6.383
 8369SOL    HW226007   1.895   1.176   6.459
 8370SOL     OW26008   2.954   2.507   5.814
 8370SOL    HW126009   2.998   2.421   5.788
 8370SOL    HW226010   2.873   2.487   5.869
 8371SOL     OW26011   1.508   3.893   0.573
 8371SOL    HW126012   1.452   3.899   0.656
 8371SOL    HW226013   1.524   3.985   0.538
 8372SOL     OW26014   0.955   6.272   2.921
 8372SOL    HW126015   0.992   6.228   2.839
 8372SOL    HW226016   0.861   6.301   2.903
 8373SOL     OW26017   0.901   6.875   5.046
 8373SOL    HW126018   0.892   6.964   5.000
 8373SOL    HW226019   0.877   6.885   5.142
 8374SOL     OW26020   0.021   1.190   6.780
 8374SOL    HW126021   0.096   1.153   6.835
 8374SOL    HW226022   0.058   1.238   6.701
 8375SOL     OW26023   3.487   6.038   5.839
 8375SOL    HW126024   3.438   6.080   5.915
 8375SOL    HW226025   3.492   6.102   5.763
 8376SOL     OW26026   2.460   0.683   4.847
 8376SOL    HW126027   2.472   0.624   4.927
 8376SOL    HW226028   2.544   0.682   4.793
 8377SOL     OW26029   6.119   5.658   1.700
 8377SOL    HW126030   6.100   5.689   1.793
 8377SOL    HW226031   6.032   5.636   1.655
 8378SOL     OW26032   5.071   4.005   3.339
 8378SOL    HW126033   4.972   3.994   3.342
 8378SOL    HW226034   5.095   4.102   3.341
 8379SOL     OW26035   6.853   3.022   1.171
 8379SOL    HW126036   6.927   2.986   1.114
 8379SOL    HW226037   6.849   2.972   1.257
 8380SOL     OW26038   6.624   0.932   2.017
 8380SOL    HW126039   6.580   0.981   2.093
 8380SOL    HW226040   6.555   0.896   1.955
 8381SOL     OW26041   0.869   5.114   4.613
 8381SOL    HW126042   0.772   5.104   4.592
 8381SOL    HW226043   0.888   5.209   4.637
 8382SOL     OW26044   1.450   1.408   2.160
 8382SOL    HW126045   1.495   1.320   2.179
 8382SOL    HW226046   1.513   1.482   2.182
 8383SOL     OW26047   2.938   1.980   6.541
 8383SOL    HW126048   2.872   2.018   6.606
 8383SOL    HW226049   2.891   1.918   6.478
 8384SOL     OW26050   0.010   7.015   0.838
 8384SOL    HW126051   0.075   0.018   0.910
 8384SOL    HW226052   0.023   6.919   0.814
 8385SOL     OW26053   5.997   2.641   1.874
 8385SOL    HW126054   5.916   2.629   1.818
 8385SOL    HW226055   5.980   2.607   1.966
 8386SOL     OW26056   0.994   4.299   2.441
 8386SOL    HW126057   1.009   4.259   2.532
 8386SOL    HW226058   0.916   4.253   2.397
 8387SOL     OW26059   1.264   1.361   1.000
 8387SOL    HW126060   1.312   1.277   0.974
 8387SOL    HW226061   1.166   1.343   1.005
 8388SOL     OW26062   2.286   5.972   1.816
 8388SOL    HW126063   2.234   6.053   1.841
 8388SOL    HW226064   2.224   5.894   1.805
 8389SOL     OW26065   5.158   3.559   2.021
 8389SOL    HW126066   5.252   3.553   2.053
 8389SOL    HW226067   5.129   3.470   1.986
 8390SOL     OW26068   3.625   1.846   6.358
 8390SOL    HW126069   3.629   1.854   6.258
 8390SOL    HW226070   3.688   1.774   6.388
 8391SOL     OW26071   6.131   6.676   0.847
 8391SOL    HW126072   6.228   6.683   0.874
 8391SOL    HW226073   6.125   6.656   0.750
 8392SOL     OW26074   6.488   3.614   3.677
 8392SOL    HW126075   6.531   3.698   3.643
 8392SOL    HW226076   6.389   3.623   3.671
 8393SOL     OW26077   5.500   0.374   2.437
 8393SOL    HW126078   5.439   0.302   2.404
 8393SOL    HW226079   5.588   0.335   2.462
 8394SOL     OW26080   6.169   3.400   2.183
 8394SOL    HW126081   6.181   3.413   2.282
 8394SOL    HW226082   6.220   3.470   2.134
 8395SOL     OW26083   2.314   0.427   5.503
 8395SOL    HW126084   2.378   0.391   5.570
 8395SOL    HW226085   2.223   0.434   5.543
 8396SOL     OW26086   4.046   4.799   4.034
 8396SOL    HW126087   4.096   4.827   4.115
 8396SOL    HW226088   3.948   4.816   4.047
 8397SOL     OW26089   6.968   1.625   3.922
 8397SOL    HW126090   6.897   1.567   3.962
 8397SOL    HW226091   6.935   1.719   3.916
 8398SOL     OW26092   4.901   1.902   6.330
 8398SOL    HW126093   4.957   1.909   6.413
 8398SOL    HW226094   4.813   1.860   6.353
 8399SOL     OW26095   6.992   6.331   6.715
 8399SOL    HW126096   6.923   6.276   6.668
 8399SOL    HW226097   0.006   6.400   6.651
 8400SOL     OW26098   1.479   2.776   4.262
 8400SOL    HW126099   1.511   2.695   4.310
 8400SOL    HW226100   1.546   2.850   4.272
 8401SOL     OW26101   2.183   0.273   5.318
 8401SOL    HW126102   2.220   0.325   5.395
 8401SOL    HW226103   2.102   0.223   5.347
 8402SOL     OW26104   4.831   0.707   6.673
 8402SOL    HW126105   4.931   0.696   6.674
 8402SOL    HW226106   4.797   0.716   6.766
 8403SOL     OW26107   7.002   4.824   3.952
 8403SOL    HW126108   6.959   4.746   3.999
 8403SOL    HW226109   6.942   4.855   3.878
 8404SOL     OW26110   3.099   1.242   6.163
 8404SOL    HW126111   3.050   1.322   6.128
 8404SOL    HW226112   3.117   1.253   6.260
 8405SOL     OW26113   3.906   1.618   6.022
 8405SOL    HW126114   3.992   1.570   6.035
 8405SOL    HW226115   3.830   1.552   6.026
 8406SOL     OW26116   4.790   0.426   0.482
 8406SOL    HW126117   4.888   0.435   0.466
 8406SOL    HW226118   4.775   0.373   0.566
 8407SOL     OW26119   4.267   6.146   3.425
 8407SOL    HW126120   4.316   6.142   3.511
 8407SOL    HW226121   4.257   6.242   3.396
 8408SOL     OW26122   5.428   6.539   0.291
 8408SOL    HW126123   5.513   6.567   0.245
 8408SOL    HW226124   5.447   6.521   0.387
 8409SOL     OW26125   4.622   2.468   1.837
 8409SOL    HW126126   4.695   2.535   1.852
 8409SOL    HW226127   4.548   2.511   1.785
 8410SOL     OW26128   6.477   1.602   1.550
 8410SOL    HW126129   6.529   1.538   1.606
 8410SOL    HW226130   6.517   1.694   1.560
 8411SOL     OW26131   0.462   6.205   1.831
 8411SOL    HW126132   0.519   6.208   1.749
 8411SOL    HW226133   0.370   6.236   1.809
 8412SOL     OW26134   3.568   3.234   0.848
 8412SOL    HW126135   3.512   3.162   0.889
 8412SOL    HW226136   3.652   3.245   0.901
 8413SOL     OW26137   4.103   5.756   6.549
 8413SOL    HW126138   4.182   5.763   6.610
 8413SOL    HW226139   4.132   5.771   6.454
 8414SOL     OW26140   1.977   1.402   2.662
 8414SOL    HW126141   2.053   1.465   2.680
 8414SOL    HW226142   1.901   1.423   2.723
 8415SOL     OW26143   3.176   0.104   3.973
 8415SOL    HW126144   3.246   0.051   3.924
 8415SOL    HW226145   3.085   0.079   3.939
 8416SOL     OW26146   5.625   1.551   4.948
 8416SOL    HW126147   5.572   1.542   4.863
 8416SOL    HW226148   5.572   1.599   5.016
 8417SOL     OW26149   1.600   3.182   5.425
 8417SOL    HW126150   1.663   3.162   5.500
 8417SOL    HW226151   1.637   3.145   5.340
 8418SOL     OW26152   0.840   5.424   2.296
 8418SOL    HW126153   0.923   5.392   2.342
 8418SOL    HW226154   0.815   5.514   2.332
 8419SOL     OW26155   5.796   1.110   3.045
 8419SOL    HW126156   5.754   1.181   3.101
 8419SOL    HW226157   5.892   1.134   3.029
 8420SOL     OW26158   3.233   6.736   2.308
 8420SOL    HW126159   3.275   6.720   2.218
 8420SOL    HW226160   3.245   6.656   2.366
 8421SOL     OW26161   3.062   6.107   6.803
 8421SOL    HW126162   3.060   6.107   6.703
 8421SOL    HW226163   3.009   6.184   6.837
 8422SOL     OW26164   4.706   2.698   2.445
 8422SOL    HW126165   4.716   2.735   2.352
 8422SOL    HW226166   4.711   2.598   2.441
 8423SOL     OW26167   4.834   4.627   5.852
 8423SOL    HW126168   4.923   4.623   5.898
 8423SOL    HW226169   4.761   4.619   5.921
 8424SOL     OW26170   2.212   0.686   3.613
 8424SOL    HW126171   2.279   0.703   3.684
 8424SOL    HW226172   2.134   0.748   3.624
 8425SOL     OW26173   3.377   3.813   3.466
 8425SOL    HW126174   3.355   3.910   3.460
 8425SOL    HW226175   3.297   3.759   3.441
 8426SOL     OW26176   3.617   3.410   2.541
 8426SOL    HW126177   3.566   3.458   2.470
 8426SOL    HW226178   3.577   3.429   2.630
 8427SOL     OW26179   2.911   3.765   3.306
 8427SOL    HW126180   2.958   3.850   3.283
 8427SOL    HW226181   2.837   3.784   3.371
 8428SOL     OW26182   0.134   0.126   1.032
 8428SOL    HW126183   0.193   0.169   1.101
 8428SOL    HW226184   0.045   0.106   1.072
 8429SOL     OW26185   1.863   5.835   6.231
 8429SOL    HW126186   1.933   5.878   6.173
 8429SOL    HW226187   1.776   5.883   6.220
 8430SOL     OW26188   4.078   4.902   4.847
 8430SOL    HW126189   4.105   4.964   4.922
 8430SOL    HW226190   4.148   4.832   4.836
 8431SOL     OW26191   3.004   3.930   6.463
 8431SOL    HW126192   3.041   3.845   6.500
 8431SOL    HW226193   3.071   3.971   6.401
 8432SOL     OW26194   6.594   5.328   6.559
 8432SOL    HW126195   6.540   5.245   6.549
 8432SOL    HW226196   6.546   5.391   6.620
 8433SOL     OW26197   4.381   2.645   1.059
 8433SOL    HW126198   4.399   2.690   1.146
 8433SOL    HW226199   4.440   2.683   0.988
 8434SOL     OW26200   2.079   5.320   4.666
 8434SOL    HW126201   2.133   5.244   4.630
 8434SOL    HW226202   2.085   5.320   4.766
 8435SOL     OW26203   5.473   0.724   2.819
 8435SOL    HW126204   5.399   0.707   2.753
 8435SOL    HW226205   5.537   0.791   2.781
 8436SOL     OW26206   2.893   6.336   3.657
 8436SOL    HW126207   2.900   6.247   3.701
 8436SOL    HW226208   2.855   6.325   3.565
 8437SOL     OW26209   2.105   3.232   2.638
 8437SOL    HW126210   2.111   3.180   2.552
 8437SOL    HW226211   2.161   3.188   2.708
 8438SOL     OW26212   1.808   3.692   2.902
 8438SOL    HW126213   1.765   3.774   2.940
 8438SOL    HW226214   1.797   3.616   2.966
 8439SOL     OW26215   6.323   5.277   3.970
 8439SOL    HW126216   6.349   5.188   4.010
 8439SOL    HW226217   6.401   5.315   3.921
 8440SOL     OW26218   2.298   1.594   3.780
 8440SOL    HW126219   2.216   1.541   3.758
 8440SOL    HW226220   2.330   1.570   3.872
 8441SOL     OW26221   5.372   5.680   5.252
 8441SOL    HW126222   5.323   5.610   5.199
 8441SOL    HW226223   5.454   5.708   5.202
 8442SOL     OW26224   3.808   1.129   5.029
 8442SOL    HW126225   3.814   1.120   4.930
 8442SOL    HW226226   3.883   1.080   5.072
 8443SOL     OW26227   1.733   4.731   3.610
 8443SOL    HW126228   1.826   4.698   3.628
 8443SOL    HW226229   1.669   4.654   3.611
 8444SOL     OW26230   4.342   6.841   3.120
 8444SOL    HW126231   4.289   6.915   3.079
 8444SOL    HW226232   4.304   6.819   3.210
 8445SOL     OW26233   2.631   0.231   6.874
 8445SOL    HW126234   2.626   0.325   6.841
 8445SOL    HW226235   2.571   0.219   6.953
 8446SOL     OW26236   6.982   6.491   5.142
 8446SOL    HW126237   6.928   6.447   5.070
 8446SOL    HW226238   0.032   6.429   5.173
 8447SOL     OW26239   4.370   1.752   2.284
 8447SOL    HW126240   4.437   1.812   2.327
 8447SOL    HW226241   4.414   1.699   2.211
 8448SOL     OW26242   4.831   6.267   3.775
 8448SOL    HW126243   4.843   6.241   3.871
 8448SOL    HW226244   4.756   6.333   3.767
 8449SOL     OW26245   1.731   3.223   3.267
 8449SOL    HW126246   1.665   3.232   3.192
 8449SOL    HW226247   1.744   3.311   3.311
 8450SOL     OW26248   0.365   0.615   6.859
 8450SOL    HW126249   0.291   0.554   6.887
 8450SOL    HW226250   0.411   0.650   6.941
 8451SOL     OW26251   3.820   1.095   1.201
 8451SOL    HW126252   3.758   1.084   1.279
 8451SOL    HW226253   3.818   1.013   1.145
 8452SOL     OW26254   5.542   1.936   4.401
 8452SOL    HW126255   5.471   1.894   4.459
 8452SOL    HW226256   5.526   1.910   4.306
 8453SOL     OW26257   0.605   5.433   6.965
 8453SOL    HW126258   0.650   5.454   6.878
 8453SOL    HW226259   0.618   5.508   0.007
 8454SOL     OW26260   0.710   4.182   7.020
 8454SOL    HW126261   0.731   4.278   7.003
 8454SOL    HW226262   0.791   4.126   7.002
 8455SOL     OW26263   0.935   0.273   2.594
 8455SOL    HW126264   0.965   0.193   2.647
 8455SOL    HW226265   0.961   0.262   2.498
 8456SOL     OW26266   5.047   0.479   3.380
 8456SOL    HW126267   5.033   0.508   3.285
 8456SOL    HW226268   5.134   0.430   3.387
 8457SOL     OW26269   6.410   6.749   4.776
 8457SOL    HW126270   6.385   6.766   4.681
 8457SOL    HW226271   6.347   6.683   4.816
 8458SOL     OW26272   0.792   0.082   0.436
 8458SOL    HW126273   0.833   0.171   0.455
 8458SOL    HW226274   0.693   0.091   0.432
 8459SOL     OW26275   1.498   5.708   3.169
 8459SOL    HW126276   1.406   5.747   3.165
 8459SOL    HW226277   1.541   5.735   3.255
 8460SOL     OW26278   4.210   3.975   5.323
 8460SOL    HW126279   4.280   3.905   5.336
 8460SOL    HW226280   4.254   4.063   5.307
 8461SOL     OW26281   6.979   3.036   4.681
 8461SOL    HW126282   6.979   3.087   4.767
 8461SOL    HW226283   6.890   2.991   4.669
 8462SOL     OW26284   2.924   1.662   1.102
 8462SOL    HW126285   2.834   1.631   1.131
 8462SOL    HW226286   2.936   1.644   1.004
 8463SOL     OW26287   6.102   0.139   2.080
 8463SOL    HW126288   6.136   0.050   2.109
 8463SOL    HW226289   6.003   0.134   2.065
 8464SOL     OW26290   5.673   3.313   4.414
 8464SOL    HW126291   5.769   3.320   4.386
 8464SOL    HW226292   5.616   3.296   4.334
 8465SOL     OW26293   1.546   1.818   0.559
 8465SOL    HW126294   1.607   1.896   0.545
 8465SOL    HW226295   1.465   1.828   0.499
 8466SOL     OW26296   0.868   5.598   3.223
 8466SOL    HW126297   0.827   5.689   3.213
 8466SOL    HW226298   0.910   5.591   3.314
 8467SOL     OW26299   2.602   5.868   0.917
 8467SOL    HW126300   2.505   5.891   0.927
 8467SOL    HW226301   2.624   5.789   0.975
 8468SOL     OW26302   4.091   2.385   0.531
 8468SOL    HW126303   4.025   2.410   0.459
 8468SOL    HW226304   4.042   2.372   0.617
 8469SOL     OW26305   3.510   2.941   6.812
 8469SOL    HW126306   3.482   3.009   6.879
 8469SOL    HW226307   3.430   2.905   6.765
 8470SOL     OW26308   1.809   2.801   1.132
 8470SOL    HW126309   1.834   2.717   1.082
 8470SOL    HW226310   1.865   2.809   1.214
 8471SOL     OW26311   3.142   0.529   4.268
 8471SOL    HW126312   3.182   0.610   4.224
 8471SOL    HW226313   3.200   0.450   4.252
 8472SOL     OW26314   0.726   6.754   4.472
 8472SOL    HW126315   0.645   6.806   4.446
 8472SOL    HW226316   0.770   6.718   4.390
 8473SOL     OW26317   6.853   5.751   0.254
 8473SOL    HW126318   6.924   5.805   0.210
 8473SOL    HW226319   6.894   5.672   0.300
 8474SOL     OW26320   3.080   2.924   1.896
 8474SOL    HW126321   3.108   2.925   1.992
 8474SOL    HW226322   3.067   2.829   1.867
 8475SOL     OW26323   5.840   1.610   2.785
 8475SOL    HW126324   5.916   1.602   2.721
 8475SOL    HW226325   5.792   1.523   2.791
 8476SOL     OW26326   5.492   0.032   1.846
 8476SOL    HW126327   5.480   6.962   1.809
 8476SOL    HW226328   5.505   0.027   1.945
 8477SOL     OW26329   2.925   6.567   1.346
 8477SOL    HW126330   2.843   6.623   1.336
 8477SOL    HW226331   2.921   6.517   1.432
 8478SOL     OW26332   1.773   0.805   5.521
 8478SOL    HW126333   1.685   0.820   5.476
 8478SOL    HW226334   1.838   0.766   5.455
 8479SOL     OW26335   6.012   1.103   0.488
 8479SOL    HW126336   6.099   1.061   0.460
 8479SOL    HW226337   6.028   1.160   0.569
 8480SOL     OW26338   3.671   0.437   1.209
 8480SOL    HW126339   3.626   0.355   1.244
 8480SOL    HW226340   3.610   0.485   1.145
 8481SOL     OW26341   3.791   1.528   4.388
 8481SOL    HW126342   3.824   1.600   4.449
 8481SOL    HW226343   3.869   1.477   4.351
 8482SOL     OW26344   1.824   0.332   2.026
 8482SOL    HW126345   1.820   0.293   2.118
 8482SOL    HW226346   1.907   0.302   1.980
 8483SOL     OW26347   3.244   5.827   2.298
 8483SOL    HW126348   3.189   5.835   2.381
 8483SOL    HW226349   3.282   5.916   2.274
 8484SOL     OW26350   0.468   4.713   4.087
 8484SOL    HW126351   0.559   4.673   4.095
 8484SOL    HW226352   0.401   4.640   4.073
 8485SOL     OW26353   2.435   4.133   0.179
 8485SOL    HW126354   2.390   4.138   0.268
 8485SOL    HW226355   2.408   4.212   0.124
 8486SOL     OW26356   5.407   1.213   2.474
 8486SOL    HW126357   5.484   1.276   2.472
 8486SOL    HW226358   5.341   1.237   2.402
 8487SOL     OW26359   5.017   0.154   1.503
 8487SOL    HW126360   5.109   0.194   1.504
 8487SOL    HW226361   4.949   0.226   1.491
 8488SOL     OW26362   5.263   4.572   4.190
 8488SOL    HW126363   5.184   4.515   4.212
 8488SOL    HW226364   5.302   4.544   4.103
 8489SOL     OW26365   5.564   4.417   1.457
 8489SOL    HW126366   5.493   4.355   1.425
 8489SOL    HW226367   5.533   4.462   1.541
 8490SOL     OW26368   4.343   5.680   2.888
 8490SOL    HW126369   4.251   5.681   2.928
 8490SOL    HW226370   4.408   5.718   2.953
 8491SOL     OW26371   2.354   0.696   2.195
 8491SOL    HW126372   2.301   0.740   2.123
 8491SOL    HW226373   2.309   0.710   2.284
 8492SOL     OW26374   5.394   3.533   5.313
 8492SOL    HW126375   5.350   3.515   5.401
 8492SOL    HW226376   5.324   3.548   5.243
 8493SOL     OW26377   4.137   2.134   6.884
 8493SOL    HW126378   4.169   2.045   6.851
 8493SOL    HW226379   4.126   2.131   6.983
 8494SOL     OW26380   2.536   5.841   6.777
 8494SOL    HW126381   2.534   5.760   6.718
 8494SOL    HW226382   2.615   5.897   6.754
 8495SOL     OW26383   6.557   2.735   0.331
 8495SOL    HW126384   6.472   2.789   0.327
 8495SOL    HW226385   6.605   2.743   0.244
 8496SOL     OW26386   0.739   2.090   3.482
 8496SOL    HW126387   0.649   2.071   3.444
 8496SOL    HW226388   0.766   2.016   3.544
 8497SOL     OW26389   5.559   5.563   4.377
 8497SOL    HW126390   5.470   5.521   4.397
 8497SOL    HW226391   5.618   5.496   4.332
 8498SOL     OW26392   0.358   0.141   1.227
 8498SOL    HW126393   0.358   0.181   1.318
 8498SOL    HW226394   0.441   0.167   1.178
 8499SOL     OW26395   3.232   5.084   6.630
 8499SOL    HW126396   3.309   5.085   6.567
 8499SOL    HW226397   3.204   4.990   6.647
 8500SOL     OW26398   2.232   6.834   5.655
 8500SOL    HW126399   2.145   6.851   5.700
 8500SOL    HW226400   2.303   6.816   5.724
 8501SOL     OW26401   1.700   3.474   6.571
 8501SOL    HW126402   1.616   3.422   6.557
 8501SOL    HW226403   1.723   3.525   6.488
 8502SOL     OW26404   0.061   6.153   1.473
 8502SOL    HW126405   0.103   6.086   1.534
 8502SOL    HW226406   7.013   6.109   1.417
 8503SOL     OW26407   1.609   4.953   3.503
 8503SOL    HW126408   1.640   4.868   3.544
 8503SOL    HW226409   1.627   5.029   3.565
 8504SOL     OW26410   1.952   6.027   3.728
 8504SOL    HW126411   1.876   6.092   3.730
 8504SOL    HW226412   2.010   6.047   3.649
 8505SOL     OW26413   5.532   4.091   3.961
 8505SOL    HW126414   5.521   4.052   4.053
 8505SOL    HW226415   5.534   4.191   3.968
 8506SOL     OW26416   1.310   6.420   0.292
 8506SOL    HW126417   1.399   6.400   0.332
 8506SOL    HW226418   1.322   6.460   0.201
 8507SOL     OW26419   2.438   1.092   6.034
 8507SOL    HW126420   2.426   0.994   6.019
 8507SOL    HW226421   2.533   1.117   6.015
 8508SOL     OW26422   6.590   2.425   5.206
 8508SOL    HW126423   6.655   2.501   5.193
 8508SOL    HW226424   6.584   2.373   5.121
 8509SOL     OW26425   5.760   1.290   4.467
 8509SOL    HW126426   5.743   1.373   4.520
 8509SOL    HW226427   5.676   1.262   4.421
 8510SOL     OW26428   5.573   5.701   3.222
 8510SOL    HW126429   5.593   5.603   3.224
 8510SOL    HW226430   5.551   5.729   3.128
 8511SOL     OW26431   6.319   4.363   0.891
 8511SOL    HW126432   6.381   4.409   0.827
 8511SOL    HW226433   6.338   4.264   0.891
 8512SOL     OW26434   4.157   2.462   0.062
 8512SOL    HW126435   4.163   2.371   0.102
 8512SOL    HW226436   4.061   2.489   0.055
 8513SOL     OW26437   5.445   3.643   0.521
 8513SOL    HW126438   5.348   3.621   0.535
 8513SOL    HW226439   5.472   3.715   0.585
 8514SOL     OW26440   2.884   1.506   4.116
 8514SOL    HW126441   2.816   1.434   4.130
 8514SOL    HW226442   2.855   1.589   4.164
 8515SOL     OW26443   0.859   1.221   6.605
 8515SOL    HW126444   0.871   1.158   6.681
 8515SOL    HW226445   0.904   1.184   6.523
 8516SOL     OW26446   5.711   2.973   2.578
 8516SOL    HW126447   5.625   3.004   2.620
 8516SOL    HW226448   5.777   2.950   2.650
 8517SOL     OW26449   2.362   2.553   5.826
 8517SOL    HW126450   2.414   2.624   5.779
 8517SOL    HW226451   2.341   2.479   5.762
 8518SOL     OW26452   5.137   4.666   6.576
 8518SOL    HW126453   5.096   4.653   6.485
 8518SOL    HW226454   5.123   4.760   6.605
 8519SOL     OW26455   1.365   4.833   0.616
 8519SOL    HW126456   1.386   4.793   0.527
 8519SOL    HW226457   1.268   4.857   0.620
 8520SOL     OW26458   4.093   3.798   5.161
 8520SOL    HW126459   4.116   3.826   5.067
 8520SOL    HW226460   4.124   3.867   5.225
 8521SOL     OW26461   1.590   6.379   5.487
 8521SOL    HW126462   1.689   6.378   5.498
 8521SOL    HW226463   1.559   6.291   5.451
 8522SOL     OW26464   0.990   0.440   1.070
 8522SOL    HW126465   1.061   0.420   1.003
 8522SOL    HW226466   0.901   0.417   1.032
 8523SOL     OW26467   2.673   6.642   6.377
 8523SOL    HW126468   2.658   6.735   6.342
 8523SOL    HW226469   2.689   6.580   6.300
 8524SOL     OW26470   1.294   4.573   4.815
 8524SOL    HW126471   1.234   4.624   4.753
 8524SOL    HW226472   1.385   4.614   4.813
 8525SOL     OW26473   6.360   4.936   0.790
 8525SOL    HW126474   6.343   4.862   0.855
 8525SOL    HW226475   6.272   4.975   0.761
 8526SOL     OW26476   2.808   6.833   1.287
 8526SOL    HW126477   2.886   6.855   1.346
 8526SOL    HW226478   2.809   6.891   1.206
 8527SOL     OW26479   3.006   0.433   6.747
 8527SOL    HW126480   2.980   0.340   6.772
 8527SOL    HW226481   2.944   0.467   6.677
 8528SOL     OW26482   4.617   1.666   1.235
 8528SOL    HW126483   4.600   1.613   1.318
 8528SOL    HW226484   4.602   1.763   1.253
 8529SOL     OW26485   0.975   6.470   6.688
 8529SOL    HW126486   0.892   6.443   6.640
 8529SOL    HW226487   1.053   6.419   6.651
 8530SOL     OW26488   2.910   3.678   3.955
 8530SOL    HW126489   2.873   3.744   4.021
 8530SOL    HW226490   2.916   3.720   3.865
 8531SOL     OW26491   0.056   5.638   3.444
 8531SOL    HW126492   0.012   5.712   3.392
 8531SOL    HW226493   0.110   5.678   3.518
 8532SOL     OW26494   3.136   6.528   3.594
 8532SOL    HW126495   3.070   6.455   3.609
 8532SOL    HW226496   3.229   6.490   3.599
 8533SOL     OW26497   0.780   6.134   6.632
 8533SOL    HW126498   0.862   6.077   6.624
 8533SOL    HW226499   0.767   6.185   6.547
 8534SOL     OW26500   4.572   2.348   4.186
 8534SOL    HW126501   4.489   2.352   4.130
 8534SOL    HW226502   4.650   2.381   4.132
 8535SOL     OW26503   5.298   1.069   4.161
 8535SOL    HW126504   5.282   1.160   4.198
 8535SOL    HW226505   5.231   1.050   4.088
 8536SOL     OW26506   0.588   1.694   4.772
 8536SOL    HW126507   0.651   1.715   4.698
 8536SOL    HW226508   0.634   1.635   4.839
 8537SOL     OW26509   5.902   0.992   3.356
 8537SOL    HW126510   5.940   1.027   3.442
 8537SOL    HW226511   5.832   1.056   3.322
 8538SOL     OW26512   1.645   1.593   0.154
 8538SOL    HW126513   1.569   1.591   0.089
 8538SOL    HW226514   1.731   1.572   0.107
 8539SOL     OW26515   5.950   2.549   2.506
 8539SOL    HW126516   6.027   2.538   2.443
 8539SOL    HW226517   5.980   2.599   2.587
 8540SOL     OW26518   4.442   0.159   6.909
 8540SOL    HW126519   4.479   0.205   6.829
 8540SOL    HW226520   4.516   0.126   6.967
 8541SOL     OW26521   2.728   2.020   4.119
 8541SOL    HW126522   2.819   1.990   4.148
 8541SOL    HW226523   2.737   2.088   4.047
 8542SOL     OW26524   3.554   4.776   6.518
 8542SOL    HW126525   3.614   4.803   6.593
 8542SOL    HW226526   3.563   4.678   6.501
 8543SOL     OW26527   2.104   2.096   0.589
 8543SOL    HW126528   2.027   2.159   0.582
 8543SOL    HW226529   2.162   2.105   0.508
 8544SOL     OW26530   5.166   2.465   4.271
 8544SOL    HW126531   5.118   2.528   4.210
 8544SOL    HW226532   5.260   2.499   4.286
 8545SOL     OW26533   5.010   6.376   5.945
 8545SOL    HW126534   4.955   6.358   5.864
 8545SOL    HW226535   5.101   6.408   5.917
 8546SOL     OW26536   6.277   1.690   3.556
 8546SOL    HW126537   6.353   1.746   3.521
 8546SOL    HW226538   6.191   1.721   3.515
 8547SOL     OW26539   1.649   5.479   5.011
 8547SOL    HW126540   1.673   5.383   5.022
 8547SOL    HW226541   1.620   5.496   4.917
 8548SOL     OW26542   5.831   1.665   5.779
 8548SOL    HW126543   5.914   1.623   5.816
 8548SOL    HW226544   5.845   1.763   5.769
 8549SOL     OW26545   6.602   3.835   3.597
 8549SOL    HW126546   6.679   3.895   3.575
 8549SOL    HW226547   6.516   3.884   3.580
 8550SOL     OW26548   1.506   5.281   6.467
 8550SOL    HW126549   1.538   5.350   6.533
 8550SOL    HW226550   1.492   5.194   6.515
 8551SOL     OW26551   3.544   4.266   6.635
 8551SOL    HW126552   3.582   4.353   6.604
 8551SOL    HW226553   3.603   4.227   6.706
 8552SOL     OW26554   3.314   5.671   3.303
 8552SOL    HW126555   3.358   5.650   3.216
 8552SOL    HW226556   3.267   5.760   3.295
 8553SOL     OW26557   5.211   6.077   0.107
 8553SOL    HW126558   5.138   6.118   0.161
 8553SOL    HW226559   5.299   6.098   0.149
 8554SOL     OW26560   0.281   4.310   0.136
 8554SOL    HW126561   0.210   4.333   0.069
 8554SOL    HW226562   0.367   4.353   0.109
 8555SOL     OW26563   0.591   0.239   3.668
 8555SOL    HW126564   0.640   0.208   3.586
 8555SOL    HW226565   0.595   0.339   3.674
 8556SOL     OW26566   0.445   0.624   3.361
 8556SOL    HW126567   0.407   0.546   3.311
 8556SOL    HW226568   0.383   0.649   3.435
 8557SOL     OW26569   6.830   6.771   1.656
 8557SOL    HW126570   6.863   6.680   1.630
 8557SOL    HW226571   6.768   6.806   1.585
 8558SOL     OW26572   2.307   5.417   2.438
 8558SOL    HW126573   2.274   5.335   2.484
 8558SOL    HW226574   2.237   5.489   2.444
 8559SOL     OW26575   0.919   1.057   1.905
 8559SOL    HW126576   0.945   0.962   1.922
 8559SOL    HW226577   1.002   1.112   1.893
 8560SOL     OW26578   0.071   1.092   0.229
 8560SOL    HW126579   0.094   1.169   0.289
 8560SOL    HW226580   7.013   1.115   0.175
 8561SOL     OW26581   4.676   6.071   2.364
 8561SOL    HW126582   4.587   6.030   2.344
 8561SOL    HW226583   4.700   6.056   2.460
 8562SOL     OW26584   4.050   6.901   4.163
 8562SOL    HW126585   3.998   6.964   4.104
 8562SOL    HW226586   3.988   6.834   4.203
 8563SOL     OW26587   2.836   3.065   0.119
 8563SOL    HW126588   2.876   3.106   0.037
 8563SOL    HW226589   2.756   3.011   0.093
 8564SOL     OW26590   1.011   0.219   3.688
 8564SOL    HW126591   1.070   0.299   3.692
 8564SOL    HW226592   0.966   0.215   3.598
 8565SOL     OW26593   4.087   6.863   0.836
 8565SOL    HW126594   4.101   6.781   0.891
 8565SOL    HW226595   4.143   6.937   0.872
 8566SOL     OW26596   1.191   2.247   3.245
 8566SOL    HW126597   1.102   2.205   3.263
 8566SOL    HW226598   1.264   2.183   3.268
 8567SOL     OW26599   5.531   1.479   1.438
 8567SOL    HW126600   5.451   1.435   1.397
 8567SOL    HW226601   5.614   1.428   1.413
 8568SOL     OW26602   4.688   1.696   0.485
 8568SOL    HW126603   4.765   1.675   0.546
 8568SOL    HW226604   4.682   1.795   0.471
 8569SOL     OW26605   4.622   0.578   4.555
 8569SOL    HW126606   4.719   0.567   4.536
 8569SOL    HW226607   4.610   0.626   4.642
 8570SOL     OW26608   1.131   4.228   6.252
 8570SOL    HW126609   1.208   4.291   6.244
 8570SOL    HW226610   1.047   4.280   6.267
 8571SOL     OW26611   0.004   4.304   4.606
 8571SOL    HW126612   0.059   4.341   4.681
 8571SOL    HW226613   6.994   4.379   4.548
 8572SOL     OW26614   1.869   5.060   5.403
 8572SOL    HW126615   1.826   5.146   5.377
 8572SOL    HW226616   1.934   5.076   5.477
 8573SOL     OW26617   4.425   6.331   6.855
 8573SOL    HW126618   4.348   6.394   6.841
 8573SOL    HW226619   4.401   6.241   6.818
 8574SOL     OW26620   0.550   4.323   6.106
 8574SOL    HW126621   0.576   4.233   6.142
 8574SOL    HW226622   0.619   4.390   6.133
 8575SOL     OW26623   3.180   2.915   0.009
 8575SOL    HW126624   3.268   2.937   0.049
 8575SOL    HW226625   3.121   2.873   0.078
 8576SOL     OW26626   1.016   6.931   1.811
 8576SOL    HW126627   1.054   6.846   1.776
 8576SOL    HW226628   1.083   6.977   1.869
 8577SOL     OW26629   6.473   5.694   3.272
 8577SOL    HW126630   6.434   5.625   3.212
 8577SOL    HW226631   6.457   5.785   3.233
 8578SOL     OW26632   4.732   0.269   4.055
 8578SOL    HW126633   4.744   0.358   4.098
 8578SOL    HW226634   4.783   0.200   4.108
 8579SOL     OW26635   1.059   4.764   3.439
 8579SOL    HW126636   1.157   4.786   3.439
 8579SOL    HW226637   1.008   4.841   3.478
 8580SOL     OW26638   1.489   6.265   2.022
 8580SOL    HW126639   1.531   6.313   1.945
 8580SOL    HW226640   1.468   6.171   1.996
 8581SOL     OW26641   3.091   1.943   0.965
 8581SOL    HW126642   3.125   1.880   1.034
 8581SOL    HW226643   3.028   2.008   1.008
 8582SOL     OW26644   4.554   4.419   2.271
 8582SOL    HW126645   4.550   4.351   2.198
 8582SOL    HW226646   4.634   4.478   2.257
 8583SOL     OW26647   6.523   0.331   6.076
 8583SOL    HW126648   6.525   0.428   6.102
 8583SOL    HW226649   6.616   0.296   6.071
 8584SOL     OW26650   6.870   4.693   0.639
 8584SOL    HW126651   6.783   4.643   0.633
 8584SOL    HW226652   6.936   4.653   0.576
 8585SOL     OW26653   0.298   0.887   0.582
 8585SOL    HW126654   0.225   0.819   0.582
 8585SOL    HW226655   0.259   0.978   0.574
 8586SOL     OW26656   3.765   6.128   3.179
 8586SOL    HW126657   3.724   6.104   3.091
 8586SOL    HW226658   3.744   6.056   3.245
 8587SOL     OW26659   0.772   1.968   2.829
 8587SOL    HW126660   0.721   2.052   2.812
 8587SOL    HW226661   0.764   1.907   2.750
 8588SOL     OW26662   3.662   2.531   0.726
 8588SOL    HW126663   3.710   2.600   0.672
 8588SOL    HW226664   3.672   2.442   0.681
 8589SOL     OW26665   3.785   0.816   4.770
 8589SOL    HW126666   3.720   0.782   4.702
 8589SOL    HW226667   3.839   0.740   4.805
 8590SOL     OW26668   6.494   5.175   4.403
 8590SOL    HW126669   6.498   5.110   4.327
 8590SOL    HW226670   6.586   5.192   4.437
 8591SOL     OW26671   1.266   3.556   6.344
 8591SOL    HW126672   1.351   3.585   6.300
 8591SOL    HW226673   1.233   3.629   6.404
 8592SOL     OW26674   6.853   4.097   0.744
 8592SOL    HW126675   6.941   4.062   0.779
 8592SOL    HW226676   6.779   4.040   0.779
 8593SOL     OW26677   1.449   6.830   2.274
 8593SOL    HW126678   1.411   6.900   2.335
 8593SOL    HW226679   1.429   6.739   2.312
 8594SOL     OW26680   3.290   4.050   4.194
 8594SOL    HW126681   3.340   3.964   4.187
 8594SOL    HW226682   3.202   4.034   4.239
 8595SOL     OW26683   1.967   1.929   2.576
 8595SOL    HW126684   1.925   1.936   2.486
 8595SOL    HW226685   1.903   1.964   2.645
 8596SOL     OW26686   5.280   5.117   1.896
 8596SOL    HW126687   5.379   5.115   1.905
 8596SOL    HW226688   5.256   5.141   1.802
 8597SOL     OW26689   2.931   1.559   0.843
 8597SOL    HW126690   2.955   1.561   0.746
 8597SOL    HW226691   2.941   1.466   0.878
 8598SOL     OW26692   6.168   4.439   1.131
 8598SOL    HW126693   6.210   4.406   1.047
 8598SOL    HW226694   6.232   4.428   1.207
 8599SOL     OW26695   0.773   2.581   3.767
 8599SOL    HW126696   0.810   2.651   3.829
 8599SOL    HW226697   0.823   2.584   3.680
 8600SOL     OW26698   6.539   4.673   6.571
 8600SOL    HW126699   6.578   4.695   6.481
 8600SOL    HW226700   6.490   4.752   6.606
 8601SOL     OW26701   0.142   1.199   4.296
 8601SOL    HW126702   0.149   1.197   4.396
 8601SOL    HW226703   0.052   1.166   4.268
 8602SOL     OW26704   2.841   5.913   2.585
 8602SOL    HW126705   2.842   6.010   2.610
 8602SOL    HW226706   2.820   5.904   2.488
 8603SOL     OW26707   3.753   3.665   0.544
 8603SOL    HW126708   3.779   3.724   0.467
 8603SOL    HW226709   3.765   3.714   0.630
 8604SOL     OW26710   5.713   3.129   3.586
 8604SOL    HW126711   5.650   3.070   3.536
 8604SOL    HW226712   5.808   3.103   3.565
 8605SOL     OW26713   3.337   5.437   3.891
 8605SOL    HW126714   3.334   5.461   3.794
 8605SOL    HW226715   3.405   5.365   3.905
 8606SOL     OW26716   2.966   4.672   6.126
 8606SOL    HW126717   2.910   4.675   6.044
 8606SOL    HW226718   2.976   4.577   6.157
 8607SOL     OW26719   3.780   5.364   1.870
 8607SOL    HW126720   3.838   5.424   1.925
 8607SOL    HW226721   3.721   5.310   1.930
 8608SOL     OW26722   4.246   4.724   2.852
 8608SOL    HW126723   4.244   4.808   2.799
 8608SOL    HW226724   4.336   4.681   2.845
 8609SOL     OW26725   3.647   0.277   5.010
 8609SOL    HW126726   3.609   0.363   4.976
 8609SOL    HW226727   3.692   0.293   5.098
 8610SOL     OW26728   1.193   6.897   3.496
 8610SOL    HW126729   1.277   6.859   3.457
 8610SOL    HW226730   1.114   6.854   3.452
 8611SOL     OW26731   1.337   2.026   4.660
 8611SOL    HW126732   1.303   1.963   4.589
 8611SOL    HW226733   1.298   2.117   4.645
 8612SOL     OW26734   3.173   3.185   6.720
 8612SOL    HW126735   3.142   3.265   6.667
 8612SOL    HW226736   3.095   3.144   6.766
 8613SOL     OW26737   1.701   1.687   1.054
 8613SOL    HW126738   1.653   1.600   1.044
 8613SOL    HW226739   1.677   1.748   0.978
 8614SOL     OW26740   0.702   3.599   3.120
 8614SOL    HW126741   0.797   3.595   3.151
 8614SOL    HW226742   0.679   3.513   3.074
 8615SOL     OW26743   4.042   2.214   5.552
 8615SOL    HW126744   4.105   2.194   5.627
 8615SOL    HW226745   4.001   2.129   5.518
 8616SOL     OW26746   1.078   4.905   0.047
 8616SOL    HW126747   1.068   4.879   0.143
 8616SOL    HW226748   1.160   4.961   0.037
 8617SOL     OW26749   6.513   2.077   0.582
 8617SOL    HW126750   6.509   2.079   0.482
 8617SOL    HW226751   6.567   1.997   0.611
 8618SOL     OW26752   4.706   6.735   2.606
 8618SOL    HW126753   4.746   6.821   2.576
 8618SOL    HW226754   4.755   6.701   2.686
 8619SOL     OW26755   4.489   5.128   6.936
 8619SOL    HW126756   4.398   5.154   6.967
 8619SOL    HW226757   4.505   5.031   6.955
 8620SOL     OW26758   5.613   6.791   2.694
 8620SOL    HW126759   5.546   6.818   2.764
 8620SOL    HW226760   5.644   6.872   2.645
 8621SOL     OW26761   6.152   1.114   4.018
 8621SOL    HW126762   6.131   1.030   4.068
 8621SOL    HW226763   6.168   1.188   4.083
 8622SOL     OW26764   4.688   4.699   0.245
 8622SOL    HW126765   4.781   4.708   0.207
 8622SOL    HW226766   4.692   4.704   0.344
 8623SOL     OW26767   0.898   3.987   2.875
 8623SOL    HW126768   0.893   4.083   2.905
 8623SOL    HW226769   0.811   3.942   2.894
 8624SOL     OW26770   1.319   4.122   3.475
 8624SOL    HW126771   1.229   4.088   3.449
 8624SOL    HW226772   1.309   4.205   3.530
 8625SOL     OW26773   4.612   0.769   4.782
 8625SOL    HW126774   4.542   0.826   4.740
 8625SOL    HW226775   4.577   0.730   4.868
 8626SOL     OW26776   3.264   3.600   4.022
 8626SOL    HW126777   3.264   3.590   3.923
 8626SOL    HW226778   3.334   3.541   4.062
 8627SOL     OW26779   0.909   0.743   1.199
 8627SOL    HW126780   0.982   0.676   1.182
 8627SOL    HW226781   0.830   0.697   1.239
 8628SOL     OW26782   6.543   0.947   0.157
 8628SOL    HW126783   6.508   1.040   0.152
 8628SOL    HW226784   6.495   0.890   0.090
 8629SOL     OW26785   1.183   5.022   4.061
 8629SOL    HW126786   1.115   5.008   3.990
 8629SOL    HW226787   1.228   4.936   4.082
 8630SOL     OW26788   5.689   3.360   3.983
 8630SOL    HW126789   5.631   3.329   4.058
 8630SOL    HW226790   5.639   3.426   3.927
 8631SOL     OW26791   4.345   5.691   5.445
 8631SOL    HW126792   4.412   5.757   5.479
 8631SOL    HW226793   4.373   5.658   5.355
 8632SOL     OW26794   3.651   0.120   3.618
 8632SOL    HW126795   3.721   0.171   3.567
 8632SOL    HW226796   3.652   0.024   3.589
 8633SOL     OW26797   5.442   1.247   3.848
 8633SOL    HW126798   5.408   1.237   3.942
 8633SOL    HW226799   5.463   1.344   3.831
 8634SOL     OW26800   6.354   4.064   1.741
 8634SOL    HW126801   6.419   4.118   1.687
 8634SOL    HW226802   6.279   4.033   1.682
 8635SOL     OW26803   6.203   3.820   6.043
 8635SOL    HW126804   6.213   3.919   6.037
 8635SOL    HW226805   6.110   3.797   6.071
 8636SOL     OW26806   6.065   5.513   0.397
 8636SOL    HW126807   6.023   5.570   0.468
 8636SOL    HW226808   5.998   5.447   0.363
 8637SOL     OW26809   1.677   0.983   0.442
 8637SOL    HW126810   1.732   1.045   0.386
 8637SOL    HW226811   1.645   0.906   0.387
 8638SOL     OW26812   2.162   4.528   0.023
 8638SOL    HW126813   2.210   4.441   0.010
 8638SOL    HW226814   2.200   4.576   0.103
 8639SOL     OW26815   5.151   2.886   2.134
 8639SOL    HW126816   5.084   2.905   2.205
 8639SOL    HW226817   5.105   2.884   2.045
 8640SOL     OW26818   4.411   4.032   0.747
 8640SOL    HW126819   4.417   4.130   0.726
 8640SOL    HW226820   4.420   4.018   0.845
 8641SOL     OW26821   0.383   4.301   3.369
 8641SOL    HW126822   0.391   4.385   3.316
 8641SOL    HW226823   0.472   4.255   3.372
 8642SOL     OW26824   4.878   0.949   2.030
 8642SOL    HW126825   4.941   1.011   1.983
 8642SOL    HW226826   4.788   0.955   1.987
 8643SOL     OW26827   4.264   0.271   6.584
 8643SOL    HW126828   4.329   0.215   6.532
 8643SOL    HW226829   4.228   0.343   6.525
 8644SOL     OW26830   5.748   2.398   5.126
 8644SOL    HW126831   5.728   2.476   5.185
 8644SOL    HW226832   5.771   2.429   5.034
 8645SOL     OW26833   6.660   3.891   0.869
 8645SOL    HW126834   6.677   3.836   0.787
 8645SOL    HW226835   6.616   3.834   0.939
 8646SOL     OW26836   4.809   1.056   0.872
 8646SOL    HW126837   4.828   0.986   0.941
 8646SOL    HW226838   4.710   1.065   0.860
 8647SOL     OW26839   3.529   4.976   6.932
 8647SOL    HW126840   3.506   5.073   6.930
 8647SOL    HW226841   3.554   4.950   0.004
 8648SOL     OW26842   5.513   0.828   4.485
 8648SOL    HW126843   5.459   0.826   4.401
 8648SOL    HW226844   5.603   0.866   4.466
 8649SOL     OW26845   6.391   3.950   5.788
 8649SOL    HW126846   6.292   3.966   5.788
 8649SOL    HW226847   6.415   3.890   5.712
 8650SOL     OW26848   1.766   4.865   4.353
 8650SOL    HW126849   1.726   4.792   4.407
 8650SOL    HW226850   1.810   4.931   4.415
 8651SOL     OW26851   3.998   1.270   0.206
 8651SOL    HW126852   3.990   1.370   0.199
 8651SOL    HW226853   3.907   1.229   0.194
 8652SOL     OW26854   2.022   4.134   3.875
 8652SOL    HW126855   1.993   4.156   3.968
 8652SOL    HW226856   2.113   4.174   3.859
 8653SOL     OW26857   0.026   2.257   5.963
 8653SOL    HW126858   0.061   2.213   6.046
 8653SOL    HW226859   0.079   2.341   5.945
 8654SOL     OW26860   7.009   6.492   2.943
 8654SOL    HW126861   0.013   6.578   2.988
 8654SOL    HW226862   6.963   6.433   3.009
 8655SOL     OW26863   6.027   6.902   3.758
 8655SOL    HW126864   6.095   6.849   3.809
 8655SOL    HW226865   5.938   6.857   3.765
 8656SOL     OW26866   6.277   1.040   1.207
 8656SOL    HW126867   6.181   1.068   1.217
 8656SOL    HW226868   6.283   0.940   1.209
 8657SOL     OW26869   5.152   5.216   6.244
 8657SOL    HW126870   5.095   5.136   6.227
 8657SOL    HW226871   5.102   5.299   6.219
 8658SOL     OW26872   5.159   4.886   7.000
 8658SOL    HW126873   5.101   4.944   6.943
 8658SOL    HW226874   5.147   4.791   6.973
 8659SOL     OW26875   4.486   0.675   3.447
 8659SOL    HW126876   4.496   0.724   3.534
 8659SOL    HW226877   4.561   0.699   3.386
 8660SOL     OW26878   6.217   4.154   0.050
 8660SOL    HW126879   6.314   4.138   0.066
 8660SOL    HW226880   6.203   4.188   6.978
 8661SOL     OW26881   6.126   3.750   1.863
 8661SOL    HW126882   6.033   3.754   1.825
 8661SOL    HW226883   6.145   3.835   1.913
 8662SOL     OW26884   5.855   6.492   1.259
 8662SOL    HW126885   5.799   6.504   1.340
 8662SOL    HW226886   5.952   6.500   1.284
 8663SOL     OW26887   2.115   5.320   0.829
 8663SOL    HW126888   2.132   5.305   0.732
 8663SOL    HW226889   2.087   5.235   0.873
 8664SOL     OW26890   4.592   5.517   6.738
 8664SOL    HW126891   4.678   5.514   6.685
 8664SOL    HW226892   4.607   5.568   6.822
 8665SOL     OW26893   4.902   5.947   5.608
 8665SOL    HW126894   4.820   5.981   5.654
 8665SOL    HW226895   4.963   5.905   5.675
 8666SOL     OW26896   4.851   1.857   5.257
 8666SOL    HW126897   4.909   1.901   5.189
 8666SOL    HW226898   4.849   1.911   5.341
 8667SOL     OW26899   5.083   1.615   3.266
 8667SOL    HW126900   5.152   1.576   3.205
 8667SOL    HW226901   5.107   1.710   3.287
 8668SOL     OW26902   5.460   2.521   4.044
 8668SOL    HW126903   5.484   2.541   4.139
 8668SOL    HW226904   5.370   2.559   4.024
 8669SOL     OW26905   4.020   0.772   6.209
 8669SOL    HW126906   3.985   0.695   6.156
 8669SOL    HW226907   3.991   0.858   6.167
 8670SOL     OW26908   3.610   5.550   4.874
 8670SOL    HW126909   3.556   5.565   4.791
 8670SOL    HW226910   3.550   5.518   4.947
 8671SOL     OW26911   6.005   0.410   3.769
 8671SOL    HW126912   6.080   0.426   3.833
 8671SOL    HW226913   5.974   0.316   3.777
 8672SOL     OW26914   2.715   5.521   4.457
 8672SOL    HW126915   2.785   5.464   4.414
 8672SOL    HW226916   2.697   5.601   4.400
 8673SOL     OW26917   0.609   2.262   6.935
 8673SOL    HW126918   0.535   2.203   6.966
 8673SOL    HW226919   0.668   2.211   6.872
 8674SOL     OW26920   0.010   6.503   2.629
 8674SOL    HW126921   0.102   6.473   2.601
 8674SOL    HW226922   6.978   6.424   2.657
 8675SOL     OW26923   2.570   2.037   4.338
 8675SOL    HW126924   2.646   2.045   4.403
 8675SOL    HW226925   2.604   2.050   4.245
 8676SOL     OW26926   3.410   0.597   2.771
 8676SOL    HW126927   3.406   0.523   2.705
 8676SOL    HW226928   3.321   0.607   2.815
 8677SOL     OW26929   2.731   5.619   6.325
 8677SOL    HW126930   2.732   5.529   6.281
 8677SOL    HW226931   2.700   5.610   6.419
 8678SOL     OW26932   0.885   0.629   0.367
 8678SOL    HW126933   0.825   0.588   0.298
 8678SOL    HW226934   0.957   0.682   0.321
 8679SOL     OW26935   5.754   1.826   4.849
 8679SOL    HW126936   5.719   1.737   4.878
 8679SOL    HW226937   5.706   1.899   4.898
 8680SOL     OW26938   1.933   4.064   0.839
 8680SOL    HW126939   1.968   4.089   0.749
 8680SOL    HW226940   1.881   4.140   0.877
 8681SOL     OW26941   4.874   4.371   6.984
 8681SOL    HW126942   4.923   4.419   6.911
 8681SOL    HW226943   4.912   4.279   6.993
 8682SOL     OW26944   3.001   6.560   3.009
 8682SOL    HW126945   3.083   6.574   3.065
 8682SOL    HW226946   2.990   6.637   2.947
 8683SOL     OW26947   1.159   3.046   1.620
 8683SOL    HW126948   1.125   3.004   1.705
 8683SOL    HW226949   1.190   3.139   1.639
 8684SOL     OW26950   6.435   2.787   4.802
 8684SOL    HW126951   6.505   2.851   4.834
 8684SOL    HW226952   6.348   2.809   4.846
 8685SOL     OW26953   1.417   1.879   6.243
 8685SOL    HW126954   1.499   1.866   6.298
 8685SOL    HW226955   1.437   1.859   6.147
 8686SOL     OW26956   6.789   2.215   2.048
 8686SOL    HW126957   6.811   2.274   2.126
 8686SOL    HW226958   6.864   2.150   2.034
 8687SOL     OW26959   3.724   6.358   2.738
 8687SOL    HW126960   3.759   6.450   2.720
 8687SOL    HW226961   3.629   6.352   2.705
 8688SOL     OW26962   2.475   6.615   0.954
 8688SOL    HW126963   2.568   6.608   0.919
 8688SOL    HW226964   2.467   6.562   1.039
 8689SOL     OW26965   4.005   5.929   6.987
 8689SOL    HW126966   3.966   5.851   6.939
 8689SOL    HW226967   4.011   5.909   0.063
 8690SOL     OW26968   1.361   1.641   4.195
 8690SOL    HW126969   1.424   1.656   4.119
 8690SOL    HW226970   1.280   1.593   4.161
 8691SOL     OW26971   4.379   2.698   6.426
 8691SOL    HW126972   4.342   2.665   6.513
 8691SOL    HW226973   4.431   2.782   6.441
 8692SOL     OW26974   3.208   2.105   3.265
 8692SOL    HW126975   3.306   2.085   3.275
 8692SOL    HW226976   3.186   2.112   3.167
 8693SOL     OW26977   5.487   2.548   0.604
 8693SOL    HW126978   5.456   2.505   0.689
 8693SOL    HW226979   5.447   2.500   0.526
 8694SOL     OW26980   5.120   0.394   6.390
 8694SOL    HW126981   5.170   0.467   6.344
 8694SOL    HW226982   5.023   0.402   6.367
 8695SOL     OW26983   4.613   2.724   6.089
 8695SOL    HW126984   4.542   2.778   6.043
 8695SOL    HW226985   4.571   2.656   6.149
 8696SOL     OW26986   3.559   5.728   0.998
 8696SOL    HW126987   3.494   5.661   1.033
 8696SOL    HW226988   3.530   5.759   0.908
 8697SOL     OW26989   6.406   3.631   0.102
 8697SOL    HW126990   6.344   3.563   0.141
 8697SOL    HW226991   6.476   3.654   0.168
 8698SOL     OW26992   5.275   5.716   4.147
 8698SOL    HW126993   5.357   5.773   4.148
 8698SOL    HW226994   5.266   5.672   4.058
 8699SOL     OW26995   1.209   2.694   5.435
 8699SOL    HW126996   1.118   2.729   5.411
 8699SOL    HW226997   1.228   2.717   5.531
 8700SOL     OW26998   2.224   0.870   4.791
 8700SOL    HW126999   2.263   0.796   4.846
 8700SOL    HW227000   2.298   0.922   4.748
 8701SOL     OW27001   0.604   1.186   5.962
 8701SOL    HW127002   0.675   1.160   5.896
 8701SOL    HW227003   0.597   1.286   5.965
 8702SOL     OW27004   5.324   4.584   7.014
 8702SOL    HW127005   5.403   4.625   0.038
 8702SOL    HW227006   5.283   4.515   0.052
 8703SOL     OW27007   3.370   5.661   1.398
 8703SOL    HW127008   3.337   5.587   1.456
 8703SOL    HW227009   3.326   5.747   1.424
 8704SOL     OW27010   6.399   4.074   2.543
 8704SOL    HW127011   6.307   4.034   2.538
 8704SOL    HW227012   6.395   4.169   2.511
 8705SOL     OW27013   4.886   1.041   6.687
 8705SOL    HW127014   4.806   1.061   6.743
 8705SOL    HW227015   4.943   0.973   6.733
 8706SOL     OW27016   4.676   1.934   6.745
 8706SOL    HW127017   4.621   2.016   6.760
 8706SOL    HW227018   4.773   1.957   6.755
 8707SOL     OW27019   4.136   2.918   0.087
 8707SOL    HW127020   4.101   2.896   7.018
 8707SOL    HW227021   4.122   3.016   0.105
 8708SOL     OW27022   3.559   0.503   2.297
 8708SOL    HW127023   3.529   0.462   2.383
 8708SOL    HW227024   3.582   0.599   2.312
 8709SOL     OW27025   6.923   4.591   6.850
 8709SOL    HW127026   6.949   4.606   6.946
 8709SOL    HW227027   7.005   4.576   6.795
 8710SOL     OW27028   1.539   3.042   2.997
 8710SOL    HW127029   1.632   3.012   2.976
 8710SOL    HW227030   1.482   3.032   2.915
 8711SOL     OW27031   0.469   6.968   2.957
 8711SOL    HW127032   0.416   6.889   2.987
 8711SOL    HW227033   0.426   0.030   2.991
 8712SOL     OW27034   3.608   1.889   3.542
 8712SOL    HW127035   3.587   1.824   3.469
 8712SOL    HW227036   3.528   1.899   3.601
 8713SOL     OW27037   0.080   3.965   3.440
 8713SOL    HW127038   0.100   3.918   3.354
 8713SOL    HW227039   0.080   4.064   3.424
 8714SOL     OW27040   0.952   0.577   5.600
 8714SOL    HW127041   0.926   0.660   5.650
 8714SOL    HW227042   0.870   0.535   5.560
 8715SOL     OW27043   6.048   0.493   0.937
 8715SOL    HW127044   6.003   0.520   1.022
 8715SOL    HW227045   6.124   0.555   0.917
 8716SOL     OW27046   0.804   1.719   1.257
 8716SOL    HW127047   0.785   1.685   1.165
 8716SOL    HW227048   0.886   1.675   1.293
 8717SOL     OW27049   3.994   3.635   2.344
 8717SOL    HW127050   3.978   3.696   2.421
 8717SOL    HW227051   3.956   3.545   2.365
 8718SOL     OW27052   0.151   2.758   4.987
 8718SOL    HW127053   0.216   2.682   4.995
 8718SOL    HW227054   0.080   2.734   4.921
 8719SOL     OW27055   1.110   0.875   5.634
 8719SOL    HW127056   1.094   0.938   5.710
 8719SOL    HW227057   1.051   0.900   5.557
 8720SOL     OW27058   6.330   4.728   5.262
 8720SOL    HW127059   6.251   4.746   5.320
 8720SOL    HW227060   6.315   4.766   5.171
 8721SOL     OW27061   6.071   2.693   4.344
 8721SOL    HW127062   6.157   2.681   4.394
 8721SOL    HW227063   5.997   2.710   4.408
 8722SOL     OW27064   3.813   1.354   0.608
 8722SOL    HW127065   3.719   1.386   0.611
 8722SOL    HW227066   3.855   1.364   0.699
 8723SOL     OW27067   5.901   5.430   0.796
 8723SOL    HW127068   5.884   5.440   0.894
 8723SOL    HW227069   5.892   5.519   0.751
 8724SOL     OW27070   6.094   0.017   5.691
 8724SOL    HW127071   6.032   0.056   5.759
 8724SOL    HW227072   6.174   0.077   5.681
 8725SOL     OW27073   1.854   0.592   0.157
 8725SOL    HW127074   1.951   0.578   0.141
 8725SOL    HW227075   1.802   0.562   0.077
 8726SOL     OW27076   6.092   7.001   1.407
 8726SOL    HW127077   6.071   6.932   1.338
 8726SOL    HW227078   6.170   0.034   1.377
 8727SOL     OW27079   6.413   6.265   2.052
 8727SOL    HW127080   6.423   6.314   1.965
 8727SOL    HW227081   6.341   6.309   2.106
 8728SOL     OW27082   3.332   0.248   5.275
 8728SOL    HW127083   3.408   0.252   5.339
 8728SOL    HW227084   3.318   0.339   5.234
 8729SOL     OW27085   4.614   5.577   2.803
 8729SOL    HW127086   4.601   5.479   2.812
 8729SOL    HW227087   4.529   5.620   2.774
 8730SOL     OW27088   6.982   5.744   2.494
 8730SOL    HW127089   6.892   5.767   2.530
 8730SOL    HW227090   6.972   5.704   2.403
 8731SOL     OW27091   1.790   1.908   3.249
 8731SOL    HW127092   1.709   1.853   3.270
 8731SOL    HW227093   1.784   1.996   3.295
 8732SOL     OW27094   5.111   4.362   1.845
 8732SOL    HW127095   5.039   4.430   1.859
 8732SOL    HW227096   5.200   4.406   1.857
 8733SOL     OW27097   1.015   6.228   3.207
 8733SOL    HW127098   1.028   6.133   3.236
 8733SOL    HW227099   0.973   6.230   3.116
 8734SOL     OW27100   1.011   4.642   1.424
 8734SOL    HW127101   1.087   4.668   1.484
 8734SOL    HW227102   0.992   4.545   1.434
 8735SOL     OW27103   0.999   1.801   6.861
 8735SOL    HW127104   0.910   1.828   6.899
 8735SOL    HW227105   1.060   1.881   6.860
 8736SOL     OW27106   0.828   6.654   0.227
 8736SOL    HW127107   0.761   6.696   0.287
 8736SOL    HW227108   0.796   6.563   0.199
 8737SOL     OW27109   4.184   6.324   5.917
 8737SOL    HW127110   4.131   6.352   5.836
 8737SOL    HW227111   4.124   6.323   5.997
 8738SOL     OW27112   1.327   3.591   4.670
 8738SOL    HW127113   1.228   3.604   4.671
 8738SOL    HW227114   1.367   3.650   4.600
 8739SOL     OW27115   6.934   4.220   6.005
 8739SOL    HW127116   6.888   4.282   6.067
 8739SOL    HW227117   6.887   4.132   6.004
 8740SOL     OW27118   3.738   0.721   5.659
 8740SOL    HW127119   3.712   0.786   5.730
 8740SOL    HW227120   3.678   0.730   5.580
 8741SOL     OW27121   1.598   1.908   2.123
 8741SOL    HW127122   1.518   1.848   2.121
 8741SOL    HW227123   1.648   1.894   2.208
 8742SOL     OW27124   5.011   5.906   1.385
 8742SOL    HW127125   5.058   5.974   1.441
 8742SOL    HW227126   4.998   5.942   1.293
 8743SOL     OW27127   2.047   5.224   2.452
 8743SOL    HW127128   2.044   5.149   2.518
 8743SOL    HW227129   2.021   5.309   2.497
 8744SOL     OW27130   4.235   2.830   6.108
 8744SOL    HW127131   4.292   2.899   6.151
 8744SOL    HW227132   4.184   2.780   6.178
 8745SOL     OW27133   5.807   1.883   5.263
 8745SOL    HW127134   5.735   1.817   5.284
 8745SOL    HW227135   5.792   1.920   5.171
 8746SOL     OW27136   4.380   4.514   5.759
 8746SOL    HW127137   4.360   4.564   5.674
 8746SOL    HW227138   4.340   4.422   5.753
 8747SOL     OW27139   0.865   2.584   3.489
 8747SOL    HW127140   0.810   2.600   3.407
 8747SOL    HW227141   0.880   2.486   3.501
 8748SOL     OW27142   0.455   0.517   0.243
 8748SOL    HW127143   0.511   0.470   0.312
 8748SOL    HW227144   0.363   0.478   0.244
 8749SOL     OW27145   3.005   0.717   4.426
 8749SOL    HW127146   3.075   0.661   4.383
 8749SOL    HW227147   2.950   0.661   4.488
 8750SOL     OW27148   2.335   2.568   5.419
 8750SOL    HW127149   2.364   2.634   5.350
 8750SOL    HW227150   2.251   2.523   5.389
 8751SOL     OW27151   0.242   0.466   2.113
 8751SOL    HW127152   0.248   0.367   2.108
 8751SOL    HW227153   0.147   0.495   2.107
 8752SOL     OW27154   2.479   4.352   6.783
 8752SOL    HW127155   2.561   4.364   6.838
 8752SOL    HW227156   2.491   4.394   6.693
 8753SOL     OW27157   5.061   1.738   4.467
 8753SOL    HW127158   5.057   1.797   4.386
 8753SOL    HW227159   4.995   1.664   4.458
 8754SOL     OW27160   0.511   2.024   5.909
 8754SOL    HW127161   0.433   1.983   5.956
 8754SOL    HW227162   0.581   2.048   5.975
 8755SOL     OW27163   2.628   1.226   6.743
 8755SOL    HW127164   2.573   1.143   6.750
 8755SOL    HW227165   2.692   1.231   6.819
 8756SOL     OW27166   2.147   3.185   3.533
 8756SOL    HW127167   2.238   3.227   3.536
 8756SOL    HW227168   2.144   3.118   3.459
 8757SOL     OW27169   4.941   6.230   5.279
 8757SOL    HW127170   5.037   6.221   5.306
 8757SOL    HW227171   4.884   6.242   5.360
 8758SOL     OW27172   5.612   6.268   1.954
 8758SOL    HW127173   5.524   6.220   1.952
 8758SOL    HW227174   5.678   6.213   2.005
 8759SOL     OW27175   4.879   1.105   5.963
 8759SOL    HW127176   4.925   1.076   6.048
 8759SOL    HW227177   4.905   1.199   5.942
 8760SOL     OW27178   1.783   1.613   4.488
 8760SOL    HW127179   1.869   1.661   4.502
 8760SOL    HW227180   1.795   1.538   4.423
 8761SOL     OW27181   5.379   0.283   0.437
 8761SOL    HW127182   5.304   0.220   0.456
 8761SOL    HW227183   5.464   0.231   0.427
 8762SOL     OW27184   1.435   3.554   2.431
 8762SOL    HW127185   1.534   3.563   2.425
 8762SOL    HW227186   1.409   3.459   2.411
 8763SOL     OW27187   6.661   5.918   5.366
 8763SOL    HW127188   6.614   5.979   5.430
 8763SOL    HW227189   6.757   5.945   5.358
 8764SOL     OW27190   5.219   1.822   3.593
 8764SOL    HW127191   5.185   1.858   3.680
 8764SOL    HW227192   5.271   1.893   3.546
 8765SOL     OW27193   5.571   6.739   4.769
 8765SOL    HW127194   5.515   6.804   4.819
 8765SOL    HW227195   5.582   6.769   4.674
 8766SOL     OW27196   3.042   4.853   3.628
 8766SOL    HW127197   2.986   4.794   3.686
 8766SOL    HW227198   3.046   4.944   3.668
 8767SOL     OW27199   4.461   0.798   2.826
 8767SOL    HW127200   4.498   0.735   2.894
 8767SOL    HW227201   4.515   0.881   2.824
 8768SOL     OW27202   1.916   3.097   0.201
 8768SOL    HW127203   1.834   3.126   0.252
 8768SOL    HW227204   1.949   3.010   0.237
 8769SOL     OW27205   0.119   7.008   5.212
 8769SOL    HW127206   0.174   6.955   5.147
 8769SOL    HW227207   0.092   0.072   5.169
 8770SOL     OW27208   5.205   4.074   1.999
 8770SOL    HW127209   5.172   3.979   1.995
 8770SOL    HW227210   5.127   4.136   1.990
 8771SOL     OW27211   1.802   1.626   6.783
 8771SOL    HW127212   1.836   1.533   6.773
 8771SOL    HW227213   1.702   1.626   6.780
 8772SOL     OW27214   6.415   1.084   6.751
 8772SOL    HW127215   6.326   1.053   6.719
 8772SOL    HW227216   6.475   1.005   6.765
 8773SOL     OW27217   3.657   2.138   3.405
 8773SOL    HW127218   3.653   2.056   3.463
 8773SOL    HW227219   3.741   2.188   3.425
 8774SOL     OW27220   0.974   1.479   0.804
 8774SOL    HW127221   0.991   1.571   0.770
 8774SOL    HW227222   1.031   1.414   0.753
 8775SOL     OW27223   5.591   6.759   3.343
 8775SOL    HW127224   5.541   6.724   3.265
 8775SOL    HW227225   5.529   6.773   3.420
 8776SOL     OW27226   3.549   3.214   4.929
 8776SOL    HW127227   3.462   3.262   4.946
 8776SOL    HW227228   3.616   3.279   4.894
 8777SOL     OW27229   6.326   4.566   1.717
 8777SOL    HW127230   6.230   4.539   1.707
 8777SOL    HW227231   6.372   4.504   1.782
 8778SOL     OW27232   0.487   2.082   3.395
 8778SOL    HW127233   0.449   2.170   3.367
 8778SOL    HW227234   0.413   2.018   3.415
 8779SOL     OW27235   1.645   4.168   1.890
 8779SOL    HW127236   1.675   4.225   1.814
 8779SOL    HW227237   1.575   4.217   1.943
 8780SOL     OW27238   1.530   5.803   4.415
 8780SOL    HW127239   1.568   5.837   4.501
 8780SOL    HW227240   1.448   5.855   4.391
 8781SOL     OW27241   0.468   1.642   3.022
 8781SOL    HW127242   0.475   1.708   3.097
 8781SOL    HW227243   0.504   1.682   2.938
 8782SOL     OW27244   5.079   1.252   2.285
 8782SOL    HW127245   5.131   1.174   2.249
 8782SOL    HW227246   4.982   1.232   2.279
 8783SOL     OW27247   6.188   3.927   3.855
 8783SOL    HW127248   6.090   3.907   3.852
 8783SOL    HW227249   6.210   3.972   3.941
 8784SOL     OW27250   5.564   4.970   5.268
 8784SOL    HW127251   5.605   4.955   5.178
 8784SOL    HW227252   5.551   5.068   5.283
 8785SOL     OW27253   5.478   3.980   6.721
 8785SOL    HW127254   5.418   4.056   6.745
 8785SOL    HW227255   5.555   3.977   6.785
 8786SOL     OW27256   1.395   6.569   6.634
 8786SOL    HW127257   1.394   6.614   6.545
 8786SOL    HW227258   1.364   6.634   6.704
 8787SOL     OW27259   2.134   3.211   1.933
 8787SOL    HW127260   2.207   3.275   1.912
 8787SOL    HW227261   2.082   3.244   2.011
 8788SOL     OW27262   6.813   2.066   5.296
 8788SOL    HW127263   6.886   2.116   5.247
 8788SOL    HW227264   6.809   2.098   5.390
 8789SOL     OW27265   6.830   0.652   6.393
 8789SOL    HW127266   6.741   0.607   6.397
 8789SOL    HW227267   6.837   0.720   6.466
 8790SOL     OW27268   6.877   1.672   7.018
 8790SOL    HW127269   6.896   1.722   0.080
 8790SOL    HW227270   6.918   1.581   0.001
 8791SOL     OW27271   5.287   0.060   5.521
 8791SOL    HW127272   5.307   0.011   5.436
 8791SOL    HW227273   5.350   0.138   5.529
 8792SOL     OW27274   4.454   0.114   3.403
 8792SOL    HW127275   4.433   0.160   3.316
 8792SOL    HW227276   4.394   0.150   3.474
 8793SOL     OW27277   2.635   5.798   3.899
 8793SOL    HW127278   2.572   5.724   3.925
 8793SOL    HW227279   2.587   5.886   3.905
 8794SOL     OW27280   2.732   6.699   2.782
 8794SOL    HW127281   2.649   6.724   2.832
 8794SOL    HW227282   2.707   6.667   2.691
 8795SOL     OW27283   1.565   6.628   5.642
 8795SOL    HW127284   1.573   6.534   5.609
 8795SOL    HW227285   1.535   6.628   5.737
 8796SOL     OW27286   4.322   1.507   5.252
 8796SOL    HW127287   4.412   1.521   5.293
 8796SOL    HW227288   4.273   1.436   5.303
 8797SOL     OW27289   1.266   6.698   6.082
 8797SOL    HW127290   1.302   6.721   6.172
 8797SOL    HW227291   1.234   6.603   6.082
 8798SOL     OW27292   5.871   3.649   5.315
 8798SOL    HW127293   5.794   3.588   5.335
 8798SOL    HW227294   5.847   3.712   5.242
 8799SOL     OW27295   2.503   4.524   3.249
 8799SOL    HW127296   2.473   4.462   3.177
 8799SOL    HW227297   2.522   4.614   3.209
 8800SOL     OW27298   4.109   4.093   5.676
 8800SOL    HW127299   4.067   4.006   5.648
 8800SOL    HW227300   4.105   4.158   5.600
 8801SOL     OW27301   2.260   1.098   4.148
 8801SOL    HW127302   2.221   1.124   4.237
 8801SOL    HW227303   2.264   1.179   4.089
 8802SOL     OW27304   1.346   6.587   2.358
 8802SOL    HW127305   1.303   6.608   2.445
 8802SOL    HW227306   1.288   6.525   2.306
 8803SOL     OW27307   2.119   5.425   6.812
 8803SOL    HW127308   2.094   5.482   6.734
 8803SOL    HW227309   2.216   5.402   6.807
 8804SOL     OW27310   3.695   0.840   1.646
 8804SOL    HW127311   3.610   0.799   1.679
 8804SOL    HW227312   3.752   0.770   1.603
 8805SOL     OW27313   1.387   6.984   3.304
 8805SOL    HW127314   1.304   6.960   3.252
 8805SOL    HW227315   1.367   0.039   3.364
 8806SOL     OW27316   1.132   5.264   0.470
 8806SOL    HW127317   1.053   5.280   0.411
 8806SOL    HW227318   1.111   5.295   0.563
 8807SOL     OW27319   6.288   5.793   5.812
 8807SOL    HW127320   6.285   5.801   5.912
 8807SOL    HW227321   6.371   5.837   5.778
 8808SOL     OW27322   5.344   1.141   0.717
 8808SOL    HW127323   5.427   1.150   0.772
 8808SOL    HW227324   5.350   1.056   0.663
 8809SOL     OW27325   5.533   3.653   1.947
 8809SOL    HW127326   5.514   3.570   1.999
 8809SOL    HW227327   5.557   3.629   1.853
 8810SOL     OW27328   5.477   1.777   4.181
 8810SOL    HW127329   5.467   1.679   4.201
 8810SOL    HW227330   5.387   1.814   4.155
 8811SOL     OW27331   2.236   1.765   4.035
 8811SOL    HW127332   2.180   1.824   4.092
 8811SOL    HW227333   2.181   1.689   4.001
 8812SOL     OW27334   0.569   0.987   0.581
 8812SOL    HW127335   0.473   0.960   0.570
 8812SOL    HW227336   0.627   0.929   0.524
 8813SOL     OW27337   0.895   6.014   1.506
 8813SOL    HW127338   0.863   6.004   1.600
 8813SOL    HW227339   0.988   5.978   1.498
 8814SOL     OW27340   0.118   0.540   6.758
 8814SOL    HW127341   0.042   0.476   6.755
 8814SOL    HW227342   0.146   0.564   6.665
 8815SOL     OW27343   6.947   5.381   1.597
 8815SOL    HW127344   6.858   5.422   1.620
 8815SOL    HW227345   6.971   5.404   1.503
 8816SOL     OW27346   1.193   6.033   0.933
 8816SOL    HW127347   1.177   6.073   0.843
 8816SOL    HW227348   1.284   6.060   0.966
 8817SOL     OW27349   1.322   6.293   5.284
 8817SOL    HW127350   1.296   6.360   5.354
 8817SOL    HW227351   1.345   6.340   5.199
 8818SOL     OW27352   0.170   3.875   3.695
 8818SOL    HW127353   0.144   3.907   3.603
 8818SOL    HW227354   0.266   3.846   3.694
 8819SOL     OW27355   4.431   6.583   4.228
 8819SOL    HW127356   4.524   6.561   4.197
 8819SOL    HW227357   4.387   6.641   4.160
 8820SOL     OW27358   1.725   2.792   4.645
 8820SOL    HW127359   1.638   2.832   4.616
 8820SOL    HW227360   1.710   2.734   4.725
 8821SOL     OW27361   2.085   0.371   6.328
 8821SOL    HW127362   2.102   0.452   6.272
 8821SOL    HW227363   2.154   0.365   6.400
 8822SOL     OW27364   0.669   0.668   3.053
 8822SOL    HW127365   0.656   0.576   3.089
 8822SOL    HW227366   0.604   0.730   3.096
 8823SOL     OW27367   2.025   6.992   0.654
 8823SOL    HW127368   2.103   6.930   0.663
 8823SOL    HW227369   1.965   6.983   0.733
 8824SOL     OW27370   2.723   3.975   0.944
 8824SOL    HW127371   2.777   3.946   0.865
 8824SOL    HW227372   2.658   3.903   0.969
 8825SOL     OW27373   1.872   1.088   2.141
 8825SOL    HW127374   1.937   1.163   2.147
 8825SOL    HW227375   1.903   1.012   2.199
 8826SOL     OW27376   5.957   1.743   0.137
 8826SOL    HW127377   5.875   1.747   0.080
 8826SOL    HW227378   5.938   1.688   0.218
 8827SOL     OW27379   2.588   1.801   3.357
 8827SOL    HW127380   2.634   1.862   3.421
 8827SOL    HW227381   2.581   1.710   3.397
 8828SOL     OW27382   3.130   5.832   3.610
 8828SOL    HW127383   3.107   5.872   3.521
 8828SOL    HW227384   3.226   5.850   3.630
 8829SOL     OW27385   0.313   3.031   6.712
 8829SOL    HW127386   0.271   2.940   6.713
 8829SOL    HW227387   0.412   3.022   6.718
 8830SOL     OW27388   0.621   1.194   0.012
 8830SOL    HW127389   0.629   1.162   6.940
 8830SOL    HW227390   0.587   1.121   0.070
 8831SOL     OW27391   5.940   0.739   2.769
 8831SOL    HW127392   5.905   0.747   2.862
 8831SOL    HW227393   5.874   0.690   2.713
 8832SOL     OW27394   0.667   6.845   2.344
 8832SOL    HW127395   0.744   6.869   2.286
 8832SOL    HW227396   0.643   6.750   2.330
 8833SOL     OW27397   2.322   5.845   4.581
 8833SOL    HW127398   2.401   5.904   4.597
 8833SOL    HW227399   2.245   5.900   4.548
 8834SOL     OW27400   5.817   3.165   4.615
 8834SOL    HW127401   5.811   3.215   4.702
 8834SOL    HW227402   5.742   3.193   4.555
 8835SOL     OW27403   6.710   6.900   5.548
 8835SOL    HW127404   6.704   7.000   5.545
 8835SOL    HW227405   6.789   6.874   5.605
 8836SOL     OW27406   4.133   0.680   0.520
 8836SOL    HW127407   4.179   0.766   0.539
 8836SOL    HW227408   4.188   0.603   0.554
 8837SOL     OW27409   0.690   1.158   1.789
 8837SOL    HW127410   0.607   1.160   1.844
 8837SOL    HW227411   0.766   1.123   1.844
 8838SOL     OW27412   2.544   4.978   3.191
 8838SOL    HW127413   2.521   5.035   3.113
 8838SOL    HW227414   2.484   5.000   3.268
 8839SOL     OW27415   6.277   6.291   3.131
 8839SOL    HW127416   6.177   6.291   3.129
 8839SOL    HW227417   6.309   6.297   3.226
 8840SOL     OW27418   5.905   2.206   2.162
 8840SOL    HW127419   5.894   2.205   2.062
 8840SOL    HW227420   5.877   2.118   2.200
 8841SOL     OW27421   1.044   1.810   5.498
 8841SOL    HW127422   0.979   1.832   5.571
 8841SOL    HW227423   1.024   1.865   5.417
 8842SOL     OW27424   2.754   2.575   1.387
 8842SOL    HW127425   2.773   2.643   1.458
 8842SOL    HW227426   2.766   2.483   1.425
 8843SOL     OW27427   1.442   3.104   4.987
 8843SOL    HW127428   1.537   3.094   5.018
 8843SOL    HW227429   1.423   3.200   4.968
 8844SOL     OW27430   5.895   1.298   6.505
 8844SOL    HW127431   5.903   1.266   6.599
 8844SOL    HW227432   5.920   1.224   6.442
 8845SOL     OW27433   4.832   4.039   0.172
 8845SOL    HW127434   4.769   4.097   0.223
 8845SOL    HW227435   4.918   4.088   0.157
 8846SOL     OW27436   1.891   4.985   3.903
 8846SOL    HW127437   1.986   4.975   3.873
 8846SOL    HW227438   1.876   5.079   3.934
 8847SOL     OW27439   3.195   0.498   3.066
 8847SOL    HW127440   3.143   0.452   3.138
 8847SOL    HW227441   3.272   0.441   3.039
 8848SOL     OW27442   1.906   0.819   1.667
 8848SOL    HW127443   1.909   0.848   1.763
 8848SOL    HW227444   1.990   0.846   1.622
 8849SOL     OW27445   1.533   6.189   2.418
 8849SOL    HW127446   1.457   6.125   2.422
 8849SOL    HW227447   1.578   6.183   2.329
 8850SOL     OW27448   3.102   2.191   6.601
 8850SOL    HW127449   3.099   2.222   6.696
 8850SOL    HW227450   3.046   2.109   6.591
 8851SOL     OW27451   1.670   4.499   2.329
 8851SOL    HW127452   1.611   4.547   2.394
 8851SOL    HW227453   1.715   4.422   2.375
 8852SOL     OW27454   1.348   1.792   5.446
 8852SOL    HW127455   1.252   1.764   5.454
 8852SOL    HW227456   1.353   1.886   5.415
 8853SOL     OW27457   3.347   0.908   1.565
 8853SOL    HW127458   3.373   0.962   1.645
 8853SOL    HW227459   3.283   0.836   1.592
 8854SOL     OW27460   1.584   2.647   4.900
 8854SOL    HW127461   1.490   2.674   4.880
 8854SOL    HW227462   1.585   2.556   4.941
 8855SOL     OW27463   5.613   4.953   1.585
 8855SOL    HW127464   5.614   4.886   1.512
 8855SOL    HW227465   5.612   4.906   1.674
 8856SOL     OW27466   0.058   5.588   6.238
 8856SOL    HW127467   0.064   5.678   6.281
 8856SOL    HW227468   7.017   5.531   6.291
 8857SOL     OW27469   6.298   1.450   5.356
 8857SOL    HW127470   6.381   1.397   5.340
 8857SOL    HW227471   6.295   1.527   5.292
 8858SOL     OW27472   5.989   5.010   5.493
 8858SOL    HW127473   6.017   5.083   5.555
 8858SOL    HW227474   5.923   4.951   5.539
 8859SOL     OW27475   0.694   1.073   3.651
 8859SOL    HW127476   0.714   1.171   3.643
 8859SOL    HW227477   0.780   1.022   3.643
 8860SOL     OW27478   6.930   2.455   1.265
 8860SOL    HW127479   6.978   2.543   1.259
 8860SOL    HW227480   6.880   2.451   1.351
 8861SOL     OW27481   4.291   1.818   1.434
 8861SOL    HW127482   4.282   1.731   1.385
 8861SOL    HW227483   4.223   1.883   1.399
 8862SOL     OW27484   4.643   5.483   5.253
 8862SOL    HW127485   4.658   5.391   5.216
 8862SOL    HW227486   4.709   5.501   5.325
 8863SOL     OW27487   2.031   4.586   3.710
 8863SOL    HW127488   2.026   4.592   3.610
 8863SOL    HW227489   1.996   4.497   3.740
 8864SOL     OW27490   5.163   2.504   6.650
 8864SOL    HW127491   5.066   2.503   6.624
 8864SOL    HW227492   5.218   2.532   6.571
 8865SOL     OW27493   2.951   1.401   6.479
 8865SOL    HW127494   2.993   1.492   6.484
 8865SOL    HW227495   2.878   1.403   6.411
 8866SOL     OW27496   5.604   6.251   2.279
 8866SOL    HW127497   5.658   6.179   2.236
 8866SOL    HW227498   5.579   6.319   2.210
 8867SOL     OW27499   6.520   3.360   2.487
 8867SOL    HW127500   6.441   3.308   2.521
 8867SOL    HW227501   6.511   3.455   2.516
 8868SOL     OW27502   0.134   3.471   3.168
 8868SOL    HW127503   0.036   3.491   3.173
 8868SOL    HW227504   0.172   3.514   3.087
 8869SOL     OW27505   3.595   5.681   3.874
 8869SOL    HW127506   3.578   5.639   3.964
 8869SOL    HW227507   3.527   5.752   3.857
 8870SOL     OW27508   1.567   7.016   1.704
 8870SOL    HW127509   1.578   0.081   1.752
 8870SOL    HW227510   1.530   0.010   1.613
 8871SOL     OW27511   1.349   0.641   2.606
 8871SOL    HW127512   1.282   0.569   2.586
 8871SOL    HW227513   1.311   0.703   2.675
 8872SOL     OW27514   0.468   4.275   5.824
 8872SOL    HW127515   0.370   4.286   5.806
 8872SOL    HW227516   0.486   4.299   5.920
 8873SOL     OW27517   1.587   0.204   1.913
 8873SOL    HW127518   1.657   0.261   1.957
 8873SOL    HW227519   1.525   0.168   1.983
 8874SOL     OW27520   2.128   5.466   0.469
 8874SOL    HW127521   2.093   5.374   0.485
 8874SOL    HW227522   2.188   5.467   0.389
 8875SOL     OW27523   0.171   2.824   3.517
 8875SOL    HW127524   0.166   2.921   3.540
 8875SOL    HW227525   0.205   2.772   3.596
 8876SOL     OW27526   3.607   0.366   5.984
 8876SOL    HW127527   3.698   0.389   5.948
 8876SOL    HW227528   3.605   0.382   6.083
 8877SOL     OW27529   1.728   3.775   1.153
 8877SOL    HW127530   1.719   3.845   1.082
 8877SOL    HW227531   1.777   3.696   1.115
 8878SOL     OW27532   3.906   5.110   0.742
 8878SOL    HW127533   3.831   5.054   0.707
 8878SOL    HW227534   3.870   5.197   0.775
 8879SOL     OW27535   6.338   4.681   3.048
 8879SOL    HW127536   6.337   4.723   2.957
 8879SOL    HW227537   6.374   4.588   3.041
 8880SOL     OW27538   4.682   6.817   3.447
 8880SOL    HW127539   4.772   6.774   3.452
 8880SOL    HW227540   4.685   6.906   3.493
 8881SOL     OW27541   3.763   4.979   3.717
 8881SOL    HW127542   3.679   4.972   3.771
 8881SOL    HW227543   3.831   5.030   3.768
 8882SOL     OW27544   3.934   0.564   0.854
 8882SOL    HW127545   3.923   0.643   0.914
 8882SOL    HW227546   3.845   0.531   0.825
 8883SOL     OW27547   0.156   6.659   5.631
 8883SOL    HW127548   0.066   6.634   5.669
 8883SOL    HW227549   0.153   6.653   5.531
 8884SOL     OW27550   5.508   3.859   4.567
 8884SOL    HW127551   5.506   3.781   4.630
 8884SOL    HW227552   5.458   3.836   4.484
 8885SOL     OW27553   5.722   5.365   0.348
 8885SOL    HW127554   5.705   5.288   0.286
 8885SOL    HW227555   5.752   5.445   0.295
 8886SOL     OW27556   2.739   5.988   7.010
 8886SOL    HW127557   2.832   5.952   7.005
 8886SOL    HW227558   2.676   5.914   0.009
 8887SOL     OW27559   4.489   1.248   1.099
 8887SOL    HW127560   4.581   1.274   1.129
 8887SOL    HW227561   4.421   1.290   1.159
 8888SOL     OW27562   1.883   1.755   3.589
 8888SOL    HW127563   1.970   1.725   3.548
 8888SOL    HW227564   1.893   1.758   3.689
 8889SOL     OW27565   6.743   6.690   6.620
 8889SOL    HW127566   6.813   6.761   6.612
 8889SOL    HW227567   6.712   6.664   6.529
 8890SOL     OW27568   0.105   0.148   0.021
 8890SOL    HW127569   0.105   0.059   6.998
 8890SOL    HW227570   0.181   0.203   7.009
 8891SOL     OW27571   5.867   4.486   6.574
 8891SOL    HW127572   5.785   4.444   6.535
 8891SOL    HW227573   5.946   4.466   6.517
 8892SOL     OW27574   3.209   4.889   3.419
 8892SOL    HW127575   3.156   4.863   3.500
 8892SOL    HW227576   3.151   4.881   3.338
 8893SOL     OW27577   1.057   5.507   4.343
 8893SOL    HW127578   0.980   5.453   4.308
 8893SOL    HW227579   1.139   5.487   4.290
 8894SOL     OW27580   4.197   2.779   0.416
 8894SOL    HW127581   4.250   2.759   0.334
 8894SOL    HW227582   4.239   2.736   0.495
 8895SOL     OW27583   0.580   3.604   0.869
 8895SOL    HW127584   0.679   3.599   0.877
 8895SOL    HW227585   0.550   3.550   0.790
 8896SOL     OW27586   0.357   2.213   4.039
 8896SOL    HW127587   0.406   2.216   4.126
 8896SOL    HW227588   0.424   2.211   3.964
 8897SOL     OW27589   1.662   4.005   3.598
 8897SOL    HW127590   1.601   3.985   3.521
 8897SOL    HW227591   1.671   4.104   3.609
 8898SOL     OW27592   5.148   3.486   2.570
 8898SOL    HW127593   5.150   3.513   2.474
 8898SOL    HW227594   5.207   3.546   2.623
 8899SOL     OW27595   0.403   4.026   6.271
 8899SOL    HW127596   0.334   4.067   6.212
 8899SOL    HW227597   0.407   3.927   6.255
 8900SOL     OW27598   5.602   2.047   3.563
 8900SOL    HW127599   5.593   2.092   3.652
 8900SOL    HW227600   5.640   2.112   3.497
 8901SOL     OW27601   0.643   2.339   3.833
 8901SOL    HW127602   0.581   2.315   3.758
 8901SOL    HW227603   0.690   2.425   3.811
 8902SOL     OW27604   0.976   4.532   6.671
 8902SOL    HW127605   0.952   4.507   6.577
 8902SOL    HW227606   0.987   4.448   6.725
 8903SOL     OW27607   1.480   0.872   4.675
 8903SOL    HW127608   1.431   0.820   4.744
 8903SOL    HW227609   1.511   0.959   4.714
 8904SOL     OW27610   0.991   1.228   2.938
 8904SOL    HW127611   0.892   1.227   2.953
 8904SOL    HW227612   1.017   1.151   2.879
 8905SOL     OW27613   1.480   3.194   2.043
 8905SOL    HW127614   1.411   3.136   2.085
 8905SOL    HW227615   1.563   3.193   2.099
 8906SOL     OW27616   0.082   0.261   0.698
 8906SOL    HW127617   0.133   0.176   0.710
 8906SOL    HW227618   0.003   0.244   0.639
 8907SOL     OW27619   3.334   2.841   5.095
 8907SOL    HW127620   3.301   2.749   5.071
 8907SOL    HW227621   3.266   2.909   5.067
 8908SOL     OW27622   1.176   5.938   0.452
 8908SOL    HW127623   1.143   5.860   0.503
 8908SOL    HW227624   1.109   5.964   0.382
 8909SOL     OW27625   2.496   1.419   6.514
 8909SOL    HW127626   2.528   1.359   6.587
 8909SOL    HW227627   2.396   1.417   6.511
 8910SOL     OW27628   1.232   2.965   4.794
 8910SOL    HW127629   1.311   2.987   4.851
 8910SOL    HW227630   1.152   2.950   4.851
 8911SOL     OW27631   5.133   1.917   3.857
 8911SOL    HW127632   5.184   1.895   3.940
 8911SOL    HW227633   5.037   1.934   3.879
 8912SOL     OW27634   3.915   3.660   5.430
 8912SOL    HW127635   3.825   3.619   5.423
 8912SOL    HW227636   3.932   3.719   5.352
 8913SOL     OW27637   5.095   5.538   6.958
 8913SOL    HW127638   5.142   5.593   0.005
 8913SOL    HW227639   5.083   5.445   6.991
 8914SOL     OW27640   5.199   6.307   5.088
 8914SOL    HW127641   5.196   6.210   5.112
 8914SOL    HW227642   5.185   6.363   5.170
 8915SOL     OW27643   0.507   1.351   3.803
 8915SOL    HW127644   0.542   1.272   3.853
 8915SOL    HW227645   0.407   1.344   3.795
 8916SOL     OW27646   5.538   1.397   6.601
 8916SOL    HW127647   5.603   1.330   6.563
 8916SOL    HW227648   5.585   1.453   6.669
 8917SOL     OW27649   5.783   1.504   0.864
 8917SOL    HW127650   5.772   1.576   0.933
 8917SOL    HW227651   5.874   1.464   0.872
 8918SOL     OW27652   1.610   5.199   1.622
 8918SOL    HW127653   1.659   5.202   1.709
 8918SOL    HW227654   1.625   5.111   1.578
 8919SOL     OW27655   5.974   4.165   6.370
 8919SOL    HW127656   5.976   4.104   6.449
 8919SOL    HW227657   6.004   4.256   6.398
 8920SOL     OW27658   0.352   1.238   6.549
 8920SOL    HW127659   0.273   1.299   6.560
 8920SOL    HW227660   0.417   1.279   6.486
 8921SOL     OW27661   1.594   2.973   1.083
 8921SOL    HW127662   1.666   2.903   1.087
 8921SOL    HW227663   1.505   2.928   1.069
 8922SOL     OW27664   3.832   0.243   3.440
 8922SOL    HW127665   3.802   0.211   3.350
 8922SOL    HW227666   3.920   0.290   3.432
 8923SOL     OW27667   1.784   2.157   5.770
 8923SOL    HW127668   1.810   2.182   5.677
 8923SOL    HW227669   1.690   2.187   5.788
 8924SOL     OW27670   5.425   4.864   4.708
 8924SOL    HW127671   5.426   4.954   4.665
 8924SOL    HW227672   5.444   4.794   4.640
 8925SOL     OW27673   1.231   1.199   2.737
 8925SOL    HW127674   1.327   1.172   2.733
 8925SOL    HW227675   1.223   1.297   2.723
 8926SOL     OW27676   6.745   3.767   5.608
 8926SOL    HW127677   6.750   3.785   5.509
 8926SOL    HW227678   6.773   3.850   5.657
 8927SOL     OW27679   6.418   1.982   5.610
 8927SOL    HW127680   6.460   1.906   5.660
 8927SOL    HW227681   6.322   1.961   5.593
 8928SOL     OW27682   2.450   0.254   5.247
 8928SOL    HW127683   2.351   0.251   5.259
 8928SOL    HW227684   2.495   0.220   5.329
 8929SOL     OW27685   6.552   2.246   4.983
 8929SOL    HW127686   6.480   2.278   4.921
 8929SOL    HW227687   6.624   2.202   4.931
 8930SOL     OW27688   1.086   4.067   3.319
 8930SOL    HW127689   1.019   3.993   3.327
 8930SOL    HW227690   1.109   4.080   3.222
 8931SOL     OW27691   3.653   3.163   1.744
 8931SOL    HW127692   3.689   3.092   1.804
 8931SOL    HW227693   3.559   3.185   1.770
 8932SOL     OW27694   0.420   2.215   3.056
 8932SOL    HW127695   0.476   2.295   3.076
 8932SOL    HW227696   0.354   2.201   3.130
 8933SOL     OW27697   3.486   2.729   6.015
 8933SOL    HW127698   3.569   2.696   5.969
 8933SOL    HW227699   3.507   2.750   6.110
 8934SOL     OW27700   3.571   5.242   3.927
 8934SOL    HW127701   3.588   5.200   4.016
 8934SOL    HW227702   3.540   5.172   3.863
 8935SOL     OW27703   6.864   5.336   0.921
 8935SOL    HW127704   6.904   5.269   0.859
 8935SOL    HW227705   6.765   5.339   0.908
 8936SOL     OW27706   2.131   3.655   0.351
 8936SOL    HW127707   2.125   3.749   0.318
 8936SOL    HW227708   2.191   3.603   0.291
 8937SOL     OW27709   6.958   6.891   5.347
 8937SOL    HW127710   6.903   6.928   5.422
 8937SOL    HW227711   7.002   6.966   5.297
 8938SOL     OW27712   6.589   4.910   1.811
 8938SOL    HW127713   6.541   4.835   1.857
 8938SOL    HW227714   6.576   4.994   1.863
 8939SOL     OW27715   4.926   1.942   4.603
 8939SOL    HW127716   4.957   1.863   4.550
 8939SOL    HW227717   4.840   1.919   4.649
 8940SOL     OW27718   6.547   0.648   3.633
 8940SOL    HW127719   6.596   0.717   3.687
 8940SOL    HW227720   6.614   0.585   3.592
 8941SOL     OW27721   5.498   2.082   5.328
 8941SOL    HW127722   5.581   2.030   5.307
 8941SOL    HW227723   5.485   2.153   5.259
 8942SOL     OW27724   0.381   2.815   5.399
 8942SOL    HW127725   0.341   2.889   5.454
 8942SOL    HW227726   0.314   2.784   5.332
 8943SOL     OW27727   5.217   3.643   1.218
 8943SOL    HW127728   5.294   3.584   1.194
 8943SOL    HW227729   5.162   3.662   1.137
 8944SOL     OW27730   5.406   5.779   0.034
 8944SOL    HW127731   5.330   5.812   7.001
 8944SOL    HW227732   5.484   5.841   0.025
 8945SOL     OW27733   2.801   0.407   5.194
 8945SOL    HW127734   2.775   0.473   5.265
 8945SOL    HW227735   2.784   0.314   5.226
 8946SOL     OW27736   3.239   1.741   5.105
 8946SOL    HW127737   3.202   1.833   5.116
 8946SOL    HW227738   3.220   1.687   5.187
 8947SOL     OW27739   3.311   3.637   5.875
 8947SOL    HW127740   3.340   3.580   5.798
 8947SOL    HW227741   3.214   3.621   5.893
 8948SOL     OW27742   5.301   4.714   3.404
 8948SOL    HW127743   5.309   4.694   3.501
 8948SOL    HW227744   5.216   4.764   3.387
 8949SOL     OW27745   1.993   6.821   6.849
 8949SOL    HW127746   2.072   6.793   6.902
 8949SOL    HW227747   1.916   6.838   6.910
 8950SOL     OW27748   4.995   2.926   5.527
 8950SOL    HW127749   5.067   2.865   5.561
 8950SOL    HW227750   4.919   2.927   5.591
 8951SOL     OW27751   1.546   2.800   5.544
 8951SOL    HW127752   1.561   2.702   5.556
 8951SOL    HW227753   1.632   2.845   5.521
 8952SOL     OW27754   1.261   1.015   2.939
 8952SOL    HW127755   1.352   0.992   2.974
 8952SOL    HW227756   1.269   1.092   2.876
 8953SOL     OW27757   1.628   3.463   6.935
 8953SOL    HW127758   1.626   3.536   6.867
 8953SOL    HW227759   1.713   3.470   6.987
 8954SOL     OW27760   0.738   6.068   6.132
 8954SOL    HW127761   0.805   6.134   6.097
 8954SOL    HW227762   0.669   6.051   6.062
 8955SOL     OW27763   0.131   4.241   3.449
 8955SOL    HW127764   0.224   4.260   3.417
 8955SOL    HW227765   0.119   4.278   3.541
 8956SOL     OW27766   0.686   0.922   6.064
 8956SOL    HW127767   0.653   1.008   6.025
 8956SOL    HW227768   0.612   0.855   6.066
 8957SOL     OW27769   2.789   4.811   1.814
 8957SOL    HW127770   2.790   4.725   1.865
 8957SOL    HW227771   2.868   4.866   1.841
 8958SOL     OW27772   0.869   7.006   4.181
 8958SOL    HW127773   0.877   0.047   4.105
 8958SOL    HW227774   0.867   6.912   4.147
 8959SOL     OW27775   0.939   5.063   0.840
 8959SOL    HW127776   0.939   5.070   0.940
 8959SOL    HW227777   0.856   5.016   0.810
 8960SOL     OW27778   4.728   5.666   2.444
 8960SOL    HW127779   4.765   5.693   2.533
 8960SOL    HW227780   4.771   5.720   2.372
 8961SOL     OW27781   1.441   1.352   4.639
 8961SOL    HW127782   1.413   1.384   4.549
 8961SOL    HW227783   1.502   1.419   4.681
 8962SOL     OW27784   5.712   0.028   2.630
 8962SOL    HW127785   5.655   0.062   2.705
 8962SOL    HW227786   5.808   0.048   2.649
 8963SOL     OW27787   5.168   0.095   4.470
 8963SOL    HW127788   5.148   7.020   4.486
 8963SOL    HW227789   5.192   0.109   4.374
 8964SOL     OW27790   5.253   5.278   2.122
 8964SOL    HW127791   5.302   5.222   2.054
 8964SOL    HW227792   5.227   5.220   2.200
 8965SOL     OW27793   1.501   5.418   0.865
 8965SOL    HW127794   1.474   5.352   0.934
 8965SOL    HW227795   1.601   5.421   0.859
 8966SOL     OW27796   1.585   2.727   6.061
 8966SOL    HW127797   1.678   2.710   6.096
 8966SOL    HW227798   1.518   2.696   6.129
 8967SOL     OW27799   3.698   6.809   1.823
 8967SOL    HW127800   3.635   6.887   1.821
 8967SOL    HW227801   3.657   6.734   1.874
 8968SOL     OW27802   5.235   5.775   1.676
 8968SOL    HW127803   5.252   5.844   1.606
 8968SOL    HW227804   5.312   5.712   1.681
 8969SOL     OW27805   6.038   0.882   3.134
 8969SOL    HW127806   6.025   0.929   3.222
 8969SOL    HW227807   5.951   0.843   3.104
 8970SOL     OW27808   3.138   2.339   1.277
 8970SOL    HW127809   3.064   2.404   1.262
 8970SOL    HW227810   3.223   2.388   1.295
 8971SOL     OW27811   3.751   6.322   2.405
 8971SOL    HW127812   3.828   6.281   2.454
 8971SOL    HW227813   3.669   6.266   2.417
 8972SOL     OW27814   5.039   6.334   6.618
 8972SOL    HW127815   5.061   6.238   6.634
 8972SOL    HW227816   5.051   6.355   6.521
 8973SOL     OW27817   1.141   4.450   1.209
 8973SOL    HW127818   1.210   4.381   1.233
 8973SOL    HW227819   1.070   4.450   1.279
 8974SOL     OW27820   1.214   4.263   6.541
 8974SOL    HW127821   1.305   4.242   6.577
 8974SOL    HW227822   1.220   4.277   6.442
 8975SOL     OW27823   2.709   0.010   0.441
 8975SOL    HW127824   2.777   0.036   0.509
 8975SOL    HW227825   2.618   0.038   0.473
 8976SOL     OW27826   1.336   5.441   4.531
 8976SOL    HW127827   1.298   5.350   4.515
 8976SOL    HW227828   1.434   5.433   4.550
 8977SOL     OW27829   6.062   1.032   5.981
 8977SOL    HW127830   5.979   1.087   5.981
 8977SOL    HW227831   6.139   1.088   5.948
 8978SOL     OW27832   5.964   6.175   0.224
 8978SOL    HW127833   6.007   6.103   0.278
 8978SOL    HW227834   6.031   6.213   0.160
 8979SOL     OW27835   1.893   3.980   4.965
 8979SOL    HW127836   1.866   3.884   4.973
 8979SOL    HW227837   1.972   3.997   5.023
 8980SOL     OW27838   2.989   3.783   5.489
 8980SOL    HW127839   3.071   3.795   5.545
 8980SOL    HW227840   3.012   3.739   5.403
 8981SOL     OW27841   3.768   1.565   5.534
 8981SOL    HW127842   3.844   1.630   5.542
 8981SOL    HW227843   3.753   1.543   5.438
 8982SOL     OW27844   1.884   3.431   0.049
 8982SOL    HW127845   1.963   3.371   0.057
 8982SOL    HW227846   1.870   3.480   0.135
 8983SOL     OW27847   3.581   5.976   0.080
 8983SOL    HW127848   3.510   6.039   0.047
 8983SOL    HW227849   3.617   5.923   0.003
 8984SOL     OW27850   2.068   6.194   3.056
 8984SOL    HW127851   2.085   6.216   2.960
 8984SOL    HW227852   2.069   6.095   3.068
 8985SOL     OW27853   3.317   2.339   0.671
 8985SOL    HW127854   3.310   2.437   0.691
 8985SOL    HW227855   3.259   2.287   0.733
 8986SOL     OW27856   3.309   4.987   2.808
 8986SOL    HW127857   3.211   4.971   2.795
 8986SOL    HW227858   3.343   4.927   2.881
 8987SOL     OW27859   4.629   6.326   3.042
 8987SOL    HW127860   4.719   6.324   2.999
 8987SOL    HW227861   4.638   6.352   3.138
 8988SOL     OW27862   0.612   6.034   3.464
 8988SOL    HW127863   0.608   6.059   3.561
 8988SOL    HW227864   0.586   5.938   3.453
 8989SOL     OW27865   4.680   3.073   6.328
 8989SOL    HW127866   4.766   3.035   6.362
 8989SOL    HW227867   4.699   3.158   6.278
 8990SOL     OW27868   0.760   5.139   3.678
 8990SOL    HW127869   0.700   5.150   3.757
 8990SOL    HW227870   0.726   5.065   3.620
 8991SOL     OW27871   1.591   3.196   4.621
 8991SOL    HW127872   1.679   3.209   4.665
 8991SOL    HW227873   1.526   3.264   4.654
 8992SOL     OW27874   4.907   1.290   0.762
 8992SOL    HW127875   4.849   1.218   0.800
 8992SOL    HW227876   4.919   1.275   0.664
 8993SOL     OW27877   4.144   3.310   6.514
 8993SOL    HW127878   4.051   3.275   6.508
 8993SOL    HW227879   4.189   3.298   6.425
 8994SOL     OW27880   1.774   4.486   4.609
 8994SOL    HW127881   1.789   4.405   4.553
 8994SOL    HW227882   1.772   4.462   4.705
 8995SOL     OW27883   6.158   1.694   1.441
 8995SOL    HW127884   6.144   1.793   1.447
 8995SOL    HW227885   6.124   1.661   1.353
 8996SOL     OW27886   5.422   3.937   6.025
 8996SOL    HW127887   5.484   4.013   6.042
 8996SOL    HW227888   5.396   3.936   5.929
 8997SOL     OW27889   4.703   0.906   6.168
 8997SOL    HW127890   4.655   0.986   6.204
 8997SOL    HW227891   4.785   0.936   6.119
 8998SOL     OW27892   6.221   3.659   3.812
 8998SOL    HW127893   6.224   3.754   3.841
 8998SOL    HW227894   6.235   3.599   3.891
 8999SOL     OW27895   4.803   6.931   6.198
 8999SOL    HW127896   4.896   6.899   6.180
 8999SOL    HW227897   4.738   6.873   6.149
 9000SOL     OW27898   1.549   3.278   1.811
 9000SOL    HW127899   1.518   3.278   1.906
 9000SOL    HW227900   1.470   3.271   1.750
 9001SOL     OW27901   6.964   5.002   1.805
 9001SOL    HW127902   6.932   4.933   1.870
 9001SOL    HW227903   0.035   4.982   1.777
 9002SOL     OW27904   1.396   5.011   5.367
 9002SOL    HW127905   1.336   5.090   5.372
 9002SOL    HW227906   1.360   4.938   5.424
 9003SOL     OW27907   4.944   3.136   1.375
 9003SOL    HW127908   4.983   3.219   1.415
 9003SOL    HW227909   5.007   3.101   1.305
 9004SOL     OW27910   4.608   4.733   0.846
 9004SOL    HW127911   4.548   4.680   0.786
 9004SOL    HW227912   4.576   4.724   0.940
 9005SOL     OW27913   5.715   1.500   5.992
 9005SOL    HW127914   5.773   1.554   5.931
 9005SOL    HW227915   5.748   1.510   6.086
 9006SOL     OW27916   2.603   6.262   1.310
 9006SOL    HW127917   2.537   6.307   1.250
 9006SOL    HW227918   2.630   6.174   1.271
 9007SOL     OW27919   2.607   1.074   1.998
 9007SOL    HW127920   2.519   1.103   1.961
 9007SOL    HW227921   2.681   1.109   1.941
 9008SOL     OW27922   0.526   4.737   3.022
 9008SOL    HW127923   0.486   4.783   3.101
 9008SOL    HW227924   0.626   4.747   3.025
 9009SOL     OW27925   3.598   5.359   1.104
 9009SOL    HW127926   3.649   5.285   1.148
 9009SOL    HW227927   3.564   5.327   1.015
 9010SOL     OW27928   2.579   6.261   4.229
 9010SOL    HW127929   2.503   6.321   4.252
 9010SOL    HW227930   2.662   6.315   4.219
 9011SOL     OW27931   3.643   1.343   1.691
 9011SOL    HW127932   3.706   1.415   1.719
 9011SOL    HW227933   3.549   1.371   1.711
 9012SOL     OW27934   2.412   5.752   0.249
 9012SOL    HW127935   2.346   5.822   0.222
 9012SOL    HW227936   2.466   5.785   0.326
 9013SOL     OW27937   0.786   0.491   4.724
 9013SOL    HW127938   0.831   0.579   4.736
 9013SOL    HW227939   0.838   0.420   4.771
 9014SOL     OW27940   6.291   2.940   1.247
 9014SOL    HW127941   6.350   2.969   1.171
 9014SOL    HW227942   6.258   3.021   1.296
 9015SOL     OW27943   4.775   2.584   1.359
 9015SOL    HW127944   4.742   2.657   1.418
 9015SOL    HW227945   4.708   2.565   1.288
 9016SOL     OW27946   5.709   4.903   6.854
 9016SOL    HW127947   5.611   4.901   6.874
 9016SOL    HW227948   5.746   4.994   6.874
 9017SOL     OW27949   4.136   0.889   4.489
 9017SOL    HW127950   4.074   0.960   4.454
 9017SOL    HW227951   4.162   0.828   4.415
 9018SOL     OW27952   3.824   3.884   6.688
 9018SOL    HW127953   3.889   3.908   6.616
 9018SOL    HW227954   3.741   3.847   6.647
 9019SOL     OW27955   1.027   4.144   2.680
 9019SOL    HW127956   0.992   4.063   2.727
 9019SOL    HW227957   1.123   4.131   2.658
 9020SOL     OW27958   6.878   4.365   0.749
 9020SOL    HW127959   6.810   4.400   0.812
 9020SOL    HW227960   6.883   4.265   0.756
 9021SOL     OW27961   6.713   0.919   3.629
 9021SOL    HW127962   6.792   0.971   3.661
 9021SOL    HW227963   6.632   0.943   3.683
 9022SOL     OW27964   3.537   1.706   0.139
 9022SOL    HW127965   3.497   1.616   0.123
 9022SOL    HW227966   3.613   1.720   0.074
 9023SOL     OW27967   4.254   3.530   1.480
 9023SOL    HW127968   4.229   3.459   1.546
 9023SOL    HW227969   4.192   3.608   1.490
 9024SOL     OW27970   1.287   4.478   5.313
 9024SOL    HW127971   1.253   4.391   5.276
 9024SOL    HW227972   1.314   4.538   5.238
 9025SOL     OW27973   6.544   5.912   0.751
 9025SOL    HW127974   6.451   5.918   0.788
 9025SOL    HW227975   6.568   5.998   0.707
 9026SOL     OW27976   3.170   2.076   0.515
 9026SOL    HW127977   3.214   2.017   0.582
 9026SOL    HW227978   3.204   2.169   0.524
 9027SOL     OW27979   0.838   3.805   3.652
 9027SOL    HW127980   0.784   3.724   3.629
 9027SOL    HW227981   0.923   3.777   3.697
 9028SOL     OW27982   4.098   2.686   5.362
 9028SOL    HW127983   4.102   2.608   5.300
 9028SOL    HW227984   4.073   2.655   5.454
 9029SOL     OW27985   4.148   0.405   4.861
 9029SOL    HW127986   4.058   0.391   4.903
 9029SOL    HW227987   4.191   0.317   4.841
 9030SOL     OW27988   2.017   2.634   4.288
 9030SOL    HW127989   1.962   2.566   4.239
 9030SOL    HW227990   2.018   2.719   4.236
 9031SOL     OW27991   4.211   0.004   4.601
 9031SOL    HW127992   4.196   7.014   4.503
 9031SOL    HW227993   4.129   0.045   4.642
 9032SOL     OW27994   4.575   3.981   0.967
 9032SOL    HW127995   4.657   3.931   0.940
 9032SOL    HW227996   4.601   4.073   0.998
 9033SOL     OW27997   0.704   4.502   2.790
 9033SOL    HW127998   0.644   4.475   2.715
 9033SOL    HW227999   0.652   4.501   2.876
 9034SOL     OW28000   3.360   6.273   4.215
 9034SOL    HW128001   3.332   6.182   4.246
 9034SOL    HW228002   3.300   6.342   4.255
 9035SOL     OW28003   1.655   6.017   6.900
 9035SOL    HW128004   1.737   5.961   6.887
 9035SOL    HW228005   1.601   5.978   6.975
 9036SOL     OW28006   1.655   3.954   5.668
 9036SOL    HW128007   1.665   3.858   5.644
 9036SOL    HW228008   1.620   3.962   5.761
 9037SOL     OW28009   1.168   3.151   4.340
 9037SOL    HW128010   1.134   3.160   4.433
 9037SOL    HW228011   1.268   3.156   4.340
 9038SOL     OW28012   4.489   3.520   6.798
 9038SOL    HW128013   4.414   3.455   6.811
 9038SOL    HW228014   4.452   3.610   6.775
 9039SOL     OW28015   3.120   4.668   0.259
 9039SOL    HW128016   3.204   4.626   0.293
 9039SOL    HW228017   3.105   4.640   0.164
 9040SOL     OW28018   3.006   2.161   2.227
 9040SOL    HW128019   2.969   2.231   2.166
 9040SOL    HW228020   2.952   2.077   2.219
 9041SOL     OW28021   1.030   2.565   1.192
 9041SOL    HW128022   0.970   2.520   1.126
 9041SOL    HW228023   0.978   2.633   1.244
 9042SOL     OW28024   3.732   6.514   4.857
 9042SOL    HW128025   3.726   6.433   4.915
 9042SOL    HW228026   3.783   6.492   4.774
 9043SOL     OW28027   2.032   1.368   6.271
 9043SOL    HW128028   2.111   1.349   6.214
 9043SOL    HW228029   2.054   1.441   6.336
 9044SOL     OW28030   0.715   0.899   6.522
 9044SOL    HW128031   0.675   0.821   6.571
 9044SOL    HW228032   0.814   0.900   6.536
 9045SOL     OW28033   4.164   0.376   3.043
 9045SOL    HW128034   4.091   0.331   2.991
 9045SOL    HW228035   4.131   0.399   3.135
 9046SOL     OW28036   4.007   3.855   2.514
 9046SOL    HW128037   4.075   3.886   2.448
 9046SOL    HW228038   4.047   3.853   2.606
 9047SOL     OW28039   1.409   4.083   5.121
 9047SOL    HW128040   1.458   4.158   5.166
 9047SOL    HW228041   1.454   3.997   5.142
 9048SOL     OW28042   6.098   2.806   6.390
 9048SOL    HW128043   6.075   2.854   6.475
 9048SOL    HW228044   6.177   2.850   6.347
 9049SOL     OW28045   3.579   6.412   5.218
 9049SOL    HW128046   3.488   6.372   5.231
 9049SOL    HW228047   3.580   6.506   5.252
 9050SOL     OW28048   0.682   3.886   1.458
 9050SOL    HW128049   0.662   3.810   1.520
 9050SOL    HW228050   0.600   3.942   1.447
 9051SOL     OW28051   2.414   0.222   1.620
 9051SOL    HW128052   2.461   0.156   1.562
 9051SOL    HW228053   2.320   0.234   1.587
 9052SOL     OW28054   2.069   3.272   4.026
 9052SOL    HW128055   2.144   3.226   4.073
 9052SOL    HW228056   2.053   3.226   3.938
 9053SOL     OW28057   2.274   1.111   0.748
 9053SOL    HW128058   2.266   1.171   0.827
 9053SOL    HW228059   2.270   1.167   0.664
 9054SOL     OW28060   2.399   5.647   4.360
 9054SOL    HW128061   2.400   5.559   4.407
 9054SOL    HW228062   2.386   5.720   4.427
 9055SOL     OW28063   6.500   4.366   4.815
 9055SOL    HW128064   6.447   4.321   4.744
 9055SOL    HW228065   6.588   4.319   4.825
 9056SOL     OW28066   6.885   1.785   2.280
 9056SOL    HW128067   6.927   1.695   2.292
 9056SOL    HW228068   6.940   1.854   2.328
 9057SOL     OW28069   4.359   1.971   4.406
 9057SOL    HW128070   4.404   2.060   4.402
 9057SOL    HW228071   4.279   1.976   4.465
 9058SOL     OW28072   1.448   0.775   6.825
 9058SOL    HW128073   1.406   0.845   6.768
 9058SOL    HW228074   1.414   0.782   6.918
 9059SOL     OW28075   0.945   2.659   2.809
 9059SOL    HW128076   0.934   2.560   2.817
 9059SOL    HW228077   0.857   2.704   2.827
 9060SOL     OW28078   5.562   3.111   4.923
 9060SOL    HW128079   5.615   3.180   4.874
 9060SOL    HW228080   5.611   3.024   4.922
 9061SOL     OW28081   4.110   5.379   2.495
 9061SOL    HW128082   4.151   5.470   2.501
 9061SOL    HW228083   4.016   5.383   2.530
 9062SOL     OW28084   1.112   5.245   1.610
 9062SOL    HW128085   1.100   5.147   1.627
 9062SOL    HW228086   1.123   5.293   1.697
 9063SOL     OW28087   3.066   1.366   3.680
 9063SOL    HW128088   3.134   1.383   3.751
 9063SOL    HW228089   2.975   1.365   3.721
 9064SOL     OW28090   6.523   3.421   6.686
 9064SOL    HW128091   6.594   3.371   6.637
 9064SOL    HW228092   6.504   3.507   6.640
 9065SOL     OW28093   3.696   0.138   0.489
 9065SOL    HW128094   3.655   0.063   0.437
 9065SOL    HW228095   3.682   0.224   0.440
 9066SOL     OW28096   5.886   0.371   0.206
 9066SOL    HW128097   5.919   0.452   0.256
 9066SOL    HW228098   5.957   0.300   0.209
 9067SOL     OW28099   1.804   0.315   3.191
 9067SOL    HW128100   1.850   0.403   3.199
 9067SOL    HW228101   1.766   0.289   3.280
 9068SOL     OW28102   1.018   6.327   5.047
 9068SOL    HW128103   1.030   6.282   5.135
 9068SOL    HW228104   0.927   6.306   5.011
 9069SOL     OW28105   1.444   2.947   6.353
 9069SOL    HW128106   1.502   2.981   6.427
 9069SOL    HW228107   1.363   3.005   6.344
 9070SOL     OW28108   1.853   3.830   4.432
 9070SOL    HW128109   1.862   3.854   4.335
 9070SOL    HW228110   1.882   3.908   4.488
 9071SOL     OW28111   6.675   6.503   0.455
 9071SOL    HW128112   6.729   6.536   0.378
 9071SOL    HW228113   6.722   6.525   0.541
 9072SOL     OW28114   0.122   3.516   0.547
 9072SOL    HW128115   0.104   3.492   0.452
 9072SOL    HW228116   0.055   3.584   0.577
 9073SOL     OW28117   2.170   0.890   1.566
 9073SOL    HW128118   2.166   0.984   1.600
 9073SOL    HW228119   2.261   0.853   1.582
 9074SOL     OW28120   1.638   6.877   2.702
 9074SOL    HW128121   1.566   6.895   2.769
 9074SOL    HW228122   1.684   6.963   2.679
 9075SOL     OW28123   6.769   0.688   2.382
 9075SOL    HW128124   6.712   0.617   2.343
 9075SOL    HW228125   6.783   0.761   2.315
 9076SOL     OW28126   6.864   1.428   6.096
 9076SOL    HW128127   6.777   1.458   6.135
 9076SOL    HW228128   6.921   1.390   6.168
 9077SOL     OW28129   4.293   6.792   2.610
 9077SOL    HW128130   4.349   6.787   2.693
 9077SOL    HW228131   4.348   6.767   2.531
 9078SOL     OW28132   3.731   3.409   4.819
 9078SOL    HW128133   3.808   3.386   4.760
 9078SOL    HW228134   3.668   3.468   4.769
 9079SOL     OW28135   3.116   6.750   4.436
 9079SOL    HW128136   3.173   6.799   4.503
 9079SOL    HW228137   3.024   6.739   4.473
 9080SOL     OW28138   5.535   2.653   6.891
 9080SOL    HW128139   5.451   2.684   6.936
 9080SOL    HW228140   5.609   2.650   6.958
 9081SOL     OW28141   5.133   6.311   2.825
 9081SOL    HW128142   5.151   6.332   2.729
 9081SOL    HW228143   5.219   6.300   2.874
 9082SOL     OW28144   2.461   0.475   3.376
 9082SOL    HW128145   2.374   0.517   3.348
 9082SOL    HW228146   2.487   0.509   3.466
 9083SOL     OW28147   4.951   4.623   5.304
 9083SOL    HW128148   4.883   4.696   5.299
 9083SOL    HW228149   4.969   4.601   5.400
 9084SOL     OW28150   3.207   3.779   3.115
 9084SOL    HW128151   3.129   3.779   3.053
 9084SOL    HW228152   3.201   3.858   3.177
 9085SOL     OW28153   2.505   1.469   1.037
 9085SOL    HW128154   2.476   1.374   1.040
 9085SOL    HW228155   2.593   1.478   1.084
 9086SOL     OW28156   0.469   3.836   1.007
 9086SOL    HW128157   0.498   3.741   0.992
 9086SOL    HW228158   0.523   3.897   0.949
 9087SOL     OW28159   4.902   3.450   2.230
 9087SOL    HW128160   4.888   3.510   2.152
 9087SOL    HW228161   4.868   3.358   2.209
 9088SOL     OW28162   6.877   0.727   6.722
 9088SOL    HW128163   6.928   0.649   6.685
 9088SOL    HW228164   6.924   0.812   6.697
 9089SOL     OW28165   4.715   0.029   5.624
 9089SOL    HW128166   4.798   0.034   5.569
 9089SOL    HW228167   4.734   7.001   5.709
 9090SOL     OW28168   5.498   0.123   4.749
 9090SOL    HW128169   5.559   0.181   4.803
 9090SOL    HW228170   5.445   0.181   4.686
 9091SOL     OW28171   3.614   4.192   0.186
 9091SOL    HW128172   3.610   4.149   0.276
 9091SOL    HW228173   3.704   4.175   0.146
 9092SOL     OW28174   0.145   1.970   6.927
 9092SOL    HW128175   0.114   1.979   6.832
 9092SOL    HW228176   0.120   2.052   6.978
 9093SOL     OW28177   1.500   6.962   5.479
 9093SOL    HW128178   1.444   7.017   5.541
 9093SOL    HW228179   1.461   6.870   5.472
 9094SOL     OW28180   0.195   2.932   1.921
 9094SOL    HW128181   0.193   2.945   2.020
 9094SOL    HW228182   0.245   3.007   1.878
 9095SOL     OW28183   5.313   5.715   5.561
 9095SOL    HW128184   5.335   5.699   5.464
 9095SOL    HW228185   5.298   5.627   5.606
 9096SOL     OW28186   6.751   5.245   2.942
 9096SOL    HW128187   6.713   5.171   2.887
 9096SOL    HW228188   6.767   5.212   3.035
 9097SOL     OW28189   0.536   2.778   5.737
 9097SOL    HW128190   0.621   2.766   5.686
 9097SOL    HW228191   0.486   2.857   5.701
 9098SOL     OW28192   1.588   2.584   4.427
 9098SOL    HW128193   1.662   2.617   4.485
 9098SOL    HW228194   1.606   2.490   4.400
 9099SOL     OW28195   2.289   3.392   6.036
 9099SOL    HW128196   2.352   3.403   5.959
 9099SOL    HW228197   2.340   3.362   6.116
 9100SOL     OW28198   1.438   4.348   1.988
 9100SOL    HW128199   1.348   4.325   1.952
 9100SOL    HW228200   1.448   4.447   1.992
 9101SOL     OW28201   2.512   1.426   1.884
 9101SOL    HW128202   2.467   1.515   1.879
 9101SOL    HW228203   2.604   1.437   1.922
 9102SOL     OW28204   4.286   6.185   2.804
 9102SOL    HW128205   4.344   6.262   2.779
 9102SOL    HW228206   4.316   6.103   2.753
 9103SOL     OW28207   6.430   1.681   0.079
 9103SOL    HW128208   6.340   1.724   0.090
 9103SOL    HW228209   6.419   1.582   0.080
 9104SOL     OW28210   6.908   0.912   0.062
 9104SOL    HW128211   7.006   0.914   0.043
 9104SOL    HW228212   6.892   0.876   0.154
 9105SOL     OW28213   1.923   6.973   6.240
 9105SOL    HW128214   1.993   0.004   6.193
 9105SOL    HW228215   1.966   6.901   6.294
 9106SOL     OW28216   0.797   4.992   6.395
 9106SOL    HW128217   0.765   4.900   6.416
 9106SOL    HW228218   0.887   4.988   6.351
 9107SOL     OW28219   2.520   0.952   6.788
 9107SOL    HW128220   2.501   0.914   6.878
 9107SOL    HW228221   2.435   0.971   6.740
 9108SOL     OW28222   5.338   5.279   5.633
 9108SOL    HW128223   5.307   5.361   5.681
 9108SOL    HW228224   5.307   5.283   5.538
 9109SOL     OW28225   5.423   2.411   2.127
 9109SOL    HW128226   5.445   2.390   2.222
 9109SOL    HW228227   5.387   2.504   2.121
 9110SOL     OW28228   1.865   5.666   4.848
 9110SOL    HW128229   1.789   5.627   4.796
 9110SOL    HW228230   1.949   5.656   4.794
 9111SOL     OW28231   4.690   2.610   5.038
 9111SOL    HW128232   4.605   2.579   5.080
 9111SOL    HW228233   4.680   2.705   5.008
 9112SOL     OW28234   2.117   5.145   2.204
 9112SOL    HW128235   2.165   5.217   2.154
 9112SOL    HW228236   2.078   5.183   2.288
 9113SOL     OW28237   4.716   2.061   3.626
 9113SOL    HW128238   4.736   1.964   3.615
 9113SOL    HW228239   4.756   2.093   3.712
 9114SOL     OW28240   1.145   6.470   4.880
 9114SOL    HW128241   1.089   6.403   4.928
 9114SOL    HW228242   1.196   6.426   4.806
 9115SOL     OW28243   5.563   4.847   3.859
 9115SOL    HW128244   5.507   4.928   3.841
 9115SOL    HW228245   5.638   4.871   3.920
 9116SOL     OW28246   0.616   6.988   3.501
 9116SOL    HW128247   0.701   6.996   3.449
 9116SOL    HW228248   0.636   6.954   3.593
 9117SOL     OW28249   3.858   1.144   0.004
 9117SOL    HW128250   3.921   1.069   0.028
 9117SOL    HW228251   3.911   1.224   6.997
 9118SOL     OW28252   5.926   4.393   0.292
 9118SOL    HW128253   5.972   4.309   0.265
 9118SOL    HW228254   5.992   4.457   0.332
 9119SOL     OW28255   3.419   6.801   1.060
 9119SOL    HW128256   3.486   6.751   1.005
 9119SOL    HW228257   3.406   6.893   1.022
 9120SOL     OW28258   5.590   2.683   5.813
 9120SOL    HW128259   5.646   2.655   5.891
 9120SOL    HW228260   5.635   2.656   5.728
 9121SOL     OW28261   3.306   0.355   5.598
 9121SOL    HW128262   3.385   0.309   5.557
 9121SOL    HW228263   3.330   0.386   5.690
 9122SOL     OW28264   2.411   4.546   2.083
 9122SOL    HW128265   2.372   4.510   2.168
 9122SOL    HW228266   2.485   4.610   2.105
 9123SOL     OW28267   0.905   0.895   3.634
 9123SOL    HW128268   0.902   0.821   3.701
 9123SOL    HW228269   0.978   0.959   3.658
 9124SOL     OW28270   3.249   5.256   1.511
 9124SOL    HW128271   3.275   5.233   1.605
 9124SOL    HW228272   3.307   5.206   1.447
 9125SOL     OW28273   4.387   6.444   0.498
 9125SOL    HW128274   4.460   6.392   0.543
 9125SOL    HW228275   4.403   6.542   0.511
 9126SOL     OW28276   3.931   4.879   0.301
 9126SOL    HW128277   3.929   4.794   0.354
 9126SOL    HW228278   3.853   4.936   0.327
 9127SOL     OW28279   0.435   3.898   5.265
 9127SOL    HW128280   0.504   3.834   5.298
 9127SOL    HW228281   0.480   3.977   5.222
 9128SOL     OW28282   5.849   3.586   4.942
 9128SOL    HW128283   5.887   3.540   5.022
 9128SOL    HW228284   5.919   3.646   4.902
 9129SOL     OW28285   1.438   1.488   0.766
 9129SOL    HW128286   1.370   1.534   0.822
 9129SOL    HW228287   1.397   1.409   0.722
 9130SOL     OW28288   2.672   4.098   5.314
 9130SOL    HW128289   2.594   4.056   5.268
 9130SOL    HW228290   2.756   4.052   5.286
 9131SOL     OW28291   6.127   2.384   0.873
 9131SOL    HW128292   6.092   2.477   0.865
 9131SOL    HW228293   6.061   2.320   0.835
 9132SOL     OW28294   0.647   4.041   3.723
 9132SOL    HW128295   0.689   4.108   3.662
 9132SOL    HW228296   0.709   3.964   3.736
 9133SOL     OW28297   4.556   0.574   1.157
 9133SOL    HW128298   4.485   0.513   1.123
 9133SOL    HW228299   4.522   0.668   1.158
 9134SOL     OW28300   4.497   5.388   0.597
 9134SOL    HW128301   4.494   5.447   0.677
 9134SOL    HW228302   4.567   5.420   0.534
 9135SOL     OW28303   0.526   6.009   2.538
 9135SOL    HW128304   0.534   6.098   2.494
 9135SOL    HW228305   0.459   6.013   2.612
 9136SOL     OW28306   6.605   4.735   6.316
 9136SOL    HW128307   6.623   4.663   6.248
 9136SOL    HW228308   6.589   4.822   6.268
 9137SOL     OW28309   4.735   6.445   6.709
 9137SOL    HW128310   4.821   6.404   6.679
 9137SOL    HW228311   4.711   6.409   6.799
 9138SOL     OW28312   2.892   3.397   1.127
 9138SOL    HW128313   2.860   3.475   1.072
 9138SOL    HW228314   2.931   3.328   1.066
 9139SOL     OW28315   0.122   0.450   1.497
 9139SOL    HW128316   0.065   0.417   1.571
 9139SOL    HW228317   0.065   0.470   1.417
 9140SOL     OW28318   0.734   4.059   2.587
 9140SOL    HW128319   0.689   4.001   2.654
 9140SOL    HW228320   0.823   4.088   2.623
 9141SOL     OW28321   6.645   5.662   5.913
 9141SOL    HW128322   6.716   5.615   5.966
 9141SOL    HW228323   6.651   5.634   5.817
 9142SOL     OW28324   0.886   3.900   3.379
 9142SOL    HW128325   0.877   3.861   3.471
 9142SOL    HW228326   0.796   3.905   3.336
 9143SOL     OW28327   6.648   3.444   2.242
 9143SOL    HW128328   6.588   3.410   2.314
 9143SOL    HW228329   6.621   3.404   2.155
 9144SOL     OW28330   2.571   4.363   5.306
 9144SOL    HW128331   2.499   4.374   5.237
 9144SOL    HW228332   2.593   4.266   5.317
 9145SOL     OW28333   1.085   6.329   5.847
 9145SOL    HW128334   1.156   6.290   5.788
 9145SOL    HW228335   0.996   6.290   5.821
 9146SOL     OW28336   6.213   3.071   2.906
 9146SOL    HW128337   6.235   2.978   2.935
 9146SOL    HW228338   6.173   3.067   2.814
 9147SOL     OW28339   4.696   0.200   4.385
 9147SOL    HW128340   4.775   0.196   4.445
 9147SOL    HW228341   4.713   0.144   4.304
 9148SOL     OW28342   6.411   6.706   1.643
 9148SOL    HW128343   6.320   6.684   1.608
 9148SOL    HW228344   6.479   6.649   1.597
 9149SOL     OW28345   0.096   3.247   1.180
 9149SOL    HW128346   0.142   3.333   1.206
 9149SOL    HW228347   0.016   3.268   1.124
 9150SOL     OW28348   2.809   2.790   0.814
 9150SOL    HW128349   2.902   2.772   0.846
 9150SOL    HW228350   2.811   2.812   0.717
 9151SOL     OW28351   1.852   3.204   3.613
 9151SOL    HW128352   1.832   3.293   3.655
 9151SOL    HW228353   1.947   3.204   3.581
 9152SOL     OW28354   2.605   4.647   3.768
 9152SOL    HW128355   2.607   4.649   3.668
 9152SOL    HW228356   2.659   4.724   3.804
 9153SOL     OW28357   6.527   3.297   0.041
 9153SOL    HW128358   6.469   3.289   6.982
 9153SOL    HW228359   6.594   3.369   0.027
 9154SOL     OW28360   5.823   4.645   3.248
 9154SOL    HW128361   5.765   4.725   3.233
 9154SOL    HW228362   5.906   4.654   3.193
 9155SOL     OW28363   0.716   6.379   2.841
 9155SOL    HW128364   0.627   6.406   2.805
 9155SOL    HW228365   0.745   6.443   2.912
 9156SOL     OW28366   6.558   3.718   6.878
 9156SOL    HW128367   6.517   3.795   6.831
 9156SOL    HW228368   6.488   3.668   6.929
 9157SOL     OW28369   2.042   5.027   6.248
 9157SOL    HW128370   2.056   4.941   6.200
 9157SOL    HW228371   2.071   5.017   6.343
 9158SOL     OW28372   6.649   3.390   4.716
 9158SOL    HW128373   6.608   3.481   4.715
 9158SOL    HW228374   6.578   3.322   4.734
 9159SOL     OW28375   3.950   1.316   3.615
 9159SOL    HW128376   3.888   1.394   3.614
 9159SOL    HW228377   3.901   1.234   3.646
 9160SOL     OW28378   6.913   4.425   0.485
 9160SOL    HW128379   6.908   4.398   0.581
 9160SOL    HW228380   7.008   4.425   0.455
 9161SOL     OW28381   6.120   4.040   1.556
 9161SOL    HW128382   6.155   4.119   1.504
 9161SOL    HW228383   6.125   3.958   1.499
 9162SOL     OW28384   4.596   1.970   1.671
 9162SOL    HW128385   4.582   2.040   1.601
 9162SOL    HW228386   4.525   1.978   1.740
 9163SOL     OW28387   1.689   2.522   3.250
 9163SOL    HW128388   1.597   2.483   3.255
 9163SOL    HW228389   1.698   2.576   3.166
 9164SOL     OW28390   2.164   0.792   6.874
 9164SOL    HW128391   2.131   0.742   6.794
 9164SOL    HW228392   2.087   0.810   6.936
 9165SOL     OW28393   5.168   1.877   6.186
 9165SOL    HW128394   5.191   1.933   6.107
 9165SOL    HW228395   5.069   1.871   6.196
 9166SOL     OW28396   4.999   5.627   1.789
 9166SOL    HW128397   5.075   5.683   1.758
 9166SOL    HW228398   5.033   5.535   1.812
 9167SOL     OW28399   1.756   1.198   4.507
 9167SOL    HW128400   1.837   1.238   4.551
 9167SOL    HW228401   1.701   1.151   4.576
 9168SOL     OW28402   6.274   6.047   4.211
 9168SOL    HW128403   6.181   6.063   4.178
 9168SOL    HW228404   6.272   6.028   4.309
 9169SOL     OW28405   6.603   6.149   0.620
 9169SOL    HW128406   6.558   6.214   0.683
 9169SOL    HW228407   6.590   6.181   0.526
 9170SOL     OW28408   1.358   1.270   5.591
 9170SOL    HW128409   1.452   1.301   5.602
 9170SOL    HW228410   1.349   1.223   5.503
 9171SOL     OW28411   3.324   4.986   0.611
 9171SOL    HW128412   3.371   5.000   0.698
 9171SOL    HW228413   3.248   4.923   0.624
 9172SOL     OW28414   4.594   1.519   4.540
 9172SOL    HW128415   4.534   1.598   4.551
 9172SOL    HW228416   4.545   1.446   4.491
 9173SOL     OW28417   5.475   3.121   4.001
 9173SOL    HW128418   5.559   3.092   3.954
 9173SOL    HW228419   5.417   3.173   3.938
 9174SOL     OW28420   0.008   4.544   0.123
 9174SOL    HW128421   0.063   4.593   0.190
 9174SOL    HW228422   0.067   4.487   0.066
 9175SOL     OW28423   1.840   6.651   6.656
 9175SOL    HW128424   1.806   6.560   6.681
 9175SOL    HW228425   1.900   6.685   6.729
 9176SOL     OW28426   2.118   1.611   2.390
 9176SOL    HW128427   2.133   1.705   2.360
 9176SOL    HW228428   2.203   1.573   2.426
 9177SOL     OW28429   0.812   3.793   3.950
 9177SOL    HW128430   0.762   3.721   3.902
 9177SOL    HW228431   0.898   3.813   3.901
 9178SOL     OW28432   1.870   6.142   0.525
 9178SOL    HW128433   1.936   6.198   0.474
 9178SOL    HW228434   1.905   6.049   0.535
 9179SOL     OW28435   3.911   5.803   5.518
 9179SOL    HW128436   3.953   5.731   5.463
 9179SOL    HW228437   3.865   5.868   5.458
 9180SOL     OW28438   0.097   0.853   4.430
 9180SOL    HW128439   0.184   0.841   4.381
 9180SOL    HW228440   0.115   0.868   4.527
 9181SOL     OW28441   3.757   1.892   4.037
 9181SOL    HW128442   3.765   1.880   4.136
 9181SOL    HW228443   3.797   1.980   4.011
 9182SOL     OW28444   1.824   1.176   2.720
 9182SOL    HW128445   1.865   1.260   2.686
 9182SOL    HW228446   1.821   1.179   2.820
 9183SOL     OW28447   6.862   2.803   5.740
 9183SOL    HW128448   6.858   2.703   5.734
 9183SOL    HW228449   6.946   2.836   5.697
 9184SOL     OW28450   3.368   3.072   0.932
 9184SOL    HW128451   3.349   2.985   0.888
 9184SOL    HW228452   3.375   3.058   1.031
 9185SOL     OW28453   1.109   0.744   6.806
 9185SOL    HW128454   1.169   0.820   6.781
 9185SOL    HW228455   1.127   0.718   6.901
 9186SOL     OW28456   5.685   1.082   6.646
 9186SOL    HW128457   5.588   1.063   6.629
 9186SOL    HW228458   5.732   1.095   6.558
 9187SOL     OW28459   4.793   1.804   0.851
 9187SOL    HW128460   4.713   1.832   0.905
 9187SOL    HW228461   4.765   1.786   0.757
 9188SOL     OW28462   1.069   0.622   1.601
 9188SOL    HW128463   1.080   0.531   1.640
 9188SOL    HW228464   0.973   0.638   1.579
 9189SOL     OW28465   4.050   1.196   4.067
 9189SOL    HW128466   3.976   1.134   4.093
 9189SOL    HW228467   4.101   1.157   3.990
 9190SOL     OW28468   6.251   3.326   5.424
 9190SOL    HW128469   6.300   3.407   5.393
 9190SOL    HW228470   6.273   3.308   5.520
 9191SOL     OW28471   5.456   6.162   0.255
 9191SOL    HW128472   5.541   6.199   0.292
 9191SOL    HW228473   5.398   6.132   0.331
 9192SOL     OW28474   6.277   4.837   4.678
 9192SOL    HW128475   6.350   4.888   4.723
 9192SOL    HW228476   6.291   4.739   4.692
 9193SOL     OW28477   3.480   3.249   3.615
 9193SOL    HW128478   3.460   3.328   3.558
 9193SOL    HW228479   3.398   3.192   3.624
 9194SOL     OW28480   3.148   5.795   2.554
 9194SOL    HW128481   3.053   5.798   2.586
 9194SOL    HW228482   3.196   5.720   2.598
 9195SOL     OW28483   6.572   3.440   2.991
 9195SOL    HW128484   6.497   3.400   2.937
 9195SOL    HW228485   6.555   3.423   3.088
 9196SOL     OW28486   4.626   0.433   3.439
 9196SOL    HW128487   4.636   0.396   3.347
 9196SOL    HW228488   4.567   0.514   3.437
 9197SOL     OW28489   3.491   3.357   6.327
 9197SOL    HW128490   3.452   3.279   6.376
 9197SOL    HW228491   3.421   3.429   6.318
 9198SOL     OW28492   5.393   2.854   5.297
 9198SOL    HW128493   5.303   2.899   5.301
 9198SOL    HW228494   5.389   2.768   5.347
 9199SOL     OW28495   1.293   4.019   6.744
 9199SOL    HW128496   1.336   4.023   6.834
 9199SOL    HW228497   1.201   4.059   6.749
 9200SOL     OW28498   6.177   0.649   6.988
 9200SOL    HW128499   6.257   0.598   7.021
 9200SOL    HW228500   6.123   0.591   6.928
 9201SOL     OW28501   1.452   4.026   3.025
 9201SOL    HW128502   1.448   3.992   2.931
 9201SOL    HW228503   1.489   4.119   3.025
 9202SOL     OW28504   3.031   5.091   4.508
 9202SOL    HW128505   2.996   5.165   4.565
 9202SOL    HW228506   3.024   5.005   4.557
 9203SOL     OW28507   5.183   0.348   5.881
 9203SOL    HW128508   5.101   0.396   5.850
 9203SOL    HW228509   5.263   0.381   5.830
 9204SOL     OW28510   4.753   4.170   2.193
 9204SOL    HW128511   4.745   4.077   2.230
 9204SOL    HW228512   4.678   4.186   2.128
 9205SOL     OW28513   5.122   2.846   2.841
 9205SOL    HW128514   5.147   2.881   2.751
 9205SOL    HW228515   5.038   2.890   2.872
 9206SOL     OW28516   0.395   0.068   3.793
 9206SOL    HW128517   0.418   0.143   3.731
 9206SOL    HW228518   0.418   0.094   3.887
 9207SOL     OW28519   4.236   6.918   0.337
 9207SOL    HW128520   4.196   6.956   0.420
 9207SOL    HW228521   4.193   6.830   0.317
 9208SOL     OW28522   5.070   4.523   2.355
 9208SOL    HW128523   5.083   4.472   2.440
 9208SOL    HW228524   5.021   4.466   2.289
 9209SOL     OW28525   4.272   1.304   2.481
 9209SOL    HW128526   4.358   1.280   2.527
 9209SOL    HW228527   4.198   1.249   2.519
 9210SOL     OW28528   1.310   0.282   1.280
 9210SOL    HW128529   1.210   0.291   1.272
 9210SOL    HW228530   1.340   0.204   1.224
 9211SOL     OW28531   5.146   0.987   0.018
 9211SOL    HW128532   5.073   0.997   0.086
 9211SOL    HW228533   5.234   0.984   0.065
 9212SOL     OW28534   6.195   3.932   4.962
 9212SOL    HW128535   6.145   3.970   5.040
 9212SOL    HW228536   6.200   4.000   4.888
 9213SOL     OW28537   6.208   6.954   2.960
 9213SOL    HW128538   6.230   0.029   2.958
 9213SOL    HW228539   6.265   6.908   3.028
 9214SOL     OW28540   2.011   2.344   5.199
 9214SOL    HW128541   2.087   2.403   5.171
 9214SOL    HW228542   2.041   2.249   5.205
 9215SOL     OW28543   1.124   3.175   3.001
 9215SOL    HW128544   1.047   3.232   2.974
 9215SOL    HW228545   1.179   3.223   3.069
 9216SOL     OW28546   2.147   5.838   4.833
 9216SOL    HW128547   2.195   5.919   4.799
 9216SOL    HW228548   2.203   5.757   4.818
 9217SOL     OW28549   4.600   0.844   6.549
 9217SOL    HW128550   4.670   0.804   6.608
 9217SOL    HW228551   4.633   0.930   6.510
 9218SOL     OW28552   5.813   5.427   6.507
 9218SOL    HW128553   5.871   5.494   6.460
 9218SOL    HW228554   5.809   5.449   6.604
 9219SOL     OW28555   3.694   2.955   5.476
 9219SOL    HW128556   3.687   3.051   5.448
 9219SOL    HW228557   3.613   2.905   5.447
 9220SOL     OW28558   1.296   6.373   3.414
 9220SOL    HW128559   1.384   6.385   3.368
 9220SOL    HW228560   1.277   6.275   3.423
 9221SOL     OW28561   2.538   0.825   0.533
 9221SOL    HW128562   2.459   0.873   0.572
 9221SOL    HW228563   2.602   0.892   0.497
 9222SOL     OW28564   1.333   3.576   3.233
 9222SOL    HW128565   1.363   3.671   3.223
 9222SOL    HW228566   1.386   3.518   3.171
 9223SOL     OW28567   0.786   3.727   4.857
 9223SOL    HW128568   0.790   3.820   4.895
 9223SOL    HW228569   0.721   3.725   4.782
 9224SOL     OW28570   1.918   4.415   3.912
 9224SOL    HW128571   1.963   4.427   4.001
 9224SOL    HW228572   1.823   4.388   3.926
 9225SOL     OW28573   4.912   6.704   6.906
 9225SOL    HW128574   4.835   6.720   6.845
 9225SOL    HW228575   4.992   6.674   6.853
 9226SOL     OW28576   0.952   0.970   1.087
 9226SOL    HW128577   0.937   0.881   1.131
 9226SOL    HW228578   0.946   0.959   0.988
 9227SOL     OW28579   2.357   5.815   0.678
 9227SOL    HW128580   2.437   5.821   0.618
 9227SOL    HW228581   2.372   5.743   0.746
 9228SOL     OW28582   2.806   3.002   5.587
 9228SOL    HW128583   2.820   2.914   5.632
 9228SOL    HW228584   2.734   3.052   5.635
 9229SOL     OW28585   0.484   4.554   0.078
 9229SOL    HW128586   0.445   4.644   0.055
 9229SOL    HW228587   0.494   4.500   7.017
 9230SOL     OW28588   4.683   1.867   4.712
 9230SOL    HW128589   4.608   1.866   4.646
 9230SOL    HW228590   4.672   1.792   4.777
 9231SOL     OW28591   6.728   5.651   3.788
 9231SOL    HW128592   6.775   5.606   3.712
 9231SOL    HW228593   6.793   5.708   3.839
 9232SOL     OW28594   1.429   5.022   1.765
 9232SOL    HW128595   1.485   4.974   1.833
 9232SOL    HW228596   1.481   5.099   1.727
 9233SOL     OW28597   0.584   6.716   0.347
 9233SOL    HW128598   0.604   6.675   0.436
 9233SOL    HW228599   0.486   6.731   0.338
 9234SOL     OW28600   2.247   4.407   0.274
 9234SOL    HW128601   2.222   4.312   0.295
 9234SOL    HW228602   2.278   4.453   0.357
 9235SOL     OW28603   1.965   2.194   3.978
 9235SOL    HW128604   2.029   2.144   3.919
 9235SOL    HW228605   1.938   2.136   4.054
 9236SOL     OW28606   2.561   3.261   6.540
 9236SOL    HW128607   2.521   3.239   6.628
 9236SOL    HW228608   2.560   3.361   6.527
 9237SOL     OW28609   5.676   4.863   3.214
 9237SOL    HW128610   5.661   4.890   3.309
 9237SOL    HW228611   5.668   4.943   3.155
 9238SOL     OW28612   1.853   2.661   5.260
 9238SOL    HW128613   1.897   2.645   5.172
 9238SOL    HW228614   1.914   2.712   5.320
 9239SOL     OW28615   0.708   4.864   6.739
 9239SOL    HW128616   0.612   4.875   6.712
 9239SOL    HW228617   0.733   4.935   6.805
 9240SOL     OW28618   4.540   2.307   2.717
 9240SOL    HW128619   4.501   2.341   2.803
 9240SOL    HW228620   4.602   2.375   2.679
 9241SOL     OW28621   5.673   0.173   1.015
 9241SOL    HW128622   5.745   0.239   0.996
 9241SOL    HW228623   5.713   0.085   1.039
 9242SOL     OW28624   1.742   2.458   0.496
 9242SOL    HW128625   1.717   2.521   0.569
 9242SOL    HW228626   1.708   2.493   0.409
 9243SOL     OW28627   0.968   0.498   0.006
 9243SOL    HW128628   1.051   0.444   7.017
 9243SOL    HW228629   0.895   0.460   6.971
 9244SOL     OW28630   3.969   6.164   5.379
 9244SOL    HW128631   4.049   6.209   5.341
 9244SOL    HW228632   3.982   6.150   5.477
 9245SOL     OW28633   0.975   4.260   3.118
 9245SOL    HW128634   1.058   4.208   3.099
 9245SOL    HW228635   0.931   4.284   3.031
 9246SOL     OW28636   6.373   0.537   5.318
 9246SOL    HW128637   6.444   0.606   5.306
 9246SOL    HW228638   6.320   0.557   5.400
 9247SOL     OW28639   3.840   6.587   3.343
 9247SOL    HW128640   3.750   6.577   3.301
 9247SOL    HW228641   3.870   6.499   3.379
 9248SOL     OW28642   2.490   1.317   5.824
 9248SOL    HW128643   2.426   1.315   5.747
 9248SOL    HW228644   2.467   1.243   5.887
 9249SOL     OW28645   3.697   5.175   1.425
 9249SOL    HW128646   3.653   5.163   1.514
 9249SOL    HW228647   3.758   5.254   1.428
 9250SOL     OW28648   0.530   2.903   4.093
 9250SOL    HW128649   0.628   2.906   4.070
 9250SOL    HW228650   0.506   2.812   4.126
 9251SOL     OW28651   3.395   2.953   1.195
 9251SOL    HW128652   3.474   2.935   1.253
 9251SOL    HW228653   3.370   2.869   1.146
 9252SOL     OW28654   4.908   2.022   6.066
 9252SOL    HW128655   4.883   2.004   6.161
 9252SOL    HW228656   4.958   2.108   6.060
 9253SOL     OW28657   0.996   5.206   5.314
 9253SOL    HW128658   0.958   5.119   5.283
 9253SOL    HW228659   1.094   5.194   5.335
 9254SOL     OW28660   0.149   5.142   2.853
 9254SOL    HW128661   0.120   5.152   2.757
 9254SOL    HW228662   0.177   5.047   2.870
 9255SOL     OW28663   6.832   4.102   0.477
 9255SOL    HW128664   6.835   4.108   0.577
 9255SOL    HW228665   6.748   4.056   0.449
 9256SOL     OW28666   1.989   6.164   1.821
 9256SOL    HW128667   1.997   6.263   1.825
 9256SOL    HW228668   2.078   6.125   1.795
 9257SOL     OW28669   6.412   6.021   3.972
 9257SOL    HW128670   6.319   6.003   3.940
 9257SOL    HW228671   6.412   6.031   4.071
 9258SOL     OW28672   3.702   5.021   1.188
 9258SOL    HW128673   3.663   4.933   1.212
 9258SOL    HW228674   3.702   5.081   1.268
 9259SOL     OW28675   2.077   1.639   6.402
 9259SOL    HW128676   2.125   1.722   6.371
 9259SOL    HW228677   1.980   1.647   6.381
 9260SOL     OW28678   6.164   4.135   4.797
 9260SOL    HW128679   6.119   4.220   4.826
 9260SOL    HW228680   6.212   4.151   4.711
 9261SOL     OW28681   3.535   2.540   1.733
 9261SOL    HW128682   3.592   2.622   1.728
 9261SOL    HW228683   3.589   2.464   1.766
 9262SOL     OW28684   6.212   5.799   4.108
 9262SOL    HW128685   6.265   5.875   4.146
 9262SOL    HW228686   6.204   5.810   4.009
 9263SOL     OW28687   1.476   3.803   3.872
 9263SOL    HW128688   1.423   3.881   3.839
 9263SOL    HW228689   1.462   3.725   3.811
 9264SOL     OW28690   4.522   3.711   0.394
 9264SOL    HW128691   4.597   3.699   0.329
 9264SOL    HW228692   4.483   3.622   0.417
 9265SOL     OW28693   5.480   1.685   0.210
 9265SOL    HW128694   5.503   1.624   0.286
 9265SOL    HW228695   5.396   1.736   0.232
 9266SOL     OW28696   0.536   4.252   1.335
 9266SOL    HW128697   0.554   4.316   1.261
 9266SOL    HW228698   0.544   4.299   1.423
 9267SOL     OW28699   6.870   1.029   4.783
 9267SOL    HW128700   6.806   1.066   4.851
 9267SOL    HW228701   6.824   1.022   4.695
 9268SOL     OW28702   0.806   6.987   2.110
 9268SOL    HW128703   0.889   0.004   2.070
 9268SOL    HW228704   0.761   0.034   2.167
 9269SOL     OW28705   4.388   0.868   0.949
 9269SOL    HW128706   4.438   0.925   0.883
 9269SOL    HW228707   4.290   0.876   0.931
 9270SOL     OW28708   1.469   0.770   5.840
 9270SOL    HW128709   1.546   0.713   5.869
 9270SOL    HW228710   1.482   0.864   5.874
 9271SOL     OW28711   1.500   0.016   4.812
 9271SOL    HW128712   1.500   0.089   4.744
 9271SOL    HW228713   1.546   6.957   4.775
 9272SOL     OW28714   6.548   6.903   6.282
 9272SOL    HW128715   6.506   6.993   6.276
 9272SOL    HW228716   6.496   6.846   6.345
 9273SOL     OW28717   4.544   4.881   4.500
 9273SOL    HW128718   4.625   4.893   4.443
 9273SOL    HW228719   4.480   4.820   4.454
 9274SOL     OW28720   1.311   2.806   6.703
 9274SOL    HW128721   1.325   2.793   6.801
 9274SOL    HW228722   1.315   2.903   6.681
 9275SOL     OW28723   0.070   0.648   0.003
 9275SOL    HW128724   0.018   0.734   7.021
 9275SOL    HW228725   0.098   0.621   6.933
 9276SOL     OW28726   2.821   5.187   0.054
 9276SOL    HW128727   2.898   5.127   0.032
 9276SOL    HW228728   2.826   5.214   0.150
 9277SOL     OW28729   5.221   5.980   1.857
 9277SOL    HW128730   5.250   5.924   1.780
 9277SOL    HW228731   5.134   5.946   1.893
 9278SOL     OW28732   0.444   0.809   4.700
 9278SOL    HW128733   0.521   0.781   4.643
 9278SOL    HW228734   0.359   0.774   4.662
 9279SOL     OW28735   4.772   6.244   1.465
 9279SOL    HW128736   4.737   6.184   1.537
 9279SOL    HW228737   4.741   6.210   1.376
 9280SOL     OW28738   1.662   0.293   2.929
 9280SOL    HW128739   1.567   0.265   2.943
 9280SOL    HW228740   1.709   0.299   3.017
 9281SOL     OW28741   2.729   5.106   6.844
 9281SOL    HW128742   2.799   5.145   6.785
 9281SOL    HW228743   2.740   5.143   6.937
 9282SOL     OW28744   2.802   6.641   4.799
 9282SOL    HW128745   2.894   6.639   4.838
 9282SOL    HW228746   2.770   6.736   4.794
 9283SOL     OW28747   4.638   6.138   6.739
 9283SOL    HW128748   4.729   6.122   6.702
 9283SOL    HW228749   4.644   6.196   6.821
 9284SOL     OW28750   3.552   3.837   5.037
 9284SOL    HW128751   3.540   3.929   5.001
 9284SOL    HW228752   3.612   3.840   5.117
 9285SOL     OW28753   0.123   4.573   2.647
 9285SOL    HW128754   0.181   4.646   2.612
 9285SOL    HW228755   0.117   4.580   2.747
 9286SOL     OW28756   4.750   5.726   1.238
 9286SOL    HW128757   4.709   5.731   1.147
 9286SOL    HW228758   4.800   5.640   1.248
 9287SOL     OW28759   3.717   4.885   6.300
 9287SOL    HW128760   3.648   4.846   6.361
 9287SOL    HW228761   3.727   4.982   6.319
 9288SOL     OW28762   4.260   2.191   2.729
 9288SOL    HW128763   4.192   2.216   2.661
 9288SOL    HW228764   4.347   2.238   2.708
 9289SOL     OW28765   4.728   6.308   6.964
 9289SOL    HW128766   4.790   6.374   7.006
 9289SOL    HW228767   4.633   6.329   6.990
 9290SOL     OW28768   5.034   0.581   4.173
 9290SOL    HW128769   5.051   0.606   4.078
 9290SOL    HW228770   5.045   0.662   4.231
 9291SOL     OW28771   1.131   4.976   6.023
 9291SOL    HW128772   1.114   5.064   6.068
 9291SOL    HW228773   1.213   4.982   5.967
 9292SOL     OW28774   1.925   1.633   6.051
 9292SOL    HW128775   1.928   1.594   5.959
 9292SOL    HW228776   1.897   1.563   6.116
 9293SOL     OW28777   5.295   3.025   4.691
 9293SOL    HW128778   5.280   3.111   4.739
 9293SOL    HW228779   5.256   2.950   4.744
 9294SOL     OW28780   4.480   0.974   7.002
 9294SOL    HW128781   4.385   0.956   6.980
 9294SOL    HW228782   4.529   0.888   7.014
 9295SOL     OW28783   0.459   1.539   5.148
 9295SOL    HW128784   0.427   1.633   5.160
 9295SOL    HW228785   0.424   1.482   5.223
 9296SOL     OW28786   1.442   4.773   0.339
 9296SOL    HW128787   1.514   4.708   0.318
 9296SOL    HW228788   1.479   4.866   0.337
 9297SOL     OW28789   5.969   6.192   2.529
 9297SOL    HW128790   5.966   6.256   2.452
 9297SOL    HW228791   5.947   6.240   2.613
 9298SOL     OW28792   1.145   5.653   6.152
 9298SOL    HW128793   1.074   5.604   6.101
 9298SOL    HW228794   1.162   5.607   6.239
 9299SOL     OW28795   1.957   2.287   4.910
 9299SOL    HW128796   1.968   2.196   4.870
 9299SOL    HW228797   1.991   2.287   5.004
 9300SOL     OW28798   1.584   5.350   5.815
 9300SOL    HW128799   1.530   5.308   5.888
 9300SOL    HW228800   1.562   5.447   5.809
 9301SOL     OW28801   6.914   4.160   5.017
 9301SOL    HW128802   6.941   4.177   5.112
 9301SOL    HW228803   6.993   4.172   4.957
 9302SOL     OW28804   2.006   3.756   5.321
 9302SOL    HW128805   2.060   3.836   5.295
 9302SOL    HW228806   2.048   3.674   5.282
 9303SOL     OW28807   2.295   4.757   0.712
 9303SOL    HW128808   2.258   4.715   0.795
 9303SOL    HW228809   2.390   4.783   0.727
 9304SOL     OW28810   4.769   5.376   0.443
 9304SOL    HW128811   4.812   5.331   0.521
 9304SOL    HW228812   4.707   5.312   0.397
 9305SOL     OW28813   2.159   2.002   1.418
 9305SOL    HW128814   2.076   2.054   1.397
 9305SOL    HW228815   2.239   2.055   1.389
 9306SOL     OW28816   6.762   5.396   4.896
 9306SOL    HW128817   6.730   5.354   4.981
 9306SOL    HW228818   6.850   5.357   4.870
 9307SOL     OW28819   2.619   3.180   1.723
 9307SOL    HW128820   2.656   3.245   1.656
 9307SOL    HW228821   2.688   3.111   1.743
 9308SOL     OW28822   1.996   3.670   2.173
 9308SOL    HW128823   2.017   3.768   2.177
 9308SOL    HW228824   2.065   3.623   2.118
 9309SOL     OW28825   5.247   5.528   6.043
 9309SOL    HW128826   5.265   5.606   5.982
 9309SOL    HW228827   5.228   5.561   6.135
 9310SOL     OW28828   5.839   6.122   6.990
 9310SOL    HW128829   5.874   6.189   6.925
 9310SOL    HW228830   5.870   6.144   0.060
 9311SOL     OW28831   4.530   3.486   1.444
 9311SOL    HW128832   4.558   3.452   1.355
 9311SOL    HW228833   4.430   3.489   1.449
 9312SOL     OW28834   0.541   2.477   2.099
 9312SOL    HW128835   0.531   2.424   2.183
 9312SOL    HW228836   0.490   2.432   2.025
 9313SOL     OW28837   0.412   6.565   2.553
 9313SOL    HW128838   0.414   6.469   2.581
 9313SOL    HW228839   0.450   6.622   2.626
 9314SOL     OW28840   4.902   3.092   0.272
 9314SOL    HW128841   4.809   3.128   0.278
 9314SOL    HW228842   4.901   2.994   0.295
 9315SOL     OW28843   5.609   1.095   6.218
 9315SOL    HW128844   5.514   1.104   6.190
 9315SOL    HW228845   5.621   1.011   6.271
 9316SOL     OW28846   4.283   0.677   5.430
 9316SOL    HW128847   4.364   0.674   5.488
 9316SOL    HW228848   4.310   0.701   5.337
 9317SOL     OW28849   3.929   6.332   3.384
 9317SOL    HW128850   3.850   6.275   3.409
 9317SOL    HW228851   3.983   6.284   3.315
 9318SOL     OW28852   4.749   6.600   1.317
 9318SOL    HW128853   4.772   6.524   1.379
 9318SOL    HW228854   4.725   6.563   1.227
 9319SOL     OW28855   2.460   3.850   6.818
 9319SOL    HW128856   2.446   3.826   6.914
 9319SOL    HW228857   2.414   3.936   6.798
 9320SOL     OW28858   6.387   6.418   6.702
 9320SOL    HW128859   6.332   6.389   6.780
 9320SOL    HW228860   6.452   6.345   6.679
 9321SOL     OW28861   0.634   3.816   4.644
 9321SOL    HW128862   0.672   3.899   4.604
 9321SOL    HW228863   0.534   3.824   4.649
 9322SOL     OW28864   5.968   3.643   5.760
 9322SOL    HW128865   5.985   3.546   5.777
 9322SOL    HW228866   5.989   3.663   5.664
 9323SOL     OW28867   1.347   2.427   4.762
 9323SOL    HW128868   1.446   2.420   4.761
 9323SOL    HW228869   1.320   2.522   4.748
 9324SOL     OW28870   0.529   4.405   1.587
 9324SOL    HW128871   0.434   4.396   1.556
 9324SOL    HW228872   0.560   4.499   1.572
 9325SOL     OW28873   1.137   5.133   2.647
 9325SOL    HW128874   1.206   5.193   2.607
 9325SOL    HW228875   1.076   5.187   2.706
 9326SOL     OW28876   4.192   4.629   1.084
 9326SOL    HW128877   4.195   4.728   1.098
 9326SOL    HW228878   4.218   4.582   1.169
 9327SOL     OW28879   4.357   0.202   4.193
 9327SOL    HW128880   4.270   0.251   4.202
 9327SOL    HW228881   4.393   0.214   4.101
 9328SOL     OW28882   2.685   6.834   4.670
 9328SOL    HW128883   2.767   6.889   4.653
 9328SOL    HW228884   2.634   6.822   4.585
 9329SOL     OW28885   0.122   5.566   6.566
 9329SOL    HW128886   0.139   5.584   6.663
 9329SOL    HW228887   0.184   5.493   6.535
 9330SOL     OW28888   5.884   5.406   6.792
 9330SOL    HW128889   5.881   5.506   6.796
 9330SOL    HW228890   5.979   5.375   6.786
 9331SOL     OW28891   1.494   2.940   4.640
 9331SOL    HW128892   1.404   2.936   4.685
 9331SOL    HW228893   1.528   3.034   4.642
 9332SOL     OW28894   4.697   5.479   0.984
 9332SOL    HW128895   4.732   5.571   0.969
 9332SOL    HW228896   4.612   5.467   0.933
 9333SOL     OW28897   3.761   4.895   0.627
 9333SOL    HW128898   3.720   4.959   0.562
 9333SOL    HW228899   3.810   4.824   0.577
 9334SOL     OW28900   5.660   6.302   5.507
 9334SOL    HW128901   5.651   6.234   5.434
 9334SOL    HW228902   5.574   6.308   5.558
 9335SOL     OW28903   1.779   3.077   1.494
 9335SOL    HW128904   1.789   3.097   1.397
 9335SOL    HW228905   1.759   3.162   1.544
 9336SOL     OW28906   6.356   6.735   5.405
 9336SOL    HW128907   6.333   6.678   5.484
 9336SOL    HW228908   6.449   6.715   5.375
 9337SOL     OW28909   2.482   0.594   6.679
 9337SOL    HW128910   2.441   0.514   6.725
 9337SOL    HW228911   2.535   0.647   6.746
 9338SOL     OW28912   5.903   6.887   0.159
 9338SOL    HW128913   5.982   6.853   0.108
 9338SOL    HW228914   5.836   6.925   0.096
 9339SOL     OW28915   6.317   4.266   5.474
 9339SOL    HW128916   6.367   4.321   5.406
 9339SOL    HW228917   6.376   4.193   5.508
 9340SOL     OW28918   4.229   5.611   2.062
 9340SOL    HW128919   4.241   5.688   1.999
 9340SOL    HW228920   4.260   5.637   2.153
 9341SOL     OW28921   5.143   3.597   6.696
 9341SOL    HW128922   5.231   3.617   6.652
 9341SOL    HW228923   5.107   3.681   6.736
 9342SOL     OW28924   2.844   0.468   4.218
 9342SOL    HW128925   2.941   0.477   4.240
 9342SOL    HW228926   2.823   0.521   4.136
 9343SOL     OW28927   4.817   4.532   1.575
 9343SOL    HW128928   4.741   4.468   1.580
 9343SOL    HW228929   4.832   4.558   1.480
 9344SOL     OW28930   5.495   5.659   4.824
 9344SOL    HW128931   5.567   5.697   4.881
 9344SOL    HW228932   5.526   5.572   4.784
 9345SOL     OW28933   0.214   6.574   1.352
 9345SOL    HW128934   0.298   6.619   1.324
 9345SOL    HW228935   0.216   6.478   1.321
 9346SOL     OW28936   5.908   6.490   0.838
 9346SOL    HW128937   5.816   6.499   0.800
 9346SOL    HW228938   5.955   6.578   0.832
 9347SOL     OW28939   3.484   5.294   0.855
 9347SOL    HW128940   3.441   5.356   0.790
 9347SOL    HW228941   3.435   5.207   0.856
 9348SOL     OW28942   1.892   5.866   1.634
 9348SOL    HW128943   1.930   5.896   1.547
 9348SOL    HW228944   1.810   5.811   1.618
 9349SOL     OW28945   6.369   5.493   1.713
 9349SOL    HW128946   6.306   5.571   1.726
 9349SOL    HW228947   6.341   5.441   1.632
 9350SOL     OW28948   6.996   0.581   5.451
 9350SOL    HW128949   0.037   0.570   5.528
 9350SOL    HW228950   6.926   0.649   5.474
 9351SOL     OW28951   3.308   1.540   6.432
 9351SOL    HW128952   3.258   1.618   6.395
 9351SOL    HW228953   3.280   1.523   6.526
 9352SOL     OW28954   3.594   2.067   6.491
 9352SOL    HW128955   3.497   2.077   6.513
 9352SOL    HW228956   3.611   1.976   6.454
 9353SOL     OW28957   1.560   3.458   1.082
 9353SOL    HW128958   1.646   3.489   1.042
 9353SOL    HW228959   1.578   3.412   1.169
 9354SOL     OW28960   4.861   2.144   1.188
 9354SOL    HW128961   4.812   2.142   1.275
 9354SOL    HW228962   4.911   2.230   1.179
 9355SOL     OW28963   6.652   6.952   3.408
 9355SOL    HW128964   6.647   6.949   3.508
 9355SOL    HW228965   6.573   7.002   3.372
 9356SOL     OW28966   4.338   4.591   2.346
 9356SOL    HW128967   4.401   4.515   2.328
 9356SOL    HW228968   4.290   4.616   2.262
 9357SOL     OW28969   2.985   2.595   1.219
 9357SOL    HW128970   3.055   2.630   1.281
 9357SOL    HW228971   2.899   2.581   1.269
 9358SOL     OW28972   6.431   4.591   2.161
 9358SOL    HW128973   6.440   4.494   2.181
 9358SOL    HW228974   6.375   4.635   2.232
 9359SOL     OW28975   6.839   3.992   5.741
 9359SOL    HW128976   6.891   4.062   5.693
 9359SOL    HW228977   6.755   4.031   5.778
 9360SOL     OW28978   2.268   0.979   6.643
 9360SOL    HW128979   2.241   0.885   6.662
 9360SOL    HW228980   2.323   0.982   6.559
 9361SOL     OW28981   2.588   6.271   2.343
 9361SOL    HW128982   2.544   6.285   2.431
 9361SOL    HW228983   2.519   6.243   2.276
 9362SOL     OW28984   2.324   1.270   2.610
 9362SOL    HW128985   2.345   1.366   2.629
 9362SOL    HW228986   2.274   1.263   2.524
 9363SOL     OW28987   3.446   6.359   2.715
 9363SOL    HW128988   3.355   6.320   2.699
 9363SOL    HW228989   3.436   6.455   2.743
 9364SOL     OW28990   4.585   3.130   0.145
 9364SOL    HW128991   4.493   3.130   0.184
 9364SOL    HW228992   4.629   3.218   0.163
 9365SOL     OW28993   2.204   2.126   5.113
 9365SOL    HW128994   2.284   2.130   5.173
 9365SOL    HW228995   2.230   2.151   5.020
 9366SOL     OW28996   2.967   1.722   0.404
 9366SOL    HW128997   2.976   1.814   0.367
 9366SOL    HW228998   2.879   1.713   0.451
 9367SOL     OW28999   6.564   5.713   2.768
 9367SOL    HW129000   6.585   5.787   2.831
 9367SOL    HW229001   6.578   5.625   2.813
 9368SOL     OW29002   2.921   1.803   1.662
 9368SOL    HW129003   2.991   1.866   1.696
 9368SOL    HW229004   2.928   1.716   1.712
 9369SOL     OW29005   0.198   2.346   4.851
 9369SOL    HW129006   0.170   2.284   4.924
 9369SOL    HW229007   0.178   2.304   4.762
 9370SOL     OW29008   6.406   0.640   2.391
 9370SOL    HW129009   6.384   0.605   2.482
 9370SOL    HW229010   6.395   0.739   2.389
 9371SOL     OW29011   0.527   6.464   0.512
 9371SOL    HW129012   0.520   6.413   0.598
 9371SOL    HW229013   0.484   6.412   0.438
 9372SOL     OW29014   5.644   6.702   4.039
 9372SOL    HW129015   5.586   6.620   4.044
 9372SOL    HW229016   5.650   6.732   3.944
 9373SOL     OW29017   4.195   1.850   3.087
 9373SOL    HW129018   4.111   1.830   3.036
 9373SOL    HW229019   4.249   1.919   3.038
 9374SOL     OW29020   5.345   2.774   0.514
 9374SOL    HW129021   5.408   2.704   0.547
 9374SOL    HW229022   5.353   2.856   0.571
 9375SOL     OW29023   0.377   1.146   2.928
 9375SOL    HW129024   0.428   1.225   2.961
 9375SOL    HW229025   0.293   1.137   2.982
 9376SOL     OW29026   2.664   4.024   0.407
 9376SOL    HW129027   2.696   4.021   0.312
 9376SOL    HW229028   2.578   3.974   0.415
 9377SOL     OW29029   6.481   5.661   3.607
 9377SOL    HW129030   6.514   5.644   3.515
 9377SOL    HW229031   6.558   5.685   3.666
 9378SOL     OW29032   2.159   0.232   6.956
 9378SOL    HW129033   2.097   0.174   7.009
 9378SOL    HW229034   2.126   0.239   6.862
 9379SOL     OW29035   4.811   5.122   3.609
 9379SOL    HW129036   4.850   5.089   3.695
 9379SOL    HW229037   4.797   5.221   3.615
 9380SOL     OW29038   6.269   6.717   6.102
 9380SOL    HW129039   6.256   6.753   6.009
 9380SOL    HW229040   6.304   6.623   6.096
 9381SOL     OW29041   2.603   2.279   5.565
 9381SOL    HW129042   2.509   2.296   5.594
 9381SOL    HW229043   2.634   2.354   5.506
 9382SOL     OW29044   3.761   1.461   2.227
 9382SOL    HW129045   3.778   1.441   2.323
 9382SOL    HW229046   3.844   1.498   2.185
 9383SOL     OW29047   3.748   6.481   4.162
 9383SOL    HW129048   3.662   6.515   4.124
 9383SOL    HW229049   3.735   6.388   4.197
 9384SOL     OW29050   5.159   6.453   2.595
 9384SOL    HW129051   5.192   6.524   2.656
 9384SOL    HW229052   5.233   6.423   2.535
 9385SOL     OW29053   4.146   1.024   3.610
 9385SOL    HW129054   4.051   1.050   3.595
 9385SOL    HW229055   4.206   1.091   3.567
 9386SOL     OW29056   3.109   6.672   5.766
 9386SOL    HW129057   3.080   6.766   5.783
 9386SOL    HW229058   3.057   6.634   5.690
 9387SOL     OW29059   3.052   6.550   1.728
 9387SOL    HW129060   3.083   6.457   1.706
 9387SOL    HW229061   2.955   6.559   1.706
 9388SOL     OW29062   0.296   0.179   2.932
 9388SOL    HW129063   0.314   0.275   2.915
 9388SOL    HW229064   0.293   0.162   3.030
 9389SOL     OW29065   2.336   1.088   5.625
 9389SOL    HW129066   2.254   1.041   5.592
 9389SOL    HW229067   2.396   1.022   5.670
 9390SOL     OW29068   3.390   5.634   2.653
 9390SOL    HW129069   3.390   5.647   2.752
 9390SOL    HW229070   3.467   5.684   2.613
 9391SOL     OW29071   1.157   1.648   5.720
 9391SOL    HW129072   1.090   1.697   5.664
 9391SOL    HW229073   1.154   1.551   5.697
 9392SOL     OW29074   1.874   6.968   4.788
 9392SOL    HW129075   1.944   6.972   4.717
 9392SOL    HW229076   1.802   6.905   4.760
 9393SOL     OW29077   3.608   2.210   5.293
 9393SOL    HW129078   3.593   2.276   5.366
 9393SOL    HW229079   3.520   2.173   5.264
 9394SOL     OW29080   6.452   2.548   3.087
 9394SOL    HW129081   6.459   2.622   3.020
 9394SOL    HW229082   6.356   2.536   3.113
 9395SOL     OW29083   2.554   3.112   0.475
 9395SOL    HW129084   2.618   3.155   0.539
 9395SOL    HW229085   2.573   3.014   0.469
 9396SOL     OW29086   6.176   6.807   5.827
 9396SOL    HW129087   6.203   6.894   5.785
 9396SOL    HW229088   6.163   6.739   5.755
 9397SOL     OW29089   2.113   0.534   0.091
 9397SOL    HW129090   2.088   0.451   0.040
 9397SOL    HW229091   2.176   0.589   0.036
 9398SOL     OW29092   2.631   1.348   0.020
 9398SOL    HW129093   2.611   1.253   0.047
 9398SOL    HW229094   2.706   1.383   0.077
 9399SOL     OW29095   6.480   1.365   6.103
 9399SOL    HW129096   6.528   1.338   6.187
 9399SOL    HW229097   6.440   1.456   6.116
 9400SOL     OW29098   5.222   3.501   1.629
 9400SOL    HW129099   5.251   3.411   1.662
 9400SOL    HW229100   5.231   3.568   1.702
 9401SOL     OW29101   2.896   6.080   3.734
 9401SOL    HW129102   2.886   6.035   3.823
 9401SOL    HW229103   2.965   6.032   3.680
 9402SOL     OW29104   2.580   5.211   6.450
 9402SOL    HW129105   2.602   5.128   6.397
 9402SOL    HW229106   2.498   5.253   6.412
 9403SOL     OW29107   5.480   1.401   3.578
 9403SOL    HW129108   5.528   1.438   3.499
 9403SOL    HW229109   5.392   1.447   3.589
 9404SOL     OW29110   0.639   5.158   0.060
 9404SOL    HW129111   0.593   5.155   0.149
 9404SOL    HW229112   0.620   5.246   0.016
 9405SOL     OW29113   6.113   6.668   1.660
 9405SOL    HW129114   6.143   6.628   1.747
 9405SOL    HW229115   6.103   6.767   1.672
 9406SOL     OW29116   6.999   2.259   5.254
 9406SOL    HW129117   0.049   2.271   5.187
 9406SOL    HW229118   6.964   2.348   5.283
 9407SOL     OW29119   3.360   5.988   3.572
 9407SOL    HW129120   3.421   6.030   3.639
 9407SOL    HW229121   3.413   5.952   3.496
 9408SOL     OW29122   3.760   1.770   0.009
 9408SOL    HW129123   3.849   1.736   0.041
 9408SOL    HW229124   3.775   1.850   6.972
 9409SOL     OW29125   5.506   3.568   3.866
 9409SOL    HW129126   5.428   3.595   3.921
 9409SOL    HW229127   5.476   3.546   3.773
 9410SOL     OW29128   4.294   6.204   2.375
 9410SOL    HW129129   4.322   6.300   2.378
 9410SOL    HW229130   4.304   6.170   2.282
 9411SOL     OW29131   4.484   5.523   0.844
 9411SOL    HW129132   4.389   5.494   0.844
 9411SOL    HW229133   4.493   5.608   0.792
 9412SOL     OW29134   0.565   2.938   0.946
 9412SOL    HW129135   0.564   2.967   0.851
 9412SOL    HW229136   0.641   2.875   0.961
 9413SOL     OW29137   4.513   5.911   5.352
 9413SOL    HW129138   4.550   5.902   5.259
 9413SOL    HW229139   4.571   5.859   5.415
 9414SOL     OW29140   3.107   1.505   2.696
 9414SOL    HW129141   3.152   1.594   2.700
 9414SOL    HW229142   3.057   1.496   2.609
 9415SOL     OW29143   1.962   6.368   2.281
 9415SOL    HW129144   1.900   6.385   2.358
 9415SOL    HW229145   1.911   6.379   2.195
 9416SOL     OW29146   1.355   1.665   1.920
 9416SOL    HW129147   1.370   1.690   2.016
 9416SOL    HW229148   1.270   1.612   1.912
 9417SOL     OW29149   2.312   5.796   5.484
 9417SOL    HW129150   2.354   5.886   5.483
 9417SOL    HW229151   2.216   5.803   5.455
 9418SOL     OW29152   2.142   5.460   1.741
 9418SOL    HW129153   2.230   5.414   1.731
 9418SOL    HW229154   2.096   5.425   1.823
 9419SOL     OW29155   2.720   6.479   5.009
 9419SOL    HW129156   2.748   6.535   4.932
 9419SOL    HW229157   2.628   6.505   5.038
 9420SOL     OW29158   6.430   1.444   4.810
 9420SOL    HW129159   6.512   1.413   4.762
 9420SOL    HW229160   6.372   1.365   4.831
 9421SOL     OW29161   1.508   4.334   5.252
 9421SOL    HW129162   1.585   4.316   5.312
 9421SOL    HW229163   1.450   4.405   5.293
 9422SOL     OW29164   5.581   0.043   2.119
 9422SOL    HW129165   5.666   7.018   2.093
 9422SOL    HW229166   5.558   0.020   2.213
 9423SOL     OW29167   4.075   1.300   3.384
 9423SOL    HW129168   4.041   1.230   3.321
 9423SOL    HW229169   4.024   1.295   3.470
 9424SOL     OW29170   4.403   0.423   5.639
 9424SOL    HW129171   4.406   0.364   5.559
 9424SOL    HW229172   4.491   0.423   5.685
 9425SOL     OW29173   0.903   3.871   5.175
 9425SOL    HW129174   0.904   3.777   5.209
 9425SOL    HW229175   0.997   3.906   5.171
 9426SOL     OW29176   2.935   0.610   6.980
 9426SOL    HW129177   2.952   0.549   6.903
 9426SOL    HW229178   2.920   0.703   6.946
 9427SOL     OW29179   2.799   5.189   5.184
 9427SOL    HW129180   2.791   5.139   5.098
 9427SOL    HW229181   2.873   5.151   5.239
 9428SOL     OW29182   5.829   0.280   2.859
 9428SOL    HW129183   5.871   0.366   2.889
 9428SOL    HW229184   5.782   0.237   2.936
 9429SOL     OW29185   1.206   4.224   1.848
 9429SOL    HW129186   1.220   4.152   1.916
 9429SOL    HW229187   1.265   4.206   1.769
 9430SOL     OW29188   6.666   6.601   1.870
 9430SOL    HW129189   6.754   6.561   1.895
 9430SOL    HW229190   6.681   6.685   1.817
 9431SOL     OW29191   6.325   3.639   6.539
 9431SOL    HW129192   6.316   3.738   6.550
 9431SOL    HW229193   6.276   3.592   6.613
 9432SOL     OW29194   5.917   0.085   3.523
 9432SOL    HW129195   6.015   0.074   3.508
 9432SOL    HW229196   5.899   0.171   3.571
 9433SOL     OW29197   3.195   4.928   5.035
 9433SOL    HW129198   3.198   5.015   5.085
 9433SOL    HW229199   3.186   4.852   5.099
 9434SOL     OW29200   5.763   3.880   2.640
 9434SOL    HW129201   5.716   3.809   2.691
 9434SOL    HW229202   5.860   3.879   2.663
 9435SOL     OW29203   1.929   1.745   4.125
 9435SOL    HW129204   1.863   1.800   4.175
 9435SOL    HW229205   1.892   1.653   4.109
 9436SOL     OW29206   2.088   3.733   0.616
 9436SOL    HW129207   2.063   3.830   0.620
 9436SOL    HW229208   2.109   3.708   0.521
 9437SOL     OW29209   1.325   5.138   2.876
 9437SOL    HW129210   1.226   5.145   2.863
 9437SOL    HW229211   1.371   5.208   2.822
 9438SOL     OW29212   0.267   6.582   2.313
 9438SOL    HW129213   0.273   6.490   2.274
 9438SOL    HW229214   0.308   6.583   2.404
 9439SOL     OW29215   0.083   3.677   1.995
 9439SOL    HW129216   0.130   3.612   1.936
 9439SOL    HW229217   0.065   3.761   1.945
 9440SOL     OW29218   4.897   6.431   4.627
 9440SOL    HW129219   4.939   6.379   4.701
 9440SOL    HW229220   4.871   6.522   4.660
 9441SOL     OW29221   1.794   5.197   4.928
 9441SOL    HW129222   1.873   5.160   4.976
 9441SOL    HW229223   1.710   5.169   4.974
 9442SOL     OW29224   6.939   2.310   6.936
 9442SOL    HW129225   7.008   2.251   6.978
 9442SOL    HW229226   6.850   2.289   6.976
 9443SOL     OW29227   1.954   4.707   1.092
 9443SOL    HW129228   1.929   4.631   1.151
 9443SOL    HW229229   1.883   4.778   1.098
 9444SOL     OW29230   0.825   2.929   0.107
 9444SOL    HW129231   0.762   2.856   0.132
 9444SOL    HW229232   0.915   2.910   0.145
 9445SOL     OW29233   5.312   3.832   2.271
 9445SOL    HW129234   5.248   3.849   2.197
 9445SOL    HW229235   5.405   3.851   2.239
 9446SOL     OW29236   6.410   6.023   2.513
 9446SOL    HW129237   6.416   5.981   2.422
 9446SOL    HW229238   6.483   5.987   2.571
 9447SOL     OW29239   5.118   3.822   2.035
 9447SOL    HW129240   5.026   3.849   2.061
 9447SOL    HW229241   5.123   3.722   2.027
 9448SOL     OW29242   5.571   6.203   6.020
 9448SOL    HW129243   5.650   6.143   6.034
 9448SOL    HW229244   5.561   6.262   6.100
 9449SOL     OW29245   6.283   5.551   5.115
 9449SOL    HW129246   6.306   5.645   5.139
 9449SOL    HW229247   6.216   5.551   5.041
 9450SOL     OW29248   2.233   5.126   4.582
 9450SOL    HW129249   2.274   5.124   4.491
 9450SOL    HW229250   2.224   5.032   4.616
 9451SOL     OW29251   5.150   5.501   6.541
 9451SOL    HW129252   5.246   5.477   6.553
 9451SOL    HW229253   5.098   5.419   6.518
 9452SOL     OW29254   2.470   3.621   0.731
 9452SOL    HW129255   2.438   3.716   0.734
 9452SOL    HW229256   2.446   3.575   0.817
 9453SOL     OW29257   2.115   4.790   3.194
 9453SOL    HW129258   2.171   4.718   3.235
 9453SOL    HW229259   2.030   4.751   3.159
 9454SOL     OW29260   1.545   4.417   6.466
 9454SOL    HW129261   1.540   4.320   6.486
 9454SOL    HW229262   1.606   4.462   6.531
 9455SOL     OW29263   3.609   1.579   3.027
 9455SOL    HW129264   3.607   1.502   3.091
 9455SOL    HW229265   3.577   1.661   3.073
 9456SOL     OW29266   0.920   3.785   0.773
 9456SOL    HW129267   0.915   3.685   0.779
 9456SOL    HW229268   0.931   3.812   0.677
 9457SOL     OW29269   1.954   3.405   6.665
 9457SOL    HW129270   1.868   3.443   6.629
 9457SOL    HW229271   2.006   3.477   6.709
 9458SOL     OW29272   6.761   4.934   5.922
 9458SOL    HW129273   6.753   5.022   5.874
 9458SOL    HW229274   6.858   4.911   5.932
 9459SOL     OW29275   5.816   5.182   2.072
 9459SOL    HW129276   5.873   5.251   2.117
 9459SOL    HW229277   5.824   5.192   1.973
 9460SOL     OW29278   0.546   2.576   4.889
 9460SOL    HW129279   0.558   2.490   4.839
 9460SOL    HW229280   0.467   2.569   4.950
 9461SOL     OW29281   0.603   1.334   3.298
 9461SOL    HW129282   0.651   1.358   3.382
 9461SOL    HW229283   0.610   1.236   3.281
 9462SOL     OW29284   1.755   2.880   2.824
 9462SOL    HW129285   1.827   2.949   2.823
 9462SOL    HW229286   1.734   2.852   2.730
 9463SOL     OW29287   6.959   1.053   1.097
 9463SOL    HW129288   6.962   1.149   1.125
 9463SOL    HW229289   6.995   1.044   1.004
 9464SOL     OW29290   5.747   6.305   6.409
 9464SOL    HW129291   5.769   6.207   6.403
 9464SOL    HW229292   5.833   6.357   6.415
 9465SOL     OW29293   6.890   0.999   3.223
 9465SOL    HW129294   6.798   0.963   3.206
 9465SOL    HW229295   6.917   1.058   3.148
 9466SOL     OW29296   2.595   3.169   5.685
 9466SOL    HW129297   2.587   3.154   5.586
 9466SOL    HW229298   2.525   3.115   5.732
 9467SOL     OW29299   1.993   2.254   1.989
 9467SOL    HW129300   1.913   2.249   2.050
 9467SOL    HW229301   2.074   2.275   2.043
 9468SOL     OW29302   6.357   2.906   5.976
 9468SOL    HW129303   6.401   2.955   5.900
 9468SOL    HW229304   6.258   2.914   5.968
 9469SOL     OW29305   6.467   5.815   1.818
 9469SOL    HW129306   6.447   5.879   1.744
 9469SOL    HW229307   6.443   5.857   1.906
 9470SOL     OW29308   4.899   3.231   6.942
 9470SOL    HW129309   4.964   3.306   6.935
 9470SOL    HW229310   4.807   3.267   6.958
 9471SOL     OW29311   6.595   2.767   5.700
 9471SOL    HW129312   6.536   2.842   5.670
 9471SOL    HW229313   6.687   2.803   5.719
 9472SOL     OW29314   6.442   4.486   4.386
 9472SOL    HW129315   6.492   4.422   4.444
 9472SOL    HW229316   6.481   4.485   4.294
 9473SOL     OW29317   3.134   6.307   6.228
 9473SOL    HW129318   3.212   6.333   6.286
 9473SOL    HW229319   3.113   6.211   6.241
 9474SOL     OW29320   5.664   4.319   2.142
 9474SOL    HW129321   5.638   4.337   2.047
 9474SOL    HW229322   5.593   4.264   2.186
 9475SOL     OW29323   3.181   3.438   1.136
 9475SOL    HW129324   3.235   3.370   1.185
 9475SOL    HW229325   3.086   3.407   1.129
 9476SOL     OW29326   4.006   3.331   5.299
 9476SOL    HW129327   3.972   3.345   5.206
 9476SOL    HW229328   4.077   3.399   5.319
 9477SOL     OW29329   1.418   2.544   0.958
 9477SOL    HW129330   1.432   2.470   1.024
 9477SOL    HW229331   1.400   2.505   0.868
 9478SOL     OW29332   5.176   4.169   5.440
 9478SOL    HW129333   5.106   4.151   5.371
 9478SOL    HW229334   5.147   4.245   5.498
 9479SOL     OW29335   5.778   5.180   6.402
 9479SOL    HW129336   5.813   5.197   6.309
 9479SOL    HW229337   5.780   5.265   6.454
 9480SOL     OW29338   4.430   4.192   6.864
 9480SOL    HW129339   4.466   4.233   6.780
 9480SOL    HW229340   4.402   4.098   6.846
 9481SOL     OW29341   0.000   3.894   1.853
 9481SOL    HW129342   0.081   3.916   1.908
 9481SOL    HW229343   0.009   3.935   1.762
 9482SOL     OW29344   5.061   0.848   3.388
 9482SOL    HW129345   4.978   0.797   3.411
 9482SOL    HW229346   5.103   0.883   3.472
 9483SOL     OW29347   1.544   1.808   0.879
 9483SOL    HW129348   1.455   1.777   0.913
 9483SOL    HW229349   1.538   1.826   0.780
 9484SOL     OW29350   6.001   1.085   3.597
 9484SOL    HW129351   6.022   1.181   3.620
 9484SOL    HW229352   6.005   1.030   3.681
 9485SOL     OW29353   1.045   0.804   1.999
 9485SOL    HW129354   1.144   0.814   1.992
 9485SOL    HW229355   1.020   0.777   2.093
 9486SOL     OW29356   2.086   5.679   0.621
 9486SOL    HW129357   2.100   5.595   0.569
 9486SOL    HW229358   2.175   5.715   0.651
 9487SOL     OW29359   3.677   4.113   3.646
 9487SOL    HW129360   3.692   4.111   3.547
 9487SOL    HW229361   3.593   4.064   3.669
 9488SOL     OW29362   2.015   5.951   1.420
 9488SOL    HW129363   2.092   5.887   1.416
 9488SOL    HW229364   2.046   6.039   1.455
 9489SOL     OW29365   3.935   4.384   1.372
 9489SOL    HW129366   3.890   4.405   1.285
 9489SOL    HW229367   3.951   4.286   1.378
 9490SOL     OW29368   5.041   0.442   0.787
 9490SOL    HW129369   5.120   0.381   0.777
 9490SOL    HW229370   4.957   0.388   0.780
 9491SOL     OW29371   6.550   4.941   4.242
 9491SOL    HW129372   6.639   4.902   4.223
 9491SOL    HW229373   6.513   4.901   4.326
 9492SOL     OW29374   3.301   3.852   2.246
 9492SOL    HW129375   3.206   3.836   2.222
 9492SOL    HW229376   3.342   3.916   2.181
 9493SOL     OW29377   4.862   5.247   3.346
 9493SOL    HW129378   4.928   5.317   3.372
 9493SOL    HW229379   4.847   5.185   3.423
 9494SOL     OW29380   4.678   3.385   0.249
 9494SOL    HW129381   4.673   3.351   0.343
 9494SOL    HW229382   4.756   3.446   0.240
 9495SOL     OW29383   6.202   2.321   3.908
 9495SOL    HW129384   6.271   2.257   3.875
 9495SOL    HW229385   6.111   2.285   3.886
 9496SOL     OW29386   5.472   3.909   6.304
 9496SOL    HW129387   5.452   3.928   6.207
 9496SOL    HW229388   5.450   3.989   6.359
 9497SOL     OW29389   5.118   4.588   1.038
 9497SOL    HW129390   5.038   4.530   1.051
 9497SOL    HW229391   5.106   4.674   1.087
 9498SOL     OW29392   3.641   6.664   5.314
 9498SOL    HW129393   3.594   6.747   5.344
 9498SOL    HW229394   3.739   6.671   5.335
 9499SOL     OW29395   2.547   3.998   5.564
 9499SOL    HW129396   2.535   3.900   5.576
 9499SOL    HW229397   2.599   4.015   5.480
 9500SOL     OW29398   4.444   6.147   1.703
 9500SOL    HW129399   4.407   6.240   1.706
 9500SOL    HW229400   4.465   6.123   1.609
 9501SOL     OW29401   3.521   1.628   4.434
 9501SOL    HW129402   3.522   1.727   4.419
 9501SOL    HW229403   3.615   1.595   4.443
 9502SOL     OW29404   6.594   2.424   4.590
 9502SOL    HW129405   6.565   2.416   4.495
 9502SOL    HW229406   6.528   2.379   4.649
 9503SOL     OW29407   0.453   1.063   1.949
 9503SOL    HW129408   0.438   1.064   2.048
 9503SOL    HW229409   0.366   1.051   1.902
 9504SOL     OW29410   0.076   2.632   0.730
 9504SOL    HW129411   0.132   2.568   0.783
 9504SOL    HW229412   0.034   2.584   0.653
 9505SOL     OW29413   6.273   3.461   3.140
 9505SOL    HW129414   6.274   3.457   3.040
 9505SOL    HW229415   6.269   3.556   3.170
 9506SOL     OW29416   0.197   3.190   6.869
 9506SOL    HW129417   0.154   3.138   6.943
 9506SOL    HW229418   0.235   3.127   6.801
 9507SOL     OW29419   1.774   0.995   4.309
 9507SOL    HW129420   1.719   1.013   4.227
 9507SOL    HW229421   1.754   1.064   4.378
 9508SOL     OW29422   5.533   1.884   0.543
 9508SOL    HW129423   5.551   1.800   0.595
 9508SOL    HW229424   5.472   1.943   0.597
 9509SOL     OW29425   1.628   6.672   5.349
 9509SOL    HW129426   1.680   6.648   5.267
 9509SOL    HW229427   1.608   6.589   5.401
 9510SOL     OW29428   6.650   4.187   2.201
 9510SOL    HW129429   6.724   4.147   2.146
 9510SOL    HW229430   6.592   4.114   2.237
 9511SOL     OW29431   0.893   2.526   0.232
 9511SOL    HW129432   0.815   2.563   0.181
 9511SOL    HW229433   0.926   2.444   0.186
 9512SOL     OW29434   6.924   2.103   3.928
 9512SOL    HW129435   7.013   2.090   3.972
 9512SOL    HW229436   6.876   2.179   3.970
 9513SOL     OW29437   2.029   4.184   4.674
 9513SOL    HW129438   1.953   4.120   4.665
 9513SOL    HW229439   2.091   4.173   4.597
 9514SOL     OW29440   1.847   3.738   6.506
 9514SOL    HW129441   1.944   3.735   6.482
 9514SOL    HW229442   1.793   3.706   6.428
 9515SOL     OW29443   1.332   6.285   6.964
 9515SOL    HW129444   1.326   6.378   7.002
 9515SOL    HW229445   1.285   6.282   6.876
 9516SOL     OW29446   4.918   3.469   4.258
 9516SOL    HW129447   4.945   3.375   4.239
 9516SOL    HW229448   4.943   3.493   4.352
 9517SOL     OW29449   0.874   5.294   1.474
 9517SOL    HW129450   0.860   5.220   1.408
 9517SOL    HW229451   0.972   5.312   1.484
 9518SOL     OW29452   0.962   2.969   5.561
 9518SOL    HW129453   1.016   3.052   5.564
 9518SOL    HW229454   0.969   2.920   5.648
 9519SOL     OW29455   2.866   3.556   2.941
 9519SOL    HW129456   2.890   3.542   2.845
 9519SOL    HW229457   2.773   3.593   2.947
 9520SOL     OW29458   6.691   1.186   4.962
 9520SOL    HW129459   6.768   1.239   4.997
 9520SOL    HW229460   6.657   1.227   4.877
 9521SOL     OW29461   3.402   5.895   1.686
 9521SOL    HW129462   3.380   5.816   1.743
 9521SOL    HW229463   3.375   5.876   1.591
 9522SOL     OW29464   4.235   5.047   2.076
 9522SOL    HW129465   4.218   5.113   2.149
 9522SOL    HW229466   4.302   4.979   2.108
 9523SOL     OW29467   2.584   5.225   4.747
 9523SOL    HW129468   2.637   5.141   4.737
 9523SOL    HW229469   2.506   5.208   4.807
 9524SOL     OW29470   1.124   3.893   1.252
 9524SOL    HW129471   1.223   3.880   1.248
 9524SOL    HW229472   1.087   3.895   1.159
 9525SOL     OW29473   1.640   2.463   5.800
 9525SOL    HW129474   1.593   2.436   5.883
 9525SOL    HW229475   1.573   2.482   5.728
 9526SOL     OW29476   5.610   5.052   0.274
 9526SOL    HW129477   5.682   4.992   0.239
 9526SOL    HW229478   5.523   5.025   0.232
 9527SOL     OW29479   2.710   6.904   4.009
 9527SOL    HW129480   2.768   6.823   4.024
 9527SOL    HW229481   2.755   6.985   4.046
 9528SOL     OW29482   6.249   0.691   0.904
 9528SOL    HW129483   6.190   0.726   0.976
 9528SOL    HW229484   6.283   0.768   0.849
 9529SOL     OW29485   5.957   3.139   1.416
 9529SOL    HW129486   5.923   3.227   1.447
 9529SOL    HW229487   6.057   3.142   1.411
 9530SOL     OW29488   1.273   5.928   4.578
 9530SOL    HW129489   1.287   6.008   4.521
 9530SOL    HW229490   1.210   5.865   4.533
 9531SOL     OW29491   4.514   4.647   3.171
 9531SOL    HW129492   4.562   4.589   3.106
 9531SOL    HW229493   4.432   4.599   3.204
 9532SOL     OW29494   6.226   4.823   1.811
 9532SOL    HW129495   6.258   4.736   1.774
 9532SOL    HW229496   6.277   4.899   1.769
 9533SOL     OW29497   1.136   5.763   4.411
 9533SOL    HW129498   1.127   5.664   4.397
 9533SOL    HW229499   1.047   5.802   4.431
 9534SOL     OW29500   6.399   4.790   4.419
 9534SOL    HW129501   6.426   4.694   4.428
 9534SOL    HW229502   6.356   4.821   4.504
 9535SOL     OW29503   1.917   1.513   5.821
 9535SOL    HW129504   1.869   1.458   5.753
 9535SOL    HW229505   2.012   1.526   5.793
 9536SOL     OW29506   3.307   2.897   4.664
 9536SOL    HW129507   3.311   2.812   4.716
 9536SOL    HW229508   3.394   2.945   4.671
 9537SOL     OW29509   2.149   1.969   4.222
 9537SOL    HW129510   2.220   2.033   4.248
 9537SOL    HW229511   2.166   1.880   4.266
 9538SOL     OW29512   3.838   1.024   4.108
 9538SOL    HW129513   3.763   1.087   4.126
 9538SOL    HW229514   3.807   0.952   4.046
 9539SOL     OW29515   3.221   2.939   3.931
 9539SOL    HW129516   3.158   3.002   3.887
 9539SOL    HW229517   3.194   2.925   4.027
 9540SOL     OW29518   5.022   5.125   4.042
 9540SOL    HW129519   4.949   5.082   3.990
 9540SOL    HW229520   5.087   5.056   4.073
 9541SOL     OW29521   0.982   0.774   5.384
 9541SOL    HW129522   0.893   0.800   5.421
 9541SOL    HW229523   1.035   0.728   5.455
 9542SOL     OW29524   5.650   4.896   4.159
 9542SOL    HW129525   5.747   4.917   4.141
 9542SOL    HW229526   5.642   4.806   4.201
 9543SOL     OW29527   3.444   7.004   6.271
 9543SOL    HW129528   3.456   6.921   6.326
 9543SOL    HW229529   3.349   0.013   6.279
 9544SOL     OW29530   4.847   4.031   3.821
 9544SOL    HW129531   4.799   4.117   3.808
 9544SOL    HW229532   4.819   3.966   3.751
 9545SOL     OW29533   0.805   4.909   1.774
 9545SOL    HW129534   0.865   4.889   1.852
 9545SOL    HW229535   0.746   4.987   1.797
 9546SOL     OW29536   3.058   1.769   6.078
 9546SOL    HW129537   3.131   1.831   6.051
 9546SOL    HW229538   2.969   1.812   6.060
 9547SOL     OW29539   3.410   5.773   4.293
 9547SOL    HW129540   3.466   5.817   4.223
 9547SOL    HW229541   3.469   5.739   4.367
 9548SOL     OW29542   0.779   5.334   5.450
 9548SOL    HW129543   0.741   5.272   5.519
 9548SOL    HW229544   0.861   5.293   5.411
 9549SOL     OW29545   3.770   1.029   2.328
 9549SOL    HW129546   3.672   1.035   2.345
 9549SOL    HW229547   3.819   1.087   2.394
 9550SOL     OW29548   6.144   2.510   1.238
 9550SOL    HW129549   6.118   2.502   1.142
 9550SOL    HW229550   6.127   2.604   1.269
 9551SOL     OW29551   5.967   2.788   6.153
 9551SOL    HW129552   5.868   2.795   6.154
 9551SOL    HW229553   6.003   2.804   6.245
 9552SOL     OW29554   2.243   0.815   6.346
 9552SOL    HW129555   2.340   0.798   6.360
 9552SOL    HW229556   2.230   0.895   6.288
 9553SOL     OW29557   5.092   1.549   0.425
 9553SOL    HW129558   5.174   1.503   0.460
 9553SOL    HW229559   5.013   1.488   0.435
 9554SOL     OW29560   2.367   6.574   3.772
 9554SOL    HW129561   2.387   6.591   3.869
 9554SOL    HW229562   2.353   6.476   3.757
 9555SOL     OW29563   6.950   1.541   3.666
 9555SOL    HW129564   6.950   1.551   3.765
 9555SOL    HW229565   6.897   1.461   3.640
 9556SOL     OW29566   1.377   4.614   1.369
 9556SOL    HW129567   1.317   4.579   1.298
 9556SOL    HW229568   1.464   4.641   1.329
 9557SOL     OW29569   4.619   0.093   1.957
 9557SOL    HW129570   4.616   0.050   2.047
 9557SOL    HW229571   4.659   0.029   1.891
 9558SOL     OW29572   5.793   6.420   5.275
 9558SOL    HW129573   5.711   6.432   5.333
 9558SOL    HW229574   5.792   6.328   5.236
 9559SOL     OW29575   1.358   3.649   0.037
 9559SOL    HW129576   1.297   3.578   0.001
 9559SOL    HW229577   1.395   3.703   6.983
 9560SOL     OW29578   3.318   0.804   2.470
 9560SOL    HW129579   3.372   0.720   2.460
 9560SOL    HW229580   3.226   0.789   2.433
 9561SOL     OW29581   0.489   0.335   1.685
 9561SOL    HW129582   0.570   0.382   1.719
 9561SOL    HW229583   0.409   0.364   1.738
 9562SOL     OW29584   3.246   6.013   4.283
 9562SOL    HW129585   3.153   6.010   4.244
 9562SOL    HW229586   3.282   5.920   4.290
 9563SOL     OW29587   0.301   6.570   0.585
 9563SOL    HW129588   0.296   6.669   0.569
 9563SOL    HW229589   0.394   6.538   0.566
 9564SOL     OW29590   1.866   1.120   1.370
 9564SOL    HW129591   1.943   1.057   1.359
 9564SOL    HW229592   1.877   1.198   1.307
 9565SOL     OW29593   2.794   1.237   4.306
 9565SOL    HW129594   2.764   1.142   4.301
 9565SOL    HW229595   2.848   1.260   4.226
 9566SOL     OW29596   2.429   6.370   0.702
 9566SOL    HW129597   2.452   6.273   0.710
 9566SOL    HW229598   2.433   6.413   0.793
 9567SOL     OW29599   6.084   4.176   0.283
 9567SOL    HW129600   6.038   4.092   0.312
 9567SOL    HW229601   6.129   4.160   0.195
 9568SOL     OW29602   3.885   1.395   0.891
 9568SOL    HW129603   3.937   1.310   0.885
 9568SOL    HW229604   3.878   1.423   0.987
 9569SOL     OW29605   0.037   0.837   2.459
 9569SOL    HW129606   0.034   0.799   2.367
 9569SOL    HW229607   0.103   0.786   2.514
 9570SOL     OW29608   0.805   2.797   1.020
 9570SOL    HW129609   0.796   2.698   1.013
 9570SOL    HW229610   0.886   2.827   0.970
 9571SOL     OW29611   2.062   2.526   6.077
 9571SOL    HW129612   2.046   2.491   5.984
 9571SOL    HW229613   1.984   2.581   6.105
 9572SOL     OW29614   2.410   4.309   2.780
 9572SOL    HW129615   2.357   4.236   2.824
 9572SOL    HW229616   2.376   4.324   2.687
 9573SOL     OW29617   6.352   1.150   5.720
 9573SOL    HW129618   6.359   1.150   5.820
 9573SOL    HW229619   6.320   1.240   5.689
 9574SOL     OW29620   3.856   2.959   2.159
 9574SOL    HW129621   3.888   3.026   2.226
 9574SOL    HW229622   3.764   2.930   2.181
 9575SOL     OW29623   6.118   0.434   2.715
 9575SOL    HW129624   6.170   0.365   2.663
 9575SOL    HW229625   6.068   0.493   2.651
 9576SOL     OW29626   1.798   2.055   0.185
 9576SOL    HW129627   1.721   2.004   0.223
 9576SOL    HW229628   1.859   2.085   0.259
 9577SOL     OW29629   0.005   5.632   6.954
 9577SOL    HW129630   0.064   5.590   0.002
 9577SOL    HW229631   0.062   5.688   6.893
 9578SOL     OW29632   1.418   2.419   3.178
 9578SOL    HW129633   1.354   2.344   3.194
 9578SOL    HW229634   1.368   2.504   3.167
 9579SOL     OW29635   6.213   6.314   2.221
 9579SOL    HW129636   6.118   6.316   2.250
 9579SOL    HW229637   6.272   6.305   2.301
 9580SOL     OW29638   4.762   3.932   1.478
 9580SOL    HW129639   4.824   3.917   1.555
 9580SOL    HW229640   4.816   3.942   1.394
 9581SOL     OW29641   0.599   0.483   6.221
 9581SOL    HW129642   0.582   0.476   6.319
 9581SOL    HW229643   0.520   0.446   6.171
 9582SOL     OW29644   3.839   5.679   4.805
 9582SOL    HW129645   3.749   5.636   4.820
 9582SOL    HW229646   3.911   5.611   4.818
 9583SOL     OW29647   3.313   4.678   1.325
 9583SOL    HW129648   3.264   4.731   1.395
 9583SOL    HW229649   3.246   4.635   1.264
 9584SOL     OW29650   1.768   5.096   5.803
 9584SOL    HW129651   1.685   5.112   5.856
 9584SOL    HW229652   1.748   5.035   5.726
 9585SOL     OW29653   5.361   6.475   1.947
 9585SOL    HW129654   5.313   6.552   1.988
 9585SOL    HW229655   5.337   6.391   1.995
 9586SOL     OW29656   4.528   5.298   1.965
 9586SOL    HW129657   4.510   5.200   1.957
 9586SOL    HW229658   4.474   5.346   1.896
 9587SOL     OW29659   1.646   6.287   2.627
 9587SOL    HW129660   1.636   6.249   2.535
 9587SOL    HW229661   1.555   6.304   2.665
 9588SOL     OW29662   6.071   5.929   0.652
 9588SOL    HW129663   6.146   5.918   0.718
 9588SOL    HW229664   6.009   6.001   0.684
 9589SOL     OW29665   1.785   4.093   0.048
 9589SOL    HW129666   1.812   4.188   0.034
 9589SOL    HW229667   1.787   4.044   6.983
 9590SOL     OW29668   6.230   2.405   1.901
 9590SOL    HW129669   6.208   2.332   1.836
 9590SOL    HW229670   6.240   2.491   1.852
 9591SOL     OW29671   3.637   6.097   6.429
 9591SOL    HW129672   3.599   6.109   6.521
 9591SOL    HW229673   3.729   6.058   6.436
 9592SOL     OW29674   3.190   5.223   0.536
 9592SOL    HW129675   3.198   5.251   0.440
 9592SOL    HW229676   3.256   5.151   0.555
 9593SOL     OW29677   1.076   2.106   5.442
 9593SOL    HW129678   1.076   2.166   5.521
 9593SOL    HW229679   1.011   2.140   5.373
 9594SOL     OW29680   2.835   6.164   4.529
 9594SOL    HW129681   2.899   6.103   4.575
 9594SOL    HW229682   2.795   6.226   4.597
 9595SOL     OW29683   0.542   3.001   3.683
 9595SOL    HW129684   0.627   2.953   3.659
 9595SOL    HW229685   0.527   3.076   3.618
 9596SOL     OW29686   0.541   5.381   0.690
 9596SOL    HW129687   0.517   5.397   0.785
 9596SOL    HW229688   0.522   5.286   0.666
 9597SOL     OW29689   0.186   4.321   1.283
 9597SOL    HW129690   0.228   4.378   1.212
 9597SOL    HW229691   0.127   4.253   1.240
 9598SOL     OW29692   2.245   4.105   3.265
 9598SOL    HW129693   2.340   4.096   3.236
 9598SOL    HW229694   2.190   4.031   3.226
 9599SOL     OW29695   2.878   0.077   4.155
 9599SOL    HW129696   2.849   0.040   4.243
 9599SOL    HW229697   2.978   0.079   4.151
 9600SOL     OW29698   2.950   0.096   0.584
 9600SOL    HW129699   2.943   0.054   0.674
 9600SOL    HW229700   3.026   0.162   0.585
 9601SOL     OW29701   5.712   4.248   0.414
 9601SOL    HW129702   5.785   4.306   0.378
 9601SOL    HW229703   5.662   4.207   0.338
 9602SOL     OW29704   4.941   3.704   5.590
 9602SOL    HW129705   5.006   3.779   5.606
 9602SOL    HW229706   4.908   3.710   5.496
 9603SOL     OW29707   5.356   6.904   6.316
 9603SOL    HW129708   5.310   6.973   6.370
 9603SOL    HW229709   5.452   6.929   6.304
 9604SOL     OW29710   4.948   6.920   1.495
 9604SOL    HW129711   4.850   6.900   1.494
 9604SOL    HW229712   4.961   7.019   1.483
 9605SOL     OW29713   0.742   5.322   2.580
 9605SOL    HW129714   0.762   5.357   2.672
 9605SOL    HW229715   0.700   5.395   2.526
 9606SOL     OW29716   1.479   0.204   6.406
 9606SOL    HW129717   1.545   0.135   6.377
 9606SOL    HW229718   1.526   0.279   6.452
 9607SOL     OW29719   2.820   1.167   0.276
 9607SOL    HW129720   2.823   1.261   0.242
 9607SOL    HW229721   2.792   1.106   0.202
 9608SOL     OW29722   0.343   4.768   2.017
 9608SOL    HW129723   0.372   4.803   1.928
 9608SOL    HW229724   0.243   4.765   2.021
 9609SOL     OW29725   3.774   3.248   0.206
 9609SOL    HW129726   3.774   3.167   0.147
 9609SOL    HW229727   3.682   3.287   0.209
 9610SOL     OW29728   1.834   4.685   3.090
 9610SOL    HW129729   1.754   4.743   3.079
 9610SOL    HW229730   1.806   4.598   3.131
 9611SOL     OW29731   1.579   6.385   0.407
 9611SOL    HW129732   1.606   6.310   0.347
 9611SOL    HW229733   1.657   6.411   0.464
 9612SOL     OW29734   0.479   3.321   1.696
 9612SOL    HW129735   0.443   3.314   1.603
 9612SOL    HW229736   0.453   3.241   1.748
 9613SOL     OW29737   5.151   6.661   3.419
 9613SOL    HW129738   5.173   6.695   3.327
 9613SOL    HW229739   5.234   6.625   3.461
 9614SOL     OW29740   3.627   2.026   1.826
 9614SOL    HW129741   3.667   1.964   1.893
 9614SOL    HW229742   3.631   2.120   1.859
 9615SOL     OW29743   2.739   1.347   1.216
 9615SOL    HW129744   2.679   1.275   1.181
 9615SOL    HW229745   2.779   1.318   1.303
 9616SOL     OW29746   3.772   3.748   1.183
 9616SOL    HW129747   3.714   3.745   1.264
 9616SOL    HW229748   3.744   3.678   1.118
 9617SOL     OW29749   1.892   2.931   3.473
 9617SOL    HW129750   1.835   2.849   3.477
 9617SOL    HW229751   1.841   3.009   3.510
 9618SOL     OW29752   2.782   0.057   1.027
 9618SOL    HW129753   2.722   0.088   1.100
 9618SOL    HW229754   2.730   0.002   0.962
 9619SOL     OW29755   2.050   0.431   5.577
 9619SOL    HW129756   1.984   0.365   5.615
 9619SOL    HW229757   2.042   0.518   5.626
 9620SOL     OW29758   4.268   0.137   4.844
 9620SOL    HW129759   4.196   0.141   4.913
 9620SOL    HW229760   4.297   0.042   4.831
 9621SOL     OW29761   1.785   3.083   1.868
 9621SOL    HW129762   1.720   3.159   1.875
 9621SOL    HW229763   1.864   3.101   1.926
 9622SOL     OW29764   6.197   1.885   0.639
 9622SOL    HW129765   6.270   1.823   0.612
 9622SOL    HW229766   6.121   1.879   0.574
 9623SOL     OW29767   2.478   3.380   5.828
 9623SOL    HW129768   2.514   3.473   5.825
 9623SOL    HW229769   2.544   3.317   5.786
 9624SOL     OW29770   5.889   4.129   2.899
 9624SOL    HW129771   5.968   4.097   2.846
 9624SOL    HW229772   5.863   4.221   2.868
 9625SOL     OW29773   5.424   5.269   0.117
 9625SOL    HW129774   5.510   5.226   0.088
 9625SOL    HW229775   5.426   5.366   0.095
 9626SOL     OW29776   4.335   5.244   0.350
 9626SOL    HW129777   4.271   5.184   0.303
 9626SOL    HW229778   4.356   5.323   0.291
 9627SOL     OW29779   0.740   6.642   6.260
 9627SOL    HW129780   0.806   6.570   6.281
 9627SOL    HW229781   0.725   6.646   6.161
 9628SOL     OW29782   5.407   4.868   1.034
 9628SOL    HW129783   5.495   4.910   1.012
 9628SOL    HW229784   5.421   4.790   1.094
 9629SOL     OW29785   1.993   0.471   1.286
 9629SOL    HW129786   2.004   0.537   1.212
 9629SOL    HW229787   1.920   0.503   1.348
 9630SOL     OW29788   6.176   6.620   4.614
 9630SOL    HW129789   6.160   6.586   4.522
 9630SOL    HW229790   6.101   6.679   4.642
 9631SOL     OW29791   6.837   6.586   6.194
 9631SOL    HW129792   6.866   6.492   6.175
 9631SOL    HW229793   6.769   6.586   6.267
 9632SOL     OW29794   1.240   6.759   2.831
 9632SOL    HW129795   1.331   6.724   2.812
 9632SOL    HW229796   1.223   6.757   2.929
 9633SOL     OW29797   5.453   5.093   6.817
 9633SOL    HW129798   5.455   5.048   6.906
 9633SOL    HW229799   5.368   5.145   6.809
 9634SOL     OW29800   1.224   6.539   3.613
 9634SOL    HW129801   1.260   6.489   3.534
 9634SOL    HW229802   1.197   6.475   3.684
 9635SOL     OW29803   1.748   6.633   5.019
 9635SOL    HW129804   1.730   6.545   5.064
 9635SOL    HW229805   1.698   6.637   4.933
 9636SOL     OW29806   4.122   1.235   5.557
 9636SOL    HW129807   4.113   1.287   5.472
 9636SOL    HW229808   4.077   1.283   5.632
 9637SOL     OW29809   2.397   2.450   6.695
 9637SOL    HW129810   2.313   2.502   6.675
 9637SOL    HW229811   2.442   2.426   6.609
 9638SOL     OW29812   0.316   3.414   6.002
 9638SOL    HW129813   0.382   3.462   6.060
 9638SOL    HW229814   0.223   3.436   6.032
 9639SOL     OW29815   3.973   1.708   1.937
 9639SOL    HW129816   4.061   1.731   1.978
 9639SOL    HW229817   3.963   1.757   1.850
 9640SOL     OW29818   2.256   2.988   3.892
 9640SOL    HW129819   2.330   3.017   3.831
 9640SOL    HW229820   2.168   3.014   3.852
 9641SOL     OW29821   4.471   0.204   0.432
 9641SOL    HW129822   4.454   0.300   0.409
 9641SOL    HW229823   4.462   0.148   0.349
 9642SOL     OW29824   2.466   6.980   4.766
 9642SOL    HW129825   2.457   6.988   4.866
 9642SOL    HW229826   2.547   6.926   4.745
 9643SOL     OW29827   5.541   4.132   3.536
 9643SOL    HW129828   5.483   4.121   3.617
 9643SOL    HW229829   5.509   4.072   3.463
 9644SOL     OW29830   1.063   3.344   6.292
 9644SOL    HW129831   1.135   3.413   6.289
 9644SOL    HW229832   1.011   3.353   6.377
 9645SOL     OW29833   2.445   5.126   4.990
 9645SOL    HW129834   2.412   5.150   5.081
 9645SOL    HW229835   2.452   5.026   4.983
 9646SOL     OW29836   3.674   4.974   2.725
 9646SOL    HW129837   3.749   4.909   2.715
 9646SOL    HW229838   3.612   4.943   2.797
 9647SOL     OW29839   6.019   4.081   1.226
 9647SOL    HW129840   5.959   4.053   1.151
 9647SOL    HW229841   5.995   4.174   1.255
 9648SOL     OW29842   4.075   1.477   1.222
 9648SOL    HW129843   4.001   1.520   1.169
 9648SOL    HW229844   4.036   1.416   1.290
 9649SOL     OW29845   2.752   6.872   0.219
 9649SOL    HW129846   2.719   6.940   0.285
 9649SOL    HW229847   2.685   6.861   0.146
 9650SOL     OW29848   0.026   5.328   2.460
 9650SOL    HW129849   7.012   5.354   2.370
 9650SOL    HW229850   0.079   5.243   2.452
 9651SOL     OW29851   6.995   2.194   5.720
 9651SOL    HW129852   0.036   2.129   5.678
 9651SOL    HW229853   7.019   2.206   5.817
 9652SOL     OW29854   0.932   4.789   1.204
 9652SOL    HW129855   0.969   4.757   1.117
 9652SOL    HW229856   0.975   4.738   1.279
 9653SOL     OW29857   4.178   4.843   5.186
 9653SOL    HW129858   4.085   4.866   5.158
 9653SOL    HW229859   4.218   4.919   5.237
 9654SOL     OW29860   3.012   2.150   1.537
 9654SOL    HW129861   3.042   2.055   1.542
 9654SOL    HW229862   3.091   2.209   1.524
 9655SOL     OW29863   6.865   1.828   6.154
 9655SOL    HW129864   6.799   1.775   6.100
 9655SOL    HW229865   6.838   1.924   6.156
 9656SOL     OW29866   2.790   0.612   2.765
 9656SOL    HW129867   2.746   0.669   2.695
 9656SOL    HW229868   2.817   0.525   2.724
 9657SOL     OW29869   4.987   0.823   4.303
 9657SOL    HW129870   4.974   0.869   4.215
 9657SOL    HW229871   5.049   0.877   4.360
 9658SOL     OW29872   0.272   2.121   2.283
 9658SOL    HW129873   0.260   2.210   2.239
 9658SOL    HW229874   0.326   2.131   2.366
 9659SOL     OW29875   6.895   3.659   0.636
 9659SOL    HW129876   6.934   3.651   0.727
 9659SOL    HW229877   6.798   3.682   0.643
 9660SOL     OW29878   0.373   6.151   1.380
 9660SOL    HW129879   0.345   6.143   1.476
 9660SOL    HW229880   0.295   6.184   1.326
 9661SOL     OW29881   4.819   6.247   1.160
 9661SOL    HW129882   4.795   6.336   1.121
 9661SOL    HW229883   4.914   6.226   1.139
 9662SOL     OW29884   6.165   2.806   4.926
 9662SOL    HW129885   6.207   2.860   4.999
 9662SOL    HW229886   6.176   2.708   4.946
 9663SOL     OW29887   1.489   5.450   3.431
 9663SOL    HW129888   1.427   5.529   3.432
 9663SOL    HW229889   1.546   5.451   3.514
 9664SOL     OW29890   4.504   6.499   2.896
 9664SOL    HW129891   4.440   6.553   2.950
 9664SOL    HW229892   4.545   6.428   2.954
 9665SOL     OW29893   5.858   4.770   5.168
 9665SOL    HW129894   5.824   4.802   5.256
 9665SOL    HW229895   5.903   4.681   5.179
 9666SOL     OW29896   5.907   4.030   1.735
 9666SOL    HW129897   5.980   3.998   1.675
 9666SOL    HW229898   5.916   4.129   1.749
 9667SOL     OW29899   3.959   3.831   3.914
 9667SOL    HW129900   3.953   3.743   3.960
 9667SOL    HW229901   3.923   3.903   3.973
 9668SOL     OW29902   6.693   1.324   5.511
 9668SOL    HW129903   6.770   1.261   5.506
 9668SOL    HW229904   6.661   1.331   5.606
 9669SOL     OW29905   0.496   0.648   0.693
 9669SOL    HW129906   0.451   0.705   0.625
 9669SOL    HW229907   0.553   0.705   0.752
 9670SOL     OW29908   4.564   4.768   6.076
 9670SOL    HW129909   4.629   4.701   6.113
 9670SOL    HW229910   4.479   4.722   6.052
 9671SOL     OW29911   6.803   5.560   6.122
 9671SOL    HW129912   6.810   5.485   6.188
 9671SOL    HW229913   6.891   5.607   6.115
 9672SOL     OW29914   1.355   6.450   5.059
 9672SOL    HW129915   1.373   6.535   5.109
 9672SOL    HW229916   1.275   6.462   5.000
 9673SOL     OW29917   3.942   4.501   6.691
 9673SOL    HW129918   3.878   4.432   6.657
 9673SOL    HW229919   3.932   4.585   6.638
 9674SOL     OW29920   2.812   6.004   1.748
 9674SOL    HW129921   2.817   5.988   1.846
 9674SOL    HW229922   2.804   5.916   1.700
 9675SOL     OW29923   5.981   1.160   2.098
 9675SOL    HW129924   6.028   1.078   2.130
 9675SOL    HW229925   6.033   1.201   2.023
 9676SOL     OW29926   1.113   3.491   5.528
 9676SOL    HW129927   1.172   3.564   5.493
 9676SOL    HW229928   1.125   3.483   5.627
 9677SOL     OW29929   2.740   4.233   5.987
 9677SOL    HW129930   2.740   4.155   5.925
 9677SOL    HW229931   2.685   4.306   5.949
 9678SOL     OW29932   4.117   3.514   2.756
 9678SOL    HW129933   4.049   3.445   2.734
 9678SOL    HW229934   4.115   3.533   2.854
 9679SOL     OW29935   1.138   2.997   2.273
 9679SOL    HW129936   1.121   3.040   2.184
 9679SOL    HW229937   1.067   3.024   2.337
 9680SOL     OW29938   5.690   6.335   3.429
 9680SOL    HW129939   5.726   6.418   3.472
 9680SOL    HW229940   5.669   6.268   3.499
 9681SOL     OW29941   1.967   0.836   1.353
 9681SOL    HW129942   2.012   0.788   1.277
 9681SOL    HW229943   2.035   0.886   1.406
 9682SOL     OW29944   5.321   4.970   3.131
 9682SOL    HW129945   5.280   4.988   3.220
 9682SOL    HW229946   5.348   5.056   3.088
 9683SOL     OW29947   3.993   5.287   0.119
 9683SOL    HW129948   3.997   5.254   0.213
 9683SOL    HW229949   3.980   5.210   0.057
 9684SOL     OW29950   0.153   3.763   4.926
 9684SOL    HW129951   0.250   3.781   4.909
 9684SOL    HW229952   0.132   3.668   4.905
 9685SOL     OW29953   2.527   3.058   1.205
 9685SOL    HW129954   2.563   2.990   1.141
 9685SOL    HW229955   2.438   3.028   1.240
 9686SOL     OW29956   0.017   1.223   1.464
 9686SOL    HW129957   0.114   1.237   1.485
 9686SOL    HW229958   6.984   1.249   1.543
 9687SOL     OW29959   2.507   0.582   2.977
 9687SOL    HW129960   2.496   0.637   3.060
 9687SOL    HW229961   2.555   0.636   2.908
 9688SOL     OW29962   0.251   2.200   3.273
 9688SOL    HW129963   0.184   2.162   3.209
 9688SOL    HW229964   0.231   2.296   3.290
 9689SOL     OW29965   2.119   6.298   6.767
 9689SOL    HW129966   2.096   6.297   6.670
 9689SOL    HW229967   2.191   6.365   6.783
 9690SOL     OW29968   6.458   5.000   0.163
 9690SOL    HW129969   6.400   4.924   0.135
 9690SOL    HW229970   6.501   4.980   0.251
 9691SOL     OW29971   1.992   5.117   1.962
 9691SOL    HW129972   2.038   5.094   2.049
 9691SOL    HW229973   2.061   5.126   1.890
 9692SOL     OW29974   2.861   5.076   2.094
 9692SOL    HW129975   2.911   5.154   2.132
 9692SOL    HW229976   2.918   4.994   2.101
 9693SOL     OW29977   6.639   5.303   1.860
 9693SOL    HW129978   6.680   5.351   1.782
 9693SOL    HW229979   6.588   5.369   1.916
 9694SOL     OW29980   1.965   1.869   0.028
 9694SOL    HW129981   1.911   1.940   0.073
 9694SOL    HW229982   2.049   1.853   0.080
 9695SOL     OW29983   6.041   4.548   0.581
 9695SOL    HW129984   5.961   4.489   0.573
 9695SOL    HW229985   6.102   4.513   0.652
 9696SOL     OW29986   3.738   2.776   1.716
 9696SOL    HW129987   3.697   2.843   1.778
 9696SOL    HW229988   3.838   2.782   1.723
 9697SOL     OW29989   0.830   5.004   6.942
 9697SOL    HW129990   0.777   5.073   6.992
 9697SOL    HW229991   0.893   4.959   7.006
 9698SOL     OW29992   5.726   0.711   4.896
 9698SOL    HW129993   5.804   0.739   4.841
 9698SOL    HW229994   5.641   0.740   4.850
 9699SOL     OW29995   1.015   3.704   6.235
 9699SOL    HW129996   1.024   3.800   6.209
 9699SOL    HW229997   1.097   3.675   6.286
 9700SOL     OW29998   3.534   4.888   5.273
 9700SOL    HW129999   3.534   4.914   5.176
 9700SOL    HW230000   3.563   4.793   5.282
 9701SOL     OW30001   3.881   6.017   4.794
 9701SOL    HW130002   3.829   6.086   4.844
 9701SOL    HW230003   3.831   5.930   4.796
 9702SOL     OW30004   5.131   1.088   0.561
 9702SOL    HW130005   5.085   1.153   0.501
 9702SOL    HW230006   5.197   1.136   0.619
 9703SOL     OW30007   3.010   5.791   4.394
 9703SOL    HW130008   3.037   5.795   4.298
 9703SOL    HW230009   3.078   5.738   4.446
 9704SOL     OW30010   3.153   6.970   2.925
 9704SOL    HW130011   3.144   0.008   2.845
 9704SOL    HW230012   3.228   6.906   2.910
 9705SOL     OW30013   4.198   5.039   0.222
 9705SOL    HW130014   4.121   4.997   0.270
 9705SOL    HW230015   4.166   5.078   0.135
 9706SOL     OW30016   6.604   2.724   0.829
 9706SOL    HW130017   6.641   2.768   0.911
 9706SOL    HW230018   6.523   2.671   0.853
 9707SOL     OW30019   0.810   4.165   2.272
 9707SOL    HW130020   0.887   4.101   2.273
 9707SOL    HW230021   0.724   4.114   2.270
 9708SOL     OW30022   1.679   2.669   3.846
 9708SOL    HW130023   1.675   2.649   3.944
 9708SOL    HW230024   1.740   2.603   3.801
 9709SOL     OW30025   0.919   6.532   3.552
 9709SOL    HW130026   1.011   6.496   3.565
 9709SOL    HW230027   0.879   6.494   3.468
 9710SOL     OW30028   0.376   0.783   2.928
 9710SOL    HW130029   0.407   0.840   2.852
 9710SOL    HW230030   0.408   0.821   3.015
 9711SOL     OW30031   1.588   3.016   5.951
 9711SOL    HW130032   1.491   3.027   5.927
 9711SOL    HW230033   1.603   2.922   5.983
 9712SOL     OW30034   5.612   2.324   4.663
 9712SOL    HW130035   5.525   2.344   4.709
 9712SOL    HW230036   5.666   2.408   4.657
 9713SOL     OW30037   0.417   4.487   3.171
 9713SOL    HW130038   0.408   4.583   3.145
 9713SOL    HW230039   0.508   4.454   3.147
 9714SOL     OW30040   2.247   1.379   1.417
 9714SOL    HW130041   2.288   1.395   1.507
 9714SOL    HW230042   2.274   1.451   1.354
 9715SOL     OW30043   5.907   5.548   4.760
 9715SOL    HW130044   5.926   5.592   4.673
 9715SOL    HW230045   5.820   5.499   4.755
 9716SOL     OW30046   3.874   2.074   6.503
 9716SOL    HW130047   3.778   2.068   6.530
 9716SOL    HW230048   3.881   2.066   6.403
 9717SOL     OW30049   5.068   5.699   4.331
 9717SOL    HW130050   5.109   5.730   4.245
 9717SOL    HW230051   5.141   5.670   4.393
 9718SOL     OW30052   3.982   3.142   1.378
 9718SOL    HW130053   3.966   3.152   1.477
 9718SOL    HW230054   4.029   3.223   1.344
 9719SOL     OW30055   0.927   2.188   0.650
 9719SOL    HW130056   1.004   2.210   0.590
 9719SOL    HW230057   0.842   2.216   0.605
 9720SOL     OW30058   0.369   6.066   2.207
 9720SOL    HW130059   0.438   6.036   2.141
 9720SOL    HW230060   0.343   5.989   2.265
 9721SOL     OW30061   0.787   3.235   1.949
 9721SOL    HW130062   0.784   3.289   1.865
 9721SOL    HW230063   0.722   3.160   1.943
 9722SOL     OW30064   0.349   0.795   3.584
 9722SOL    HW130065   0.354   0.704   3.624
 9722SOL    HW230066   0.263   0.839   3.609
 9723SOL     OW30067   0.745   6.759   3.196
 9723SOL    HW130068   0.747   6.835   3.131
 9723SOL    HW230069   0.811   6.776   3.269
 9724SOL     OW30070   2.959   2.698   1.764
 9724SOL    HW130071   2.883   2.729   1.706
 9724SOL    HW230072   2.947   2.602   1.786
 9725SOL     OW30073   4.399   3.283   6.220
 9725SOL    HW130074   4.416   3.326   6.132
 9725SOL    HW230075   4.470   3.311   6.285
 9726SOL     OW30076   5.424   6.918   4.899
 9726SOL    HW130077   5.476   6.985   4.846
 9726SOL    HW230078   5.326   6.934   4.886
 9727SOL     OW30079   1.230   3.499   5.829
 9727SOL    HW130080   1.136   3.462   5.828
 9727SOL    HW230081   1.289   3.436   5.879
 9728SOL     OW30082   1.545   6.430   6.298
 9728SOL    HW130083   1.515   6.520   6.330
 9728SOL    HW230084   1.591   6.439   6.210
 9729SOL     OW30085   1.283   4.504   2.978
 9729SOL    HW130086   1.210   4.528   3.041
 9729SOL    HW230087   1.251   4.434   2.915
 9730SOL     OW30088   6.810   3.418   2.532
 9730SOL    HW130089   6.832   3.385   2.440
 9730SOL    HW230090   6.711   3.435   2.538
 9731SOL     OW30091   4.134   5.037   0.580
 9731SOL    HW130092   4.207   4.969   0.588
 9731SOL    HW230093   4.087   5.046   0.667
 9732SOL     OW30094   0.083   5.933   2.660
 9732SOL    HW130095   0.115   5.868   2.729
 9732SOL    HW230096   0.039   5.884   2.585
 9733SOL     OW30097   5.762   4.883   4.749
 9733SOL    HW130098   5.709   4.844   4.674
 9733SOL    HW230099   5.857   4.850   4.743
 9734SOL     OW30100   5.741   1.792   4.059
 9734SOL    HW130101   5.657   1.758   4.102
 9734SOL    HW230102   5.819   1.737   4.089
 9735SOL     OW30103   2.153   5.229   2.875
 9735SOL    HW130104   2.155   5.155   2.942
 9735SOL    HW230105   2.156   5.191   2.783
 9736SOL     OW30106   5.511   0.770   6.999
 9736SOL    HW130107   5.586   0.834   7.010
 9736SOL    HW230108   5.473   0.778   6.907
 9737SOL     OW30109   3.979   2.140   4.930
 9737SOL    HW130110   4.051   2.073   4.948
 9737SOL    HW230111   4.014   2.232   4.947
 9738SOL     OW30112   1.299   0.807   3.317
 9738SOL    HW130113   1.298   0.707   3.321
 9738SOL    HW230114   1.285   0.837   3.223
 9739SOL     OW30115   6.751   4.658   1.756
 9739SOL    HW130116   6.747   4.729   1.827
 9739SOL    HW230117   6.823   4.680   1.691
 9740SOL     OW30118   6.004   3.852   2.747
 9740SOL    HW130119   6.096   3.838   2.711
 9740SOL    HW230120   5.989   3.793   2.826
 9741SOL     OW30121   4.668   1.438   2.641
 9741SOL    HW130122   4.587   1.473   2.688
 9741SOL    HW230123   4.687   1.345   2.672
 9742SOL     OW30124   5.311   0.749   3.060
 9742SOL    HW130125   5.382   0.748   2.990
 9742SOL    HW230126   5.277   0.842   3.072
 9743SOL     OW30127   1.773   2.721   5.809
 9743SOL    HW130128   1.788   2.737   5.906
 9743SOL    HW230129   1.751   2.624   5.794
 9744SOL     OW30130   1.484   0.697   2.140
 9744SOL    HW130131   1.426   0.771   2.104
 9744SOL    HW230132   1.478   0.696   2.239
 9745SOL     OW30133   0.688   2.239   4.991
 9745SOL    HW130134   0.782   2.269   5.007
 9745SOL    HW230135   0.682   2.193   4.903
 9746SOL     OW30136   5.217   1.177   5.531
 9746SOL    HW130137   5.282   1.208   5.461
 9746SOL    HW230138   5.267   1.146   5.612
 9747SOL     OW30139   1.133   0.921   1.386
 9747SOL    HW130140   1.080   0.840   1.360
 9747SOL    HW230141   1.151   0.920   1.484
 9748SOL     OW30142   1.495   6.237   4.324
 9748SOL    HW130143   1.513   6.174   4.248
 9748SOL    HW230144   1.406   6.216   4.365
 9749SOL     OW30145   1.205   3.040   5.191
 9749SOL    HW130146   1.269   3.071   5.121
 9749SOL    HW230147   1.255   3.009   5.272
 9750SOL     OW30148   5.358   4.712   3.698
 9750SOL    HW130149   5.432   4.751   3.753
 9750SOL    HW230150   5.382   4.618   3.671
 9751SOL     OW30151   1.509   2.319   1.120
 9751SOL    HW130152   1.459   2.378   1.183
 9751SOL    HW230153   1.597   2.294   1.159
 9752SOL     OW30154   4.396   0.349   6.206
 9752SOL    HW130155   4.382   0.435   6.254
 9752SOL    HW230156   4.469   0.360   6.138
 9753SOL     OW30157   6.604   6.052   5.062
 9753SOL    HW130158   6.536   6.124   5.054
 9753SOL    HW230159   6.693   6.087   5.033
 9754SOL     OW30160   1.382   1.459   6.988
 9754SOL    HW130161   1.367   1.410   0.051
 9754SOL    HW230162   1.294   1.469   6.940
 9755SOL     OW30163   4.107   3.450   4.809
 9755SOL    HW130164   4.038   3.385   4.780
 9755SOL    HW230165   4.174   3.405   4.868
 9756SOL     OW30166   5.926   2.993   6.860
 9756SOL    HW130167   5.827   3.004   6.870
 9756SOL    HW230168   5.971   3.010   6.947
 9757SOL     OW30169   5.029   2.950   3.424
 9757SOL    HW130170   5.119   2.991   3.437
 9757SOL    HW230171   4.965   2.988   3.491
 9758SOL     OW30172   2.118   0.137   6.160
 9758SOL    HW130173   2.113   0.162   6.063
 9758SOL    HW230174   2.093   0.216   6.216
 9759SOL     OW30175   1.498   6.275   1.640
 9759SOL    HW130176   1.511   6.329   1.556
 9759SOL    HW230177   1.503   6.335   1.719
 9760SOL     OW30178   5.357   4.702   4.413
 9760SOL    HW130179   5.343   4.627   4.477
 9760SOL    HW230180   5.323   4.676   4.323
 9761SOL     OW30181   5.685   4.574   1.731
 9761SOL    HW130182   5.783   4.562   1.716
 9761SOL    HW230183   5.648   4.493   1.777
 9762SOL     OW30184   1.972   1.771   4.783
 9762SOL    HW130185   2.050   1.709   4.784
 9762SOL    HW230186   1.905   1.741   4.852
 9763SOL     OW30187   4.233   1.109   1.795
 9763SOL    HW130188   4.309   1.157   1.838
 9763SOL    HW230189   4.174   1.175   1.748
 9764SOL     OW30190   1.443   2.470   3.475
 9764SOL    HW130191   1.345   2.451   3.471
 9764SOL    HW230192   1.459   2.568   3.476
 9765SOL     OW30193   6.472   2.211   5.483
 9765SOL    HW130194   6.455   2.123   5.526
 9765SOL    HW230195   6.491   2.198   5.385
 9766SOL     OW30196   3.170   0.609   3.513
 9766SOL    HW130197   3.269   0.602   3.497
 9766SOL    HW230198   3.144   0.705   3.515
 9767SOL     OW30199   5.415   0.904   5.376
 9767SOL    HW130200   5.448   0.921   5.469
 9767SOL    HW230201   5.329   0.953   5.362
 9768SOL     OW30202   4.568   2.092   2.538
 9768SOL    HW130203   4.594   2.029   2.611
 9768SOL    HW230204   4.548   2.182   2.576
 9769SOL     OW30205   1.260   2.383   1.237
 9769SOL    HW130206   1.266   2.351   1.331
 9769SOL    HW230207   1.194   2.458   1.231
 9770SOL     OW30208   5.828   5.393   5.500
 9770SOL    HW130209   5.882   5.369   5.419
 9770SOL    HW230210   5.821   5.493   5.507
 9771SOL     OW30211   4.681   5.030   0.580
 9771SOL    HW130212   4.671   5.005   0.676
 9771SOL    HW230213   4.752   5.100   0.572
 9772SOL     OW30214   0.180   6.789   1.990
 9772SOL    HW130215   0.131   6.807   1.904
 9772SOL    HW230216   0.236   6.707   1.979
 9773SOL     OW30217   5.565   5.565   3.855
 9773SOL    HW130218   5.626   5.614   3.917
 9773SOL    HW230219   5.472   5.565   3.891
 9774SOL     OW30220   5.929   5.280   3.632
 9774SOL    HW130221   5.856   5.265   3.697
 9774SOL    HW230222   5.943   5.379   3.618
 9775SOL     OW30223   1.985   2.904   4.718
 9775SOL    HW130224   1.925   2.858   4.651
 9775SOL    HW230225   2.001   2.998   4.689
 9776SOL     OW30226   6.829   5.692   4.292
 9776SOL    HW130227   6.730   5.689   4.304
 9776SOL    HW230228   6.859   5.787   4.278
 9777SOL     OW30229   5.993   4.433   5.896
 9777SOL    HW130230   6.057   4.356   5.886
 9777SOL    HW230231   6.039   4.508   5.943
 9778SOL     OW30232   4.632   6.815   3.155
 9778SOL    HW130233   4.537   6.814   3.189
 9778SOL    HW230234   4.690   6.863   3.221
 9779SOL     OW30235   2.705   1.641   4.808
 9779SOL    HW130236   2.632   1.707   4.827
 9779SOL    HW230237   2.700   1.567   4.875
 9780SOL     OW30238   2.269   3.060   0.216
 9780SOL    HW130239   2.249   3.135   0.279
 9780SOL    HW230240   2.241   2.974   0.257
 9781SOL     OW30241   2.259   4.432   4.740
 9781SOL    HW130242   2.225   4.365   4.806
 9781SOL    HW230243   2.188   4.500   4.722
 9782SOL     OW30244   6.777   0.466   1.541
 9782SOL    HW130245   6.767   0.476   1.640
 9782SOL    HW230246   6.687   0.463   1.498
 9783SOL     OW30247   5.931   1.549   2.015
 9783SOL    HW130248   5.978   1.636   2.024
 9783SOL    HW230249   5.857   1.544   2.082
 9784SOL     OW30250   4.463   1.157   3.005
 9784SOL    HW130251   4.367   1.165   2.977
 9784SOL    HW230252   4.502   1.248   3.016
 9785SOL     OW30253   0.113   2.698   2.657
 9785SOL    HW130254   0.180   2.670   2.726
 9785SOL    HW230255   0.122   2.640   2.576
 9786SOL     OW30256   2.439   5.072   5.864
 9786SOL    HW130257   2.348   5.110   5.845
 9786SOL    HW230258   2.455   5.072   5.963
 9787SOL     OW30259   5.059   3.889   1.758
 9787SOL    HW130260   5.065   3.801   1.711
 9787SOL    HW230261   4.982   3.888   1.821
 9788SOL     OW30262   0.078   0.135   4.445
 9788SOL    HW130263   0.117   0.149   4.354
 9788SOL    HW230264   0.068   0.223   4.491
 9789SOL     OW30265   2.085   5.910   5.282
 9789SOL    HW130266   2.095   5.824   5.232
 9789SOL    HW230267   2.176   5.945   5.305
 9790SOL     OW30268   5.570   2.004   3.982
 9790SOL    HW130269   5.611   1.915   4.001
 9790SOL    HW230270   5.608   2.073   4.043
 9791SOL     OW30271   1.612   0.989   1.097
 9791SOL    HW130272   1.687   1.003   1.031
 9791SOL    HW230273   1.650   0.980   1.189
 9792SOL     OW30274   4.496   4.716   1.116
 9792SOL    HW130275   4.459   4.808   1.124
 9792SOL    HW230276   4.552   4.696   1.196
 9793SOL     OW30277   5.584   6.264   2.596
 9793SOL    HW130278   5.659   6.307   2.646
 9793SOL    HW230279   5.604   6.265   2.498
 9794SOL     OW30280   5.250   3.261   5.786
 9794SOL    HW130281   5.280   3.208   5.707
 9794SOL    HW230282   5.156   3.292   5.773
 9795SOL     OW30283   1.586   3.533   4.419
 9795SOL    HW130284   1.683   3.553   4.433
 9795SOL    HW230285   1.531   3.605   4.462
 9796SOL     OW30286   2.961   5.174   0.649
 9796SOL    HW130287   3.051   5.185   0.607
 9796SOL    HW230288   2.971   5.133   0.740
 9797SOL     OW30289   4.608   3.389   6.418
 9797SOL    HW130290   4.664   3.441   6.353
 9797SOL    HW230291   4.665   3.356   6.493
 9798SOL     OW30292   2.997   0.634   1.376
 9798SOL    HW130293   2.962   0.548   1.413
 9798SOL    HW230294   3.080   0.615   1.323
 9799SOL     OW30295   3.022   3.191   2.505
 9799SOL    HW130296   3.091   3.137   2.458
 9799SOL    HW230297   3.009   3.157   2.598
 9800SOL     OW30298   4.309   5.497   6.728
 9800SOL    HW130299   4.408   5.485   6.738
 9800SOL    HW230300   4.288   5.594   6.728
 9801SOL     OW30301   4.352   5.788   6.989
 9801SOL    HW130302   4.446   5.762   7.013
 9801SOL    HW230303   4.325   5.868   0.020
 9802SOL     OW30304   1.028   3.265   0.697
 9802SOL    HW130305   1.090   3.265   0.774
 9802SOL    HW230306   1.057   3.336   0.631
 9803SOL     OW30307   6.583   0.476   6.891
 9803SOL    HW130308   6.586   0.537   6.971
 9803SOL    HW230309   6.511   0.408   6.905
 9804SOL     OW30310   0.024   5.564   3.860
 9804SOL    HW130311   0.013   5.475   3.814
 9804SOL    HW230312   7.014   5.556   3.954
 9805SOL     OW30313   1.473   5.487   6.907
 9805SOL    HW130314   1.510   5.536   6.828
 9805SOL    HW230315   1.504   5.531   6.991
 9806SOL     OW30316   0.286   2.752   1.708
 9806SOL    HW130317   0.239   2.665   1.695
 9806SOL    HW230318   0.263   2.790   1.798
 9807SOL     OW30319   4.141   2.167   0.128
 9807SOL    HW130320   4.093   2.103   0.189
 9807SOL    HW230321   4.230   2.190   0.167
 9808SOL     OW30322   6.811   1.697   4.962
 9808SOL    HW130323   6.732   1.639   4.982
 9808SOL    HW230324   6.893   1.657   5.002
 9809SOL     OW30325   0.296   1.399   4.367
 9809SOL    HW130326   0.253   1.321   4.322
 9809SOL    HW230327   0.237   1.480   4.359
 9810SOL     OW30328   2.780   1.525   3.177
 9810SOL    HW130329   2.837   1.522   3.096
 9810SOL    HW230330   2.717   1.447   3.176
 9811SOL     OW30331   6.678   6.097   2.612
 9811SOL    HW130332   6.695   6.103   2.710
 9811SOL    HW230333   6.695   6.187   2.570
 9812SOL     OW30334   4.628   2.296   6.280
 9812SOL    HW130335   4.653   2.261   6.190
 9812SOL    HW230336   4.570   2.229   6.327
 9813SOL     OW30337   6.620   4.986   6.911
 9813SOL    HW130338   6.531   4.958   6.876
 9813SOL    HW230339   6.633   5.084   6.894
 9814SOL     OW30340   6.504   6.846   5.985
 9814SOL    HW130341   6.545   6.860   6.075
 9814SOL    HW230342   6.487   6.935   5.942
 9815SOL     OW30343   6.550   3.335   1.415
 9815SOL    HW130344   6.646   3.311   1.408
 9815SOL    HW230345   6.533   3.380   1.503
 9816SOL     OW30346   6.905   0.309   6.935
 9816SOL    HW130347   6.995   0.264   6.939
 9816SOL    HW230348   6.881   0.344   0.004
 9817SOL     OW30349   3.430   5.904   1.164
 9817SOL    HW130350   3.477   5.842   1.101
 9817SOL    HW230351   3.443   5.873   1.258
 9818SOL     OW30352   1.419   0.160   3.486
 9818SOL    HW130353   1.491   0.102   3.522
 9818SOL    HW230354   1.450   0.255   3.484
 9819SOL     OW30355   6.244   4.387   5.018
 9819SOL    HW130356   6.155   4.360   4.982
 9819SOL    HW230357   6.310   4.395   4.943
 9820SOL     OW30358   3.272   2.045   6.240
 9820SOL    HW130359   3.361   2.072   6.203
 9820SOL    HW230360   3.202   2.111   6.211
 9821SOL     OW30361   5.004   2.585   1.529
 9821SOL    HW130362   4.943   2.568   1.452
 9821SOL    HW230363   5.093   2.615   1.495
 9822SOL     OW30364   4.091   5.876   4.698
 9822SOL    HW130365   4.026   5.935   4.745
 9822SOL    HW230366   4.157   5.932   4.648
 9823SOL     OW30367   1.773   0.887   3.063
 9823SOL    HW130368   1.759   0.819   2.991
 9823SOL    HW230369   1.871   0.898   3.079
 9824SOL     OW30370   1.405   5.799   5.627
 9824SOL    HW130371   1.453   5.739   5.690
 9824SOL    HW230372   1.418   5.768   5.533
 9825SOL     OW30373   4.916   6.443   6.204
 9825SOL    HW130374   4.816   6.444   6.199
 9825SOL    HW230375   4.953   6.410   6.117
 9826SOL     OW30376   2.984   6.460   5.589
 9826SOL    HW130377   2.909   6.502   5.640
 9826SOL    HW230378   2.994   6.506   5.501
 9827SOL     OW30379   1.725   5.107   2.133
 9827SOL    HW130380   1.676   5.091   2.047
 9827SOL    HW230381   1.791   5.181   2.121
 9828SOL     OW30382   3.504   1.822   5.139
 9828SOL    HW130383   3.416   1.776   5.130
 9828SOL    HW230384   3.505   1.876   5.222
 9829SOL     OW30385   4.346   5.608   5.734
 9829SOL    HW130386   4.359   5.630   5.638
 9829SOL    HW230387   4.347   5.509   5.747
 9830SOL     OW30388   5.787   1.990   3.025
 9830SOL    HW130389   5.878   1.961   3.055
 9830SOL    HW230390   5.774   1.963   2.929
 9831SOL     OW30391   0.678   3.795   1.846
 9831SOL    HW130392   0.712   3.888   1.864
 9831SOL    HW230393   0.753   3.738   1.812
 9832SOL     OW30394   4.458   4.589   4.226
 9832SOL    HW130395   4.472   4.688   4.230
 9832SOL    HW230396   4.546   4.542   4.239
 9833SOL     OW30397   3.650   4.151   4.378
 9833SOL    HW130398   3.616   4.172   4.470
 9833SOL    HW230399   3.741   4.112   4.384
 9834SOL     OW30400   2.477   5.464   5.514
 9834SOL    HW130401   2.507   5.371   5.495
 9834SOL    HW230402   2.557   5.523   5.529
 9835SOL     OW30403   3.950   4.072   5.140
 9835SOL    HW130404   3.957   4.001   5.070
 9835SOL    HW230405   3.993   4.156   5.107
 9836SOL     OW30406   0.949   3.775   5.522
 9836SOL    HW130407   0.980   3.715   5.447
 9836SOL    HW230408   0.854   3.755   5.544
 9837SOL     OW30409   4.931   2.332   1.636
 9837SOL    HW130410   4.955   2.301   1.728
 9837SOL    HW230411   4.966   2.424   1.621
 9838SOL     OW30412   0.799   6.458   1.899
 9838SOL    HW130413   0.841   6.401   1.827
 9838SOL    HW230414   0.757   6.538   1.857
 9839SOL     OW30415   4.306   0.569   2.472
 9839SOL    HW130416   4.390   0.518   2.484
 9839SOL    HW230417   4.258   0.536   2.390
 9840SOL     OW30418   6.236   1.593   6.844
 9840SOL    HW130419   6.188   1.586   6.757
 9840SOL    HW230420   6.326   1.635   6.830
 9841SOL     OW30421   6.757   6.440   3.573
 9841SOL    HW130422   6.770   6.348   3.611
 9841SOL    HW230423   6.841   6.493   3.586
 9842SOL     OW30424   2.795   2.476   6.483
 9842SOL    HW130425   2.803   2.456   6.581
 9842SOL    HW230426   2.730   2.551   6.471
 9843SOL     OW30427   0.055   6.762   1.074
 9843SOL    HW130428   0.007   6.676   1.094
 9843SOL    HW230429   0.062   6.773   0.975
 9844SOL     OW30430   4.839   0.022   4.225
 9844SOL    HW130431   4.884   0.055   4.308
 9844SOL    HW230432   4.902   6.987   4.172
 9845SOL     OW30433   1.727   3.355   1.586
 9845SOL    HW130434   1.701   3.446   1.555
 9845SOL    HW230435   1.680   3.335   1.672
 9846SOL     OW30436   5.242   1.092   1.363
 9846SOL    HW130437   5.243   0.996   1.392
 9846SOL    HW230438   5.147   1.122   1.354
 9847SOL     OW30439   4.431   4.312   0.694
 9847SOL    HW130440   4.519   4.300   0.648
 9847SOL    HW230441   4.446   4.343   0.788
 9848SOL     OW30442   3.646   3.634   5.385
 9848SOL    HW130443   3.653   3.710   5.321
 9848SOL    HW230444   3.606   3.666   5.471
 9849SOL     OW30445   0.749   1.837   5.030
 9849SOL    HW130446   0.713   1.919   5.074
 9849SOL    HW230447   0.674   1.776   5.006
 9850SOL     OW30448   0.583   0.689   4.489
 9850SOL    HW130449   0.663   0.749   4.487
 9850SOL    HW230450   0.610   0.597   4.460
 9851SOL     OW30451   3.878   4.955   4.387
 9851SOL    HW130452   3.805   4.921   4.327
 9851SOL    HW230453   3.961   4.900   4.373
 9852SOL     OW30454   2.310   1.699   6.935
 9852SOL    HW130455   2.279   1.748   7.016
 9852SOL    HW230456   2.382   1.634   6.960
 9853SOL     OW30457   0.019   4.505   3.614
 9853SOL    HW130458   7.017   4.476   3.706
 9853SOL    HW230459   0.119   4.503   3.603
 9854SOL     OW30460   0.971   5.438   6.234
 9854SOL    HW130461   0.889   5.389   6.202
 9854SOL    HW230462   0.971   5.442   6.334
 9855SOL     OW30463   2.050   3.864   1.573
 9855SOL    HW130464   2.017   3.959   1.571
 9855SOL    HW230465   1.999   3.813   1.642
 9856SOL     OW30466   5.775   4.108   3.144
 9856SOL    HW130467   5.769   4.008   3.141
 9856SOL    HW230468   5.799   4.143   3.053
 9857SOL     OW30469   4.005   1.391   4.286
 9857SOL    HW130470   4.102   1.416   4.286
 9857SOL    HW230471   3.984   1.344   4.200
 9858SOL     OW30472   6.381   6.297   2.442
 9858SOL    HW130473   6.459   6.345   2.402
 9858SOL    HW230474   6.414   6.216   2.492
 9859SOL     OW30475   0.227   5.664   3.668
 9859SOL    HW130476   0.165   5.671   3.746
 9859SOL    HW230477   0.258   5.569   3.659
 9860SOL     OW30478   1.719   3.260   4.970
 9860SOL    HW130479   1.732   3.165   4.942
 9860SOL    HW230480   1.700   3.264   5.068
 9861SOL     OW30481   3.608   1.175   4.206
 9861SOL    HW130482   3.636   1.267   4.177
 9861SOL    HW230483   3.516   1.156   4.172
 9862SOL     OW30484   0.952   5.481   0.623
 9862SOL    HW130485   0.991   5.403   0.672
 9862SOL    HW230486   1.024   5.548   0.604
 9863SOL     OW30487   4.224   6.496   0.771
 9863SOL    HW130488   4.246   6.406   0.734
 9863SOL    HW230489   4.171   6.485   0.856
 9864SOL     OW30490   2.709   6.134   5.017
 9864SOL    HW130491   2.736   6.091   4.931
 9864SOL    HW230492   2.651   6.071   5.069
 9865SOL     OW30493   0.550   6.363   5.311
 9865SOL    HW130494   0.626   6.307   5.279
 9865SOL    HW230495   0.583   6.429   5.378
 9866SOL     OW30496   6.218   5.268   4.325
 9866SOL    HW130497   6.310   5.261   4.365
 9866SOL    HW230498   6.226   5.282   4.226
 9867SOL     OW30499   4.752   2.305   1.445
 9867SOL    HW130500   4.747   2.380   1.379
 9867SOL    HW230501   4.831   2.317   1.504
 9868SOL     OW30502   1.508   4.195   3.273
 9868SOL    HW130503   1.455   4.133   3.330
 9868SOL    HW230504   1.485   4.289   3.297
 9869SOL     OW30505   6.952   2.460   0.561
 9869SOL    HW130506   6.990   2.409   0.484
 9869SOL    HW230507   6.863   2.422   0.586
 9870SOL     OW30508   2.955   1.374   2.208
 9870SOL    HW130509   2.984   1.330   2.123
 9870SOL    HW230510   2.866   1.338   2.236
 9871SOL     OW30511   0.169   4.179   4.412
 9871SOL    HW130512   0.201   4.260   4.363
 9871SOL    HW230513   0.090   4.203   4.468
 9872SOL     OW30514   1.659   4.955   5.583
 9872SOL    HW130515   1.624   4.868   5.550
 9872SOL    HW230516   1.725   4.991   5.517
 9873SOL     OW30517   1.856   1.583   5.438
 9873SOL    HW130518   1.927   1.629   5.491
 9873SOL    HW230519   1.767   1.598   5.481
 9874SOL     OW30520   0.380   2.957   4.742
 9874SOL    HW130521   0.305   2.978   4.805
 9874SOL    HW230522   0.448   2.901   4.789
 9875SOL     OW30523   6.816   5.569   0.736
 9875SOL    HW130524   6.779   5.525   0.654
 9875SOL    HW230525   6.866   5.502   0.790
 9876SOL     OW30526   2.149   6.811   3.514
 9876SOL    HW130527   2.182   6.811   3.419
 9876SOL    HW230528   2.226   6.818   3.577
 9877SOL     OW30529   0.666   5.509   5.276
 9877SOL    HW130530   0.708   5.436   5.330
 9877SOL    HW230531   0.702   5.506   5.183
 9878SOL     OW30532   2.057   2.876   6.999
 9878SOL    HW130533   1.980   2.824   6.961
 9878SOL    HW230534   2.042   2.891   0.075
 9879SOL     OW30535   0.211   5.043   6.303
 9879SOL    HW130536   0.242   5.068   6.395
 9879SOL    HW230537   0.259   4.961   6.272
 9880SOL     OW30538   2.690   1.519   0.420
 9880SOL    HW130539   2.679   1.614   0.450
 9880SOL    HW230540   2.608   1.467   0.440
 9881SOL     OW30541   5.685   0.191   4.452
 9881SOL    HW130542   5.769   0.237   4.479
 9881SOL    HW230543   5.641   0.242   4.378
 9882SOL     OW30544   3.915   3.340   4.364
 9882SOL    HW130545   3.892   3.437   4.356
 9882SOL    HW230546   3.965   3.311   4.283
 9883SOL     OW30547   2.176   6.992   1.462
 9883SOL    HW130548   2.145   0.059   1.427
 9883SOL    HW230549   2.259   7.006   1.517
 9884SOL     OW30550   2.356   3.633   6.238
 9884SOL    HW130551   2.316   3.542   6.245
 9884SOL    HW230552   2.369   3.658   6.142
 9885SOL     OW30553   6.346   3.497   4.562
 9885SOL    HW130554   6.418   3.532   4.623
 9885SOL    HW230555   6.378   3.412   4.520
 9886SOL     OW30556   4.730   6.000   1.297
 9886SOL    HW130557   4.792   6.059   1.245
 9886SOL    HW230558   4.735   5.907   1.262
 9887SOL     OW30559   3.625   0.185   0.034
 9887SOL    HW130560   3.657   0.246   6.983
 9887SOL    HW230561   3.675   0.098   0.029
 9888SOL     OW30562   5.640   5.199   2.565
 9888SOL    HW130563   5.705   5.158   2.501
 9888SOL    HW230564   5.554   5.217   2.518
 9889SOL     OW30565   0.091   4.988   3.382
 9889SOL    HW130566   7.018   4.955   3.376
 9889SOL    HW230567   0.104   5.063   3.317
 9890SOL     OW30568   6.858   4.078   2.019
 9890SOL    HW130569   6.917   4.158   2.013
 9890SOL    HW230570   6.872   4.020   1.939
 9891SOL     OW30571   6.053   4.752   0.889
 9891SOL    HW130572   6.046   4.653   0.879
 9891SOL    HW230573   6.146   4.776   0.915
 9892SOL     OW30574   2.380   5.325   4.263
 9892SOL    HW130575   2.406   5.245   4.318
 9892SOL    HW230576   2.450   5.343   4.195
 9893SOL     OW30577   5.255   5.023   3.408
 9893SOL    HW130578   5.180   5.084   3.433
 9893SOL    HW230579   5.271   4.958   3.482
 9894SOL     OW30580   3.934   3.026   6.121
 9894SOL    HW130581   3.849   3.068   6.153
 9894SOL    HW230582   3.998   3.097   6.094
 9895SOL     OW30583   5.050   2.286   7.012
 9895SOL    HW130584   5.074   2.367   6.957
 9895SOL    HW230585   4.955   2.293   0.020
 9896SOL     OW30586   4.399   4.486   0.926
 9896SOL    HW130587   4.401   4.514   0.830
 9896SOL    HW230588   4.378   4.565   0.983
 9897SOL     OW30589   6.076   2.175   3.129
 9897SOL    HW130590   6.018   2.256   3.122
 9897SOL    HW230591   6.084   2.131   3.040
 9898SOL     OW30592   1.276   5.388   5.592
 9898SOL    HW130593   1.340   5.314   5.611
 9898SOL    HW230594   1.326   5.467   5.555
 9899SOL     OW30595   4.886   5.144   1.913
 9899SOL    HW130596   4.837   5.117   1.831
 9899SOL    HW230597   4.929   5.234   1.898
 9900SOL     OW30598   1.190   2.759   4.202
 9900SOL    HW130599   1.153   2.749   4.295
 9900SOL    HW230600   1.290   2.760   4.206
 9901SOL     OW30601   2.725   2.816   5.856
 9901SOL    HW130602   2.793   2.799   5.784
 9901SOL    HW230603   2.759   2.888   5.917
 9902SOL     OW30604   3.982   3.427   0.175
 9902SOL    HW130605   3.999   3.459   0.268
 9902SOL    HW230606   3.904   3.365   0.174
 9903SOL     OW30607   4.318   2.312   1.567
 9903SOL    HW130608   4.373   2.229   1.558
 9903SOL    HW230609   4.350   2.363   1.648
 9904SOL     OW30610   6.707   1.316   1.248
 9904SOL    HW130611   6.652   1.389   1.287
 9904SOL    HW230612   6.649   1.238   1.224
 9905SOL     OW30613   1.353   0.250   5.848
 9905SOL    HW130614   1.423   0.296   5.794
 9905SOL    HW230615   1.375   0.260   5.945
 9906SOL     OW30616   2.587   3.009   6.447
 9906SOL    HW130617   2.542   2.942   6.506
 9906SOL    HW230618   2.574   3.101   6.484
 9907SOL     OW30619   2.899   6.169   2.576
 9907SOL    HW130620   2.882   6.168   2.478
 9907SOL    HW230621   2.932   6.259   2.604
 9908SOL     OW30622   1.533   3.690   6.034
 9908SOL    HW130623   1.447   3.740   6.022
 9908SOL    HW230624   1.556   3.642   5.949
 9909SOL     OW30625   3.303   0.837   2.944
 9909SOL    HW130626   3.206   0.815   2.958
 9909SOL    HW230627   3.314   0.883   2.855
 9910SOL     OW30628   6.642   3.736   0.657
 9910SOL    HW130629   6.580   3.815   0.653
 9910SOL    HW230630   6.605   3.662   0.601
 9911SOL     OW30631   3.426   4.996   3.349
 9911SOL    HW130632   3.513   4.958   3.379
 9911SOL    HW230633   3.351   4.945   3.392
 9912SOL     OW30634   4.656   0.307   1.296
 9912SOL    HW130635   4.615   0.380   1.241
 9912SOL    HW230636   4.612   0.304   1.386
 9913SOL     OW30637   4.771   2.011   2.850
 9913SOL    HW130638   4.868   1.991   2.864
 9913SOL    HW230639   4.761   2.102   2.810
 9914SOL     OW30640   1.094   0.323   5.003
 9914SOL    HW130641   1.151   0.271   4.941
 9914SOL    HW230642   1.022   0.264   5.041
 9915SOL     OW30643   5.302   3.481   4.257
 9915SOL    HW130644   5.242   3.541   4.204
 9915SOL    HW230645   5.250   3.440   4.332
 9916SOL     OW30646   2.319   2.628   2.571
 9916SOL    HW130647   2.361   2.612   2.481
 9916SOL    HW230648   2.371   2.578   2.640
 9917SOL     OW30649   2.623   3.617   5.828
 9917SOL    HW130650   2.637   3.710   5.862
 9917SOL    HW230651   2.691   3.597   5.757
 9918SOL     OW30652   2.165   1.574   5.731
 9918SOL    HW130653   2.207   1.493   5.690
 9918SOL    HW230654   2.225   1.612   5.801
 9919SOL     OW30655   0.764   5.557   2.770
 9919SOL    HW130656   0.821   5.593   2.844
 9919SOL    HW230657   0.723   5.633   2.720
 9920SOL     OW30658   4.233   6.373   1.418
 9920SOL    HW130659   4.159   6.425   1.462
 9920SOL    HW230660   4.317   6.426   1.423
 9921SOL     OW30661   5.713   0.484   3.111
 9921SOL    HW130662   5.744   0.532   3.192
 9921SOL    HW230663   5.725   0.385   3.123
 9922SOL     OW30664   4.258   4.747   0.747
 9922SOL    HW130665   4.238   4.824   0.808
 9922SOL    HW230666   4.356   4.746   0.726
 9923SOL     OW30667   6.556   2.150   6.300
 9923SOL    HW130668   6.514   2.238   6.275
 9923SOL    HW230669   6.540   2.133   6.397
 9924SOL     OW30670   6.686   1.094   2.937
 9924SOL    HW130671   6.656   1.100   3.032
 9924SOL    HW230672   6.712   1.000   2.916
 9925SOL     OW30673   2.685   2.865   5.354
 9925SOL    HW130674   2.683   2.947   5.410
 9925SOL    HW230675   2.600   2.858   5.301
 9926SOL     OW30676   1.036   0.928   0.424
 9926SOL    HW130677   1.054   1.017   0.467
 9926SOL    HW230678   1.122   0.877   0.416
 9927SOL     OW30679   0.659   1.819   2.087
 9927SOL    HW130680   0.592   1.778   2.025
 9927SOL    HW230681   0.614   1.890   2.142
 9928SOL     OW30682   0.152   4.034   2.441
 9928SOL    HW130683   0.113   3.948   2.473
 9928SOL    HW230684   0.247   4.041   2.471
 9929SOL     OW30685   2.687   4.045   0.116
 9929SOL    HW130686   2.747   4.124   0.108
 9929SOL    HW230687   2.592   4.077   0.117
 9930SOL     OW30688   6.992   6.752   6.309
 9930SOL    HW130689   0.058   6.730   6.268
 9930SOL    HW230690   6.922   6.689   6.275
 9931SOL     OW30691   1.541   5.622   5.841
 9931SOL    HW130692   1.630   5.665   5.855
 9931SOL    HW230693   1.483   5.638   5.921
 9932SOL     OW30694   1.406   1.548   0.298
 9932SOL    HW130695   1.478   1.549   0.367
 9932SOL    HW230696   1.394   1.640   0.262
 9933SOL     OW30697   2.032   1.479   3.626
 9933SOL    HW130698   1.940   1.498   3.661
 9933SOL    HW230699   2.046   1.526   3.539
 9934SOL     OW30700   4.250   1.240   6.063
 9934SOL    HW130701   4.223   1.145   6.080
 9934SOL    HW230702   4.302   1.244   5.977
 9935SOL     OW30703   2.895   1.866   0.746
 9935SOL    HW130704   2.860   1.959   0.738
 9935SOL    HW230705   2.952   1.859   0.828
 9936SOL     OW30706   5.797   5.681   5.472
 9936SOL    HW130707   5.742   5.760   5.444
 9936SOL    HW230708   5.894   5.704   5.468
 9937SOL     OW30709   0.397   6.953   3.326
 9937SOL    HW130710   0.454   6.969   3.407
 9937SOL    HW230711   0.398   6.855   3.305
 9938SOL     OW30712   6.531   1.666   4.057
 9938SOL    HW130713   6.506   1.757   4.025
 9938SOL    HW230714   6.459   1.601   4.034
 9939SOL     OW30715   2.601   4.370   1.410
 9939SOL    HW130716   2.676   4.314   1.375
 9939SOL    HW230717   2.627   4.409   1.498
 9940SOL     OW30718   0.525   0.861   3.186
 9940SOL    HW130719   0.597   0.931   3.185
 9940SOL    HW230720   0.535   0.803   3.267
 9941SOL     OW30721   5.250   5.110   6.479
 9941SOL    HW130722   5.213   5.152   6.396
 9941SOL    HW230723   5.349   5.098   6.468
 9942SOL     OW30724   4.794   4.912   3.209
 9942SOL    HW130725   4.879   4.934   3.162
 9942SOL    HW230726   4.722   4.895   3.142
 9943SOL     OW30727   2.286   3.637   6.662
 9943SOL    HW130728   2.226   3.690   6.722
 9943SOL    HW230729   2.377   3.677   6.662
 9944SOL     OW30730   1.251   4.621   0.177
 9944SOL    HW130731   1.300   4.699   0.215
 9944SOL    HW230732   1.300   4.587   0.096
 9945SOL     OW30733   5.659   3.695   6.648
 9945SOL    HW130734   5.690   3.781   6.690
 9945SOL    HW230735   5.738   3.642   6.617
 9946SOL     OW30736   5.374   1.596   2.554
 9946SOL    HW130737   5.307   1.527   2.580
 9946SOL    HW230738   5.342   1.646   2.473
 9947SOL     OW30739   1.596   1.656   4.000
 9947SOL    HW130740   1.643   1.743   4.015
 9947SOL    HW230741   1.552   1.657   3.911
 9948SOL     OW30742   6.104   6.957   4.113
 9948SOL    HW130743   6.005   6.967   4.108
 9948SOL    HW230744   6.148   0.017   4.076
 9949SOL     OW30745   6.154   4.870   4.189
 9949SOL    HW130746   6.156   4.818   4.104
 9949SOL    HW230747   6.198   4.818   4.261
 9950SOL     OW30748   6.095   4.735   5.410
 9950SOL    HW130749   6.020   4.800   5.417
 9950SOL    HW230750   6.110   4.691   5.498
 9951SOL     OW30751   0.827   2.235   2.121
 9951SOL    HW130752   0.771   2.318   2.127
 9951SOL    HW230753   0.887   2.242   2.042
 9952SOL     OW30754   0.783   4.364   1.677
 9952SOL    HW130755   0.780   4.333   1.772
 9952SOL    HW230756   0.690   4.366   1.639
 9953SOL     OW30757   5.997   2.459   3.413
 9953SOL    HW130758   5.977   2.418   3.502
 9953SOL    HW230759   6.032   2.552   3.426
 9954SOL     OW30760   3.264   1.940   5.940
 9954SOL    HW130761   3.295   2.034   5.930
 9954SOL    HW230762   3.305   1.884   5.868
 9955SOL     OW30763   5.828   3.150   0.376
 9955SOL    HW130764   5.757   3.083   0.353
 9955SOL    HW230765   5.917   3.105   0.375
 9956SOL     OW30766   1.851   3.920   3.329
 9956SOL    HW130767   1.847   4.011   3.369
 9956SOL    HW230768   1.933   3.872   3.362
 9957SOL     OW30769   5.313   6.844   1.197
 9957SOL    HW130770   5.255   6.815   1.121
 9957SOL    HW230771   5.345   6.763   1.247
 9958SOL     OW30772   4.956   4.724   0.230
 9958SOL    HW130773   5.049   4.745   0.261
 9958SOL    HW230774   4.958   4.709   0.131
 9959SOL     OW30775   4.769   4.765   0.503
 9959SOL    HW130776   4.868   4.771   0.516
 9959SOL    HW230777   4.725   4.843   0.547
 9960SOL     OW30778   0.335   0.342   6.637
 9960SOL    HW130779   0.255   0.378   6.684
 9960SOL    HW230780   0.307   0.301   6.550
 9961SOL     OW30781   2.734   5.125   1.812
 9961SOL    HW130782   2.825   5.140   1.775
 9961SOL    HW230783   2.723   5.029   1.836
 9962SOL     OW30784   3.275   6.144   1.787
 9962SOL    HW130785   3.299   6.052   1.755
 9962SOL    HW230786   3.359   6.197   1.799
 9963SOL     OW30787   1.467   1.360   6.322
 9963SOL    HW130788   1.492   1.362   6.419
 9963SOL    HW230789   1.403   1.434   6.302
 9964SOL     OW30790   4.681   3.894   5.499
 9964SOL    HW130791   4.707   3.976   5.448
 9964SOL    HW230792   4.688   3.912   5.597
 9965SOL     OW30793   3.207   5.650   4.475
 9965SOL    HW130794   3.289   5.683   4.429
 9965SOL    HW230795   3.196   5.552   4.457
 9966SOL     OW30796   3.721   4.907   2.410
 9966SOL    HW130797   3.634   4.906   2.460
 9966SOL    HW230798   3.796   4.889   2.473
 9967SOL     OW30799   6.396   0.020   3.316
 9967SOL    HW130800   6.404   0.112   3.279
 9967SOL    HW230801   6.408   6.975   3.243
 9968SOL     OW30802   3.652   6.744   0.897
 9968SOL    HW130803   3.683   6.794   0.817
 9968SOL    HW230804   3.671   6.646   0.885
 9969SOL     OW30805   1.672   5.179   3.663
 9969SOL    HW130806   1.749   5.236   3.690
 9969SOL    HW230807   1.587   5.224   3.689
 9970SOL     OW30808   6.413   3.990   1.394
 9970SOL    HW130809   6.359   3.912   1.425
 9970SOL    HW230810   6.481   4.013   1.464
 9971SOL     OW30811   0.778   4.375   2.116
 9971SOL    HW130812   0.757   4.309   2.188
 9971SOL    HW230813   0.842   4.334   2.050
 9972SOL     OW30814   3.279   3.950   0.354
 9972SOL    HW130815   3.308   3.861   0.320
 9972SOL    HW230816   3.191   3.975   0.313
 9973SOL     OW30817   3.551   1.715   3.332
 9973SOL    HW130818   3.464   1.684   3.370
 9973SOL    HW230819   3.626   1.666   3.376
 9974SOL     OW30820   0.526   2.697   3.072
 9974SOL    HW130821   0.433   2.725   3.096
 9974SOL    HW230822   0.585   2.778   3.069
 9975SOL     OW30823   1.297   5.091   6.836
 9975SOL    HW130824   1.209   5.059   6.801
 9975SOL    HW230825   1.370   5.059   6.775
 9976SOL     OW30826   2.804   4.397   6.498
 9976SOL    HW130827   2.823   4.480   6.446
 9976SOL    HW230828   2.885   4.338   6.497
 9977SOL     OW30829   4.963   6.341   4.913
 9977SOL    HW130830   5.015   6.364   4.995
 9977SOL    HW230831   4.959   6.242   4.902
 9978SOL     OW30832   0.940   2.704   6.187
 9978SOL    HW130833   0.901   2.698   6.278
 9978SOL    HW230834   0.903   2.784   6.139
 9979SOL     OW30835   4.663   3.185   5.443
 9979SOL    HW130836   4.610   3.204   5.526
 9979SOL    HW230837   4.610   3.125   5.383
 9980SOL     OW30838   1.222   0.767   0.580
 9980SOL    HW130839   1.314   0.732   0.600
 9980SOL    HW230840   1.154   0.708   0.624
 9981SOL     OW30841   0.495   2.444   1.539
 9981SOL    HW130842   0.549   2.365   1.512
 9981SOL    HW230843   0.512   2.520   1.476
 9982SOL     OW30844   2.149   1.972   5.440
 9982SOL    HW130845   2.134   1.902   5.510
 9982SOL    HW230846   2.068   1.978   5.382
 9983SOL     OW30847   0.085   3.229   2.162
 9983SOL    HW130848   0.013   3.298   2.165
 9983SOL    HW230849   0.170   3.270   2.130
 9984SOL     OW30850   6.804   5.844   0.794
 9984SOL    HW130851   6.712   5.879   0.813
 9984SOL    HW230852   6.798   5.750   0.760
 9985SOL     OW30853   4.180   5.439   0.590
 9985SOL    HW130854   4.132   5.498   0.655
 9985SOL    HW230855   4.177   5.481   0.500
 9986SOL     OW30856   4.937   4.385   0.219
 9986SOL    HW130857   4.916   4.477   0.252
 9986SOL    HW230858   4.909   4.376   0.123
 9987SOL     OW30859   5.710   2.843   1.830
 9987SOL    HW130860   5.772   2.856   1.907
 9987SOL    HW230861   5.752   2.780   1.764
 9988SOL     OW30862   5.128   6.029   4.590
 9988SOL    HW130863   5.132   6.125   4.617
 9988SOL    HW230864   5.220   5.995   4.573
 9989SOL     OW30865   6.165   5.361   1.905
 9989SOL    HW130866   6.256   5.397   1.887
 9989SOL    HW230867   6.166   5.261   1.896
 9990SOL     OW30868   0.094   0.121   3.835
 9990SOL    HW130869   0.180   0.074   3.854
 9990SOL    HW230870   0.057   0.088   3.748
 9991SOL     OW30871   1.565   4.299   4.432
 9991SOL    HW130872   1.658   4.328   4.409
 9991SOL    HW230873   1.551   4.309   4.530
 9992SOL     OW30874   3.359   4.211   1.130
 9992SOL    HW130875   3.381   4.230   1.035
 9992SOL    HW230876   3.359   4.297   1.182
 9993SOL     OW30877   3.581   0.032   4.032
 9993SOL    HW130878   3.516   0.106   4.015
 9993SOL    HW230879   3.531   6.974   4.067
 9994SOL     OW30880   6.889   4.897   4.281
 9994SOL    HW130881   6.836   4.813   4.273
 9994SOL    HW230882   6.930   4.903   4.372
 9995SOL     OW30883   2.837   0.556   4.964
 9995SOL    HW130884   2.903   0.619   5.006
 9995SOL    HW230885   2.819   0.480   5.027
 9996SOL     OW30886   1.853   4.334   0.992
 9996SOL    HW130887   1.859   4.302   1.087
 9996SOL    HW230888   1.944   4.342   0.953
 9997SOL     OW30889   6.351   2.582   4.385
 9997SOL    HW130890   6.384   2.536   4.303
 9997SOL    HW230891   6.428   2.603   4.445
 9998SOL     OW30892   4.822   3.785   2.587
 9998SOL    HW130893   4.871   3.707   2.625
 9998SOL    HW230894   4.810   3.772   2.489
 9999SOL     OW30895   6.897   6.723   4.259
 9999SOL    HW130896   6.816   6.782   4.268
 9999SOL    HW230897   6.972   6.762   4.312
10000SOL     OW30898   4.870   1.942   1.699
10000SOL    HW130899   4.771   1.941   1.714
10000SOL    HW230900   4.908   2.028   1.732
10001SOL     OW30901   3.304   6.100   2.335
10001SOL    HW130902   3.329   6.160   2.259
10001SOL    HW230903   3.359   6.124   2.415
10002SOL     OW30904   2.503   0.924   1.464
10002SOL    HW130905   2.511   0.828   1.436
10002SOL    HW230906   2.593   0.968   1.458
10003SOL     OW30907   1.838   1.271   3.010
10003SOL    HW130908   1.932   1.257   3.042
10003SOL    HW230909   1.775   1.223   3.070
10004SOL     OW30910   5.753   4.528   4.862
10004SOL    HW130911   5.670   4.473   4.866
10004SOL    HW230912   5.739   4.615   4.909
10005SOL     OW30913   2.142   5.904   3.545
10005SOL    HW130914   2.126   5.954   3.461
10005SOL    HW230915   2.105   5.811   3.537
10006SOL     OW30916   5.399   0.579   5.517
10006SOL    HW130917   5.344   0.512   5.467
10006SOL    HW230918   5.473   0.612   5.458
10007SOL     OW30919   1.127   4.383   4.938
10007SOL    HW130920   1.148   4.474   4.900
10007SOL    HW230921   1.039   4.386   4.986
10008SOL     OW30922   3.770   1.871   4.747
10008SOL    HW130923   3.813   1.814   4.677
10008SOL    HW230924   3.823   1.956   4.758
10009SOL     OW30925   1.500   4.493   1.583
10009SOL    HW130926   1.443   4.413   1.604
10009SOL    HW230927   1.461   4.542   1.505
10010SOL     OW30928   2.464   5.025   6.804
10010SOL    HW130929   2.562   5.042   6.816
10010SOL    HW230930   2.451   4.961   6.728
10011SOL     OW30931   0.829   3.563   0.139
10011SOL    HW130932   0.866   3.472   0.123
10011SOL    HW230933   0.867   3.601   0.223
10012SOL     OW30934   4.971   1.139   1.856
10012SOL    HW130935   5.053   1.089   1.829
10012SOL    HW230936   4.917   1.161   1.775
10013SOL     OW30937   1.121   5.897   4.827
10013SOL    HW130938   1.176   5.903   4.743
10013SOL    HW230939   1.155   5.963   4.894
10014SOL     OW30940   0.576   6.668   3.559
10014SOL    HW130941   0.586   6.580   3.512
10014SOL    HW230942   0.666   6.708   3.575
10015SOL     OW30943   3.735   5.073   6.075
10015SOL    HW130944   3.752   5.065   5.977
10015SOL    HW230945   3.725   4.982   6.115
10016SOL     OW30946   2.067   0.174   3.736
10016SOL    HW130947   2.040   0.263   3.774
10016SOL    HW230948   2.161   0.154   3.763
10017SOL     OW30949   2.709   1.878   3.053
10017SOL    HW130950   2.744   1.844   2.965
10017SOL    HW230951   2.703   1.803   3.118
10018SOL     OW30952   6.447   3.668   5.935
10018SOL    HW130953   6.364   3.718   5.962
10018SOL    HW230954   6.476   3.699   5.845
10019SOL     OW30955   0.878   1.671   2.919
10019SOL    HW130956   0.897   1.595   2.981
10019SOL    HW230957   0.863   1.755   2.972
10020SOL     OW30958   0.055   0.900   1.996
10020SOL    HW130959   7.018   0.981   1.987
10020SOL    HW230960   0.100   0.881   1.909
10021SOL     OW30961   1.676   3.832   1.657
10021SOL    HW130962   1.679   3.742   1.614
10021SOL    HW230963   1.762   3.848   1.706
10022SOL     OW30964   2.733   6.481   0.597
10022SOL    HW130965   2.657   6.470   0.533
10022SOL    HW230966   2.819   6.473   0.547
10023SOL     OW30967   2.597   6.836   5.981
10023SOL    HW130968   2.521   6.787   5.938
10023SOL    HW230969   2.586   6.835   6.080
10024SOL     OW30970   1.619   4.888   3.059
10024SOL    HW130971   1.670   4.974   3.063
10024SOL    HW230972   1.523   4.907   3.043
10025SOL     OW30973   1.517   4.009   1.498
10025SOL    HW130974   1.552   3.946   1.568
10025SOL    HW230975   1.589   4.030   1.432
10026SOL     OW30976   5.171   1.396   2.539
10026SOL    HW130977   5.178   1.327   2.467
10026SOL    HW230978   5.120   1.475   2.505
10027SOL     OW30979   1.543   2.516   5.517
10027SOL    HW130980   1.496   2.428   5.532
10027SOL    HW230981   1.512   2.556   5.431
10028SOL     OW30982   3.341   0.018   2.293
10028SOL    HW130983   3.352   0.018   2.194
10028SOL    HW230984   3.379   6.956   2.331
10029SOL     OW30985   7.006   3.086   4.402
10029SOL    HW130986   7.016   3.060   4.498
10029SOL    HW230987   6.954   3.016   4.354
10030SOL     OW30988   2.469   6.505   5.123
10030SOL    HW130989   2.441   6.580   5.183
10030SOL    HW230990   2.398   6.488   5.055
10031SOL     OW30991   3.809   5.193   4.502
10031SOL    HW130992   3.739   5.162   4.567
10031SOL    HW230993   3.862   5.115   4.470
10032SOL     OW30994   3.360   6.240   5.297
10032SOL    HW130995   3.280   6.301   5.299
10032SOL    HW230996   3.340   6.159   5.243
10033SOL     OW30997   4.384   1.547   3.677
10033SOL    HW130998   4.293   1.507   3.683
10033SOL    HW230999   4.396   1.589   3.588
10034SOL     OW31000   2.016   0.920   3.155
10034SOL    HW131001   2.094   0.859   3.170
10034SOL    HW231002   2.048   1.013   3.138
10035SOL     OW31003   6.475   3.313   0.325
10035SOL    HW131004   6.501   3.324   0.229
10035SOL    HW231005   6.523   3.234   0.364
10036SOL     OW31006   6.461   0.859   6.330
10036SOL    HW131007   6.552   0.896   6.310
10036SOL    HW231008   6.394   0.933   6.326
10037SOL     OW31009   6.488   0.135   5.859
10037SOL    HW131010   6.576   0.128   5.812
10037SOL    HW231011   6.499   0.194   5.940
10038SOL     OW31012   4.387   0.091   0.182
10038SOL    HW131013   4.363   0.109   0.086
10038SOL    HW231014   4.327   0.021   0.219
10039SOL     OW31015   5.000   4.961   4.484
10039SOL    HW131016   5.089   4.938   4.445
10039SOL    HW231017   4.979   4.899   4.559
10040SOL     OW31018   4.213   0.100   0.552
10040SOL    HW131019   4.306   0.103   0.516
10040SOL    HW231020   4.215   0.117   0.651
10041SOL     OW31021   6.635   4.484   5.793
10041SOL    HW131022   6.610   4.578   5.816
10041SOL    HW231023   6.628   4.426   5.874
10042SOL     OW31024   0.392   1.315   5.350
10042SOL    HW131025   0.354   1.227   5.381
10042SOL    HW231026   0.319   1.369   5.308
10043SOL     OW31027   1.232   0.813   2.773
10043SOL    HW131028   1.242   0.880   2.847
10043SOL    HW231029   1.155   0.840   2.715
10044SOL     OW31030   2.050   1.363   5.085
10044SOL    HW131031   2.038   1.287   5.020
10044SOL    HW231032   2.146   1.370   5.111
10045SOL     OW31033   4.784   0.009   4.728
10045SOL    HW131034   4.821   0.085   4.675
10045SOL    HW231035   4.687   7.019   4.705
10046SOL     OW31036   0.258   1.958   2.020
10046SOL    HW131037   0.256   2.009   2.107
10046SOL    HW231038   0.227   1.865   2.036
10047SOL     OW31039   6.218   2.515   4.963
10047SOL    HW131040   6.295   2.501   4.900
10047SOL    HW231041   6.243   2.481   5.054
10048SOL     OW31042   3.116   1.340   1.771
10048SOL    HW131043   3.086   1.435   1.761
10048SOL    HW231044   3.099   1.290   1.686
10049SOL     OW31045   1.632   0.324   0.042
10049SOL    HW131046   1.547   0.351   0.087
10049SOL    HW231047   1.700   0.299   0.110
10050SOL     OW31048   5.200   3.229   4.897
10050SOL    HW131049   5.123   3.292   4.900
10050SOL    HW231050   5.242   3.224   4.988
10051SOL     OW31051   6.679   3.039   4.374
10051SOL    HW131052   6.720   3.001   4.291
10051SOL    HW231053   6.579   3.037   4.365
10052SOL     OW31054   1.992   3.440   1.558
10052SOL    HW131055   2.057   3.364   1.559
10052SOL    HW231056   1.899   3.405   1.570
10053SOL     OW31057   3.712   5.145   3.303
10053SOL    HW131058   3.647   5.218   3.324
10053SOL    HW231059   3.724   5.138   3.204
10054SOL     OW31060   4.410   5.644   6.319
10054SOL    HW131061   4.400   5.561   6.374
10054SOL    HW231062   4.460   5.622   6.235
10055SOL     OW31063   6.372   2.313   4.712
10055SOL    HW131064   6.283   2.355   4.695
10055SOL    HW231065   6.374   2.220   4.675
10056SOL     OW31066   6.011   5.128   1.188
10056SOL    HW131067   5.933   5.185   1.215
10056SOL    HW231068   6.026   5.137   1.089
10057SOL     OW31069   4.049   1.765   4.173
10057SOL    HW131070   4.110   1.836   4.139
10057SOL    HW231071   3.972   1.807   4.220
10058SOL     OW31072   6.360   5.022   4.069
10058SOL    HW131073   6.287   4.997   4.132
10058SOL    HW231074   6.448   5.006   4.112
10059SOL     OW31075   5.129   6.808   0.992
10059SOL    HW131076   5.111   6.766   0.903
10059SOL    HW231077   5.042   6.823   1.040
10060SOL     OW31078   2.816   2.119   1.864
10060SOL    HW131079   2.790   2.180   1.789
10060SOL    HW231080   2.847   2.173   1.942
10061SOL     OW31081   5.834   1.182   4.211
10061SOL    HW131082   5.846   1.215   4.304
10061SOL    HW231083   5.850   1.258   4.147
10062SOL     OW31084   6.078   6.591   4.357
10062SOL    HW131085   6.100   6.496   4.336
10062SOL    HW231086   5.988   6.614   4.321
10063SOL     OW31087   1.417   2.080   3.315
10063SOL    HW131088   1.466   2.136   3.381
10063SOL    HW231089   1.424   1.984   3.341
10064SOL     OW31090   5.345   5.216   4.798
10064SOL    HW131091   5.414   5.201   4.869
10064SOL    HW231092   5.372   5.170   4.714
10065SOL     OW31093   1.442   0.111   2.192
10065SOL    HW131094   1.404   0.111   2.284
10065SOL    HW231095   1.527   0.059   2.191
10066SOL     OW31096   0.963   0.869   4.079
10066SOL    HW131097   1.057   0.848   4.107
10066SOL    HW231098   0.904   0.791   4.101
10067SOL     OW31099   5.756   4.637   4.256
10067SOL    HW131100   5.819   4.674   4.324
10067SOL    HW231101   5.797   4.645   4.165
10068SOL     OW31102   5.301   2.596   4.526
10068SOL    HW131103   5.383   2.605   4.583
10068SOL    HW231104   5.220   2.604   4.583
10069SOL     OW31105   2.196   0.272   3.353
10069SOL    HW131106   2.113   0.218   3.370
10069SOL    HW231107   2.276   0.222   3.389
10070SOL     OW31108   0.379   6.464   4.641
10070SOL    HW131109   0.465   6.477   4.593
10070SOL    HW231110   0.375   6.526   4.720
10071SOL     OW31111   4.805   5.030   3.908
10071SOL    HW131112   4.731   5.043   3.975
10071SOL    HW231113   4.796   4.940   3.866
10072SOL     OW31114   0.309   6.525   3.839
10072SOL    HW131115   0.308   6.625   3.840
10072SOL    HW231116   0.253   6.492   3.763
10073SOL     OW31117   6.126   4.491   4.704
10073SOL    HW131118   6.101   4.525   4.795
10073SOL    HW231119   6.210   4.536   4.674
10074SOL     OW31120   1.340   6.742   5.568
10074SOL    HW131121   1.422   6.687   5.556
10074SOL    HW231122   1.324   6.757   5.666
10075SOL     OW31123   1.160   2.194   2.896
10075SOL    HW131124   1.135   2.100   2.872
10075SOL    HW231125   1.143   2.210   2.993
10076SOL     OW31126   5.154   6.997   4.907
10076SOL    HW131127   5.071   6.991   4.851
10076SOL    HW231128   5.176   0.071   4.924
10077SOL     OW31129   3.750   2.369   6.513
10077SOL    HW131130   3.669   2.421   6.487
10077SOL    HW231131   3.790   2.326   6.432
10078SOL     OW31132   6.393   6.197   4.609
10078SOL    HW131133   6.479   6.175   4.655
10078SOL    HW231134   6.386   6.297   4.598
10079SOL     OW31135   1.621   2.810   2.249
10079SOL    HW131136   1.704   2.784   2.201
10079SOL    HW231137   1.591   2.900   2.217
10080SOL     OW31138   3.128   2.403   6.821
10080SOL    HW131139   3.110   2.496   6.855
10080SOL    HW231140   3.219   2.374   6.850
10081SOL     OW31141   0.794   0.261   6.232
10081SOL    HW131142   0.734   0.243   6.154
10081SOL    HW231143   0.758   0.217   6.314
10082SOL     OW31144   6.854   2.354   2.293
10082SOL    HW131145   6.816   2.329   2.382
10082SOL    HW231146   6.866   2.453   2.288
10083SOL     OW31147   4.913   1.248   3.812
10083SOL    HW131148   4.821   1.232   3.775
10083SOL    HW231149   4.978   1.188   3.766
10084SOL     OW31150   3.303   0.677   6.077
10084SOL    HW131151   3.271   0.752   6.134
10084SOL    HW231152   3.282   0.696   5.981
10085SOL     OW31153   0.761   5.021   3.312
10085SOL    HW131154   0.768   5.065   3.222
10085SOL    HW231155   0.755   4.922   3.300
10086SOL     OW31156   5.667   5.579   2.542
10086SOL    HW131157   5.718   5.511   2.595
10086SOL    HW231158   5.702   5.670   2.563
10087SOL     OW31159   0.965   1.102   4.367
10087SOL    HW131160   0.914   1.087   4.282
10087SOL    HW231161   0.919   1.172   4.422
10088SOL     OW31162   0.331   6.918   5.402
10088SOL    HW131163   0.240   6.941   5.369
10088SOL    HW231164   0.380   6.866   5.333
10089SOL     OW31165   2.601   1.551   3.473
10089SOL    HW131166   2.605   1.564   3.572
10089SOL    HW231167   2.690   1.518   3.440
10090SOL     OW31168   0.764   4.218   0.937
10090SOL    HW131169   0.744   4.124   0.910
10090SOL    HW231170   0.740   4.232   1.033
10091SOL     OW31171   1.053   3.674   4.701
10091SOL    HW131172   1.052   3.619   4.618
10091SOL    HW231173   0.979   3.645   4.762
10092SOL     OW31174   1.686   4.095   5.303
10092SOL    HW131175   1.680   3.996   5.315
10092SOL    HW231176   1.692   4.139   5.393
10093SOL     OW31177   0.634   5.182   5.235
10093SOL    HW131178   0.700   5.198   5.161
10093SOL    HW231179   0.541   5.195   5.200
10094SOL     OW31180   2.617   0.182   2.743
10094SOL    HW131181   2.701   0.223   2.707
10094SOL    HW231182   2.544   0.250   2.743
10095SOL     OW31183   6.048   1.511   4.914
10095SOL    HW131184   5.994   1.439   4.870
10095SOL    HW231185   6.037   1.596   4.863
10096SOL     OW31186   6.845   5.040   2.629
10096SOL    HW131187   6.820   4.963   2.687
10096SOL    HW231188   6.944   5.045   2.620
10097SOL     OW31189   1.070   1.291   0.315
10097SOL    HW131190   1.166   1.294   0.289
10097SOL    HW231191   1.013   1.299   0.233
10098SOL     OW31192   1.815   6.349   5.895
10098SOL    HW131193   1.776   6.294   5.822
10098SOL    HW231194   1.911   6.323   5.909
10099SOL     OW31195   0.664   4.074   6.143
10099SOL    HW131196   0.670   3.992   6.200
10099SOL    HW231197   0.627   4.049   6.053
10100SOL     OW31198   4.829   6.949   5.308
10100SOL    HW131199   4.760   7.000   5.255
10100SOL    HW231200   4.785   6.871   5.353
10101SOL     OW31201   6.453   4.401   1.897
10101SOL    HW131202   6.545   4.402   1.937
10101SOL    HW231203   6.385   4.400   1.970
10102SOL     OW31204   2.535   0.938   3.408
10102SOL    HW131205   2.471   1.014   3.396
10102SOL    HW231206   2.629   0.973   3.404
10103SOL     OW31207   3.355   1.008   4.757
10103SOL    HW131208   3.366   1.076   4.685
10103SOL    HW231209   3.346   1.054   4.845
10104SOL     OW31210   0.359   4.296   5.082
10104SOL    HW131211   0.370   4.368   5.012
10104SOL    HW231212   0.432   4.304   5.150
10105SOL     OW31213   1.009   1.129   5.993
10105SOL    HW131214   0.931   1.167   6.041
10105SOL    HW231215   0.977   1.073   5.916
10106SOL     OW31216   5.565   4.672   1.190
10106SOL    HW131217   5.618   4.686   1.274
10106SOL    HW231218   5.611   4.603   1.134
10107SOL     OW31219   6.572   1.754   6.173
10107SOL    HW131220   6.557   1.802   6.260
10107SOL    HW231221   6.486   1.750   6.122
10108SOL     OW31222   6.494   6.185   6.957
10108SOL    HW131223   6.585   6.226   6.961
10108SOL    HW231224   6.427   6.247   6.998
10109SOL     OW31225   4.096   6.370   2.709
10109SOL    HW131226   4.189   6.403   2.719
10109SOL    HW231227   4.093   6.272   2.729
10110SOL     OW31228   3.915   6.683   5.691
10110SOL    HW131229   3.933   6.781   5.686
10110SOL    HW231230   3.822   6.664   5.659
10111SOL     OW31231   6.740   3.436   3.352
10111SOL    HW131232   6.650   3.402   3.324
10111SOL    HW231233   6.796   3.360   3.385
10112SOL     OW31234   5.986   4.083   5.139
10112SOL    HW131235   6.037   4.155   5.187
10112SOL    HW231236   5.923   4.125   5.073
10113SOL     OW31237   3.985   1.360   6.916
10113SOL    HW131238   3.960   1.440   6.971
10113SOL    HW231239   4.039   1.389   6.837
10114SOL     OW31240   5.519   0.754   0.914
10114SOL    HW131241   5.524   0.700   0.998
10114SOL    HW231242   5.484   0.846   0.935
10115SOL     OW31243   2.499   2.183   3.297
10115SOL    HW131244   2.457   2.180   3.387
10115SOL    HW231245   2.592   2.218   3.305
10116SOL     OW31246   0.973   6.731   1.279
10116SOL    HW131247   1.012   6.819   1.252
10116SOL    HW231248   0.913   6.743   1.357
10117SOL     OW31249   6.564   0.521   4.228
10117SOL    HW131250   6.620   0.594   4.190
10117SOL    HW231251   6.624   0.447   4.260
10118SOL     OW31252   0.088   4.962   2.629
10118SOL    HW131253   0.139   4.912   2.698
10118SOL    HW231254   0.096   4.917   2.540
10119SOL     OW31255   2.322   6.784   4.254
10119SOL    HW131256   2.295   6.880   4.265
10119SOL    HW231257   2.242   6.725   4.269
10120SOL     OW31258   0.816   3.004   4.051
10120SOL    HW131259   0.841   3.057   4.132
10120SOL    HW231260   0.823   3.062   3.970
10121SOL     OW31261   6.574   4.802   5.025
10121SOL    HW131262   6.607   4.726   5.081
10121SOL    HW231263   6.652   4.850   4.983
10122SOL     OW31264   5.694   2.708   0.082
10122SOL    HW131265   5.703   2.750   0.172
10122SOL    HW231266   5.739   2.618   0.083
10123SOL     OW31267   6.413   6.134   0.224
10123SOL    HW131268   6.469   6.124   0.142
10123SOL    HW231269   6.427   6.055   0.284
10124SOL     OW31270   2.137   3.847   6.889
10124SOL    HW131271   2.072   3.923   6.892
10124SOL    HW231272   2.211   3.864   6.953
10125SOL     OW31273   1.954   0.437   2.397
10125SOL    HW131274   1.887   0.511   2.396
10125SOL    HW231275   1.991   0.424   2.305
10126SOL     OW31276   6.629   5.785   6.148
10126SOL    HW131277   6.567   5.729   6.204
10126SOL    HW231278   6.622   5.756   6.053
10127SOL     OW31279   2.949   5.308   5.999
10127SOL    HW131280   2.886   5.283   5.926
10127SOL    HW231281   3.043   5.301   5.965
10128SOL     OW31282   0.686   1.356   1.406
10128SOL    HW131283   0.669   1.434   1.466
10128SOL    HW231284   0.776   1.365   1.363
10129SOL     OW31285   4.798   2.758   4.154
10129SOL    HW131286   4.760   2.740   4.245
10129SOL    HW231287   4.744   2.712   4.085
10130SOL     OW31288   1.815   4.822   2.493
10130SOL    HW131289   1.715   4.824   2.489
10130SOL    HW231290   1.852   4.880   2.421
10131SOL     OW31291   0.543   1.860   3.206
10131SOL    HW131292   0.527   1.943   3.260
10131SOL    HW231293   0.552   1.782   3.267
10132SOL     OW31294   3.371   6.218   3.034
10132SOL    HW131295   3.335   6.175   3.117
10132SOL    HW231296   3.308   6.203   2.958
10133SOL     OW31297   4.561   6.344   2.465
10133SOL    HW131298   4.504   6.389   2.396
10133SOL    HW231299   4.613   6.270   2.422
10134SOL     OW31300   6.609   0.360   3.962
10134SOL    HW131301   6.606   0.291   4.033
10134SOL    HW231302   6.569   0.324   3.877
10135SOL     OW31303   5.326   3.648   2.716
10135SOL    HW131304   5.380   3.609   2.791
10135SOL    HW231305   5.285   3.734   2.745
10136SOL     OW31306   5.567   0.107   2.865
10136SOL    HW131307   5.495   0.173   2.886
10136SOL    HW231308   5.567   0.035   2.934
10137SOL     OW31309   6.828   5.529   3.528
10137SOL    HW131310   6.774   5.541   3.445
10137SOL    HW231311   6.921   5.564   3.512
10138SOL     OW31312   4.610   2.277   1.000
10138SOL    HW131313   4.544   2.202   0.993
10138SOL    HW231314   4.616   2.323   0.911
10139SOL     OW31315   4.001   3.250   2.757
10139SOL    HW131316   3.954   3.224   2.842
10139SOL    HW231317   4.013   3.169   2.700
10140SOL     OW31318   6.122   5.966   5.712
10140SOL    HW131319   6.132   5.962   5.613
10140SOL    HW231320   6.192   5.910   5.755
10141SOL     OW31321   3.382   2.134   4.449
10141SOL    HW131322   3.353   2.220   4.408
10141SOL    HW231323   3.312   2.102   4.514
10142SOL     OW31324   5.466   6.080   5.092
10142SOL    HW131325   5.369   6.071   5.113
10142SOL    HW231326   5.497   6.171   5.117
10143SOL     OW31327   4.511   0.292   1.546
10143SOL    HW131328   4.463   0.214   1.587
10143SOL    HW231329   4.458   0.327   1.469
10144SOL     OW31330   4.618   6.421   6.184
10144SOL    HW131331   4.526   6.405   6.146
10144SOL    HW231332   4.616   6.504   6.240
10145SOL     OW31333   3.315   6.499   5.807
10145SOL    HW131334   3.291   6.404   5.829
10145SOL    HW231335   3.232   6.553   5.795
10146SOL     OW31336   3.671   5.138   5.352
10146SOL    HW131337   3.681   5.147   5.451
10146SOL    HW231338   3.639   5.046   5.330
10147SOL     OW31339   5.521   4.468   4.276
10147SOL    HW131340   5.444   4.532   4.280
10147SOL    HW231341   5.607   4.519   4.274
10148SOL     OW31342   6.312   5.237   6.973
10148SOL    HW131343   6.269   5.174   0.014
10148SOL    HW231344   6.410   5.240   6.990
10149SOL     OW31345   5.041   1.945   0.559
10149SOL    HW131346   4.956   1.993   0.580
10149SOL    HW231347   5.118   2.008   0.569
10150SOL     OW31348   4.688   4.148   0.643
10150SOL    HW131349   4.775   4.175   0.685
10150SOL    HW231350   4.656   4.063   0.685
10151SOL     OW31351   1.050   0.379   6.273
10151SOL    HW131352   0.962   0.342   6.246
10151SOL    HW231353   1.090   0.324   6.346
10152SOL     OW31354   2.003   5.646   4.507
10152SOL    HW131355   1.906   5.625   4.498
10152SOL    HW231356   2.057   5.578   4.457
10153SOL     OW31357   4.356   5.903   4.020
10153SOL    HW131358   4.306   5.817   4.010
10153SOL    HW231359   4.352   5.954   3.934
10154SOL     OW31360   5.938   6.993   5.474
10154SOL    HW131361   5.945   6.902   5.433
10154SOL    HW231362   6.008   7.003   5.545
10155SOL     OW31363   4.134   1.697   5.708
10155SOL    HW131364   4.151   1.614   5.762
10155SOL    HW231365   4.077   1.760   5.760
10156SOL     OW31366   6.524   0.301   2.071
10156SOL    HW131367   6.437   0.351   2.077
10156SOL    HW231368   6.596   0.354   2.115
10157SOL     OW31369   5.809   2.374   6.060
10157SOL    HW131370   5.750   2.360   5.981
10157SOL    HW231371   5.889   2.426   6.033
10158SOL     OW31372   4.622   3.528   0.034
10158SOL    HW131373   4.614   3.456   0.102
10158SOL    HW231374   4.568   3.504   6.975
10159SOL     OW31375   2.837   3.618   6.034
10159SOL    HW131376   2.829   3.716   6.052
10159SOL    HW231377   2.746   3.576   6.033
10160SOL     OW31378   1.279   4.079   2.283
10160SOL    HW131379   1.338   3.999   2.287
10160SOL    HW231380   1.235   4.093   2.372
10161SOL     OW31381   3.299   4.214   0.555
10161SOL    HW131382   3.247   4.132   0.531
10161SOL    HW231383   3.265   4.251   0.642
10162SOL     OW31384   2.613   4.288   0.483
10162SOL    HW131385   2.633   4.193   0.458
10162SOL    HW231386   2.550   4.289   0.561
10163SOL     OW31387   5.527   4.566   6.623
10163SOL    HW131388   5.505   4.496   6.555
10163SOL    HW231389   5.540   4.654   6.578
10164SOL     OW31390   6.023   3.254   5.002
10164SOL    HW131391   6.075   3.258   4.917
10164SOL    HW231392   6.019   3.345   5.043
10165SOL     OW31393   1.465   2.423   3.814
10165SOL    HW131394   1.525   2.346   3.794
10165SOL    HW231395   1.512   2.509   3.791
10166SOL     OW31396   3.355   1.130   2.047
10166SOL    HW131397   3.302   1.083   2.118
10166SOL    HW231398   3.404   1.208   2.088
10167SOL     OW31399   4.149   2.023   6.122
10167SOL    HW131400   4.071   2.051   6.065
10167SOL    HW231401   4.214   1.971   6.067
10168SOL     OW31402   6.753   4.251   4.830
10168SOL    HW131403   6.807   4.218   4.908
10168SOL    HW231404   6.766   4.189   4.752
10169SOL     OW31405   6.561   3.806   3.181
10169SOL    HW131406   6.634   3.806   3.112
10169SOL    HW231407   6.576   3.730   3.245
10170SOL     OW31408   1.048   4.166   5.710
10170SOL    HW131409   1.027   4.248   5.657
10170SOL    HW231410   1.142   4.137   5.690
10171SOL     OW31411   6.585   3.979   6.062
10171SOL    HW131412   6.498   3.957   6.105
10171SOL    HW231413   6.587   3.941   5.970
10172SOL     OW31414   6.164   6.664   3.598
10172SOL    HW131415   6.087   6.715   3.638
10172SOL    HW231416   6.145   6.566   3.601
10173SOL     OW31417   1.675   2.578   0.724
10173SOL    HW131418   1.736   2.543   0.796
10173SOL    HW231419   1.588   2.529   0.727
10174SOL     OW31420   5.517   5.186   2.030
10174SOL    HW131421   5.616   5.180   2.022
10174SOL    HW231422   5.489   5.164   2.123
10175SOL     OW31423   6.827   2.377   3.896
10175SOL    HW131424   6.741   2.357   3.850
10175SOL    HW231425   6.826   2.473   3.927
10176SOL     OW31426   1.364   3.229   5.553
10176SOL    HW131427   1.428   3.260   5.624
10176SOL    HW231428   1.415   3.203   5.471
10177SOL     OW31429   1.824   0.895   0.660
10177SOL    HW131430   1.856   0.980   0.702
10177SOL    HW231431   1.754   0.917   0.591
10178SOL     OW31432   6.605   3.017   4.884
10178SOL    HW131433   6.657   2.983   4.963
10178SOL    HW231434   6.650   2.988   4.799
10179SOL     OW31435   0.831   1.710   6.179
10179SOL    HW131436   0.892   1.786   6.157
10179SOL    HW231437   0.785   1.679   6.095
10180SOL     OW31438   4.235   6.526   6.838
10180SOL    HW131439   4.222   6.588   6.916
10180SOL    HW231440   4.148   6.485   6.814
10181SOL     OW31441   4.868   3.651   1.985
10181SOL    HW131442   4.801   3.718   1.956
10181SOL    HW231443   4.878   3.580   1.915
10182SOL     OW31444   5.585   1.388   2.331
10182SOL    HW131445   5.614   1.468   2.384
10182SOL    HW231446   5.665   1.346   2.288
10183SOL     OW31447   0.919   1.923   6.562
10183SOL    HW131448   0.861   1.848   6.594
10183SOL    HW231449   0.892   1.949   6.469
10184SOL     OW31450   4.275   0.958   6.091
10184SOL    HW131451   4.366   0.949   6.050
10184SOL    HW231452   4.232   0.868   6.097
10185SOL     OW31453   5.298   5.949   1.482
10185SOL    HW131454   5.396   5.945   1.465
10185SOL    HW231455   5.250   5.967   1.396
10186SOL     OW31456   5.839   3.059   2.852
10186SOL    HW131457   5.799   3.049   2.942
10186SOL    HW231458   5.826   3.152   2.819
10187SOL     OW31459   0.498   2.183   1.402
10187SOL    HW131460   0.547   2.139   1.478
10187SOL    HW231461   0.480   2.115   1.330
10188SOL     OW31462   3.927   6.357   0.638
10188SOL    HW131463   3.835   6.387   0.665
10188SOL    HW231464   3.981   6.437   0.610
10189SOL     OW31465   1.909   0.682   5.264
10189SOL    HW131466   1.924   0.768   5.214
10189SOL    HW231467   1.959   0.608   5.219
10190SOL     OW31468   4.798   2.972   1.530
10190SOL    HW131469   4.830   2.877   1.533
10190SOL    HW231470   4.857   3.026   1.471
10191SOL     OW31471   4.974   4.138   6.973
10191SOL    HW131472   5.056   4.085   6.996
10191SOL    HW231473   4.928   4.097   6.895
10192SOL     OW31474   4.503   0.684   5.577
10192SOL    HW131475   4.583   0.704   5.634
10192SOL    HW231476   4.438   0.630   5.630
10193SOL     OW31477   4.182   3.622   1.865
10193SOL    HW131478   4.235   3.544   1.831
10193SOL    HW231479   4.167   3.611   1.964
10194SOL     OW31480   6.061   4.541   5.219
10194SOL    HW131481   6.097   4.450   5.237
10194SOL    HW231482   6.100   4.606   5.285
10195SOL     OW31483   6.325   4.701   0.986
10195SOL    HW131484   6.286   4.624   1.036
10195SOL    HW231485   6.424   4.701   0.995
10196SOL     OW31486   5.350   1.634   4.852
10196SOL    HW131487   5.344   1.732   4.835
10196SOL    HW231488   5.348   1.616   4.950
10197SOL     OW31489   6.761   2.187   4.804
10197SOL    HW131490   6.798   2.104   4.845
10197SOL    HW231491   6.763   2.179   4.705
10198SOL     OW31492   3.747   0.853   1.955
10198SOL    HW131493   3.782   0.808   1.874
10198SOL    HW231494   3.745   0.952   1.941
10199SOL     OW31495   2.227   3.091   6.021
10199SOL    HW131496   2.216   3.040   6.106
10199SOL    HW231497   2.231   3.189   6.040
10200SOL     OW31498   4.914   2.029   0.939
10200SOL    HW131499   4.902   2.033   1.038
10200SOL    HW231500   4.863   1.950   0.902
10201SOL     OW31501   0.557   4.765   0.627
10201SOL    HW131502   0.585   4.676   0.661
10201SOL    HW231503   0.461   4.782   0.652
10202SOL     OW31504   3.661   2.619   6.358
10202SOL    HW131505   3.749   2.660   6.336
10202SOL    HW231506   3.643   2.543   6.296
10203SOL     OW31507   5.715   3.055   3.859
10203SOL    HW131508   5.749   3.097   3.775
10203SOL    HW231509   5.790   3.042   3.924
10204SOL     OW31510   5.850   0.279   6.894
10204SOL    HW131511   5.799   0.314   6.972
10204SOL    HW231512   5.916   0.348   6.863
10205SOL     OW31513   0.584   1.457   0.685
10205SOL    HW131514   0.600   1.461   0.783
10205SOL    HW231515   0.535   1.539   0.656
10206SOL     OW31516   0.663   0.428   5.793
10206SOL    HW131517   0.756   0.439   5.830
10206SOL    HW231518   0.650   0.492   5.717
10207SOL     OW31519   1.147   1.788   6.584
10207SOL    HW131520   1.070   1.847   6.607
10207SOL    HW231521   1.140   1.760   6.488
10208SOL     OW31522   5.803   5.003   3.854
10208SOL    HW131523   5.723   5.059   3.874
10208SOL    HW231524   5.884   5.044   3.898
10209SOL     OW31525   6.836   6.987   6.355
10209SOL    HW131526   6.905   6.915   6.368
10209SOL    HW231527   6.750   6.946   6.325
10210SOL     OW31528   4.682   6.456   1.593
10210SOL    HW131529   4.742   6.494   1.664
10210SOL    HW231530   4.714   6.365   1.568
10211SOL     OW31531   3.750   6.959   4.257
10211SOL    HW131532   3.699   7.010   4.187
10211SOL    HW231533   3.768   6.867   4.223
10212SOL     OW31534   1.112   0.608   4.974
10212SOL    HW131535   1.043   0.656   5.029
10212SOL    HW231536   1.115   0.512   5.001
10213SOL     OW31537   4.160   3.083   0.902
10213SOL    HW131538   4.168   2.990   0.939
10213SOL    HW231539   4.067   3.096   0.867
10214SOL     OW31540   1.365   2.437   1.732
10214SOL    HW131541   1.317   2.474   1.811
10214SOL    HW231542   1.462   2.428   1.753
10215SOL     OW31543   4.127   3.279   3.151
10215SOL    HW131544   4.150   3.182   3.150
10215SOL    HW231545   4.118   3.310   3.246
10216SOL     OW31546   6.996   0.981   1.593
10216SOL    HW131547   0.003   1.058   1.536
10216SOL    HW231548   6.934   0.923   1.541
10217SOL     OW31549   2.816   1.030   3.354
10217SOL    HW131550   2.755   1.109   3.348
10217SOL    HW231551   2.894   1.043   3.293
10218SOL     OW31552   1.212   3.293   1.888
10218SOL    HW131553   1.300   3.248   1.900
10218SOL    HW231554   1.193   3.303   1.790
10219SOL     OW31555   0.064   1.919   2.666
10219SOL    HW131556   6.986   1.927   2.656
10219SOL    HW231557   0.104   1.897   2.577
10220SOL     OW31558   3.645   3.244   1.240
10220SOL    HW131559   3.690   3.230   1.328
10220SOL    HW231560   3.556   3.287   1.254
10221SOL     OW31561   1.015   5.328   2.789
10221SOL    HW131562   0.992   5.399   2.855
10221SOL    HW231563   1.015   5.367   2.697
10222SOL     OW31564   3.073   3.452   5.069
10222SOL    HW131565   3.166   3.425   5.044
10222SOL    HW231566   3.008   3.388   5.029
10223SOL     OW31567   0.190   5.004   0.978
10223SOL    HW131568   0.138   4.926   0.942
10223SOL    HW231569   0.162   5.023   1.072
10224SOL     OW31570   5.980   3.099   3.450
10224SOL    HW131571   5.962   3.002   3.435
10224SOL    HW231572   6.047   3.132   3.384
10225SOL     OW31573   1.907   4.301   5.982
10225SOL    HW131574   1.927   4.203   5.976
10225SOL    HW231575   1.810   4.316   5.962
10226SOL     OW31576   3.702   1.215   0.333
10226SOL    HW131577   3.704   1.208   0.433
10226SOL    HW231578   3.671   1.129   0.294
10227SOL     OW31579   5.324   4.070   0.530
10227SOL    HW131580   5.407   4.020   0.503
10227SOL    HW231581   5.345   4.168   0.534
10228SOL     OW31582   6.474   0.077   0.758
10228SOL    HW131583   6.564   0.108   0.726
10228SOL    HW231584   6.473   0.075   0.858
10229SOL     OW31585   0.456   3.722   4.920
10229SOL    HW131586   0.523   3.730   4.995
10229SOL    HW231587   0.482   3.646   4.861
10230SOL     OW31588   6.527   5.328   2.688
10230SOL    HW131589   6.439   5.284   2.711
10230SOL    HW231590   6.552   5.391   2.762
10231SOL     OW31591   1.725   6.233   3.921
10231SOL    HW131592   1.717   6.311   3.858
10231SOL    HW231593   1.793   6.254   3.991
10232SOL     OW31594   3.154   0.907   3.490
10232SOL    HW131595   3.254   0.902   3.491
10232SOL    HW231596   3.125   0.980   3.429
10233SOL     OW31597   3.696   4.111   5.788
10233SOL    HW131598   3.691   4.158   5.877
10233SOL    HW231599   3.739   4.022   5.801
10234SOL     OW31600   6.288   0.157   1.337
10234SOL    HW131601   6.279   0.157   1.237
10234SOL    HW231602   6.253   0.243   1.373
10235SOL     OW31603   1.492   1.758   2.689
10235SOL    HW131604   1.441   1.700   2.753
10235SOL    HW231605   1.582   1.778   2.727
10236SOL     OW31606   2.377   6.389   0.068
10236SOL    HW131607   2.360   6.439   0.153
10236SOL    HW231608   2.354   6.292   0.081
10237SOL     OW31609   0.176   3.334   0.120
10237SOL    HW131610   0.210   3.337   0.026
10237SOL    HW231611   0.191   3.243   0.158
10238SOL     OW31612   4.337   5.189   1.364
10238SOL    HW131613   4.243   5.194   1.396
10238SOL    HW231614   4.352   5.259   1.293
10239SOL     OW31615   1.318   2.710   4.847
10239SOL    HW131616   1.302   2.709   4.946
10239SOL    HW231617   1.275   2.790   4.807
10240SOL     OW31618   2.690   6.689   2.031
10240SOL    HW131619   2.719   6.596   2.009
10240SOL    HW231620   2.591   6.697   2.016
10241SOL     OW31621   5.217   1.945   2.010
10241SOL    HW131622   5.135   1.913   2.056
10241SOL    HW231623   5.220   2.045   2.013
10242SOL     OW31624   0.163   2.330   0.785
10242SOL    HW131625   0.066   2.328   0.809
10242SOL    HW231626   0.218   2.318   0.867
10243SOL     OW31627   2.712   4.775   1.346
10243SOL    HW131628   2.650   4.853   1.333
10243SOL    HW231629   2.685   4.701   1.284
10244SOL     OW31630   2.561   3.972   1.345
10244SOL    HW131631   2.620   3.897   1.377
10244SOL    HW231632   2.467   3.954   1.372
10245SOL     OW31633   3.581   3.858   1.356
10245SOL    HW131634   3.621   3.909   1.433
10245SOL    HW231635   3.556   3.767   1.387
10246SOL     OW31636   2.988   3.230   4.350
10246SOL    HW131637   2.964   3.188   4.262
10246SOL    HW231638   3.059   3.176   4.394
10247SOL     OW31639   0.742   4.555   5.008
10247SOL    HW131640   0.660   4.611   5.017
10247SOL    HW231641   0.787   4.547   5.097
10248SOL     OW31642   1.091   6.991   3.758
10248SOL    HW131643   1.049   0.058   3.737
10248SOL    HW231644   1.082   6.931   3.679
10249SOL     OW31645   1.745   4.587   0.133
10249SOL    HW131646   1.701   4.503   0.098
10249SOL    HW231647   1.740   4.588   0.232
10250SOL     OW31648   6.265   3.178   0.651
10250SOL    HW131649   6.363   3.162   0.633
10250SOL    HW231650   6.252   3.192   0.749
10251SOL     OW31651   1.700   0.595   3.791
10251SOL    HW131652   1.696   0.642   3.879
10251SOL    HW231653   1.761   0.645   3.729
10252SOL     OW31654   4.829   3.712   5.335
10252SOL    HW131655   4.789   3.643   5.274
10252SOL    HW231656   4.758   3.775   5.365
10253SOL     OW31657   4.057   6.591   0.533
10253SOL    HW131658   4.039   6.689   0.543
10253SOL    HW231659   4.136   6.567   0.589
10254SOL     OW31660   4.608   1.700   5.362
10254SOL    HW131661   4.560   1.775   5.408
10254SOL    HW231662   4.692   1.736   5.319
10255SOL     OW31663   2.372   6.003   1.499
10255SOL    HW131664   2.420   5.956   1.424
10255SOL    HW231665   2.325   5.936   1.556
10256SOL     OW31666   5.197   0.982   1.890
10256SOL    HW131667   5.203   0.882   1.890
10256SOL    HW231668   5.223   1.017   1.979
10257SOL     OW31669   2.682   4.884   3.631
10257SOL    HW131670   2.753   4.950   3.603
10257SOL    HW231671   2.664   4.820   3.557
10258SOL     OW31672   3.469   2.063   3.159
10258SOL    HW131673   3.512   1.973   3.155
10258SOL    HW231674   3.528   2.126   3.210
10259SOL     OW31675   1.245   4.328   4.133
10259SOL    HW131676   1.284   4.237   4.145
10259SOL    HW231677   1.151   4.321   4.101
10260SOL     OW31678   1.439   1.316   3.874
10260SOL    HW131679   1.376   1.341   3.947
10260SOL    HW231680   1.439   1.217   3.862
10261SOL     OW31681   0.410   3.951   0.657
10261SOL    HW131682   0.359   3.870   0.685
10261SOL    HW231683   0.408   3.958   0.557
10262SOL     OW31684   3.908   0.447   6.282
10262SOL    HW131685   3.925   0.527   6.223
10262SOL    HW231686   3.878   0.478   6.372
10263SOL     OW31687   5.888   0.519   0.667
10263SOL    HW131688   5.903   0.617   0.653
10263SOL    HW231689   5.904   0.496   0.763
10264SOL     OW31690   5.913   4.721   6.736
10264SOL    HW131691   5.874   4.640   6.692
10264SOL    HW231692   5.844   4.793   6.739
10265SOL     OW31693   2.152   2.611   0.598
10265SOL    HW131694   2.110   2.534   0.646
10265SOL    HW231695   2.201   2.578   0.517
10266SOL     OW31696   3.275   2.923   2.734
10266SOL    HW131697   3.369   2.902   2.705
10266SOL    HW231698   3.275   2.952   2.829
10267SOL     OW31699   5.122   0.911   1.075
10267SOL    HW131700   5.113   1.008   1.097
10267SOL    HW231701   5.100   0.896   0.979
10268SOL     OW31702   5.687   6.547   1.710
10268SOL    HW131703   5.787   6.545   1.710
10268SOL    HW231704   5.654   6.578   1.621
10269SOL     OW31705   1.519   2.728   6.542
10269SOL    HW131706   1.525   2.740   6.443
10269SOL    HW231707   1.440   2.777   6.577
10270SOL     OW31708   3.566   6.133   2.442
10270SOL    HW131709   3.601   6.079   2.519
10270SOL    HW231710   3.600   6.095   2.356
10271SOL     OW31711   3.061   2.507   0.796
10271SOL    HW131712   3.012   2.545   0.717
10271SOL    HW231713   3.155   2.541   0.796
10272SOL     OW31714   0.022   1.046   3.900
10272SOL    HW131715   6.986   1.070   3.978
10272SOL    HW231716   0.105   1.102   3.901
10273SOL     OW31717   2.992   4.804   4.627
10273SOL    HW131718   2.907   4.800   4.574
10273SOL    HW231719   2.971   4.791   4.724
10274SOL     OW31720   0.681   5.161   5.665
10274SOL    HW131721   0.656   5.065   5.650
10274SOL    HW231722   0.765   5.165   5.720
10275SOL     OW31723   0.116   0.636   2.678
10275SOL    HW131724   0.028   0.588   2.682
10275SOL    HW231725   0.125   0.696   2.757
10276SOL     OW31726   4.643   5.768   5.550
10276SOL    HW131727   4.736   5.735   5.564
10276SOL    HW231728   4.617   5.827   5.627
10277SOL     OW31729   0.941   0.122   4.405
10277SOL    HW131730   0.873   0.097   4.475
10277SOL    HW231731   0.912   0.086   4.316
10278SOL     OW31732   0.210   0.679   4.647
10278SOL    HW131733   0.213   0.651   4.551
10278SOL    HW231734   0.202   0.598   4.705
10279SOL     OW31735   2.804   5.623   4.057
10279SOL    HW131736   2.796   5.659   4.150
10279SOL    HW231737   2.728   5.656   4.001
10280SOL     OW31738   5.289   3.517   0.106
10280SOL    HW131739   5.266   3.568   0.189
10280SOL    HW231740   5.333   3.579   0.040
10281SOL     OW31741   0.164   2.475   3.279
10281SOL    HW131742   0.215   2.496   3.362
10281SOL    HW231743   0.157   2.558   3.223
10282SOL     OW31744   4.833   3.156   3.247
10282SOL    HW131745   4.747   3.111   3.221
10282SOL    HW231746   4.908   3.090   3.238
10283SOL     OW31747   0.784   3.335   0.490
10283SOL    HW131748   0.804   3.336   0.588
10283SOL    HW231749   0.792   3.241   0.455
10284SOL     OW31750   6.513   2.143   4.029
10284SOL    HW131751   6.520   2.193   3.943
10284SOL    HW231752   6.603   2.139   4.073
10285SOL     OW31753   4.070   7.004   3.111
10285SOL    HW131754   4.071   6.926   3.049
10285SOL    HW231755   4.019   6.980   3.194
10286SOL     OW31756   3.382   0.685   3.851
10286SOL    HW131757   3.326   0.603   3.839
10286SOL    HW231758   3.478   0.663   3.835
10287SOL     OW31759   1.846   5.696   2.124
10287SOL    HW131760   1.846   5.751   2.040
10287SOL    HW231761   1.930   5.643   2.129
10288SOL     OW31762   3.572   6.930   4.668
10288SOL    HW131763   3.607   6.982   4.746
10288SOL    HW231764   3.580   6.832   4.687
10289SOL     OW31765   3.186   5.550   0.914
10289SOL    HW131766   3.176   5.649   0.904
10289SOL    HW231767   3.271   5.530   0.964
10290SOL     OW31768   2.971   3.484   2.396
10290SOL    HW131769   2.992   3.386   2.397
10290SOL    HW231770   2.932   3.511   2.484
10291SOL     OW31771   3.706   1.387   3.215
10291SOL    HW131772   3.774   1.459   3.213
10291SOL    HW231773   3.720   1.330   3.296
10292SOL     OW31774   0.301   1.353   6.162
10292SOL    HW131775   0.353   1.280   6.205
10292SOL    HW231776   0.248   1.316   6.086
10293SOL     OW31777   0.476   3.235   3.519
10293SOL    HW131778   0.404   3.288   3.474
10293SOL    HW231779   0.562   3.284   3.514
10294SOL     OW31780   3.948   1.837   2.955
10294SOL    HW131781   3.906   1.925   2.976
10294SOL    HW231782   4.008   1.846   2.876
10295SOL     OW31783   0.913   2.415   6.192
10295SOL    HW131784   0.929   2.514   6.198
10295SOL    HW231785   0.821   2.399   6.156
10296SOL     OW31786   5.605   1.257   5.995
10296SOL    HW131787   5.631   1.353   5.983
10296SOL    HW231788   5.586   1.240   6.092
10297SOL     OW31789   2.264   1.473   0.201
10297SOL    HW131790   2.173   1.444   0.231
10297SOL    HW231791   2.275   1.571   0.216
10298SOL     OW31792   1.675   4.594   2.051
10298SOL    HW131793   1.605   4.656   2.016
10298SOL    HW231794   1.639   4.545   2.131
10299SOL     OW31795   4.345   6.492   2.306
10299SOL    HW131796   4.318   6.470   2.212
10299SOL    HW231797   4.287   6.566   2.341
10300SOL     OW31798   1.355   4.225   1.585
10300SOL    HW131799   1.289   4.219   1.510
10300SOL    HW231800   1.415   4.145   1.583
10301SOL     OW31801   4.375   1.527   4.989
10301SOL    HW131802   4.378   1.432   4.958
10301SOL    HW231803   4.355   1.529   5.087
10302SOL     OW31804   2.370   6.311   3.665
10302SOL    HW131805   2.317   6.298   3.582
10302SOL    HW231806   2.372   6.225   3.717
10303SOL     OW31807   0.967   5.804   3.841
10303SOL    HW131808   0.876   5.838   3.818
10303SOL    HW231809   1.032   5.837   3.772
10304SOL     OW31810   6.128   0.116   1.106
10304SOL    HW131811   6.031   0.123   1.082
10304SOL    HW231812   6.172   0.205   1.096
10305SOL     OW31813   3.051   4.230   5.970
10305SOL    HW131814   2.954   4.205   5.968
10305SOL    HW231815   3.088   4.226   5.877
10306SOL     OW31816   5.072   6.161   0.609
10306SOL    HW131817   5.159   6.164   0.560
10306SOL    HW231818   5.080   6.212   0.695
10307SOL     OW31819   2.921   1.861   4.851
10307SOL    HW131820   2.870   1.786   4.892
10307SOL    HW231821   2.861   1.941   4.842
10308SOL     OW31822   2.279   4.142   2.330
10308SOL    HW131823   2.305   4.052   2.363
10308SOL    HW231824   2.249   4.136   2.235
10309SOL     OW31825   6.202   1.177   6.415
10309SOL    HW131826   6.178   1.127   6.498
10309SOL    HW231827   6.208   1.113   6.338
10310SOL     OW31828   3.222   3.799   6.810
10310SOL    HW131829   3.130   3.836   6.817
10310SOL    HW231830   3.287   3.865   6.849
10311SOL     OW31831   6.419   5.489   0.186
10311SOL    HW131832   6.397   5.399   0.224
10311SOL    HW231833   6.461   5.546   0.256
10312SOL     OW31834   4.801   0.326   2.647
10312SOL    HW131835   4.769   0.288   2.734
10312SOL    HW231836   4.864   0.262   2.604
10313SOL     OW31837   3.920   5.860   2.913
10313SOL    HW131838   3.858   5.817   2.978
10313SOL    HW231839   3.959   5.791   2.852
10314SOL     OW31840   0.138   0.442   0.502
10314SOL    HW131841   0.145   0.362   0.561
10314SOL    HW231842   0.183   0.423   0.415
10315SOL     OW31843   5.383   6.961   4.118
10315SOL    HW131844   5.427   6.945   4.206
10315SOL    HW231845   5.338   0.028   4.118
10316SOL     OW31846   6.318   2.618   5.975
10316SOL    HW131847   6.328   2.710   6.015
10316SOL    HW231848   6.409   2.579   5.960
10317SOL     OW31849   3.772   6.017   6.177
10317SOL    HW131850   3.872   6.010   6.183
10317SOL    HW231851   3.740   6.088   6.239
10318SOL     OW31852   5.004   0.999   6.202
10318SOL    HW131853   4.993   1.061   6.280
10318SOL    HW231854   4.974   0.907   6.229
10319SOL     OW31855   0.836   4.604   5.268
10319SOL    HW131856   0.889   4.688   5.274
10319SOL    HW231857   0.898   4.525   5.272
10320SOL     OW31858   0.407   6.025   2.964
10320SOL    HW131859   0.359   6.060   2.883
10320SOL    HW231860   0.341   6.011   3.038
10321SOL     OW31861   5.866   1.956   2.276
10321SOL    HW131862   5.866   1.857   2.290
10321SOL    HW231863   5.793   1.997   2.330
10322SOL     OW31864   4.215   5.246   5.264
10322SOL    HW131865   4.276   5.167   5.273
10322SOL    HW231866   4.150   5.246   5.340
10323SOL     OW31867   6.502   4.984   4.803
10323SOL    HW131868   6.434   5.043   4.847
10323SOL    HW231869   6.589   4.993   4.851
10324SOL     OW31870   3.233   3.329   2.937
10324SOL    HW131871   3.256   3.309   2.842
10324SOL    HW231872   3.148   3.282   2.962
10325SOL     OW31873   0.390   4.767   2.633
10325SOL    HW131874   0.362   4.860   2.658
10325SOL    HW231875   0.483   4.769   2.598
10326SOL     OW31876   5.756   3.996   6.779
10326SOL    HW131877   5.836   3.962   6.730
10326SOL    HW231878   5.785   4.061   6.849
10327SOL     OW31879   2.340   3.236   1.710
10327SOL    HW131880   2.338   3.298   1.788
10327SOL    HW231881   2.429   3.190   1.704
10328SOL     OW31882   6.298   2.632   1.725
10328SOL    HW131883   6.291   2.591   1.634
10328SOL    HW231884   6.227   2.701   1.736
10329SOL     OW31885   2.996   0.945   3.143
10329SOL    HW131886   2.923   0.927   3.078
10329SOL    HW231887   3.067   1.001   3.099
10330SOL     OW31888   4.063   0.445   1.892
10330SOL    HW131889   4.150   0.461   1.844
10330SOL    HW231890   4.079   0.388   1.973
10331SOL     OW31891   6.294   6.179   6.519
10331SOL    HW131892   6.223   6.109   6.523
10331SOL    HW231893   6.357   6.167   6.596
10332SOL     OW31894   0.724   0.125   6.504
10332SOL    HW131895   0.789   0.199   6.521
10332SOL    HW231896   0.750   0.045   6.559
10333SOL     OW31897   0.171   6.077   4.707
10333SOL    HW131898   0.241   6.083   4.778
10333SOL    HW231899   0.171   6.160   4.652
10334SOL     OW31900   3.277   0.302   4.132
10334SOL    HW131901   3.233   0.218   4.099
10334SOL    HW231902   3.344   0.333   4.066
10335SOL     OW31903   1.695   4.552   6.714
10335SOL    HW131904   1.642   4.620   6.765
10335SOL    HW231905   1.692   4.465   6.764
10336SOL     OW31906   6.479   0.044   2.080
10336SOL    HW131907   6.482   0.141   2.102
10336SOL    HW231908   6.564   0.017   2.035
10337SOL     OW31909   0.401   5.673   6.419
10337SOL    HW131910   0.460   5.630   6.487
10337SOL    HW231911   0.333   5.607   6.387
10338SOL     OW31912   1.569   6.449   2.220
10338SOL    HW131913   1.509   6.410   2.149
10338SOL    HW231914   1.515   6.507   2.280
10339SOL     OW31915   6.178   3.355   6.054
10339SOL    HW131916   6.118   3.387   5.981
10339SOL    HW231917   6.140   3.381   6.142
10340SOL     OW31918   1.890   2.759   6.814
10340SOL    HW131919   1.909   2.782   6.718
10340SOL    HW231920   1.800   2.795   6.839
10341SOL     OW31921   2.092   3.358   2.214
10341SOL    HW131922   1.999   3.389   2.233
10341SOL    HW231923   2.133   3.418   2.145
10342SOL     OW31924   1.497   0.413   3.505
10342SOL    HW131925   1.468   0.385   3.597
10342SOL    HW231926   1.588   0.452   3.509
10343SOL     OW31927   2.584   5.341   0.695
10343SOL    HW131928   2.614   5.303   0.783
10343SOL    HW231929   2.565   5.439   0.705
10344SOL     OW31930   3.879   4.072   0.377
10344SOL    HW131931   3.827   4.152   0.406
10344SOL    HW231932   3.925   4.031   0.456
10345SOL     OW31933   1.796   3.148   5.621
10345SOL    HW131934   1.780   3.191   5.709
10345SOL    HW231935   1.815   3.051   5.633
10346SOL     OW31936   0.047   5.464   1.357
10346SOL    HW131937   0.139   5.426   1.361
10346SOL    HW231938   0.025   5.489   1.263
10347SOL     OW31939   4.630   1.039   3.188
10347SOL    HW131940   4.559   1.084   3.133
10347SOL    HW231941   4.676   0.970   3.132
10348SOL     OW31942   6.018   2.619   0.331
10348SOL    HW131943   6.029   2.614   0.232
10348SOL    HW231944   5.956   2.694   0.355
10349SOL     OW31945   0.559   0.682   6.693
10349SOL    HW131946   0.615   0.737   6.755
10349SOL    HW231947   0.485   0.639   6.744
10350SOL     OW31948   2.807   5.459   5.128
10350SOL    HW131949   2.814   5.359   5.137
10350SOL    HW231950   2.724   5.482   5.078
10351SOL     OW31951   4.849   5.282   7.002
10351SOL    HW131952   4.844   5.247   6.908
10351SOL    HW231953   4.935   5.251   0.022
10352SOL     OW31954   3.387   0.755   6.611
10352SOL    HW131955   3.425   0.681   6.666
10352SOL    HW231956   3.417   0.843   6.648
10353SOL     OW31957   6.717   2.921   4.623
10353SOL    HW131958   6.660   2.839   4.619
10353SOL    HW231959   6.710   2.970   4.536
10354SOL     OW31960   5.816   0.772   1.430
10354SOL    HW131961   5.728   0.724   1.428
10354SOL    HW231962   5.801   0.870   1.415
10355SOL     OW31963   2.487   6.106   1.954
10355SOL    HW131964   2.470   6.204   1.942
10355SOL    HW231965   2.471   6.059   1.867
10356SOL     OW31966   0.086   4.297   6.319
10356SOL    HW131967   0.037   4.340   6.243
10356SOL    HW231968   0.021   4.250   6.378
10357SOL     OW31969   2.433   2.401   6.430
10357SOL    HW131970   2.401   2.457   6.354
10357SOL    HW231971   2.518   2.356   6.405
10358SOL     OW31972   6.766   2.694   2.896
10358SOL    HW131973   6.764   2.602   2.857
10358SOL    HW231974   6.787   2.689   2.994
10359SOL     OW31975   0.569   1.493   0.965
10359SOL    HW131976   0.657   1.539   0.976
10359SOL    HW231977   0.563   1.415   1.027
10360SOL     OW31978   4.331   5.067   3.057
10360SOL    HW131979   4.381   4.984   3.034
10360SOL    HW231980   4.236   5.058   3.027
10361SOL     OW31981   2.533   5.825   2.655
10361SOL    HW131982   2.492   5.756   2.714
10361SOL    HW231983   2.622   5.852   2.693
10362SOL     OW31984   1.756   4.860   4.826
10362SOL    HW131985   1.836   4.867   4.885
10362SOL    HW231986   1.763   4.926   4.751
10363SOL     OW31987   4.523   1.026   3.431
10363SOL    HW131988   4.453   1.095   3.447
10363SOL    HW231989   4.544   1.022   3.333
10364SOL     OW31990   2.847   3.763   1.383
10364SOL    HW131991   2.861   3.792   1.478
10364SOL    HW231992   2.860   3.841   1.322
10365SOL     OW31993   4.252   5.810   0.395
10365SOL    HW131994   4.240   5.783   0.491
10365SOL    HW231995   4.348   5.834   0.379
10366SOL     OW31996   2.952   0.045   3.835
10366SOL    HW131997   2.908   0.134   3.831
10366SOL    HW231998   2.911   7.006   3.767
10367SOL     OW31999   5.789   1.912   2.729
10367SOL    HW132000   5.729   1.836   2.755
10367SOL    HW232001   5.775   1.934   2.633
10368SOL     OW32002   2.981   0.949   1.565
10368SOL    HW132003   3.024   0.929   1.653
10368SOL    HW232004   2.914   0.877   1.544
10369SOL     OW32005   4.005   1.151   0.862
10369SOL    HW132006   4.016   1.058   0.897
10369SOL    HW232007   4.037   1.155   0.768
10370SOL     OW32008   4.454   0.673   5.190
10370SOL    HW132009   4.511   0.755   5.198
10370SOL    HW232010   4.442   0.651   5.093
10371SOL     OW32011   3.200   5.647   5.643
10371SOL    HW132012   3.114   5.689   5.616
10371SOL    HW232013   3.268   5.718   5.662
10372SOL     OW32014   2.680   0.900   4.748
10372SOL    HW132015   2.641   0.930   4.834
10372SOL    HW232016   2.779   0.885   4.759
10373SOL     OW32017   1.671   6.820   4.690
10373SOL    HW132018   1.657   6.837   4.592
10373SOL    HW232019   1.647   6.725   4.710
10374SOL     OW32020   2.728   1.931   3.530
10374SOL    HW132021   2.666   1.979   3.591
10374SOL    HW232022   2.807   1.899   3.581
10375SOL     OW32023   5.076   2.226   0.261
10375SOL    HW132024   5.167   2.242   0.300
10375SOL    HW232025   5.071   2.267   0.170
10376SOL     OW32026   0.821   1.088   4.126
10376SOL    HW132027   0.818   1.143   4.042
10376SOL    HW232028   0.875   1.006   4.109
10377SOL     OW32029   0.288   0.217   3.522
10377SOL    HW132030   0.244   0.304   3.542
10377SOL    HW232031   0.264   0.150   3.593
10378SOL     OW32032   6.903   0.616   5.925
10378SOL    HW132033   6.831   0.685   5.919
10378SOL    HW232034   6.882   0.540   5.863
10379SOL     OW32035   5.472   0.251   5.531
10379SOL    HW132036   5.443   0.326   5.589
10379SOL    HW232037   5.526   0.286   5.454
10380SOL     OW32038   5.807   0.628   2.541
10380SOL    HW132039   5.732   0.675   2.496
10380SOL    HW232040   5.773   0.544   2.583
10381SOL     OW32041   4.641   5.494   6.049
10381SOL    HW132042   4.581   5.568   6.019
10381SOL    HW232043   4.731   5.531   6.073
10382SOL     OW32044   2.581   5.420   5.906
10382SOL    HW132045   2.651   5.386   5.843
10382SOL    HW232046   2.493   5.419   5.860
10383SOL     OW32047   1.570   3.478   0.653
10383SOL    HW132048   1.573   3.388   0.609
10383SOL    HW232049   1.548   3.548   0.585
10384SOL     OW32050   6.945   6.997   1.163
10384SOL    HW132051   7.002   6.915   1.164
10384SOL    HW232052   6.930   0.006   1.256
10385SOL     OW32053   6.094   0.255   6.285
10385SOL    HW132054   6.073   0.161   6.311
10385SOL    HW232055   6.095   0.262   6.185
10386SOL     OW32056   6.532   3.413   5.013
10386SOL    HW132057   6.478   3.374   4.939
10386SOL    HW232058   6.529   3.351   5.092
10387SOL     OW32059   2.291   2.247   2.925
10387SOL    HW132060   2.260   2.293   3.008
10387SOL    HW232061   2.225   2.263   2.852
10388SOL     OW32062   1.151   4.879   3.145
10388SOL    HW132063   1.236   4.930   3.127
10388SOL    HW232064   1.088   4.937   3.196
10389SOL     OW32065   1.222   5.085   3.700
10389SOL    HW132066   1.257   5.000   3.661
10389SOL    HW232067   1.299   5.143   3.727
10390SOL     OW32068   1.791   3.528   3.110
10390SOL    HW132069   1.887   3.512   3.087
10390SOL    HW232070   1.777   3.515   3.208
10391SOL     OW32071   1.425   6.142   6.568
10391SOL    HW132072   1.522   6.164   6.580
10391SOL    HW232073   1.403   6.059   6.620
10392SOL     OW32074   5.797   4.864   0.250
10392SOL    HW132075   5.863   4.845   0.322
10392SOL    HW232076   5.806   4.795   0.178
10393SOL     OW32077   0.833   1.350   3.997
10393SOL    HW132078   0.784   1.421   4.046
10393SOL    HW232079   0.869   1.387   3.911
10394SOL     OW32080   2.276   6.511   6.856
10394SOL    HW132081   2.314   6.451   6.927
10394SOL    HW232082   2.351   6.545   6.798
10395SOL     OW32083   6.937   1.103   4.167
10395SOL    HW132084   6.850   1.054   4.170
10395SOL    HW232085   6.924   1.193   4.125
10396SOL     OW32086   0.479   0.064   4.054
10396SOL    HW132087   0.485   6.988   4.037
10396SOL    HW232088   0.404   0.082   4.118
10397SOL     OW32089   3.851   0.811   3.403
10397SOL    HW132090   3.796   0.745   3.353
10397SOL    HW232091   3.862   0.894   3.348
10398SOL     OW32092   6.602   3.025   1.334
10398SOL    HW132093   6.532   3.067   1.392
10398SOL    HW232094   6.653   3.097   1.286
10399SOL     OW32095   4.705   2.346   5.508
10399SOL    HW132096   4.678   2.442   5.499
10399SOL    HW232097   4.655   2.291   5.441
10400SOL     OW32098   2.564   5.397   2.597
10400SOL    HW132099   2.582   5.491   2.568
10400SOL    HW232100   2.539   5.397   2.694
10401SOL     OW32101   6.746   5.908   2.267
10401SOL    HW132102   6.780   5.996   2.233
10401SOL    HW232103   6.818   5.862   2.319
10402SOL     OW32104   1.157   3.602   5.030
10402SOL    HW132105   1.097   3.532   4.991
10402SOL    HW232106   1.103   3.682   5.056
10403SOL     OW32107   5.521   1.645   2.108
10403SOL    HW132108   5.494   1.595   2.026
10403SOL    HW232109   5.515   1.744   2.089
10404SOL     OW32110   0.612   6.435   4.235
10404SOL    HW132111   0.640   6.341   4.216
10404SOL    HW232112   0.692   6.494   4.238
10405SOL     OW32113   2.060   6.583   5.604
10405SOL    HW132114   1.979   6.596   5.661
10405SOL    HW232115   2.142   6.595   5.660
10406SOL     OW32116   2.684   4.502   6.125
10406SOL    HW132117   2.774   4.463   6.143
10406SOL    HW232118   2.638   4.449   6.054
10407SOL     OW32119   1.033   1.881   6.067
10407SOL    HW132120   1.072   1.824   5.995
10407SOL    HW232121   1.023   1.974   6.034
10408SOL     OW32122   4.790   4.608   3.350
10408SOL    HW132123   4.723   4.680   3.330
10408SOL    HW232124   4.870   4.620   3.291
10409SOL     OW32125   0.447   3.678   1.944
10409SOL    HW132126   0.531   3.671   1.890
10409SOL    HW232127   0.450   3.760   2.000
10410SOL     OW32128   4.813   0.886   1.106
10410SOL    HW132129   4.814   0.787   1.091
10410SOL    HW232130   4.898   0.914   1.148
10411SOL     OW32131   2.098   4.572   2.858
10411SOL    HW132132   2.058   4.594   2.769
10411SOL    HW232133   2.129   4.657   2.903
10412SOL     OW32134   1.638   2.294   0.113
10412SOL    HW132135   1.633   2.199   0.083
10412SOL    HW232136   1.723   2.335   0.080
10413SOL     OW32137   0.391   2.164   6.716
10413SOL    HW132138   0.453   2.238   6.741
10413SOL    HW232139   0.336   2.138   6.795
10414SOL     OW32140   5.514   6.649   6.681
10414SOL    HW132141   5.542   6.559   6.648
10414SOL    HW232142   5.580   6.718   6.652
10415SOL     OW32143   0.268   5.920   3.450
10415SOL    HW132144   0.303   5.827   3.457
10415SOL    HW232145   0.206   5.927   3.371
10416SOL     OW32146   6.038   2.147   4.500
10416SOL    HW132147   6.099   2.075   4.530
10416SOL    HW232148   6.087   2.210   4.440
10417SOL     OW32149   3.950   5.052   3.416
10417SOL    HW132150   3.854   5.073   3.396
10417SOL    HW232151   3.974   5.090   3.505
10418SOL     OW32152   6.847   4.043   6.725
10418SOL    HW132153   6.840   3.945   6.711
10418SOL    HW232154   6.832   4.064   6.822
10419SOL     OW32155   3.509   0.869   5.008
10419SOL    HW132156   3.433   0.928   5.035
10419SOL    HW232157   3.536   0.890   4.914
10420SOL     OW32158   6.884   3.150   3.343
10420SOL    HW132159   6.917   3.136   3.436
10420SOL    HW232160   6.864   3.062   3.300
10421SOL     OW32161   1.289   4.709   3.958
10421SOL    HW132162   1.322   4.616   3.941
10421SOL    HW232163   1.221   4.707   4.032
10422SOL     OW32164   6.536   3.633   4.698
10422SOL    HW132165   6.534   3.697   4.775
10422SOL    HW232166   6.568   3.681   4.616
10423SOL     OW32167   3.559   4.936   3.876
10423SOL    HW132168   3.513   4.922   3.964
10423SOL    HW232169   3.492   4.932   3.802
10424SOL     OW32170   3.542   0.747   6.944
10424SOL    HW132171   3.634   0.773   6.914
10424SOL    HW232172   3.523   0.653   6.917
10425SOL     OW32173   1.834   1.017   0.945
10425SOL    HW132174   1.902   1.045   1.012
10425SOL    HW232175   1.834   1.082   0.868
10426SOL     OW32176   5.343   2.595   5.911
10426SOL    HW132177   5.299   2.517   5.868
10426SOL    HW232178   5.428   2.617   5.862
10427SOL     OW32179   6.022   6.807   4.744
10427SOL    HW132180   6.031   6.797   4.843
10427SOL    HW232181   5.977   6.894   4.723
10428SOL     OW32182   1.908   0.681   3.426
10428SOL    HW132183   1.989   0.642   3.383
10428SOL    HW232184   1.895   0.775   3.395
10429SOL     OW32185   1.007   2.973   2.663
10429SOL    HW132186   0.927   2.921   2.692
10429SOL    HW232187   1.090   2.924   2.690
10430SOL     OW32188   3.260   0.290   3.564
10430SOL    HW132189   3.263   0.203   3.614
10430SOL    HW232190   3.325   0.288   3.488
10431SOL     OW32191   2.946   1.687   3.909
10431SOL    HW132192   2.848   1.668   3.920
10431SOL    HW232193   2.998   1.635   3.977
10432SOL     OW32194   0.453   6.374   5.735
10432SOL    HW132195   0.450   6.466   5.693
10432SOL    HW232196   0.485   6.382   5.829
10433SOL     OW32197   1.647   6.970   2.146
10433SOL    HW132198   1.587   6.903   2.189
10433SOL    HW232199   1.697   6.926   2.071
10434SOL     OW32200   4.191   6.346   5.504
10434SOL    HW132201   4.124   6.286   5.548
10434SOL    HW232202   4.253   6.384   5.572
10435SOL     OW32203   1.449   2.480   6.622
10435SOL    HW132204   1.482   2.568   6.588
10435SOL    HW232205   1.409   2.492   6.712
10436SOL     OW32206   0.133   4.698   5.053
10436SOL    HW132207   0.109   4.604   5.075
10436SOL    HW232208   0.231   4.713   5.070
10437SOL     OW32209   5.321   5.334   5.348
10437SOL    HW132210   5.414   5.331   5.385
10437SOL    HW232211   5.324   5.365   5.253
10438SOL     OW32212   6.774   5.943   6.327
10438SOL    HW132213   6.865   5.978   6.306
10438SOL    HW232214   6.753   5.867   6.266
10439SOL     OW32215   6.640   6.598   4.670
10439SOL    HW132216   6.690   6.632   4.750
10439SOL    HW232217   6.593   6.675   4.625
10440SOL     OW32218   0.109   2.144   6.280
10440SOL    HW132219   0.047   2.085   6.332
10440SOL    HW232220   0.098   2.238   6.312
10441SOL     OW32221   3.658   2.201   1.214
10441SOL    HW132222   3.602   2.119   1.201
10441SOL    HW232223   3.652   2.260   1.134
10442SOL     OW32224   2.234   1.603   5.339
10442SOL    HW132225   2.302   1.633   5.272
10442SOL    HW232226   2.154   1.663   5.334
10443SOL     OW32227   0.532   1.346   3.029
10443SOL    HW132228   0.511   1.439   2.998
10443SOL    HW232229   0.553   1.348   3.127
10444SOL     OW32230   4.273   5.435   4.587
10444SOL    HW132231   4.223   5.506   4.636
10444SOL    HW232232   4.289   5.464   4.493
10445SOL     OW32233   1.853   3.946   2.730
10445SOL    HW132234   1.822   3.858   2.766
10445SOL    HW232235   1.863   4.011   2.806
10446SOL     OW32236   1.713   4.538   5.676
10446SOL    HW132237   1.727   4.457   5.618
10446SOL    HW232238   1.639   4.593   5.640
10447SOL     OW32239   0.216   1.833   2.885
10447SOL    HW132240   0.170   1.879   2.808
10447SOL    HW232241   0.307   1.872   2.897
10448SOL     OW32242   2.982   6.051   2.948
10448SOL    HW132243   3.012   5.984   3.016
10448SOL    HW232244   2.883   6.045   2.936
10449SOL     OW32245   3.888   5.660   5.999
10449SOL    HW132246   3.988   5.650   5.997
10449SOL    HW232247   3.864   5.755   5.976
10450SOL     OW32248   0.027   0.472   6.323
10450SOL    HW132249   0.090   0.547   6.343
10450SOL    HW232250   6.959   0.491   6.364
10451SOL     OW32251   2.200   0.710   3.183
10451SOL    HW132252   2.231   0.713   3.278
10451SOL    HW232253   2.188   0.615   3.155
10452SOL     OW32254   6.944   3.745   4.248
10452SOL    HW132255   6.973   3.676   4.182
10452SOL    HW232256   6.995   3.734   4.333
10453SOL     OW32257   4.378   5.549   3.158
10453SOL    HW132258   4.284   5.564   3.126
10453SOL    HW232259   4.391   5.451   3.175
10454SOL     OW32260   6.426   0.733   5.709
10454SOL    HW132261   6.340   0.738   5.761
10454SOL    HW232262   6.463   0.641   5.715
10455SOL     OW32263   5.839   6.603   4.213
10455SOL    HW132264   5.757   6.635   4.165
10455SOL    HW232265   5.815   6.529   4.276
10456SOL     OW32266   0.342   5.393   7.007
10456SOL    HW132267   0.441   5.397   6.993
10456SOL    HW232268   0.322   5.369   0.080
10457SOL     OW32269   3.604   2.627   6.962
10457SOL    HW132270   3.661   2.674   6.896
10457SOL    HW232271   3.511   2.618   6.926
10458SOL     OW32272   6.989   6.011   6.629
10458SOL    HW132273   0.008   6.028   6.718
10458SOL    HW232274   7.010   5.917   6.600
10459SOL     OW32275   0.183   5.301   0.675
10459SOL    HW132276   0.098   5.260   0.709
10459SOL    HW232277   0.176   5.401   0.678
10460SOL     OW32278   0.629   2.725   0.184
10460SOL    HW132279   0.607   2.637   0.141
10460SOL    HW232280   0.544   2.768   0.215
10461SOL     OW32281   0.303   5.887   5.129
10461SOL    HW132282   0.234   5.899   5.200
10461SOL    HW232283   0.388   5.856   5.170
10462SOL     OW32284   4.053   1.771   0.655
10462SOL    HW132285   4.041   1.700   0.585
10462SOL    HW232286   3.987   1.844   0.640
10463SOL     OW32287   4.955   3.006   6.114
10463SOL    HW132288   4.944   2.944   6.036
10463SOL    HW232289   4.884   3.076   6.112
10464SOL     OW32290   6.166   5.052   2.883
10464SOL    HW132291   6.259   5.021   2.904
10464SOL    HW232292   6.109   5.042   2.965
10465SOL     OW32293   5.925   3.938   2.345
10465SOL    HW132294   5.853   3.941   2.414
10465SOL    HW232295   5.907   4.008   2.275
10466SOL     OW32296   6.023   4.713   6.249
10466SOL    HW132297   5.940   4.732   6.301
10466SOL    HW232298   6.082   4.793   6.250
10467SOL     OW32299   1.636   3.024   0.104
10467SOL    HW132300   1.615   3.086   0.179
10467SOL    HW232301   1.712   3.061   0.050
10468SOL     OW32302   2.869   4.789   3.933
10468SOL    HW132303   2.942   4.797   4.001
10468SOL    HW232304   2.795   4.732   3.969
10469SOL     OW32305   6.210   1.594   5.127
10469SOL    HW132306   6.273   1.661   5.089
10469SOL    HW232307   6.158   1.550   5.054
10470SOL     OW32308   2.433   2.345   3.896
10470SOL    HW132309   2.351   2.374   3.947
10470SOL    HW232310   2.430   2.383   3.803
10471SOL     OW32311   2.708   6.837   0.707
10471SOL    HW132312   2.695   6.750   0.754
10471SOL    HW232313   2.800   6.872   0.726
10472SOL     OW32314   3.107   5.271   0.272
10472SOL    HW132315   3.109   5.371   0.267
10472SOL    HW232316   3.131   5.232   0.183
10473SOL     OW32317   5.321   4.439   6.774
10473SOL    HW132318   5.296   4.487   6.858
10473SOL    HW232319   5.368   4.503   6.712
10474SOL     OW32320   5.115   1.100   3.949
10474SOL    HW132321   5.066   1.187   3.947
10474SOL    HW232322   5.175   1.094   3.869
10475SOL     OW32323   0.901   6.766   1.576
10475SOL    HW132324   0.983   6.711   1.590
10475SOL    HW232325   0.926   6.851   1.530
10476SOL     OW32326   3.772   6.214   0.206
10476SOL    HW132327   3.702   6.153   0.170
10476SOL    HW232328   3.808   6.178   0.292
10477SOL     OW32329   6.283   6.483   4.000
10477SOL    HW132330   6.341   6.433   4.064
10477SOL    HW232331   6.259   6.572   4.039
10478SOL     OW32332   6.386   0.221   0.060
10478SOL    HW132333   6.394   0.149   0.129
10478SOL    HW232334   6.377   0.180   6.991
10479SOL     OW32335   0.145   1.832   2.426
10479SOL    HW132336   0.100   1.745   2.405
10479SOL    HW232337   0.235   1.834   2.383
10480SOL     OW32338   1.803   0.148   2.225
10480SOL    HW132339   1.743   0.077   2.188
10480SOL    HW232340   1.844   0.116   2.311
10481SOL     OW32341   0.342   0.503   2.968
10481SOL    HW132342   0.354   0.602   2.954
10481SOL    HW232343   0.298   0.487   3.056
10482SOL     OW32344   5.210   3.553   3.827
10482SOL    HW132345   5.252   3.590   3.744
10482SOL    HW232346   5.120   3.595   3.840
10483SOL     OW32347   6.310   5.216   0.685
10483SOL    HW132348   6.261   5.140   0.642
10483SOL    HW232349   6.390   5.239   0.631
10484SOL     OW32350   6.498   1.164   1.312
10484SOL    HW132351   6.484   1.128   1.404
10484SOL    HW232352   6.432   1.123   1.249
10485SOL     OW32353   5.284   3.606   5.729
10485SOL    HW132354   5.336   3.555   5.661
10485SOL    HW232355   5.301   3.569   5.820
10486SOL     OW32356   5.995   2.602   0.941
10486SOL    HW132357   5.906   2.646   0.931
10486SOL    HW232358   6.063   2.670   0.969
10487SOL     OW32359   6.110   6.604   1.344
10487SOL    HW132360   6.195   6.654   1.357
10487SOL    HW232361   6.062   6.597   1.432
10488SOL     OW32362   2.979   3.070   6.854
10488SOL    HW132363   3.034   3.018   6.919
10488SOL    HW232364   2.896   3.019   6.832
10489SOL     OW32365   6.916   5.731   6.535
10489SOL    HW132366   6.931   5.792   6.458
10489SOL    HW232367   6.995   5.669   6.545
10490SOL     OW32368   6.738   1.162   3.395
10490SOL    HW132369   6.759   1.135   3.489
10490SOL    HW232370   6.798   1.114   3.331
10491SOL     OW32371   2.086   4.740   6.225
10491SOL    HW132372   2.038   4.681   6.160
10491SOL    HW232373   2.181   4.751   6.195
10492SOL     OW32374   4.802   3.291   5.235
10492SOL    HW132375   4.768   3.378   5.199
10492SOL    HW232376   4.759   3.271   5.323
10493SOL     OW32377   3.417   1.078   1.784
10493SOL    HW132378   3.387   1.065   1.878
10493SOL    HW232379   3.449   1.172   1.771
10494SOL     OW32380   5.560   2.239   3.777
10494SOL    HW132381   5.576   2.171   3.847
10494SOL    HW232382   5.611   2.322   3.798
10495SOL     OW32383   2.162   6.532   0.681
10495SOL    HW132384   2.241   6.491   0.635
10495SOL    HW232385   2.104   6.460   0.719
10496SOL     OW32386   0.269   6.543   6.877
10496SOL    HW132387   0.177   6.582   6.884
10496SOL    HW232388   0.263   6.451   6.837
10497SOL     OW32389   1.548   0.772   0.838
10497SOL    HW132390   1.491   0.853   0.837
10497SOL    HW232391   1.583   0.755   0.746
10498SOL     OW32392   1.717   6.517   6.100
10498SOL    HW132393   1.794   6.524   6.164
10498SOL    HW232394   1.745   6.465   6.020
10499SOL     OW32395   2.886   5.582   3.278
10499SOL    HW132396   2.879   5.663   3.337
10499SOL    HW232397   2.952   5.518   3.318
10500SOL     OW32398   1.092   2.166   6.058
10500SOL    HW132399   1.082   2.266   6.057
10500SOL    HW232400   1.145   2.138   6.138
10501SOL     OW32401   2.214   3.807   2.781
10501SOL    HW132402   2.163   3.874   2.728
10501SOL    HW232403   2.312   3.817   2.764
10502SOL     OW32404   2.994   6.494   0.518
10502SOL    HW132405   3.080   6.483   0.567
10502SOL    HW232406   2.973   6.592   0.510
10503SOL     OW32407   3.354   3.044   0.493
10503SOL    HW132408   3.425   3.062   0.561
10503SOL    HW232409   3.285   3.117   0.496
10504SOL     OW32410   2.928   3.045   0.370
10504SOL    HW132411   2.956   3.141   0.377
10504SOL    HW232412   2.875   3.033   0.285
10505SOL     OW32413   6.275   6.129   1.202
10505SOL    HW132414   6.228   6.064   1.263
10505SOL    HW232415   6.233   6.219   1.210
10506SOL     OW32416   1.043   3.992   6.166
10506SOL    HW132417   1.006   4.006   6.074
10506SOL    HW232418   1.081   4.079   6.200
10507SOL     OW32419   0.984   0.779   6.355
10507SOL    HW132420   0.939   0.708   6.301
10507SOL    HW232421   1.018   0.850   6.294
10508SOL     OW32422   5.416   5.070   3.799
10508SOL    HW132423   5.379   5.116   3.880
10508SOL    HW232424   5.434   5.137   3.727
10509SOL     OW32425   1.104   6.668   6.858
10509SOL    HW132426   1.060   6.613   6.787
10509SOL    HW232427   1.074   6.638   6.948
10510SOL     OW32428   5.837   5.158   6.914
10510SOL    HW132429   5.854   5.245   6.869
10510SOL    HW232430   5.918   5.129   6.965
10511SOL     OW32431   4.218   3.268   0.502
10511SOL    HW132432   4.179   3.217   0.579
10511SOL    HW232433   4.161   3.348   0.483
10512SOL     OW32434   4.560   0.484   5.977
10512SOL    HW132435   4.540   0.579   6.004
10512SOL    HW232436   4.600   0.483   5.886
10513SOL     OW32437   0.740   2.279   5.771
10513SOL    HW132438   0.662   2.336   5.797
10513SOL    HW232439   0.759   2.214   5.845
10514SOL     OW32440   6.604   4.191   0.228
10514SOL    HW132441   6.558   4.124   0.169
10514SOL    HW232442   6.703   4.174   0.226
10515SOL     OW32443   6.582   1.810   3.185
10515SOL    HW132444   6.568   1.759   3.099
10515SOL    HW232445   6.609   1.903   3.163
10516SOL     OW32446   4.383   0.635   6.266
10516SOL    HW132447   4.459   0.691   6.297
10516SOL    HW232448   4.365   0.653   6.169
10517SOL     OW32449   6.715   1.741   2.604
10517SOL    HW132450   6.726   1.840   2.607
10517SOL    HW232451   6.663   1.715   2.522
10518SOL     OW32452   1.154   6.364   0.512
10518SOL    HW132453   1.227   6.407   0.460
10518SOL    HW232454   1.092   6.317   0.450
10519SOL     OW32455   3.447   3.248   5.583
10519SOL    HW132456   3.440   3.172   5.648
10519SOL    HW232457   3.460   3.211   5.491
10520SOL     OW32458   3.212   2.884   6.691
10520SOL    HW132459   3.286   2.885   6.623
10520SOL    HW232460   3.196   2.977   6.723
10521SOL     OW32461   6.477   6.212   1.595
10521SOL    HW132462   6.496   6.221   1.498
10521SOL    HW232463   6.460   6.116   1.618
10522SOL     OW32464   6.372   0.876   0.745
10522SOL    HW132465   6.462   0.920   0.744
10522SOL    HW232466   6.355   0.835   0.656
10523SOL     OW32467   6.960   5.345   6.305
10523SOL    HW132468   6.986   5.248   6.300
10523SOL    HW232469   6.913   5.363   6.391
10524SOL     OW32470   2.069   0.240   4.275
10524SOL    HW132471   2.097   0.293   4.194
10524SOL    HW232472   1.983   0.194   4.257
10525SOL     OW32473   1.589   6.910   5.049
10525SOL    HW132474   1.556   6.940   4.959
10525SOL    HW232475   1.659   6.840   5.038
10526SOL     OW32476   0.956   1.091   2.646
10526SOL    HW132477   0.954   1.163   2.577
10526SOL    HW232478   0.863   1.072   2.678
10527SOL     OW32479   0.936   2.686   4.637
10527SOL    HW132480   0.887   2.772   4.622
10527SOL    HW232481   0.927   2.660   4.733
10528SOL     OW32482   0.431   5.336   4.787
10528SOL    HW132483   0.430   5.395   4.706
10528SOL    HW232484   0.367   5.372   4.855
10529SOL     OW32485   0.466   6.345   3.645
10529SOL    HW132486   0.502   6.397   3.723
10529SOL    HW232487   0.371   6.372   3.628
10530SOL     OW32488   2.652   2.309   6.308
10530SOL    HW132489   2.722   2.247   6.272
10530SOL    HW232490   2.696   2.378   6.365
10531SOL     OW32491   1.472   3.375   5.001
10531SOL    HW132492   1.460   3.475   4.999
10531SOL    HW232493   1.569   3.353   4.989
10532SOL     OW32494   3.424   2.478   6.708
10532SOL    HW132495   3.450   2.403   6.768
10532SOL    HW232496   3.333   2.463   6.671
10533SOL     OW32497   3.066   1.476   5.064
10533SOL    HW132498   3.145   1.487   5.004
10533SOL    HW232499   3.067   1.548   5.134
10534SOL     OW32500   7.006   6.322   0.694
10534SOL    HW132501   0.045   6.243   0.699
10534SOL    HW232502   7.018   6.367   0.606
10535SOL     OW32503   0.601   1.387   2.640
10535SOL    HW132504   0.644   1.299   2.619
10535SOL    HW232505   0.501   1.378   2.632
10536SOL     OW32506   5.026   0.296   3.094
10536SOL    HW132507   5.090   0.220   3.104
10536SOL    HW232508   5.074   0.382   3.106
10537SOL     OW32509   3.155   5.458   2.899
10537SOL    HW132510   3.205   5.371   2.891
10537SOL    HW232511   3.064   5.440   2.935
10538SOL     OW32512   4.437   3.731   0.061
10538SOL    HW132513   4.451   3.829   0.052
10538SOL    HW232514   4.525   3.684   0.067
10539SOL     OW32515   0.905   3.150   6.100
10539SOL    HW132516   0.961   3.130   6.019
10539SOL    HW232517   0.957   3.210   6.162
10540SOL     OW32518   1.752   1.035   5.748
10540SOL    HW132519   1.678   1.022   5.814
10540SOL    HW232520   1.740   0.973   5.670
10541SOL     OW32521   4.031   3.566   1.114
10541SOL    HW132522   3.941   3.607   1.130
10541SOL    HW232523   4.052   3.503   1.189
10542SOL     OW32524   0.552   2.463   0.295
10542SOL    HW132525   0.594   2.405   0.365
10542SOL    HW232526   0.506   2.540   0.339
10543SOL     OW32527   0.354   2.250   5.881
10543SOL    HW132528   0.402   2.172   5.921
10543SOL    HW232529   0.361   2.245   5.781
10544SOL     OW32530   2.447   1.988   2.483
10544SOL    HW132531   2.379   2.057   2.456
10544SOL    HW232532   2.419   1.899   2.449
10545SOL     OW32533   6.789   0.103   2.593
10545SOL    HW132534   6.861   0.042   2.562
10545SOL    HW232535   6.824   0.163   2.665
10546SOL     OW32536   2.222   0.199   4.518
10546SOL    HW132537   2.198   0.255   4.438
10546SOL    HW232538   2.312   0.226   4.552
10547SOL     OW32539   4.390   1.306   1.893
10547SOL    HW132540   4.360   1.338   1.983
10547SOL    HW232541   4.412   1.385   1.835
10548SOL     OW32542   5.169   3.863   4.469
10548SOL    HW132543   5.094   3.929   4.461
10548SOL    HW232544   5.152   3.802   4.547
10549SOL     OW32545   1.121   0.507   2.562
10549SOL    HW132546   1.148   0.413   2.584
10549SOL    HW232547   1.047   0.505   2.495
10550SOL     OW32548   5.454   0.289   4.311
10550SOL    HW132549   5.366   0.273   4.266
10550SOL    HW232550   5.463   0.386   4.334
10551SOL     OW32551   1.335   2.048   5.330
10551SOL    HW132552   1.328   2.032   5.232
10551SOL    HW232553   1.247   2.079   5.366
10552SOL     OW32554   3.621   2.350   5.559
10552SOL    HW132555   3.645   2.378   5.652
10552SOL    HW232556   3.572   2.424   5.513
10553SOL     OW32557   0.477   5.631   0.608
10553SOL    HW132558   0.483   5.531   0.608
10553SOL    HW232559   0.541   5.669   0.674
10554SOL     OW32560   6.361   4.754   0.285
10554SOL    HW132561   6.438   4.749   0.222
10554SOL    HW232562   6.395   4.760   0.379
10555SOL     OW32563   3.387   1.859   2.016
10555SOL    HW132564   3.472   1.904   2.042
10555SOL    HW232565   3.347   1.906   1.937
10556SOL     OW32566   2.190   3.429   5.066
10556SOL    HW132567   2.162   3.482   4.985
10556SOL    HW232568   2.253   3.484   5.121
10557SOL     OW32569   0.145   2.706   3.115
10557SOL    HW132570   0.209   2.746   3.180
10557SOL    HW232571   0.070   2.770   3.097
10558SOL     OW32572   4.230   6.598   5.373
10558SOL    HW132573   4.199   6.514   5.416
10558SOL    HW232574   4.325   6.587   5.341
10559SOL     OW32575   4.136   2.087   1.042
10559SOL    HW132576   4.084   2.165   1.077
10559SOL    HW232577   4.072   2.015   1.013
10560SOL     OW32578   1.565   4.818   5.221
10560SOL    HW132579   1.522   4.885   5.281
10560SOL    HW232580   1.532   4.831   5.127
10561SOL     OW32581   1.725   5.081   6.915
10561SOL    HW132582   1.765   5.074   7.007
10561SOL    HW232583   1.722   4.991   6.873
10562SOL     OW32584   4.483   0.321   0.929
10562SOL    HW132585   4.580   0.307   0.945
10562SOL    HW232586   4.453   0.265   0.851
10563SOL     OW32587   1.618   1.947   5.196
10563SOL    HW132588   1.606   1.848   5.198
10563SOL    HW232589   1.564   1.988   5.270
10564SOL     OW32590   6.082   1.073   1.757
10564SOL    HW132591   6.137   1.089   1.675
10564SOL    HW232592   6.094   1.150   1.820
10565SOL     OW32593   6.375   0.937   5.524
10565SOL    HW132594   6.389   0.859   5.585
10565SOL    HW232595   6.326   1.009   5.573
10566SOL     OW32596   3.645   4.119   6.315
10566SOL    HW132597   3.592   4.035   6.326
10566SOL    HW232598   3.587   4.198   6.337
10567SOL     OW32599   1.806   3.337   4.722
10567SOL    HW132600   1.775   3.432   4.711
10567SOL    HW232601   1.792   3.309   4.817
10568SOL     OW32602   5.758   1.267   2.173
10568SOL    HW132603   5.849   1.236   2.145
10568SOL    HW232604   5.709   1.303   2.093
10569SOL     OW32605   6.095   3.019   2.651
10569SOL    HW132606   6.084   2.954   2.575
10569SOL    HW232607   6.025   3.090   2.644
10570SOL     OW32608   1.938   4.371   2.483
10570SOL    HW132609   1.941   4.313   2.402
10570SOL    HW232610   1.876   4.332   2.550
10571SOL     OW32611   6.609   5.479   2.913
10571SOL    HW132612   6.550   5.500   2.991
10571SOL    HW232613   6.658   5.394   2.931
10572SOL     OW32614   5.605   3.286   2.553
10572SOL    HW132615   5.569   3.377   2.535
10572SOL    HW232616   5.684   3.268   2.494
10573SOL     OW32617   6.064   5.820   3.713
10573SOL    HW132618   6.047   5.748   3.780
10573SOL    HW232619   6.128   5.786   3.644
10574SOL     OW32620   1.326   1.677   3.735
10574SOL    HW132621   1.392   1.691   3.662
10574SOL    HW232622   1.261   1.606   3.708
10575SOL     OW32623   0.728   0.948   4.489
10575SOL    HW132624   0.765   1.007   4.561
10575SOL    HW232625   0.635   0.977   4.466
10576SOL     OW32626   1.629   5.850   5.317
10576SOL    HW132627   1.640   5.866   5.415
10576SOL    HW232628   1.715   5.817   5.278
10577SOL     OW32629   1.974   2.997   6.167
10577SOL    HW132630   1.874   3.005   6.174
10577SOL    HW232631   2.013   3.088   6.152
10578SOL     OW32632   5.912   0.393   5.156
10578SOL    HW132633   5.907   0.311   5.213
10578SOL    HW232634   5.933   0.367   5.062
10579SOL     OW32635   4.152   1.773   0.917
10579SOL    HW132636   4.059   1.784   0.952
10579SOL    HW232637   4.150   1.772   0.817
10580SOL     OW32638   6.754   6.181   6.598
10580SOL    HW132639   6.663   6.139   6.591
10580SOL    HW232640   6.823   6.110   6.600
10581SOL     OW32641   5.847   0.526   3.358
10581SOL    HW132642   5.943   0.533   3.386
10581SOL    HW232643   5.812   0.618   3.339
10582SOL     OW32644   3.366   5.203   6.837
10582SOL    HW132645   3.328   5.175   6.749
10582SOL    HW232646   3.402   5.296   6.829
10583SOL     OW32647   3.816   0.864   6.878
10583SOL    HW132648   3.872   0.927   6.824
10583SOL    HW232649   3.846   0.866   6.973
10584SOL     OW32650   5.624   6.216   1.345
10584SOL    HW132651   5.668   6.267   1.271
10584SOL    HW232652   5.565   6.278   1.398
10585SOL     OW32653   1.316   3.046   5.774
10585SOL    HW132654   1.384   2.978   5.747
10585SOL    HW232655   1.311   3.117   5.703
10586SOL     OW32656   2.816   5.913   5.883
10586SOL    HW132657   2.795   5.970   5.963
10586SOL    HW232658   2.737   5.858   5.859
10587SOL     OW32659   5.713   3.747   0.264
10587SOL    HW132660   5.776   3.802   0.318
10587SOL    HW232661   5.716   3.652   0.294
10588SOL     OW32662   0.786   4.584   2.488
10588SOL    HW132663   0.749   4.492   2.485
10588SOL    HW232664   0.854   4.596   2.416
10589SOL     OW32665   5.715   2.907   4.403
10589SOL    HW132666   5.666   2.906   4.316
10589SOL    HW232667   5.654   2.941   4.475
10590SOL     OW32668   0.936   0.112   3.062
10590SOL    HW132669   0.949   0.208   3.040
10590SOL    HW232670   0.884   0.068   2.989
10591SOL     OW32671   1.519   1.302   5.944
10591SOL    HW132672   1.423   1.318   5.968
10591SOL    HW232673   1.531   1.319   5.846
10592SOL     OW32674   6.948   1.408   0.069
10592SOL    HW132675   6.941   1.324   0.015
10592SOL    HW232676   6.886   1.403   0.147
10593SOL     OW32677   2.392   5.451   1.922
10593SOL    HW132678   2.412   5.474   1.826
10593SOL    HW232679   2.460   5.385   1.954
10594SOL     OW32680   6.550   1.885   3.898
10594SOL    HW132681   6.469   1.838   3.862
10594SOL    HW232682   6.521   1.965   3.950
10595SOL     OW32683   3.425   6.702   6.265
10595SOL    HW132684   3.520   6.703   6.235
10595SOL    HW232685   3.365   6.707   6.185
10596SOL     OW32686   4.309   6.599   1.957
10596SOL    HW132687   4.288   6.686   2.003
10596SOL    HW232688   4.367   6.617   1.878
10597SOL     OW32689   2.438   1.441   4.666
10597SOL    HW132690   2.512   1.436   4.598
10597SOL    HW232691   2.460   1.510   4.735
10598SOL     OW32692   2.268   2.518   6.988
10598SOL    HW132693   2.300   2.594   0.022
10598SOL    HW232694   2.252   2.550   6.894
10599SOL     OW32695   6.272   1.140   0.382
10599SOL    HW132696   6.233   1.176   0.297
10599SOL    HW232697   6.336   1.208   0.420
10600SOL     OW32698   2.847   2.915   6.308
10600SOL    HW132699   2.926   2.882   6.360
10600SOL    HW232700   2.764   2.898   6.360
10601SOL     OW32701   2.992   6.463   6.429
10601SOL    HW132702   2.971   6.366   6.435
10601SOL    HW232703   3.021   6.486   6.336
10602SOL     OW32704   4.817   1.131   1.620
10602SOL    HW132705   4.825   1.031   1.623
10602SOL    HW232706   4.729   1.159   1.660
10603SOL     OW32707   1.652   5.493   3.645
10603SOL    HW132708   1.722   5.433   3.684
10603SOL    HW232709   1.632   5.568   3.708
10604SOL     OW32710   6.672   4.662   4.554
10604SOL    HW132711   6.758   4.643   4.601
10604SOL    HW232712   6.655   4.760   4.556
10605SOL     OW32713   0.709   5.455   0.489
10605SOL    HW132714   0.802   5.453   0.525
10605SOL    HW232715   0.644   5.438   0.564
10606SOL     OW32716   0.171   0.879   1.741
10606SOL    HW132717   0.102   0.929   1.688
10606SOL    HW232718   0.217   0.812   1.683
10607SOL     OW32719   4.611   4.258   6.651
10607SOL    HW132720   4.593   4.204   6.569
10607SOL    HW232721   4.645   4.348   6.625
10608SOL     OW32722   5.913   1.600   4.127
10608SOL    HW132723   5.918   1.598   4.227
10608SOL    HW232724   5.867   1.517   4.095
10609SOL     OW32725   3.931   6.009   1.029
10609SOL    HW132726   3.907   6.081   1.094
10609SOL    HW232727   4.018   6.031   0.985
10610SOL     OW32728   1.500   3.370   6.214
10610SOL    HW132729   1.431   3.352   6.144
10610SOL    HW232730   1.582   3.408   6.170
10611SOL     OW32731   5.310   2.919   6.306
10611SOL    HW132732   5.301   2.891   6.210
10611SOL    HW232733   5.364   2.850   6.355
10612SOL     OW32734   2.367   6.493   6.261
10612SOL    HW132735   2.332   6.495   6.355
10612SOL    HW232736   2.413   6.579   6.240
10613SOL     OW32737   0.550   6.975   5.034
10613SOL    HW132738   0.451   6.983   5.027
10613SOL    HW232739   0.582   0.002   5.115
10614SOL     OW32740   6.426   0.883   4.283
10614SOL    HW132741   6.515   0.850   4.250
10614SOL    HW232742   6.428   0.982   4.291
10615SOL     OW32743   4.745   5.686   5.074
10615SOL    HW132744   4.700   5.626   5.140
10615SOL    HW232745   4.746   5.643   4.984
10616SOL     OW32746   3.220   5.824   0.862
10616SOL    HW132747   3.205   5.906   0.916
10616SOL    HW232748   3.243   5.849   0.768
10617SOL     OW32749   2.245   2.532   0.323
10617SOL    HW132750   2.308   2.551   0.248
10617SOL    HW232751   2.152   2.525   0.287
10618SOL     OW32752   5.811   2.183   0.177
10618SOL    HW132753   5.741   2.116   0.201
10618SOL    HW232754   5.842   2.230   0.260
10619SOL     OW32755   0.770   4.121   3.227
10619SOL    HW132756   0.862   4.155   3.205
10619SOL    HW232757   0.739   4.058   3.155
10620SOL     OW32758   1.479   6.209   4.751
10620SOL    HW132759   1.494   6.138   4.820
10620SOL    HW232760   1.541   6.194   4.674
10621SOL     OW32761   1.205   5.801   6.484
10621SOL    HW132762   1.117   5.771   6.447
10621SOL    HW232763   1.279   5.760   6.431
10622SOL     OW32764   3.937   6.958   1.822
10622SOL    HW132765   3.866   6.887   1.825
10622SOL    HW232766   3.895   0.024   1.802
10623SOL     OW32767   5.750   2.639   3.532
10623SOL    HW132768   5.808   2.595   3.601
10623SOL    HW232769   5.655   2.635   3.562
10624SOL     OW32770   1.730   1.177   5.138
10624SOL    HW132771   1.758   1.206   5.046
10624SOL    HW232772   1.812   1.156   5.192
10625SOL     OW32773   0.629   3.305   0.101
10625SOL    HW132774   0.574   3.356   0.034
10625SOL    HW232775   0.726   3.323   0.085
10626SOL     OW32776   1.193   2.049   1.753
10626SOL    HW132777   1.215   2.140   1.788
10626SOL    HW232778   1.095   2.030   1.766
10627SOL     OW32779   6.759   6.579   2.366
10627SOL    HW132780   6.855   6.590   2.342
10627SOL    HW232781   6.729   6.655   2.424
10628SOL     OW32782   6.455   5.548   5.484
10628SOL    HW132783   6.480   5.541   5.580
10628SOL    HW232784   6.536   5.531   5.427
10629SOL     OW32785   2.363   4.825   5.745
10629SOL    HW132786   2.275   4.782   5.766
10629SOL    HW232787   2.379   4.900   5.809
10630SOL     OW32788   6.127   0.965   2.885
10630SOL    HW132789   6.067   0.954   2.806
10630SOL    HW232790   6.076   0.949   2.969
10631SOL     OW32791   0.061   6.843   3.768
10631SOL    HW132792   0.148   6.856   3.721
10631SOL    HW232793   0.026   6.752   3.749
10632SOL     OW32794   6.501   2.738   4.545
10632SOL    HW132795   6.443   2.793   4.484
10632SOL    HW232796   6.465   2.745   4.638
10633SOL     OW32797   2.554   5.019   1.244
10633SOL    HW132798   2.467   5.034   1.291
10633SOL    HW232799   2.616   5.095   1.263
10634SOL     OW32800   2.898   5.497   1.294
10634SOL    HW132801   2.992   5.490   1.261
10634SOL    HW232802   2.848   5.563   1.238
10635SOL     OW32803   2.731   1.007   0.738
10635SOL    HW132804   2.820   1.052   0.734
10635SOL    HW232805   2.687   1.012   0.649
10636SOL     OW32806   0.897   2.124   1.476
10636SOL    HW132807   0.985   2.078   1.470
10636SOL    HW232808   0.836   2.089   1.405
10637SOL     OW32809   3.535   4.137   5.382
10637SOL    HW132810   3.503   4.217   5.331
10637SOL    HW232811   3.614   4.162   5.438
10638SOL     OW32812   6.696   6.333   4.679
10638SOL    HW132813   6.789   6.306   4.701
10638SOL    HW232814   6.685   6.431   4.694
10639SOL     OW32815   0.631   0.742   5.041
10639SOL    HW132816   0.597   0.693   4.961
10639SOL    HW232817   0.730   0.730   5.048
10640SOL     OW32818   4.979   0.797   0.211
10640SOL    HW132819   5.023   0.775   0.123
10640SOL    HW232820   4.984   0.718   0.271
10641SOL     OW32821   5.546   1.583   6.978
10641SOL    HW132822   5.562   1.616   0.049
10641SOL    HW232823   5.575   1.652   6.913
10642SOL     OW32824   0.622   2.102   1.910
10642SOL    HW132825   0.694   2.147   1.962
10642SOL    HW232826   0.645   2.006   1.897
10643SOL     OW32827   2.241   3.944   5.374
10643SOL    HW132828   2.315   3.978   5.316
10643SOL    HW232829   2.279   3.882   5.443
10644SOL     OW32830   4.746   1.574   4.169
10644SOL    HW132831   4.712   1.482   4.146
10644SOL    HW232832   4.783   1.617   4.087
10645SOL     OW32833   1.898   0.438   4.544
10645SOL    HW132834   1.950   0.431   4.459
10645SOL    HW232835   1.941   0.381   4.614
10646SOL     OW32836   1.205   2.731   5.713
10646SOL    HW132837   1.168   2.658   5.770
10646SOL    HW232838   1.289   2.767   5.755
10647SOL     OW32839   6.598   5.009   0.910
10647SOL    HW132840   6.510   4.990   0.867
10647SOL    HW232841   6.610   5.108   0.918
10648SOL     OW32842   4.839   2.982   6.546
10648SOL    HW132843   4.922   2.951   6.501
10648SOL    HW232844   4.838   2.951   6.641
10649SOL     OW32845   6.897   4.946   5.647
10649SOL    HW132846   6.931   4.866   5.598
10649SOL    HW232847   6.797   4.942   5.654
10650SOL     OW32848   2.510   6.478   4.026
10650SOL    HW132849   2.518   6.549   4.097
10650SOL    HW232850   2.589   6.484   3.965
10651SOL     OW32851   4.961   6.535   5.405
10651SOL    HW132852   4.864   6.516   5.396
10651SOL    HW232853   4.999   6.555   5.314
10652SOL     OW32854   3.570   0.443   6.238
10652SOL    HW132855   3.492   0.501   6.260
10652SOL    HW232856   3.582   0.374   6.310
10653SOL     OW32857   5.038   4.431   4.304
10653SOL    HW132858   5.088   4.357   4.348
10653SOL    HW232859   4.997   4.398   4.219
10654SOL     OW32860   3.228   0.665   1.610
10654SOL    HW132861   3.288   0.600   1.563
10654SOL    HW232862   3.135   0.657   1.573
10655SOL     OW32863   3.139   6.295   1.615
10655SOL    HW132864   3.191   6.241   1.681
10655SOL    HW232865   3.192   6.307   1.532
10656SOL     OW32866   6.334   2.231   0.155
10656SOL    HW132867   6.416   2.178   0.177
10656SOL    HW232868   6.347   2.326   0.186
10657SOL     OW32869   5.277   0.326   1.099
10657SOL    HW132870   5.286   0.398   1.031
10657SOL    HW232871   5.214   0.255   1.066
10658SOL     OW32872   1.005   5.516   3.806
10658SOL    HW132873   0.946   5.449   3.851
10658SOL    HW232874   0.989   5.606   3.845
10659SOL     OW32875   5.908   0.268   0.867
10659SOL    HW132876   5.979   0.239   0.803
10659SOL    HW232877   5.946   0.337   0.929
10660SOL     OW32878   4.118   4.295   5.484
10660SOL    HW132879   4.085   4.382   5.447
10660SOL    HW232880   4.185   4.256   5.421
10661SOL     OW32881   0.403   6.344   2.256
10661SOL    HW132882   0.387   6.245   2.258
10661SOL    HW232883   0.475   6.364   2.189
10662SOL     OW32884   6.917   1.653   0.591
10662SOL    HW132885   7.003   1.700   0.609
10662SOL    HW232886   6.920   1.610   0.501
10663SOL     OW32887   0.396   0.438   0.857
10663SOL    HW132888   0.387   0.491   0.941
10663SOL    HW232889   0.413   0.499   0.781
10664SOL     OW32890   2.068   5.186   6.991
10664SOL    HW132891   2.081   5.234   6.905
10664SOL    HW232892   2.074   5.087   6.976
10665SOL     OW32893   6.222   1.933   0.910
10665SOL    HW132894   6.207   2.023   0.950
10665SOL    HW232895   6.186   1.931   0.817
10666SOL     OW32896   2.364   5.903   7.018
10666SOL    HW132897   2.419   5.867   6.943
10666SOL    HW232898   2.321   5.989   6.989
10667SOL     OW32899   3.436   1.812   5.739
10667SOL    HW132900   3.473   1.893   5.693
10667SOL    HW232901   3.470   1.729   5.693
10668SOL     OW32902   1.806   1.583   6.372
10668SOL    HW132903   1.808   1.548   6.466
10668SOL    HW232904   1.720   1.631   6.356
10669SOL     OW32905   1.800   6.918   7.014
10669SOL    HW132906   1.751   6.980   6.952
10669SOL    HW232907   1.736   6.884   0.061
10670SOL     OW32908   5.570   4.446   5.923
10670SOL    HW132909   5.628   4.523   5.950
10670SOL    HW232910   5.519   4.413   6.002
10671SOL     OW32911   2.517   2.499   3.001
10671SOL    HW132912   2.503   2.517   2.903
10671SOL    HW232913   2.556   2.408   3.012
10672SOL     OW32914   0.468   2.538   1.183
10672SOL    HW132915   0.380   2.524   1.227
10672SOL    HW232916   0.514   2.617   1.225
10673SOL     OW32917   2.577   3.150   5.393
10673SOL    HW132918   2.664   3.185   5.358
10673SOL    HW232919   2.525   3.108   5.319
10674SOL     OW32920   3.930   3.415   1.502
10674SOL    HW132921   3.969   3.421   1.410
10674SOL    HW232922   3.963   3.332   1.546
10675SOL     OW32923   0.354   0.203   5.424
10675SOL    HW132924   0.304   0.265   5.363
10675SOL    HW232925   0.299   0.184   5.505
10676SOL     OW32926   5.881   6.969   6.401
10676SOL    HW132927   5.939   6.890   6.421
10676SOL    HW232928   5.886   6.990   6.303
10677SOL     OW32929   0.511   0.643   1.102
10677SOL    HW132930   0.451   0.723   1.097
10677SOL    HW232931   0.569   0.640   1.021
10678SOL     OW32932   2.087   5.901   2.393
10678SOL    HW132933   2.083   5.894   2.293
10678SOL    HW232934   2.016   5.844   2.433
10679SOL     OW32935   5.308   5.202   4.017
10679SOL    HW132936   5.348   5.278   4.067
10679SOL    HW232937   5.208   5.207   4.022
10680SOL     OW32938   1.400   3.594   2.688
10680SOL    HW132939   1.409   3.598   2.589
10680SOL    HW232940   1.437   3.507   2.721
10681SOL     OW32941   6.259   2.614   5.639
10681SOL    HW132942   6.244   2.522   5.604
10681SOL    HW232943   6.278   2.610   5.737
10682SOL     OW32944   0.095   1.080   2.840
10682SOL    HW132945   0.064   1.082   2.745
10682SOL    HW232946   0.118   0.986   2.866
10683SOL     OW32947   1.702   1.715   4.917
10683SOL    HW132948   1.698   1.727   5.016
10683SOL    HW232949   1.612   1.735   4.877
10684SOL     OW32950   6.314   4.632   6.958
10684SOL    HW132951   6.392   4.630   7.020
10684SOL    HW232952   6.246   4.566   6.989
10685SOL     OW32953   0.331   2.795   3.287
10685SOL    HW132954   0.296   2.762   3.374
10685SOL    HW232955   0.391   2.874   3.302
10686SOL     OW32956   3.175   5.642   0.452
10686SOL    HW132957   3.132   5.598   0.531
10686SOL    HW232958   3.125   5.615   0.369
10687SOL     OW32959   0.422   4.587   2.819
10687SOL    HW132960   0.418   4.645   2.738
10687SOL    HW232961   0.469   4.636   2.893
10688SOL     OW32962   6.779   4.787   2.010
10688SOL    HW132963   6.732   4.866   1.972
10688SOL    HW232964   6.750   4.772   2.104
10689SOL     OW32965   0.733   0.475   2.646
10689SOL    HW132966   0.793   0.398   2.669
10689SOL    HW232967   0.654   0.442   2.595
10690SOL     OW32968   4.428   4.860   2.151
10690SOL    HW132969   4.353   4.794   2.152
10690SOL    HW232970   4.515   4.812   2.162
10691SOL     OW32971   6.906   1.288   1.712
10691SOL    HW132972   6.838   1.357   1.686
10691SOL    HW232973   6.860   1.205   1.743
10692SOL     OW32974   3.705   5.638   3.599
10692SOL    HW132975   3.792   5.676   3.570
10692SOL    HW232976   3.682   5.673   3.690
10693SOL     OW32977   6.627   1.390   1.696
10693SOL    HW132978   6.699   1.458   1.707
10693SOL    HW232979   6.603   1.352   1.785
10694SOL     OW32980   4.481   6.602   0.700
10694SOL    HW132981   4.416   6.528   0.715
10694SOL    HW232982   4.436   6.690   0.720
10695SOL     OW32983   0.166   2.417   4.019
10695SOL    HW132984   0.082   2.396   3.969
10695SOL    HW232985   0.220   2.333   4.030
10696SOL     OW32986   6.772   5.679   1.389
10696SOL    HW132987   6.732   5.733   1.463
10696SOL    HW232988   6.851   5.628   1.424
10697SOL     OW32989   1.532   6.122   4.074
10697SOL    HW132990   1.528   6.026   4.048
10697SOL    HW232991   1.592   6.172   4.011
10698SOL     OW32992   2.961   6.621   3.418
10698SOL    HW132993   3.023   6.589   3.490
10698SOL    HW232994   2.879   6.660   3.460
10699SOL     OW32995   2.846   2.104   3.089
10699SOL    HW132996   2.922   2.059   3.042
10699SOL    HW232997   2.773   2.038   3.105
10700SOL     OW32998   6.875   6.580   1.169
10700SOL    HW132999   6.786   6.626   1.172
10700SOL    HW233000   6.867   6.490   1.211
10701SOL     OW33001   2.937   6.357   0.754
10701SOL    HW133002   2.959   6.454   0.760
10701SOL    HW233003   2.873   6.342   0.678
10702SOL     OW33004   6.345   2.615   0.887
10702SOL    HW133005   6.310   2.700   0.927
10702SOL    HW233006   6.273   2.572   0.833
10703SOL     OW33007   3.726   4.127   3.935
10703SOL    HW133008   3.698   4.130   3.839
10703SOL    HW233009   3.661   4.179   3.991
10704SOL     OW33010   5.112   0.248   2.288
10704SOL    HW133011   5.025   0.297   2.294
10704SOL    HW233012   5.183   0.310   2.256
10705SOL     OW33013   0.130   3.108   5.796
10705SOL    HW133014   0.215   3.122   5.847
10705SOL    HW233015   0.070   3.187   5.809
10706SOL     OW33016   3.148   0.980   2.199
10706SOL    HW133017   3.172   1.043   2.272
10706SOL    HW233018   3.075   1.019   2.144
10707SOL     OW33019   6.196   0.002   6.153
10707SOL    HW133020   6.219   6.933   6.118
10707SOL    HW233021   6.279   0.049   6.182
10708SOL     OW33022   4.550   1.072   0.860
10708SOL    HW133023   4.514   1.101   0.949
10708SOL    HW233024   4.511   1.128   0.788
10709SOL     OW33025   5.859   6.653   5.656
10709SOL    HW133026   5.840   6.712   5.578
10709SOL    HW233027   5.888   6.563   5.624
10710SOL     OW33028   6.005   5.502   3.190
10710SOL    HW133029   5.978   5.576   3.251
10710SOL    HW233030   6.033   5.539   3.102
10711SOL     OW33031   1.610   0.097   3.866
10711SOL    HW133032   1.705   0.111   3.891
10711SOL    HW233033   1.552   0.159   3.919
10712SOL     OW33034   3.958   1.509   5.040
10712SOL    HW133035   3.869   1.538   5.006
10712SOL    HW233036   3.977   1.416   5.007
10713SOL     OW33037   1.176   5.835   1.584
10713SOL    HW133038   1.122   5.773   1.641
10713SOL    HW233039   1.226   5.899   1.642
10714SOL     OW33040   6.813   5.356   5.846
10714SOL    HW133041   6.789   5.312   5.932
10714SOL    HW233042   6.890   5.419   5.860
10715SOL     OW33043   5.381   1.572   4.439
10715SOL    HW133044   5.455   1.577   4.373
10715SOL    HW233045   5.362   1.664   4.476
10716SOL     OW33046   6.217   0.171   4.000
10716SOL    HW133047   6.260   0.241   4.057
10716SOL    HW233048   6.131   0.205   3.964
10717SOL     OW33049   0.334   0.258   1.474
10717SOL    HW133050   0.396   0.293   1.543
10717SOL    HW233051   0.247   0.305   1.479
10718SOL     OW33052   6.351   5.243   0.305
10718SOL    HW133053   6.278   5.207   0.363
10718SOL    HW233054   6.386   5.170   0.246
10719SOL     OW33055   5.551   0.587   1.985
10719SOL    HW133056   5.531   0.491   2.007
10719SOL    HW233057   5.572   0.637   2.069
10720SOL     OW33058   0.407   3.370   6.527
10720SOL    HW133059   0.503   3.340   6.536
10720SOL    HW233060   0.404   3.462   6.489
10721SOL     OW33061   4.874   2.466   4.599
10721SOL    HW133062   4.785   2.426   4.621
10721SOL    HW233063   4.897   2.446   4.503
10722SOL     OW33064   0.177   3.605   6.909
10722SOL    HW133065   0.202   3.538   6.840
10722SOL    HW233066   0.163   3.695   6.866
10723SOL     OW33067   5.973   3.788   6.767
10723SOL    HW133068   5.948   3.713   6.705
10723SOL    HW233069   5.923   3.778   6.853
10724SOL     OW33070   4.354   6.403   6.123
10724SOL    HW133071   4.285   6.397   6.051
10724SOL    HW233072   4.311   6.392   6.213
10725SOL     OW33073   7.020   6.093   5.223
10725SOL    HW133074   0.064   6.041   5.277
10725SOL    HW233075   0.035   6.108   5.131
10726SOL     OW33076   4.633   1.123   4.514
10726SOL    HW133077   4.676   1.047   4.562
10726SOL    HW233078   4.704   1.181   4.473
10727SOL     OW33079   2.365   6.546   5.695
10727SOL    HW133080   2.342   6.463   5.645
10727SOL    HW233081   2.464   6.548   5.714
10728SOL     OW33082   5.089   6.044   2.863
10728SOL    HW133083   5.172   5.992   2.883
10728SOL    HW233084   5.113   6.137   2.837
10729SOL     OW33085   5.713   2.645   3.005
10729SOL    HW133086   5.796   2.700   2.996
10729SOL    HW233087   5.676   2.656   3.097
10730SOL     OW33088   2.064   6.232   2.786
10730SOL    HW133089   2.117   6.316   2.781
10730SOL    HW233090   2.040   6.202   2.693
10731SOL     OW33091   3.734   7.021   6.612
10731SOL    HW133092   3.810   0.033   6.667
10731SOL    HW233093   3.769   6.990   6.524
10732SOL     OW33094   5.943   6.302   3.141
10732SOL    HW133095   5.979   6.391   3.171
10732SOL    HW233096   5.969   6.232   3.207
10733SOL     OW33097   0.195   0.606   6.066
10733SOL    HW133098   0.165   0.630   6.158
10733SOL    HW233099   0.256   0.527   6.070
10734SOL     OW33100   0.927   1.170   5.526
10734SOL    HW133101   0.854   1.211   5.473
10734SOL    HW233102   0.993   1.127   5.465
10735SOL     OW33103   1.274   5.738   2.155
10735SOL    HW133104   1.248   5.726   2.059
10735SOL    HW233105   1.237   5.662   2.209
10736SOL     OW33106   5.951   0.154   3.808
10736SOL    HW133107   5.891   0.136   3.885
10736SOL    HW233108   6.014   0.077   3.796
10737SOL     OW33109   6.476   1.314   2.117
10737SOL    HW133110   6.405   1.365   2.166
10737SOL    HW233111   6.565   1.355   2.136
10738SOL     OW33112   3.114   0.609   1.953
10738SOL    HW133113   3.101   0.645   2.045
10738SOL    HW233114   3.201   0.559   1.949
10739SOL     OW33115   5.901   2.395   3.042
10739SOL    HW133116   5.877   2.345   2.959
10739SOL    HW233117   5.839   2.473   3.053
10740SOL     OW33118   1.639   6.801   6.123
10740SOL    HW133119   1.624   6.712   6.079
10740SOL    HW233120   1.704   6.855   6.069
10741SOL     OW33121   2.497   2.419   3.649
10741SOL    HW133122   2.581   2.399   3.597
10741SOL    HW233123   2.499   2.515   3.678
10742SOL     OW33124   6.061   6.189   2.848
10742SOL    HW133125   6.135   6.223   2.906
10742SOL    HW233126   6.022   6.265   2.796
10743SOL     OW33127   3.755   1.144   5.962
10743SOL    HW133128   3.672   1.191   5.991
10743SOL    HW233129   3.761   1.145   5.862
10744SOL     OW33130   1.847   0.252   0.185
10744SOL    HW133131   1.909   0.329   0.200
10744SOL    HW233132   1.900   0.171   0.161
10745SOL     OW33133   2.150   4.947   1.131
10745SOL    HW133134   2.125   4.850   1.135
10745SOL    HW233135   2.182   4.976   1.221
10746SOL     OW33136   1.465   6.005   6.321
10746SOL    HW133137   1.442   6.053   6.405
10746SOL    HW233138   1.450   5.907   6.334
10747SOL     OW33139   6.386   1.185   4.971
10747SOL    HW133140   6.289   1.166   4.981
10747SOL    HW233141   6.426   1.209   5.059
10748SOL     OW33142   4.245   6.333   1.149
10748SOL    HW133143   4.232   6.360   1.245
10748SOL    HW233144   4.187   6.388   1.090
10749SOL     OW33145   5.485   5.974   2.491
10749SOL    HW133146   5.493   5.879   2.462
10749SOL    HW233147   5.576   6.012   2.508
10750SOL     OW33148   4.876   2.182   4.103
10750SOL    HW133149   4.807   2.112   4.118
10750SOL    HW233150   4.861   2.224   4.013
10751SOL     OW33151   0.366   5.186   5.153
10751SOL    HW133152   0.349   5.145   5.063
10751SOL    HW233153   0.316   5.134   5.223
10752SOL     OW33154   6.146   6.375   0.765
10752SOL    HW133155   6.206   6.339   0.836
10752SOL    HW233156   6.062   6.410   0.807
10753SOL     OW33157   4.804   6.662   3.909
10753SOL    HW133158   4.798   6.761   3.891
10753SOL    HW233159   4.738   6.638   3.981
10754SOL     OW33160   1.371   3.727   1.495
10754SOL    HW133161   1.384   3.635   1.456
10754SOL    HW233162   1.385   3.795   1.424
10755SOL     OW33163   6.289   3.442   1.338
10755SOL    HW133164   6.266   3.539   1.348
10755SOL    HW233165   6.385   3.428   1.360
10756SOL     OW33166   0.320   1.967   0.975
10756SOL    HW133167   0.248   2.033   0.995
10756SOL    HW233168   0.288   1.875   0.999
10757SOL     OW33169   0.491   3.964   1.650
10757SOL    HW133170   0.506   4.058   1.678
10757SOL    HW233171   0.523   3.902   1.722
10758SOL     OW33172   0.717   0.459   6.919
10758SOL    HW133173   0.681   0.376   6.876
10758SOL    HW233174   0.730   0.530   6.850
10759SOL     OW33175   2.621   2.696   6.409
10759SOL    HW133176   2.623   2.783   6.457
10759SOL    HW233177   2.648   2.709   6.314
10760SOL     OW33178   0.524   5.116   0.321
10760SOL    HW133179   0.535   5.179   0.397
10760SOL    HW233180   0.582   5.036   0.335
10761SOL     OW33181   0.160   1.574   6.311
10761SOL    HW133182   0.100   1.623   6.249
10761SOL    HW233183   0.212   1.505   6.261
10762SOL     OW33184   3.727   6.288   6.277
10762SOL    HW133185   3.665   6.354   6.236
10762SOL    HW233186   3.675   6.222   6.331
10763SOL     OW33187   5.333   0.292   3.025
10763SOL    HW133188   5.295   0.338   2.945
10763SOL    HW233189   5.371   0.360   3.088
10764SOL     OW33190   3.975   0.593   4.494
10764SOL    HW133191   4.000   0.496   4.494
10764SOL    HW233192   4.058   0.649   4.499
10765SOL     OW33193   6.770   2.008   2.863
10765SOL    HW133194   6.718   2.028   2.946
10765SOL    HW233195   6.839   1.938   2.883
10766SOL     OW33196   1.686   4.982   6.292
10766SOL    HW133197   1.587   4.982   6.304
10766SOL    HW233198   1.714   4.900   6.241
10767SOL     OW33199   1.792   5.847   0.445
10767SOL    HW133200   1.815   5.886   0.355
10767SOL    HW233201   1.817   5.750   0.446
10768SOL     OW33202   5.701   5.920   0.355
10768SOL    HW133203   5.651   5.925   0.268
10768SOL    HW233204   5.716   6.013   0.390
10769SOL     OW33205   3.250   3.301   4.600
10769SOL    HW133206   3.196   3.378   4.568
10769SOL    HW233207   3.332   3.334   4.646
10770SOL     OW33208   5.330   6.761   3.921
10770SOL    HW133209   5.337   6.828   3.995
10770SOL    HW233210   5.287   6.803   3.841
10771SOL     OW33211   4.908   6.050   5.982
10771SOL    HW133212   4.925   6.123   5.917
10771SOL    HW233213   4.820   6.063   6.026
10772SOL     OW33214   5.932   4.647   2.799
10772SOL    HW133215   5.914   4.694   2.885
10772SOL    HW233216   6.004   4.579   2.812
10773SOL     OW33217   6.894   4.253   1.279
10773SOL    HW133218   6.917   4.160   1.251
10773SOL    HW233219   6.844   4.298   1.205
10774SOL     OW33220   1.518   3.232   0.552
10774SOL    HW133221   1.555   3.179   0.628
10774SOL    HW233222   1.438   3.185   0.513
10775SOL     OW33223   0.940   4.278   0.739
10775SOL    HW133224   1.018   4.329   0.775
10775SOL    HW233225   0.856   4.311   0.782
10776SOL     OW33226   1.010   1.723   3.502
10776SOL    HW133227   0.990   1.728   3.404
10776SOL    HW233228   0.981   1.807   3.547
10777SOL     OW33229   3.524   1.614   1.965
10777SOL    HW133230   3.474   1.546   1.912
10777SOL    HW233231   3.467   1.695   1.978
10778SOL     OW33232   5.996   6.543   3.296
10778SOL    HW133233   6.058   6.616   3.266
10778SOL    HW233234   6.032   6.501   3.379
10779SOL     OW33235   5.474   4.200   4.364
10779SOL    HW133236   5.473   4.288   4.316
10779SOL    HW233237   5.504   4.213   4.458
10780SOL     OW33238   1.521   5.979   4.972
10780SOL    HW133239   1.483   5.914   5.038
10780SOL    HW233240   1.612   5.948   4.944
10781SOL     OW33241   5.992   2.088   5.339
10781SOL    HW133242   5.920   2.033   5.294
10781SOL    HW233243   6.003   2.173   5.289
10782SOL     OW33244   1.136   2.592   5.099
10782SOL    HW133245   1.101   2.501   5.120
10782SOL    HW233246   1.098   2.658   5.163
10783SOL     OW33247   1.271   2.649   3.161
10783SOL    HW133248   1.288   2.738   3.202
10783SOL    HW233249   1.258   2.659   3.062
10784SOL     OW33250   4.030   6.279   2.447
10784SOL    HW133251   4.115   6.231   2.425
10784SOL    HW233252   4.047   6.346   2.519
10785SOL     OW33253   1.844   5.762   2.507
10785SOL    HW133254   1.774   5.692   2.521
10785SOL    HW233255   1.808   5.834   2.448
10786SOL     OW33256   3.884   1.260   1.875
10786SOL    HW133257   3.857   1.356   1.869
10786SOL    HW233258   3.811   1.207   1.917
10787SOL     OW33259   3.790   1.631   3.428
10787SOL    HW133260   3.743   1.590   3.507
10787SOL    HW233261   3.875   1.673   3.459
10788SOL     OW33262   0.718   4.913   0.809
10788SOL    HW133263   0.716   4.887   0.905
10788SOL    HW233264   0.701   4.833   0.752
10789SOL     OW33265   6.374   1.564   1.015
10789SOL    HW133266   6.427   1.585   1.097
10789SOL    HW233267   6.330   1.647   0.982
10790SOL     OW33268   0.540   2.364   4.734
10790SOL    HW133269   0.440   2.367   4.740
10790SOL    HW233270   0.569   2.273   4.704
10791SOL     OW33271   1.562   1.712   3.306
10791SOL    HW133272   1.467   1.723   3.275
10791SOL    HW233273   1.594   1.620   3.283
10792SOL     OW33274   3.889   2.282   1.341
10792SOL    HW133275   3.916   2.236   1.426
10792SOL    HW233276   3.791   2.272   1.328
10793SOL     OW33277   4.386   1.260   4.949
10793SOL    HW133278   4.424   1.240   4.859
10793SOL    HW233279   4.369   1.174   4.998
10794SOL     OW33280   4.528   2.846   0.857
10794SOL    HW133281   4.469   2.859   0.778
10794SOL    HW233282   4.622   2.832   0.827
10795SOL     OW33283   0.554   3.453   3.355
10795SOL    HW133284   0.490   3.401   3.298
10795SOL    HW233285   0.647   3.435   3.324
10796SOL     OW33286   0.035   6.708   6.824
10796SOL    HW133287   0.016   6.749   6.735
10796SOL    HW233288   6.982   6.646   6.849
10797SOL     OW33289   4.217   3.812   0.383
10797SOL    HW133290   4.153   3.792   0.456
10797SOL    HW233291   4.301   3.851   0.421
10798SOL     OW33292   2.374   6.947   6.701
10798SOL    HW133293   2.403   6.960   6.606
10798SOL    HW233294   2.274   6.945   6.706
10799SOL     OW33295   2.586   1.313   3.038
10799SOL    HW133296   2.489   1.292   3.031
10799SOL    HW233297   2.630   1.298   2.950
10800SOL     OW33298   1.755   0.609   5.700
10800SOL    HW133299   1.739   0.669   5.622
10800SOL    HW233300   1.845   0.629   5.739
10801SOL     OW33301   2.980   6.532   6.149
10801SOL    HW133302   2.881   6.517   6.161
10801SOL    HW233303   3.029   6.447   6.170
10802SOL     OW33304   0.545   4.370   4.559
10802SOL    HW133305   0.600   4.426   4.621
10802SOL    HW233306   0.533   4.418   4.472
10803SOL     OW33307   6.874   4.582   4.749
10803SOL    HW133308   6.874   4.643   4.828
10803SOL    HW233309   6.841   4.492   4.777
10804SOL     OW33310   5.260   4.715   1.713
10804SOL    HW133311   5.279   4.759   1.801
10804SOL    HW233312   5.344   4.677   1.675
10805SOL     OW33313   4.391   6.868   0.706
10805SOL    HW133314   4.473   6.882   0.649
10805SOL    HW233315   4.361   6.955   0.744
10806SOL     OW33316   5.055   3.446   6.912
10806SOL    HW133317   5.081   3.477   6.821
10806SOL    HW233318   5.133   3.403   6.957
10807SOL     OW33319   4.290   6.730   3.354
10807SOL    HW133320   4.262   6.812   3.404
10807SOL    HW233321   4.253   6.649   3.399
10808SOL     OW33322   0.125   2.862   5.958
10808SOL    HW133323   0.221   2.838   5.964
10808SOL    HW233324   0.115   2.945   5.902
10809SOL     OW33325   2.568   0.738   3.202
10809SOL    HW133326   2.564   0.813   3.268
10809SOL    HW233327   2.660   0.699   3.201
10810SOL     OW33328   6.974   1.251   5.419
10810SOL    HW133329   0.014   1.237   5.496
10810SOL    HW233330   6.979   1.172   5.357
10811SOL     OW33331   4.377   4.650   5.513
10811SOL    HW133332   4.445   4.720   5.533
10811SOL    HW233333   4.420   4.575   5.462
10812SOL     OW33334   6.699   2.433   3.078
10812SOL    HW133335   6.602   2.453   3.069
10812SOL    HW233336   6.747   2.515   3.111
10813SOL     OW33337   2.732   5.763   1.624
10813SOL    HW133338   2.647   5.777   1.676
10813SOL    HW233339   2.739   5.666   1.598
10814SOL     OW33340   1.977   0.026   5.060
10814SOL    HW133341   1.947   7.022   4.968
10814SOL    HW233342   2.053   0.091   5.053
10815SOL     OW33343   4.916   2.537   3.114
10815SOL    HW133344   4.987   2.607   3.116
10815SOL    HW233345   4.846   2.563   3.048
10816SOL     OW33346   2.400   1.662   1.977
10816SOL    HW133347   2.348   1.615   2.049
10816SOL    HW233348   2.336   1.712   1.918
10817SOL     OW33349   4.657   6.648   2.148
10817SOL    HW133350   4.608   6.585   2.087
10817SOL    HW233351   4.689   6.598   2.229
10818SOL     OW33352   4.512   3.082   6.886
10818SOL    HW133353   4.530   3.043   6.976
10818SOL    HW233354   4.568   3.165   6.874
10819SOL     OW33355   0.183   3.835   6.433
10819SOL    HW133356   0.087   3.859   6.425
10819SOL    HW233357   0.219   3.809   6.343
10820SOL     OW33358   0.482   6.894   4.402
10820SOL    HW133359   0.457   6.878   4.306
10820SOL    HW233360   0.506   6.991   4.414
10821SOL     OW33361   6.892   0.267   0.481
10821SOL    HW133362   6.899   0.199   0.409
10821SOL    HW233363   6.880   0.358   0.441
10822SOL     OW33364   1.143   4.134   1.401
10822SOL    HW133365   1.049   4.118   1.372
10822SOL    HW233366   1.197   4.165   1.322
10823SOL     OW33367   1.611   0.629   1.118
10823SOL    HW133368   1.576   0.681   1.041
10823SOL    HW233369   1.540   0.620   1.188
10824SOL     OW33370   5.736   0.358   2.581
10824SOL    HW133371   5.727   0.335   2.678
10824SOL    HW233372   5.807   0.301   2.540
10825SOL     OW33373   3.390   1.221   1.412
10825SOL    HW133374   3.485   1.238   1.437
10825SOL    HW233375   3.374   1.122   1.408
10826SOL     OW33376   6.652   3.130   1.861
10826SOL    HW133377   6.693   3.112   1.771
10826SOL    HW233378   6.620   3.045   1.901
10827SOL     OW33379   0.050   2.476   4.248
10827SOL    HW133380   0.110   2.459   4.170
10827SOL    HW233381   0.047   2.574   4.267
10828SOL     OW33382   0.717   5.937   0.268
10828SOL    HW133383   0.729   5.956   0.365
10828SOL    HW233384   0.621   5.914   0.250
10829SOL     OW33385   2.946   3.475   1.386
10829SOL    HW133386   2.931   3.465   1.288
10829SOL    HW233387   2.943   3.572   1.411
10830SOL     OW33388   4.774   2.424   4.018
10830SOL    HW133389   4.819   2.422   3.929
10830SOL    HW233390   4.730   2.513   4.032
10831SOL     OW33391   5.472   1.906   3.034
10831SOL    HW133392   5.525   1.981   3.075
10831SOL    HW233393   5.531   1.826   3.024
10832SOL     OW33394   6.786   1.809   0.928
10832SOL    HW133395   6.741   1.770   1.008
10832SOL    HW233396   6.771   1.908   0.926
10833SOL     OW33397   3.244   6.893   4.622
10833SOL    HW133398   3.312   6.875   4.693
10833SOL    HW233399   3.283   6.955   4.554
10834SOL     OW33400   0.219   0.984   5.134
10834SOL    HW133401   0.216   0.928   5.217
10834SOL    HW233402   0.276   0.940   5.065
10835SOL     OW33403   6.613   1.760   2.356
10835SOL    HW133404   6.707   1.796   2.360
10835SOL    HW233405   6.591   1.736   2.262
10836SOL     OW33406   2.113   2.499   6.488
10836SOL    HW133407   2.186   2.475   6.425
10836SOL    HW233408   2.053   2.420   6.502
10837SOL     OW33409   0.510   5.090   0.687
10837SOL    HW133410   0.592   5.046   0.725
10837SOL    HW233411   0.435   5.023   0.684
10838SOL     OW33412   6.108   0.191   0.133
10838SOL    HW133413   6.037   0.188   0.064
10838SOL    HW233414   6.166   0.110   0.126
10839SOL     OW33415   2.204   1.815   0.728
10839SOL    HW133416   2.178   1.911   0.732
10839SOL    HW233417   2.302   1.806   0.711
10840SOL     OW33418   3.920   5.572   2.073
10840SOL    HW133419   4.001   5.631   2.074
10840SOL    HW233420   3.932   5.498   2.139
10841SOL     OW33421   4.029   4.580   6.291
10841SOL    HW133422   4.009   4.486   6.263
10841SOL    HW233423   4.050   4.635   6.211
10842SOL     OW33424   6.247   3.157   1.379
10842SOL    HW133425   6.304   3.127   1.456
10842SOL    HW233426   6.263   3.254   1.362
10843SOL     OW33427   0.440   1.669   1.923
10843SOL    HW133428   0.412   1.651   2.017
10843SOL    HW233429   0.417   1.590   1.866
10844SOL     OW33430   4.388   6.942   3.717
10844SOL    HW133431   4.374   6.849   3.749
10844SOL    HW233432   4.361   6.948   3.620
10845SOL     OW33433   1.950   2.646   0.936
10845SOL    HW133434   1.977   2.568   0.879
10845SOL    HW233435   2.032   2.692   0.969
10846SOL     OW33436   3.621   1.814   1.666
10846SOL    HW133437   3.589   1.900   1.707
10846SOL    HW233438   3.571   1.798   1.581
10847SOL     OW33439   4.435   2.976   6.236
10847SOL    HW133440   4.424   3.074   6.218
10847SOL    HW233441   4.533   2.955   6.243
10848SOL     OW33442   1.603   0.938   6.416
10848SOL    HW133443   1.621   0.987   6.331
10848SOL    HW233444   1.566   1.002   6.484
10849SOL     OW33445   2.663   4.684   4.087
10849SOL    HW133446   2.667   4.695   4.187
10849SOL    HW233447   2.595   4.614   4.064
10850SOL     OW33448   5.170   6.605   0.610
10850SOL    HW133449   5.259   6.599   0.655
10850SOL    HW233450   5.180   6.639   0.517
10851SOL     OW33451   3.843   2.038   6.176
10851SOL    HW133452   3.898   1.963   6.214
10851SOL    HW233453   3.879   2.064   6.087
10852SOL     OW33454   0.355   0.390   6.135
10852SOL    HW133455   0.345   0.311   6.196
10852SOL    HW233456   0.399   0.361   6.050
10853SOL     OW33457   2.325   1.113   4.686
10853SOL    HW133458   2.339   1.032   4.628
10853SOL    HW233459   2.375   1.190   4.647
10854SOL     OW33460   6.832   6.604   0.244
10854SOL    HW133461   6.782   6.676   0.195
10854SOL    HW233462   6.930   6.621   0.236
10855SOL     OW33463   0.987   6.261   1.018
10855SOL    HW133464   1.022   6.344   1.060
10855SOL    HW233465   1.060   6.218   0.964
10856SOL     OW33466   6.290   6.884   6.555
10856SOL    HW133467   6.366   6.938   6.591
10856SOL    HW233468   6.323   6.823   6.483
10857SOL     OW33469   5.746   0.956   4.414
10857SOL    HW133470   5.734   1.023   4.340
10857SOL    HW233471   5.789   1.002   4.493
10858SOL     OW33472   2.476   1.858   0.630
10858SOL    HW133473   2.514   1.925   0.565
10858SOL    HW233474   2.505   1.882   0.722
10859SOL     OW33475   0.754   4.663   2.090
10859SOL    HW133476   0.693   4.682   2.013
10859SOL    HW233477   0.740   4.569   2.120
10860SOL     OW33478   6.526   2.053   0.292
10860SOL    HW133479   6.618   2.085   0.315
10860SOL    HW233480   6.525   1.953   0.290
10861SOL     OW33481   3.212   2.850   2.162
10861SOL    HW133482   3.257   2.936   2.185
10861SOL    HW233483   3.143   2.829   2.231
10862SOL     OW33484   3.748   3.245   5.369
10862SOL    HW133485   3.702   3.195   5.296
10862SOL    HW233486   3.847   3.244   5.352
10863SOL     OW33487   1.882   1.829   3.022
10863SOL    HW133488   1.923   1.897   2.961
10863SOL    HW233489   1.867   1.869   3.112
10864SOL     OW33490   3.144   4.759   1.927
10864SOL    HW133491   3.185   4.722   1.844
10864SOL    HW233492   3.215   4.776   1.996
10865SOL     OW33493   3.965   1.521   3.222
10865SOL    HW133494   3.916   1.551   3.305
10865SOL    HW233495   4.058   1.495   3.246
10866SOL     OW33496   0.390   3.687   3.206
10866SOL    HW133497   0.419   3.627   3.281
10866SOL    HW233498   0.462   3.689   3.137
10867SOL     OW33499   4.526   3.534   0.632
10867SOL    HW133500   4.479   3.482   0.561
10867SOL    HW233501   4.485   3.625   0.640
10868SOL     OW33502   0.943   1.328   4.869
10868SOL    HW133503   0.952   1.426   4.890
10868SOL    HW233504   0.961   1.274   4.951
10869NA      NA33505   6.602   2.540   5.695
10870NA      NA33506   4.346   4.727   5.070
10871NA      NA33507   1.179   4.886   2.617
10872NA      NA33508   5.734   4.158   3.404
10873NA      NA33509   3.843   2.138   5.273
10874NA      NA33510   2.272   4.995   0.249
10875NA      NA33511   1.288   5.269   6.967
10876NA      NA33512   3.474   4.030   1.245
10877NA      NA33513   4.325   5.223   0.588
10878NA      NA33514   3.196   0.883   6.660
10879NA      NA33515   5.625   6.494   1.949
10880NA      NA33516   1.726   6.900   5.448
10881NA      NA33517   4.088   5.021   1.881
10882NA      NA33518   3.726   3.324   6.676
   7.02195   7.02195   7.02195
