Generated by trjconv : CNT in water t= 417.00000
33518
    1C        C    1   2.838   2.767   4.744
    1C        C    2   2.894   2.716   4.863
    1C        C    3   2.841   2.775   4.979
    1C        C    4   2.848   2.773   4.259
    1C        C    5   2.904   2.728   4.381
    1C        C    6   2.846   2.772   4.503
    1C        C    7   3.009   2.635   4.623
    1C        C    8   2.896   2.720   4.624
    1C        C    9   3.075   2.605   4.744
    1C        C   10   3.009   2.634   4.865
    1C        C   11   3.181   2.489   4.971
    1C        C   12   3.059   2.559   4.971
    1C        C   13   2.853   2.770   3.770
    1C        C   14   2.902   2.722   3.893
    1C        C   15   2.847   2.770   4.014
    1C        C   16   3.017   2.646   4.137
    1C        C   17   2.900   2.725   4.137
    1C        C   18   3.076   2.606   4.259
    1C        C   19   3.016   2.642   4.382
    1C        C   20   3.207   2.553   4.501
    1C        C   21   3.073   2.597   4.503
    1C        C   22   3.279   2.534   4.621
    1C        C   23   3.205   2.546   4.741
    1C        C   24   3.410   2.478   4.863
    1C        C   25   3.268   2.497   4.858
    1C        C   26   3.489   2.467   4.978
    1C        C   27   2.855   2.772   3.279
    1C        C   28   2.907   2.725   3.402
    1C        C   29   2.856   2.775   3.524
    1C        C   30   3.020   2.641   3.647
    1C        C   31   2.907   2.725   3.646
    1C        C   32   3.078   2.603   3.770
    1C        C   33   3.015   2.637   3.891
    1C        C   34   3.206   2.552   4.015
    1C        C   35   3.074   2.604   4.015
    1C        C   36   3.273   2.527   4.136
    1C        C   37   3.206   2.550   4.258
    1C        C   38   3.414   2.501   4.379
    1C        C   39   3.275   2.530   4.380
    1C        C   40   3.486   2.497   4.500
    1C        C   41   3.416   2.499   4.623
    1C        C   42   3.629   2.481   4.740
    1C        C   43   3.487   2.482   4.744
    1C        C   44   3.703   2.485   4.860
    1C        C   45   3.628   2.474   4.978
    1C        C   46   2.843   2.755   2.790
    1C        C   47   2.898   2.713   2.913
    1C        C   48   2.848   2.763   3.035
    1C        C   49   3.017   2.635   3.159
    1C        C   50   2.904   2.719   3.157
    1C        C   51   3.082   2.603   3.280
    1C        C   52   3.024   2.646   3.401
    1C        C   53   3.210   2.548   3.526
    1C        C   54   3.082   2.608   3.524
    1C        C   55   3.274   2.520   3.649
    1C        C   56   3.206   2.542   3.771
    1C        C   57   3.413   2.502   3.891
    1C        C   58   3.273   2.523   3.894
    1C        C   59   3.482   2.499   4.014
    1C        C   60   3.412   2.500   4.137
    1C        C   61   3.626   2.490   4.257
    1C        C   62   3.485   2.487   4.258
    1C        C   63   3.698   2.504   4.378
    1C        C   64   3.627   2.501   4.500
    1C        C   65   3.837   2.537   4.619
    1C        C   66   3.702   2.498   4.620
    1C        C   67   3.904   2.561   4.741
    1C        C   68   3.841   2.516   4.859
    1C        C   69   4.052   2.582   4.975
    1C        C   70   3.922   2.529   4.972
    1C        C   71   2.828   2.738   2.304
    1C        C   72   2.884   2.692   2.425
    1C        C   73   2.836   2.749   2.545
    1C        C   74   3.007   2.624   2.670
    1C        C   75   2.889   2.702   2.667
    1C        C   76   3.073   2.595   2.791
    1C        C   77   3.014   2.633   2.914
    1C        C   78   3.206   2.542   3.035
    1C        C   79   3.077   2.599   3.036
    1C        C   80   3.276   2.524   3.157
    1C        C   81   3.212   2.547   3.281
    1C        C   82   3.414   2.491   3.400
    1C        C   83   3.277   2.524   3.405
    1C        C   84   3.482   2.488   3.524
    1C        C   85   3.413   2.495   3.647
    1C        C   86   3.625   2.495   3.767
    1C        C   87   3.483   2.490   3.770
    1C        C   88   3.692   2.510   3.890
    1C        C   89   3.623   2.498   4.013
    1C        C   90   3.829   2.547   4.133
    1C        C   91   3.695   2.500   4.134
    1C        C   92   3.897   2.569   4.254
    1C        C   93   3.834   2.542   4.377
    1C        C   94   4.028   2.634   4.497
    1C        C   95   3.903   2.567   4.498
    1C        C   96   4.087   2.673   4.618
    1C        C   97   4.027   2.632   4.739
    1C        C   98   4.191   2.764   4.859
    1C        C   99   4.095   2.658   4.862
    1C        C  100   4.213   2.844   4.972
    1C        C  101   2.819   2.728   2.068
    1C        C  102   2.989   2.590   2.190
    1C        C  103   2.876   2.678   2.185
    1C        C  104   3.065   2.571   2.309
    1C        C  105   3.003   2.615   2.428
    1C        C  106   3.197   2.525   2.548
    1C        C  107   3.069   2.586   2.549
    1C        C  108   3.268   2.513   2.669
    1C        C  109   3.203   2.539   2.792
    1C        C  110   3.412   2.496   2.910
    1C        C  111   3.273   2.516   2.913
    1C        C  112   3.483   2.489   3.032
    1C        C  113   3.413   2.491   3.155
    1C        C  114   3.625   2.487   3.277
    1C        C  115   3.484   2.484   3.277
    1C        C  116   3.694   2.497   3.400
    1C        C  117   3.623   2.496   3.522
    1C        C  118   3.830   2.541   3.646
    1C        C  119   3.694   2.503   3.644
    1C        C  120   3.893   2.573   3.768
    1C        C  121   3.829   2.545   3.891
    1C        C  122   4.022   2.638   4.011
    1C        C  123   3.898   2.570   4.012
    1C        C  124   4.085   2.672   4.132
    1C        C  125   4.025   2.631   4.253
    1C        C  126   4.193   2.764   4.373
    1C        C  127   4.086   2.671   4.374
    1C        C  128   4.241   2.818   4.495
    1C        C  129   4.195   2.764   4.617
    1C        C  130   4.331   2.929   4.737
    1C        C  131   4.246   2.815   4.738
    1C        C  132   4.359   3.001   4.856
    1C        C  133   4.285   2.963   4.968
    1C        C  134   3.171   2.461   2.080
    1C        C  135   3.038   2.504   2.086
    1C        C  136   3.258   2.470   2.190
    1C        C  137   3.196   2.516   2.308
    1C        C  138   3.406   2.474   2.427
    1C        C  139   3.267   2.497   2.429
    1C        C  140   3.482   2.471   2.546
    1C        C  141   3.407   2.490   2.664
    1C        C  142   3.620   2.488   2.790
    1C        C  143   3.479   2.487   2.786
    1C        C  144   3.693   2.497   2.911
    1C        C  145   3.624   2.488   3.034
    1C        C  146   3.833   2.532   3.156
    1C        C  147   3.697   2.494   3.155
    1C        C  148   3.899   2.557   3.278
    1C        C  149   3.831   2.533   3.400
    1C        C  150   4.022   2.623   3.524
    1C        C  151   3.896   2.559   3.522
    1C        C  152   4.081   2.667   3.645
    1C        C  153   4.021   2.634   3.768
    1C        C  154   4.189   2.767   3.885
    1C        C  155   4.081   2.675   3.889
    1C        C  156   4.241   2.813   4.008
    1C        C  157   4.194   2.762   4.131
    1C        C  158   4.340   2.918   4.254
    1C        C  159   4.249   2.809   4.252
    1C        C  160   4.376   2.981   4.375
    1C        C  161   4.330   2.928   4.497
    1C        C  162   4.444   3.111   4.613
    1C        C  163   4.376   2.987   4.617
    1C        C  164   4.468   3.180   4.734
    1C        C  165   4.438   3.118   4.857
    1C        C  166   4.510   3.318   4.972
    1C        C  167   4.479   3.183   4.975
    1C        C  168   3.475   2.438   2.070
    1C        C  169   3.398   2.448   2.186
    1C        C  170   3.617   2.460   2.304
    1C        C  171   3.474   2.458   2.305
    1C        C  172   3.690   2.480   2.423
    1C        C  173   3.623   2.479   2.547
    1C        C  174   3.830   2.527   2.665
    1C        C  175   3.693   2.493   2.669
    1C        C  176   3.897   2.553   2.787
    1C        C  177   3.831   2.527   2.909
    1C        C  178   4.023   2.617   3.032
    1C        C  179   3.898   2.551   3.031
    1C        C  180   4.081   2.659   3.153
    1C        C  181   4.024   2.622   3.277
    1C        C  182   4.193   2.747   3.397
    1C        C  183   4.080   2.661   3.401
    1C        C  184   4.239   2.805   3.517
    1C        C  185   4.191   2.756   3.641
    1C        C  186   4.330   2.920   3.763
    1C        C  187   4.242   2.809   3.761
    1C        C  188   4.372   2.978   3.885
    1C        C  189   4.332   2.922   4.008
    1C        C  190   4.447   3.099   4.127
    1C        C  191   4.376   2.976   4.130
    1C        C  192   4.470   3.169   4.247
    1C        C  193   4.441   3.106   4.370
    1C        C  194   4.507   3.312   4.491
    1C        C  195   4.468   3.177   4.490
    1C        C  196   4.523   3.385   4.611
    1C        C  197   4.510   3.316   4.733
    1C        C  198   4.559   3.530   4.852
    1C        C  199   4.532   3.389   4.853
    1C        C  200   4.585   3.617   4.963
    1C        C  201   3.613   2.418   2.067
    1C        C  202   3.825   2.503   2.179
    1C        C  203   3.690   2.456   2.182
    1C        C  204   3.896   2.536   2.298
    1C        C  205   3.827   2.515   2.419
    1C        C  206   4.019   2.609   2.544
    1C        C  207   3.894   2.544   2.540
    1C        C  208   4.077   2.655   2.664
    1C        C  209   4.020   2.621   2.789
    1C        C  210   4.195   2.743   2.906
    1C        C  211   4.083   2.657   2.910
    1C        C  212   4.239   2.798   3.029
    1C        C  213   4.186   2.753   3.152
    1C        C  214   4.325   2.911   3.271
    1C        C  215   4.240   2.799   3.274
    1C        C  216   4.361   2.975   3.392
    1C        C  217   4.320   2.920   3.516
    1C        C  218   4.433   3.100   3.636
    1C        C  219   4.362   2.978   3.638
    1C        C  220   4.465   3.165   3.758
    1C        C  221   4.442   3.101   3.882
    1C        C  222   4.504   3.302   4.003
    1C        C  223   4.471   3.165   4.004
    1C        C  224   4.515   3.375   4.123
    1C        C  225   4.505   3.306   4.246
    1C        C  226   4.525   3.520   4.366
    1C        C  227   4.519   3.378   4.367
    1C        C  228   4.520   3.593   4.487
    1C        C  229   4.533   3.526   4.611
    1C        C  230   4.498   3.737   4.726
    1C        C  231   4.537   3.600   4.731
    1C        C  232   4.491   3.812   4.845
    1C        C  233   4.548   3.752   4.958
    1C        C  234   4.016   2.609   2.062
    1C        C  235   3.894   2.541   2.063
    1C        C  236   4.081   2.649   2.179
    1C        C  237   4.018   2.609   2.299
    1C        C  238   4.197   2.725   2.420
    1C        C  239   4.079   2.646   2.421
    1C        C  240   4.243   2.782   2.540
    1C        C  241   4.190   2.740   2.665
    1C        C  242   4.333   2.902   2.782
    1C        C  243   4.247   2.790   2.784
    1C        C  244   4.372   2.962   2.904
    1C        C  245   4.329   2.907   3.027
    1C        C  246   4.434   3.092   3.144
    1C        C  247   4.369   2.967   3.148
    1C        C  248   4.456   3.159   3.266
    1C        C  249   4.427   3.100   3.391
    1C        C  250   4.493   3.300   3.513
    1C        C  251   4.461   3.163   3.513
    1C        C  252   4.510   3.371   3.634
    1C        C  253   4.501   3.301   3.757
    1C        C  254   4.525   3.512   3.876
    1C        C  255   4.514   3.371   3.879
    1C        C  256   4.514   3.584   3.997
    1C        C  257   4.512   3.516   4.120
    1C        C  258   4.494   3.726   4.241
    1C        C  259   4.517   3.587   4.242
    1C        C  260   4.472   3.798   4.361
    1C        C  261   4.485   3.730   4.484
    1C        C  262   4.429   3.937   4.601
    1C        C  263   4.475   3.803   4.604
    1C        C  264   4.400   4.007   4.721
    1C        C  265   4.432   3.941   4.841
    1C        C  266   4.319   4.129   4.956
    1C        C  267   4.398   4.015   4.955
    1C        C  268   4.263   2.774   2.063
    1C        C  269   4.194   2.734   2.178
    1C        C  270   4.336   2.890   2.299
    1C        C  271   4.251   2.776   2.300
    1C        C  272   4.378   2.952   2.419
    1C        C  273   4.335   2.889   2.539
    1C        C  274   4.436   3.081   2.656
    1C        C  275   4.377   2.952   2.658
    1C        C  276   4.466   3.149   2.776
    1C        C  277   4.439   3.086   2.900
    1C        C  278   4.501   3.291   3.022
    1C        C  279   4.464   3.155   3.021
    1C        C  280   4.510   3.363   3.143
    1C        C  281   4.495   3.295   3.266
    1C        C  282   4.517   3.506   3.387
    1C        C  283   4.507   3.365   3.388
    1C        C  284   4.514   3.577   3.509
    1C        C  285   4.520   3.512   3.634
    1C        C  286   4.493   3.723   3.752
    1C        C  287   4.519   3.584   3.755
    1C        C  288   4.468   3.789   3.874
    1C        C  289   4.482   3.722   3.997
    1C        C  290   4.423   3.927   4.115
    1C        C  291   4.470   3.794   4.119
    1C        C  292   4.393   3.993   4.236
    1C        C  293   4.423   3.930   4.359
    1C        C  294   4.317   4.117   4.476
    1C        C  295   4.394   3.999   4.479
    1C        C  296   4.277   4.179   4.597
    1C        C  297   4.320   4.125   4.720
    1C        C  298   4.193   4.307   4.837
    1C        C  299   4.279   4.193   4.838
    1C        C  300   4.171   4.403   4.941
    1C        C  301   4.356   2.878   2.060
    1C        C  302   4.465   3.065   2.176
    1C        C  303   4.395   2.940   2.180
    1C        C  304   4.480   3.139   2.296
    1C        C  305   4.448   3.074   2.417
    1C        C  306   4.503   3.284   2.536
    1C        C  307   4.471   3.147   2.536
    1C        C  308   4.516   3.356   2.657
    1C        C  309   4.506   3.284   2.779
    1C        C  310   4.526   3.499   2.898
    1C        C  311   4.517   3.358   2.898
    1C        C  312   4.519   3.571   3.019
    1C        C  313   4.512   3.504   3.143
    1C        C  314   4.483   3.716   3.263
    1C        C  315   4.508   3.577   3.264
    1C        C  316   4.465   3.785   3.385
    1C        C  317   4.483   3.715   3.507
    1C        C  318   4.421   3.919   3.626
    1C        C  319   4.469   3.787   3.628
    1C        C  320   4.383   3.981   3.748
    1C        C  321   4.415   3.920   3.871
    1C        C  322   4.312   4.107   3.989
    1C        C  323   4.387   3.987   3.993
    1C        C  324   4.271   4.166   4.111
    1C        C  325   4.316   4.112   4.233
    1C        C  326   4.181   4.279   4.352
    1C        C  327   4.274   4.173   4.354
    1C        C  328   4.134   4.334   4.474
    1C        C  329   4.185   4.286   4.597
    1C        C  330   4.022   4.435   4.710
    1C        C  331   4.132   4.345   4.714
    1C        C  332   3.968   4.491   4.828
    1C        C  333   4.046   4.467   4.942
    1C        C  334   4.551   3.264   2.058
    1C        C  335   4.530   3.126   2.063
    1C        C  336   4.539   3.345   2.172
    1C        C  337   4.518   3.276   2.293
    1C        C  338   4.529   3.492   2.411
    1C        C  339   4.520   3.351   2.413
    1C        C  340   4.523   3.565   2.531
    1C        C  341   4.524   3.497   2.654
    1C        C  342   4.493   3.708   2.772
    1C        C  343   4.520   3.569   2.775
    1C        C  344   4.471   3.777   2.894
    1C        C  345   4.493   3.710   3.016
    1C        C  346   4.419   3.910   3.137
    1C        C  347   4.472   3.779   3.137
    1C        C  348   4.384   3.976   3.257
    1C        C  349   4.416   3.917   3.381
    1C        C  350   4.311   4.099   3.498
    1C        C  351   4.390   3.982   3.504
    1C        C  352   4.270   4.159   3.620
    1C        C  353   4.311   4.103   3.742
    1C        C  354   4.173   4.262   3.865
    1C        C  355   4.270   4.159   3.865
    1C        C  356   4.122   4.312   3.986
    1C        C  357   4.173   4.268   4.110
    1C        C  358   4.008   4.403   4.229
    1C        C  359   4.124   4.323   4.231
    1C        C  360   3.951   4.447   4.351
    1C        C  361   4.018   4.414   4.471
    1C        C  362   3.825   4.516   4.593
    1C        C  363   3.955   4.460   4.589
    1C        C  364   3.759   4.551   4.713
    1C        C  365   3.836   4.540   4.831
    1C        C  366   3.626   4.586   4.952
    1C        C  367   3.764   4.569   4.948
    1C        C  368   4.508   3.558   2.051
    1C        C  369   4.522   3.485   2.170
    1C        C  370   4.501   3.702   2.286
    1C        C  371   4.523   3.562   2.288
    1C        C  372   4.485   3.774   2.406
    1C        C  373   4.495   3.704   2.528
    1C        C  374   4.422   3.905   2.646
    1C        C  375   4.473   3.774   2.649
    1C        C  376   4.387   3.970   2.767
    1C        C  377   4.417   3.907   2.890
    1C        C  378   4.312   4.090   3.009
    1C        C  379   4.389   3.971   3.013
    1C        C  380   4.263   4.147   3.128
    1C        C  381   4.301   4.090   3.252
    1C        C  382   4.168   4.253   3.376
    1C        C  383   4.263   4.148   3.375
    1C        C  384   4.113   4.300   3.498
    1C        C  385   4.171   4.260   3.620
    1C        C  386   4.004   4.391   3.741
    1C        C  387   4.119   4.308   3.742
    1C        C  388   3.943   4.427   3.863
    1C        C  389   4.004   4.390   3.985
    1C        C  390   3.815   4.490   4.107
    1C        C  391   3.943   4.429   4.106
    1C        C  392   3.749   4.516   4.229
    1C        C  393   3.821   4.501   4.350
    1C        C  394   3.616   4.558   4.473
    1C        C  395   3.755   4.533   4.471
    1C        C  396   3.544   4.571   4.594
    1C        C  397   3.619   4.567   4.714
    1C        C  398   3.409   4.555   4.838
    1C        C  399   3.549   4.577   4.836
    1C        C  400   3.346   4.511   4.955
    1C        C  401   4.502   3.697   2.051
    1C        C  402   4.450   3.909   2.163
    1C        C  403   4.497   3.776   2.166
    1C        C  404   4.408   3.972   2.282
    1C        C  405   4.434   3.906   2.404
    1C        C  406   4.318   4.089   2.524
    1C        C  407   4.394   3.970   2.524
    1C        C  408   4.275   4.150   2.644
    1C        C  409   4.308   4.087   2.766
    1C        C  410   4.172   4.251   2.886
    1C        C  411   4.267   4.147   2.887
    1C        C  412   4.116   4.296   3.008
    1C        C  413   4.166   4.250   3.132
    1C        C  414   3.999   4.378   3.250
    1C        C  415   4.118   4.303   3.254
    1C        C  416   3.938   4.412   3.373
    1C        C  417   3.998   4.382   3.498
    1C        C  418   3.807   4.474   3.617
    1C        C  419   3.938   4.422   3.620
    1C        C  420   3.742   4.492   3.741
    1C        C  421   3.810   4.475   3.863
    1C        C  422   3.608   4.537   3.986
    1C        C  423   3.745   4.504   3.985
    1C        C  424   3.538   4.539   4.108
    1C        C  425   3.609   4.538   4.230
    1C        C  426   3.400   4.554   4.353
    1C        C  427   3.542   4.556   4.353
    1C        C  428   3.332   4.551   4.477
    1C        C  429   3.404   4.560   4.598
    1C        C  430   3.194   4.515   4.723
    1C        C  431   3.333   4.547   4.720
    1C        C  432   3.126   4.494   4.846
    1C        C  433   3.208   4.488   4.960
    1C        C  434   4.384   4.119   2.049
    1C        C  435   4.445   3.993   2.051
    1C        C  436   4.301   4.159   2.159
    1C        C  437   4.332   4.093   2.281
    1C        C  438   4.176   4.243   2.399
    1C        C  439   4.277   4.145   2.400
    1C        C  440   4.121   4.295   2.519
    1C        C  441   4.173   4.247   2.641
    1C        C  442   4.002   4.374   2.763
    1C        C  443   4.120   4.296   2.762
    1C        C  444   3.936   4.406   2.884
    1C        C  445   3.996   4.370   3.006
    1C        C  446   3.810   4.475   3.128
    1C        C  447   3.936   4.411   3.128
    1C        C  448   3.743   4.495   3.251
    1C        C  449   3.809   4.470   3.373
    1C        C  450   3.603   4.523   3.494
    1C        C  451   3.742   4.498   3.494
    1C        C  452   3.536   4.536   3.619
    1C        C  453   3.606   4.529   3.741
    1C        C  454   3.396   4.547   3.864
    1C        C  455   3.538   4.548   3.864
    1C        C  456   3.327   4.542   3.987
    1C        C  457   3.397   4.550   4.109
    1C        C  458   3.191   4.513   4.235
    1C        C  459   3.328   4.549   4.232
    1C        C  460   3.128   4.486   4.358
    1C        C  461   3.195   4.516   4.479
    1C        C  462   3.000   4.433   4.601
    1C        C  463   3.128   4.491   4.601
    1C        C  464   2.937   4.394   4.721
    1C        C  465   2.994   4.440   4.843
    1C        C  466   2.808   4.329   4.956
    1C        C  467   2.909   4.426   4.957
    1C        C  468   4.119   4.283   2.042
    1C        C  469   4.188   4.246   2.159
    1C        C  470   4.005   4.369   2.280
    1C        C  471   4.125   4.293   2.277
    1C        C  472   3.935   4.400   2.399
    1C        C  473   4.003   4.373   2.520
    1C        C  474   3.812   4.469   2.641
    1C        C  475   3.941   4.410   2.641
    1C        C  476   3.742   4.490   2.762
    1C        C  477   3.810   4.471   2.884
    1C        C  478   3.605   4.524   3.009
    1C        C  479   3.744   4.497   3.006
    1C        C  480   3.530   4.529   3.129
    1C        C  481   3.604   4.520   3.249
    1C        C  482   3.393   4.539   3.376
    1C        C  483   3.534   4.532   3.371
    1C        C  484   3.324   4.534   3.499
    1C        C  485   3.395   4.540   3.621
    1C        C  486   3.188   4.500   3.742
    1C        C  487   3.324   4.537   3.743
    1C        C  488   3.125   4.479   3.867
    1C        C  489   3.190   4.507   3.989
    1C        C  490   3.004   4.414   4.114
    1C        C  491   3.125   4.487   4.113
    1C        C  492   2.944   4.378   4.237
    1C        C  493   3.001   4.424   4.358
    1C        C  494   2.836   4.294   4.481
    1C        C  495   2.941   4.388   4.481
    1C        C  496   2.778   4.253   4.603
    1C        C  497   2.822   4.310   4.724
    1C        C  498   2.664   4.161   4.843
    1C        C  499   2.755   4.268   4.841
    1C        C  500   2.595   4.113   4.956
    1C        C  501   4.003   4.358   2.039
    1C        C  502   3.813   4.459   2.154
    1C        C  503   3.942   4.401   2.158
    1C        C  504   3.743   4.485   2.274
    1C        C  505   3.803   4.450   2.397
    1C        C  506   3.603   4.508   2.519
    1C        C  507   3.742   4.486   2.519
    1C        C  508   3.532   4.520   2.640
    1C        C  509   3.603   4.513   2.762
    1C        C  510   3.394   4.526   2.886
    1C        C  511   3.536   4.526   2.886
    1C        C  512   3.321   4.525   3.006
    1C        C  513   3.389   4.536   3.130
    1C        C  514   3.186   4.496   3.254
    1C        C  515   3.321   4.535   3.254
    1C        C  516   3.121   4.465   3.376
    1C        C  517   3.187   4.498   3.496
    1C        C  518   2.997   4.411   3.624
    1C        C  519   3.121   4.477   3.620
    1C        C  520   2.941   4.373   3.747
    1C        C  521   3.001   4.412   3.869
    1C        C  522   2.837   4.280   3.993
    1C        C  523   2.946   4.371   3.992
    1C        C  524   2.790   4.232   4.117
    1C        C  525   2.838   4.286   4.239
    1C        C  526   2.703   4.123   4.361
    1C        C  527   2.784   4.239   4.361
    1C        C  528   2.661   4.069   4.484
    1C        C  529   2.693   4.140   4.602
    1C        C  530   2.588   3.957   4.728
    1C        C  531   2.646   4.087   4.724
    1C        C  532   2.543   3.901   4.851
    1C        C  533   2.526   3.991   4.960
    1C        C  534   3.617   4.553   2.038
    1C        C  535   3.751   4.509   2.039
    1C        C  536   3.535   4.533   2.153
    1C        C  537   3.603   4.508   2.276
    1C        C  538   3.391   4.516   2.396
    1C        C  539   3.532   4.522   2.397
    1C        C  540   3.320   4.509   2.518
    1C        C  541   3.391   4.520   2.640
    1C        C  542   3.186   4.482   2.765
    1C        C  543   3.323   4.517   2.764
    1C        C  544   3.118   4.464   2.888
    1C        C  545   3.185   4.487   3.010
    1C        C  546   2.998   4.393   3.132
    1C        C  547   3.119   4.465   3.133
    1C        C  548   2.939   4.359   3.256
    1C        C  549   2.998   4.396   3.379
    1C        C  550   2.830   4.275   3.504
    1C        C  551   2.940   4.364   3.503
    1C        C  552   2.781   4.229   3.628
    1C        C  553   2.835   4.280   3.749
    1C        C  554   2.702   4.116   3.873
    1C        C  555   2.788   4.228   3.872
    1C        C  556   2.664   4.057   3.996
    1C        C  557   2.701   4.123   4.115
    1C        C  558   2.599   3.939   4.244
    1C        C  559   2.669   4.061   4.238
    1C        C  560   2.567   3.877   4.367
    1C        C  561   2.595   3.944   4.488
    1C        C  562   2.531   3.744   4.612
    1C        C  563   2.566   3.881   4.611
    1C        C  564   2.512   3.679   4.736
    1C        C  565   2.516   3.760   4.853
    1C        C  566   2.521   3.545   4.975
    1C        C  567   2.522   3.684   4.970
    1C        C  568   3.325   4.477   2.038
    1C        C  569   3.394   4.512   2.154
    1C        C  570   3.181   4.477   2.280
    1C        C  571   3.319   4.510   2.275
    1C        C  572   3.111   4.459   2.401
    1C        C  573   3.182   4.479   2.521
    1C        C  574   2.988   4.401   2.646
    1C        C  575   3.116   4.461   2.644
    1C        C  576   2.929   4.362   2.768
    1C        C  577   2.993   4.400   2.889
    1C        C  578   2.821   4.274   3.013
    1C        C  579   2.933   4.359   3.010
    1C        C  580   2.776   4.222   3.137
    1C        C  581   2.829   4.270   3.258
    1C        C  582   2.696   4.109   3.384
    1C        C  583   2.785   4.219   3.382
    1C        C  584   2.657   4.054   3.508
    1C        C  585   2.696   4.116   3.629
    1C        C  586   2.593   3.932   3.753
    1C        C  587   2.657   4.058   3.752
    1C        C  588   2.570   3.867   3.877
    1C        C  589   2.603   3.930   4.000
    1C        C  590   2.530   3.735   4.125
    1C        C  591   2.575   3.869   4.124
    1C        C  592   2.512   3.668   4.249
    1C        C  593   2.527   3.741   4.369
    1C        C  594   2.509   3.530   4.494
    1C        C  595   2.522   3.671   4.491
    1C        C  596   2.512   3.463   4.619
    1C        C  597   2.512   3.537   4.739
    1C        C  598   2.533   3.324   4.859
    1C        C  599   2.524   3.464   4.860
    1C        C  600   2.537   3.245   4.975
    1C        C  601   3.194   4.433   2.041
    1C        C  602   2.984   4.387   2.161
    1C        C  603   3.119   4.433   2.159
    1C        C  604   2.923   4.352   2.285
    1C        C  605   2.984   4.396   2.404
    1C        C  606   2.819   4.266   2.527
    1C        C  607   2.925   4.360   2.527
    1C        C  608   2.771   4.217   2.651
    1C        C  609   2.823   4.268   2.772
    1C        C  610   2.687   4.105   2.894
    1C        C  611   2.772   4.218   2.893
    1C        C  612   2.650   4.048   3.018
    1C        C  613   2.694   4.107   3.139
    1C        C  614   2.595   3.922   3.262
    1C        C  615   2.657   4.050   3.262
    1C        C  616   2.570   3.861   3.387
    1C        C  617   2.595   3.927   3.509
    1C        C  618   2.531   3.728   3.635
    1C        C  619   2.567   3.864   3.632
    1C        C  620   2.517   3.661   3.758
    1C        C  621   2.528   3.733   3.879
    1C        C  622   2.507   3.525   4.006
    1C        C  623   2.516   3.666   4.003
    1C        C  624   2.513   3.455   4.129
    1C        C  625   2.506   3.527   4.250
    1C        C  626   2.532   3.318   4.376
    1C        C  627   2.509   3.458   4.373
    1C        C  628   2.551   3.250   4.498
    1C        C  629   2.531   3.323   4.617
    1C        C  630   2.591   3.118   4.740
    1C        C  631   2.545   3.252   4.738
    1C        C  632   2.614   3.048   4.862
    1C        C  633   2.562   3.107   4.982
    1C        C  634   2.782   4.298   2.053
    1C        C  635   2.895   4.382   2.049
    1C        C  636   2.744   4.226   2.166
    1C        C  637   2.808   4.268   2.285
    1C        C  638   2.677   4.104   2.410
    1C        C  639   2.763   4.216   2.408
    1C        C  640   2.640   4.043   2.532
    1C        C  641   2.686   4.104   2.650
    1C        C  642   2.587   3.917   2.775
    1C        C  643   2.647   4.045   2.773
    1C        C  644   2.565   3.851   2.898
    1C        C  645   2.588   3.921   3.018
    1C        C  646   2.524   3.720   3.147
    1C        C  647   2.565   3.855   3.141
    1C        C  648   2.507   3.653   3.270
    1C        C  649   2.527   3.727   3.389
    1C        C  650   2.506   3.518   3.516
    1C        C  651   2.516   3.659   3.512
    1C        C  652   2.512   3.450   3.639
    1C        C  653   2.509   3.520   3.762
    1C        C  654   2.531   3.312   3.884
    1C        C  655   2.506   3.451   3.885
    1C        C  656   2.549   3.248   4.009
    1C        C  657   2.531   3.315   4.133
    1C        C  658   2.601   3.116   4.254
    1C        C  659   2.547   3.247   4.255
    1C        C  660   2.634   3.055   4.377
    1C        C  661   2.598   3.116   4.499
    1C        C  662   2.707   2.935   4.621
    1C        C  663   2.625   3.050   4.620
    1C        C  664   2.747   2.877   4.744
    1C        C  665   2.694   2.930   4.865
    1C        C  666   2.737   2.867   4.982
    1C        C  667   2.678   4.022   2.053
    1C        C  668   2.677   4.102   2.168
    1C        C  669   2.588   3.907   2.290
    1C        C  670   2.641   4.039   2.289
    1C        C  671   2.561   3.842   2.413
    1C        C  672   2.580   3.915   2.532
    1C        C  673   2.511   3.716   2.658
    1C        C  674   2.553   3.851   2.654
    1C        C  675   2.502   3.647   2.780
    1C        C  676   2.531   3.714   2.901
    1C        C  677   2.504   3.509   3.030
    1C        C  678   2.511   3.650   3.025
    1C        C  679   2.508   3.440   3.153
    1C        C  680   2.498   3.512   3.274
    1C        C  681   2.526   3.303   3.398
    1C        C  682   2.503   3.443   3.397
    1C        C  683   2.548   3.237   3.521
    1C        C  684   2.534   3.310   3.641
    1C        C  685   2.595   3.109   3.769
    1C        C  686   2.544   3.240   3.763
    1C        C  687   2.635   3.050   3.891
    1C        C  688   2.603   3.118   4.011
    1C        C  689   2.716   2.937   4.135
    1C        C  690   2.634   3.053   4.132
    1C        C  691   2.755   2.879   4.258
    1C        C  692   2.709   2.935   4.379
    1C        C  693   2.752   2.877   4.501
    1C        C  694   2.625   3.892   2.053
    1C        C  695   2.523   3.703   2.172
    1C        C  696   2.577   3.833   2.171
    1C        C  697   2.502   3.635   2.294
    1C        C  698   2.518   3.707   2.414
    1C        C  699   2.486   3.501   2.540
    1C        C  700   2.501   3.642   2.538
    1C        C  701   2.496   3.432   2.663
    1C        C  702   2.493   3.506   2.784
    1C        C  703   2.519   3.298   2.910
    1C        C  704   2.501   3.438   2.908
    1C        C  705   2.541   3.229   3.031
    1C        C  706   2.526   3.300   3.153
    1C        C  707   2.596   3.103   3.280
    1C        C  708   2.542   3.234   3.277
    1C        C  709   2.633   3.043   3.403
    1C        C  710   2.605   3.107   3.526
    1C        C  711   2.711   2.927   3.648
    1C        C  712   2.631   3.043   3.649
    1C        C  713   2.758   2.874   3.770
    1C        C  714   2.712   2.932   3.890
    1C        C  715   2.751   2.875   4.014
    1C        C  716   2.448   3.496   2.060
    1C        C  717   2.490   3.630   2.057
    1C        C  718   2.461   3.419   2.180
    1C        C  719   2.480   3.495   2.299
    1C        C  720   2.511   3.287   2.424
    1C        C  721   2.484   3.425   2.421
    1C        C  722   2.535   3.222   2.547
    1C        C  723   2.520   3.293   2.668
    1C        C  724   2.593   3.094   2.790
    1C        C  725   2.540   3.225   2.791
    1C        C  726   2.621   3.029   2.912
    1C        C  727   2.595   3.098   3.033
    1C        C  728   2.709   2.925   3.157
    1C        C  729   2.631   3.043   3.157
    1C        C  730   2.758   2.875   3.279
    1C        C  731   2.706   2.923   3.402
    1C        C  732   2.752   2.871   3.525
    1C        C  733   2.486   3.193   2.070
    1C        C  734   2.488   3.279   2.181
    1C        C  735   2.584   3.086   2.301
    1C        C  736   2.525   3.216   2.303
    1C        C  737   2.616   3.024   2.424
    1C        C  738   2.595   3.094   2.544
    1C        C  739   2.698   2.911   2.669
    1C        C  740   2.625   3.032   2.667
    1C        C  741   2.741   2.853   2.791
    1C        C  742   2.699   2.911   2.912
    1C        C  743   2.751   2.866   3.035
    1C        C  744   2.544   3.067   2.071
    1C        C  745   2.685   2.894   2.184
    1C        C  746   2.606   3.011   2.184
    1C        C  747   2.732   2.843   2.307
    1C        C  748   2.686   2.901   2.427
    1C        C  749   2.733   2.846   2.549
    1C        C  750   2.734   2.838   2.066
    1C        C  751   3.678   2.354   1.950
    1C        O  752   3.688   2.229   1.932
    1C        O  753   3.679   2.420   1.827
    1C        C  754   4.625   3.054   1.976
    1C        O  755   4.582   3.003   1.869
    1C        O  756   4.756   3.018   2.010
    1C        C  757   4.451   4.228   1.976
    1C        O  758   4.537   4.304   2.028
    1C        O  759   4.434   4.244   1.838
    1C        C  760   3.599   4.676   1.958
    1C        O  761   3.646   4.790   1.987
    1C        O  762   3.522   4.669   1.842
    1C        C  763   2.892   4.479   1.937
    1C        O  764   2.892   4.441   1.817
    1C        O  765   2.868   4.616   1.952
    1C        C  766   2.352   3.464   1.952
    1C        O  767   2.393   3.463   1.833
    1C        O  768   2.216   3.495   1.966
    1C        C  769   4.682   3.594   5.072
    1C        O  770   4.663   3.561   5.192
    1C        O  771   4.817   3.578   5.038
    1C        C  772   4.279   4.482   5.004
    1C        O  773   4.325   4.462   5.119
    1C        O  774   4.369   4.563   4.933
    1C        C  775   4.127   2.536   5.094
    1C        O  776   4.167   2.417   5.089
    1C        O  777   4.095   2.560   5.229
    1C        C  778   2.877   4.541   5.045
    1C        O  779   2.773   4.605   5.014
    1C        O  780   2.892   4.532   5.184
    1C        C  781   2.454   3.046   5.062
    1C        O  782   2.360   2.981   5.008
    1C        O  783   2.479   2.980   5.181
    1C        C  784   2.402   3.986   5.041
    1C        O  785   2.296   4.047   5.011
    1C        O  786   2.398   3.937   5.173
    1C        C  787   2.955   2.406   2.013
    1C        O  788   2.944   2.408   1.887
    1C        O  789   2.908   2.288   2.070
    1C        C  790   3.183   2.371   5.060
    1C        O  791   3.147   2.258   5.018
    1C        O  792   3.205   2.397   5.196
    1C        H  793   4.293   3.020   5.059
    1C        H  794   4.132   2.845   5.042
    1C        H  795   4.535   3.123   5.043
    1C        H  796   4.528   3.365   5.067
    1C        H  797   4.519   3.793   5.052
    1C        H  798   4.465   4.016   5.038
    1C        H  799   4.314   4.190   5.045
    1C        H  800   3.995   4.462   5.036
    1C        H  801   3.818   4.622   5.024
    1C        H  802   3.583   4.641   5.033
    1C        H  803   3.403   4.461   5.031
    1C        H  804   3.169   4.441   5.047
    1C        H  805   3.879   2.520   5.070
    1C        H  806   3.672   2.491   5.074
    1C        H  807   3.006   2.559   5.065
    1C        H  808   3.442   2.419   5.062
    1C        H  809   2.860   2.728   5.073
    1C        H  810   2.660   2.839   5.051
    1C        H  811   2.493   3.287   5.062
    1C        H  812   2.480   3.499   5.062
    1C        H  813   2.543   3.737   5.060
    1C        H  814   2.584   4.172   5.044
    1C        H  815   2.739   4.345   5.037
    1C        H  816   2.735   2.897   1.976
    1C        H  817   2.822   2.661   1.984
    1C        H  818   3.211   2.456   1.981
    1C        H  819   3.430   2.472   1.979
    1C        H  820   3.843   2.534   1.970
    1C        H  821   4.072   2.607   1.971
    1C        H  822   4.260   2.714   1.974
    1C        H  823   4.365   2.937   1.972
    1C        H  824   4.576   3.308   1.963
    1C        H  825   4.532   3.510   1.958
    1C        H  826   4.517   3.738   1.954
    1C        H  827   3.815   4.538   1.958
    1C        H  828   3.988   4.409   1.946
    1C        H  829   4.189   4.294   1.961
    1C        H  830   4.483   3.958   1.957
    1C        H  831   2.657   3.834   1.969
    1C        H  832   2.712   4.064   1.960
    1C        H  833   2.704   4.313   1.981
    1C        H  834   3.366   4.497   1.941
    1C        H  835   3.185   4.343   1.983
    1C        H  836   2.545   3.009   1.981
    1C        H  837   2.457   3.228   1.973
    1C        H  838   2.534   3.657   1.963
    2V3OU   H29  839   2.796   3.548   5.041
    2V3OU   C27  840   2.777   3.498   5.139
    2V3OU   H27  841   2.723   3.565   5.210
    2V3OU   H28  842   2.721   3.402   5.126
    2V3OU   O11  843   2.902   3.475   5.206
    2V3OU   C15  844   2.922   3.397   5.318
    2V3OU   C13  845   3.053   3.379   5.367
    2V3OU   C14  846   3.072   3.266   5.448
    2V3OU   C16  847   2.970   3.184   5.494
    2V3OU    H6  848   2.986   3.108   5.572
    2V3OU   C12  849   3.214   3.234   5.473
    2V3OU    O2  850   3.237   3.128   5.535
    2V3OU   C10  851   3.328   3.306   5.413
    2V3OU    C8  852   3.459   3.262   5.426
    2V3OU   O10  853   3.492   3.147   5.492
    2V3OU   H26  854   3.402   3.114   5.508
    2V3OU    C6  855   3.563   3.343   5.371
    2V3OU    C5  856   3.537   3.466   5.312
    2V3OU    C4  857   3.702   3.290   5.369
    2V3OU    H4  858   3.720   3.226   5.460
    2V3OU    H5  859   3.708   3.225   5.277
    2V3OU    C2  860   3.814   3.395   5.365
    2V3OU    O6  861   3.804   3.473   5.484
    2V3OU   H21  862   3.764   3.559   5.467
    2V3OU    C3  863   3.777   3.488   5.250
    2V3OU    H2  864   3.855   3.568   5.243
    2V3OU    H3  865   3.778   3.434   5.152
    2V3OU   C25  866   3.951   3.329   5.347
    2V3OU    O7  867   3.999   3.290   5.241
    2V3OU   C26  868   4.028   3.288   5.471
    2V3OU   H22  869   4.057   3.382   5.524
    2V3OU   H23  870   4.118   3.227   5.442
    2V3OU    O8  871   3.958   3.200   5.556
    2V3OU   H24  872   3.930   3.256   5.630
    2V3OU    C1  873   3.644   3.560   5.266
    2V3OU    H1  874   3.620   3.614   5.169
    2V3OU    O3  875   3.660   3.653   5.373
    2V3OU   C19  876   3.619   3.789   5.360
    2V3OU    H9  877   3.520   3.792   5.306
    2V3OU    O4  878   3.715   3.848   5.275
    2V3OU   C20  879   3.843   3.872   5.334
    2V3OU   H10  880   3.900   3.774   5.344
    2V3OU   C24  881   3.610   3.855   5.498
    2V3OU   H16  882   3.544   3.793   5.563
    2V3OU   H17  883   3.562   3.956   5.489
    2V3OU   C23  884   3.747   3.878   5.563
    2V3OU   H15  885   3.789   3.777   5.597
    2V3OU    N1  886   3.731   3.957   5.683
    2V3OU   H19  887   3.797   3.931   5.753
    2V3OU   H20  888   3.640   3.932   5.717
    2V3OU   C21  889   3.848   3.947   5.467
    2V3OU   H11  890   3.952   3.930   5.509
    2V3OU    O5  891   3.829   4.087   5.454
    2V3OU   H18  892   3.779   4.107   5.534
    2V3OU   C22  893   3.910   3.948   5.221
    2V3OU   H12  894   3.857   4.046   5.209
    2V3OU   H13  895   3.904   3.891   5.124
    2V3OU   H14  896   4.018   3.961   5.247
    2V3OU   C11  897   3.159   3.471   5.323
    2V3OU    O1  898   3.126   3.584   5.283
    2V3OU    C9  899   3.298   3.425   5.341
    2V3OU    C7  900   3.401   3.503   5.289
    2V3OU    O9  901   3.380   3.619   5.217
    2V3OU   H25  902   3.284   3.624   5.234
    2V3OU   C17  903   2.817   3.317   5.368
    2V3OU    H7  904   2.716   3.336   5.331
    2V3OU   C18  905   2.839   3.210   5.455
    2V3OU    H8  906   2.753   3.144   5.472
    3SOL     OW  907   3.908   3.866   4.543
    3SOL    HW1  908   3.996   3.821   4.531
    3SOL    HW2  909   3.910   3.923   4.625
    4SOL     OW  910   6.406   0.140   0.192
    4SOL    HW1  911   6.487   0.084   0.210
    4SOL    HW2  912   6.371   0.119   0.101
    5SOL     OW  913   4.128   1.081   1.351
    5SOL    HW1  914   4.178   1.165   1.332
    5SOL    HW2  915   4.183   1.002   1.324
    6SOL     OW  916   5.659   6.927   2.484
    6SOL    HW1  917   5.579   6.979   2.515
    6SOL    HW2  918   5.732   6.990   2.458
    7SOL     OW  919   1.878   4.477   3.793
    7SOL    HW1  920   1.850   4.514   3.882
    7SOL    HW2  921   1.876   4.550   3.725
    8SOL     OW  922   2.096   3.250   5.701
    8SOL    HW1  923   2.119   3.347   5.703
    8SOL    HW2  924   2.044   3.229   5.618
    9SOL     OW  925   6.098   1.284   6.406
    9SOL    HW1  926   6.011   1.236   6.398
    9SOL    HW2  927   6.167   1.222   6.446
   10SOL     OW  928   4.701   4.762   3.378
   10SOL    HW1  929   4.671   4.852   3.410
   10SOL    HW2  930   4.666   4.691   3.438
   11SOL     OW  931   2.119   1.025   0.590
   11SOL    HW1  932   2.118   1.056   0.495
   11SOL    HW2  933   2.111   0.925   0.593
   12SOL     OW  934   3.245   5.138   3.413
   12SOL    HW1  935   3.261   5.048   3.453
   12SOL    HW2  936   3.176   5.187   3.466
   13SOL     OW  937   4.604   5.853   2.010
   13SOL    HW1  938   4.684   5.883   1.958
   13SOL    HW2  939   4.630   5.775   2.067
   14SOL     OW  940   4.630   5.022   4.889
   14SOL    HW1  941   4.561   5.096   4.886
   14SOL    HW2  942   4.721   5.062   4.877
   15SOL     OW  943   0.311   5.460   6.011
   15SOL    HW1  944   0.319   5.409   6.097
   15SOL    HW2  945   0.237   5.527   6.019
   16SOL     OW  946   0.015   3.181   5.483
   16SOL    HW1  947   0.013   3.175   5.383
   16SOL    HW2  948   0.063   3.101   5.520
   17SOL     OW  949   6.392   1.167   5.214
   17SOL    HW1  950   6.459   1.101   5.246
   17SOL    HW2  951   6.436   1.256   5.202
   18SOL     OW  952   3.553   0.409   5.547
   18SOL    HW1  953   3.547   0.420   5.448
   18SOL    HW2  954   3.649   0.394   5.573
   19SOL     OW  955   1.079   1.377   2.803
   19SOL    HW1  956   1.111   1.450   2.864
   19SOL    HW2  957   1.154   1.348   2.744
   20SOL     OW  958   5.773   1.847   5.081
   20SOL    HW1  959   5.799   1.933   5.039
   20SOL    HW2  960   5.776   1.774   5.013
   21SOL     OW  961   2.971   5.749   2.328
   21SOL    HW1  962   2.921   5.821   2.376
   21SOL    HW2  963   3.050   5.788   2.281
   22SOL     OW  964   2.571   6.608   5.352
   22SOL    HW1  965   2.636   6.533   5.335
   22SOL    HW2  966   2.502   6.577   5.417
   23SOL     OW  967   5.429   4.154   2.021
   23SOL    HW1  968   5.407   4.240   2.067
   23SOL    HW2  969   5.524   4.130   2.038
   24SOL     OW  970   4.443   0.486   1.302
   24SOL    HW1  971   4.524   0.520   1.350
   24SOL    HW2  972   4.362   0.506   1.356
   25SOL     OW  973   2.648   6.988   3.913
   25SOL    HW1  974   2.748   6.993   3.904
   25SOL    HW2  975   2.625   6.926   3.989
   26SOL     OW  976   0.998   2.713   0.019
   26SOL    HW1  977   1.033   2.658   6.963
   26SOL    HW2  978   0.940   2.786   7.003
   27SOL     OW  979   6.544   1.319   1.259
   27SOL    HW1  980   6.478   1.343   1.329
   27SOL    HW2  981   6.625   1.278   1.301
   28SOL     OW  982   2.661   0.455   4.777
   28SOL    HW1  983   2.679   0.400   4.695
   28SOL    HW2  984   2.686   0.402   4.858
   29SOL     OW  985   0.135   0.385   0.280
   29SOL    HW1  986   0.128   0.462   0.217
   29SOL    HW2  987   0.114   0.416   0.373
   30SOL     OW  988   4.258   0.672   5.126
   30SOL    HW1  989   4.160   0.664   5.144
   30SOL    HW2  990   4.282   0.612   5.050
   31SOL     OW  991   1.018   2.915   5.387
   31SOL    HW1  992   0.985   2.962   5.305
   31SOL    HW2  993   1.094   2.855   5.363
   32SOL     OW  994   1.715   0.291   1.302
   32SOL    HW1  995   1.789   0.247   1.252
   32SOL    HW2  996   1.716   0.390   1.285
   33SOL     OW  997   0.646   4.600   5.965
   33SOL    HW1  998   0.674   4.575   5.873
   33SOL    HW2  999   0.589   4.527   6.003
   34SOL     OW 1000   1.795   5.035   5.145
   34SOL    HW1 1001   1.718   5.083   5.188
   34SOL    HW2 1002   1.760   4.955   5.095
   35SOL     OW 1003   3.716   2.587   0.323
   35SOL    HW1 1004   3.754   2.677   0.303
   35SOL    HW2 1005   3.621   2.583   0.292
   36SOL     OW 1006   4.752   0.691   4.143
   36SOL    HW1 1007   4.771   0.687   4.044
   36SOL    HW2 1008   4.823   0.745   4.188
   37SOL     OW 1009   2.040   1.017   3.538
   37SOL    HW1 1010   2.068   0.943   3.478
   37SOL    HW2 1011   2.094   1.099   3.517
   38SOL     OW 1012   1.303   4.474   2.335
   38SOL    HW1 1013   1.388   4.421   2.328
   38SOL    HW2 1014   1.323   4.564   2.374
   39SOL     OW 1015   6.495   5.277   6.556
   39SOL    HW1 1016   6.595   5.278   6.556
   39SOL    HW2 1017   6.462   5.318   6.471
   40SOL     OW 1018   3.580   0.772   6.028
   40SOL    HW1 1019   3.506   0.705   6.018
   40SOL    HW2 1020   3.610   0.774   6.124
   41SOL     OW 1021   6.339   4.021   1.889
   41SOL    HW1 1022   6.264   3.968   1.928
   41SOL    HW2 1023   6.418   3.960   1.876
   42SOL     OW 1024   2.362   5.905   5.680
   42SOL    HW1 1025   2.396   5.992   5.716
   42SOL    HW2 1026   2.433   5.862   5.625
   43SOL     OW 1027   5.183   6.729   4.730
   43SOL    HW1 1028   5.088   6.699   4.719
   43SOL    HW2 1029   5.245   6.652   4.714
   44SOL     OW 1030   6.069   2.303   5.374
   44SOL    HW1 1031   6.074   2.233   5.303
   44SOL    HW2 1032   6.000   2.371   5.350
   45SOL     OW 1033   4.138   5.017   0.190
   45SOL    HW1 1034   4.058   5.074   0.167
   45SOL    HW2 1035   4.192   5.003   0.107
   46SOL     OW 1036   0.552   3.066   4.717
   46SOL    HW1 1037   0.502   3.106   4.639
   46SOL    HW2 1038   0.593   2.980   4.689
   47SOL     OW 1039   5.773   2.896   1.746
   47SOL    HW1 1040   5.679   2.862   1.753
   47SOL    HW2 1041   5.770   2.993   1.719
   48SOL     OW 1042   6.509   3.903   6.937
   48SOL    HW1 1043   6.445   3.958   6.883
   48SOL    HW2 1044   6.602   3.919   6.903
   49SOL     OW 1045   4.307   3.555   6.953
   49SOL    HW1 1046   4.208   3.539   6.953
   49SOL    HW2 1047   4.349   3.503   0.008
   50SOL     OW 1048   6.331   3.248   6.372
   50SOL    HW1 1049   6.268   3.197   6.431
   50SOL    HW2 1050   6.372   3.324   6.423
   51SOL     OW 1051   2.516   5.341   3.389
   51SOL    HW1 1052   2.519   5.386   3.300
   51SOL    HW2 1053   2.484   5.247   3.378
   52SOL     OW 1054   5.811   2.558   1.696
   52SOL    HW1 1055   5.872   2.479   1.701
   52SOL    HW2 1056   5.788   2.576   1.600
   53SOL     OW 1057   3.842   0.536   2.754
   53SOL    HW1 1058   3.864   0.590   2.673
   53SOL    HW2 1059   3.751   0.560   2.787
   54SOL     OW 1060   5.085   6.789   6.849
   54SOL    HW1 1061   5.006   6.766   6.905
   54SOL    HW2 1062   5.072   6.754   6.756
   55SOL     OW 1063   1.829   3.358   6.234
   55SOL    HW1 1064   1.766   3.280   6.229
   55SOL    HW2 1065   1.778   3.443   6.243
   56SOL     OW 1066   1.605   2.463   6.789
   56SOL    HW1 1067   1.602   2.416   6.877
   56SOL    HW2 1068   1.694   2.446   6.745
   57SOL     OW 1069   4.158   0.698   0.059
   57SOL    HW1 1070   4.090   0.744   0.116
   57SOL    HW2 1071   4.241   0.680   0.113
   58SOL     OW 1072   0.876   0.878   6.178
   58SOL    HW1 1073   0.949   0.900   6.243
   58SOL    HW2 1074   0.861   0.779   6.178
   59SOL     OW 1075   5.144   3.581   6.385
   59SOL    HW1 1076   5.161   3.613   6.478
   59SOL    HW2 1077   5.060   3.526   6.383
   60SOL     OW 1078   5.476   0.406   2.961
   60SOL    HW1 1079   5.567   0.375   2.990
   60SOL    HW2 1080   5.462   0.500   2.993
   61SOL     OW 1081   0.292   6.934   5.023
   61SOL    HW1 1082   0.384   6.953   4.990
   61SOL    HW2 1083   0.296   6.888   5.111
   62SOL     OW 1084   6.948   2.216   2.199
   62SOL    HW1 1085   6.930   2.228   2.101
   62SOL    HW2 1086   0.019   2.252   2.221
   63SOL     OW 1087   4.384   6.279   4.708
   63SOL    HW1 1088   4.418   6.194   4.667
   63SOL    HW2 1089   4.339   6.333   4.637
   64SOL     OW 1090   1.301   5.033   6.839
   64SOL    HW1 1091   1.333   4.943   6.810
   64SOL    HW2 1092   1.379   5.093   6.855
   65SOL     OW 1093   0.389   0.499   5.268
   65SOL    HW1 1094   0.420   0.584   5.309
   65SOL    HW2 1095   0.441   0.422   5.307
   66SOL     OW 1096   4.205   0.721   2.126
   66SOL    HW1 1097   4.209   0.672   2.039
   66SOL    HW2 1098   4.285   0.781   2.133
   67SOL     OW 1099   0.347   2.778   0.699
   67SOL    HW1 1100   0.295   2.696   0.721
   67SOL    HW2 1101   0.306   2.857   0.745
   68SOL     OW 1102   6.478   2.318   5.476
   68SOL    HW1 1103   6.479   2.219   5.484
   68SOL    HW2 1104   6.530   2.358   5.551
   69SOL     OW 1105   1.243   5.158   6.362
   69SOL    HW1 1106   1.177   5.083   6.366
   69SOL    HW2 1107   1.217   5.220   6.288
   70SOL     OW 1108   5.260   2.941   4.389
   70SOL    HW1 1109   5.313   3.026   4.390
   70SOL    HW2 1110   5.165   2.960   4.415
   71SOL     OW 1111   4.087   1.632   4.431
   71SOL    HW1 1112   4.048   1.711   4.478
   71SOL    HW2 1113   4.169   1.602   4.479
   72SOL     OW 1114   6.648   1.043   3.626
   72SOL    HW1 1115   6.719   1.068   3.560
   72SOL    HW2 1116   6.597   1.126   3.652
   73SOL     OW 1117   2.325   0.643   1.086
   73SOL    HW1 1118   2.240   0.645   1.032
   73SOL    HW2 1119   2.333   0.727   1.139
   74SOL     OW 1120   1.732   1.887   0.352
   74SOL    HW1 1121   1.705   1.823   0.424
   74SOL    HW2 1122   1.826   1.918   0.368
   75SOL     OW 1123   4.259   1.883   0.934
   75SOL    HW1 1124   4.245   1.805   0.873
   75SOL    HW2 1125   4.319   1.950   0.889
   76SOL     OW 1126   3.012   4.505   5.404
   76SOL    HW1 1127   3.093   4.449   5.388
   76SOL    HW2 1128   2.961   4.515   5.318
   77SOL     OW 1129   1.726   4.190   4.083
   77SOL    HW1 1130   1.686   4.207   3.993
   77SOL    HW2 1131   1.662   4.138   4.139
   78SOL     OW 1132   4.429   1.458   1.183
   78SOL    HW1 1133   4.421   1.554   1.212
   78SOL    HW2 1134   4.506   1.449   1.121
   79SOL     OW 1135   2.010   5.450   1.968
   79SOL    HW1 1136   2.092   5.420   1.918
   79SOL    HW2 1137   2.017   5.422   2.063
   80SOL     OW 1138   4.924   1.860   4.946
   80SOL    HW1 1139   4.989   1.895   5.014
   80SOL    HW2 1140   4.864   1.793   4.989
   81SOL     OW 1141   3.049   5.987   1.571
   81SOL    HW1 1142   3.060   6.033   1.659
   81SOL    HW2 1143   3.005   6.048   1.506
   82SOL     OW 1144   1.238   6.407   1.444
   82SOL    HW1 1145   1.165   6.449   1.390
   82SOL    HW2 1146   1.254   6.314   1.412
   83SOL     OW 1147   5.353   1.752   4.907
   83SOL    HW1 1148   5.440   1.704   4.913
   83SOL    HW2 1149   5.351   1.806   4.823
   84SOL     OW 1150   6.120   2.977   3.094
   84SOL    HW1 1151   6.070   2.912   3.038
   84SOL    HW2 1152   6.161   2.930   3.172
   85SOL     OW 1153   2.427   0.335   4.128
   85SOL    HW1 1154   2.441   0.429   4.161
   85SOL    HW2 1155   2.426   0.335   4.028
   86SOL     OW 1156   5.862   0.833   6.479
   86SOL    HW1 1157   5.895   0.915   6.431
   86SOL    HW2 1158   5.923   0.811   6.555
   87SOL     OW 1159   3.244   3.906   6.662
   87SOL    HW1 1160   3.332   3.929   6.619
   87SOL    HW2 1161   3.260   3.851   6.744
   88SOL     OW 1162   3.206   3.447   6.892
   88SOL    HW1 1163   3.152   3.405   6.819
   88SOL    HW2 1164   3.268   3.379   6.932
   89SOL     OW 1165   3.254   3.895   2.797
   89SOL    HW1 1166   3.320   3.874   2.725
   89SOL    HW2 1167   3.168   3.848   2.778
   90SOL     OW 1168   4.719   4.215   2.868
   90SOL    HW1 1169   4.727   4.115   2.863
   90SOL    HW2 1170   4.666   4.248   2.791
   91SOL     OW 1171   5.547   5.171   6.280
   91SOL    HW1 1172   5.469   5.158   6.340
   91SOL    HW2 1173   5.532   5.253   6.223
   92SOL     OW 1174   5.481   4.241   0.004
   92SOL    HW1 1175   5.534   4.212   0.084
   92SOL    HW2 1176   5.534   4.222   6.941
   93SOL     OW 1177   2.950   3.216   1.622
   93SOL    HW1 1178   2.960   3.219   1.523
   93SOL    HW2 1179   2.979   3.127   1.656
   94SOL     OW 1180   3.292   1.117   6.031
   94SOL    HW1 1181   3.311   1.208   5.992
   94SOL    HW2 1182   3.228   1.069   5.972
   95SOL     OW 1183   6.863   0.452   4.031
   95SOL    HW1 1184   6.912   0.506   4.099
   95SOL    HW2 1185   6.920   0.376   4.000
   96SOL     OW 1186   4.781   5.106   0.381
   96SOL    HW1 1187   4.742   5.035   0.441
   96SOL    HW2 1188   4.708   5.147   0.327
   97SOL     OW 1189   1.815   5.350   5.250
   97SOL    HW1 1190   1.777   5.302   5.329
   97SOL    HW2 1191   1.867   5.429   5.282
   98SOL     OW 1192   1.105   2.911   2.904
   98SOL    HW1 1193   1.033   2.932   2.970
   98SOL    HW2 1194   1.189   2.886   2.953
   99SOL     OW 1195   4.074   3.420   4.181
   99SOL    HW1 1196   4.096   3.392   4.088
   99SOL    HW2 1197   4.046   3.339   4.234
  100SOL     OW 1198   6.653   0.070   3.610
  100SOL    HW1 1199   6.695   0.114   3.531
  100SOL    HW2 1200   6.600   0.138   3.661
  101SOL     OW 1201   6.618   3.326   2.540
  101SOL    HW1 1202   6.571   3.254   2.591
  101SOL    HW2 1203   6.561   3.354   2.463
  102SOL     OW 1204   2.649   6.501   0.972
  102SOL    HW1 1205   2.558   6.485   0.934
  102SOL    HW2 1206   2.703   6.554   0.907
  103SOL     OW 1207   1.876   1.080   1.760
  103SOL    HW1 1208   1.949   1.020   1.728
  103SOL    HW2 1209   1.882   1.090   1.860
  104SOL     OW 1210   1.571   4.597   1.581
  104SOL    HW1 1211   1.620   4.681   1.604
  104SOL    HW2 1212   1.472   4.614   1.581
  105SOL     OW 1213   4.955   1.800   6.270
  105SOL    HW1 1214   4.967   1.872   6.338
  105SOL    HW2 1215   4.889   1.733   6.304
  106SOL     OW 1216   6.137   4.982   2.243
  106SOL    HW1 1217   6.152   4.921   2.166
  106SOL    HW2 1218   6.155   5.076   2.216
  107SOL     OW 1219   6.427   0.709   1.024
  107SOL    HW1 1220   6.460   0.697   1.118
  107SOL    HW2 1221   6.327   0.715   1.024
  108SOL     OW 1222   1.527   0.494   6.066
  108SOL    HW1 1223   1.490   0.404   6.042
  108SOL    HW2 1224   1.627   0.491   6.062
  109SOL     OW 1225   2.217   1.183   3.784
  109SOL    HW1 1226   2.230   1.088   3.813
  109SOL    HW2 1227   2.236   1.191   3.686
  110SOL     OW 1228   2.555   4.476   5.510
  110SOL    HW1 1229   2.504   4.406   5.559
  110SOL    HW2 1230   2.612   4.434   5.439
  111SOL     OW 1231   6.561   1.863   1.959
  111SOL    HW1 1232   6.593   1.897   2.048
  111SOL    HW2 1233   6.624   1.892   1.888
  112SOL     OW 1234   4.772   0.057   6.699
  112SOL    HW1 1235   4.759   0.117   6.620
  112SOL    HW2 1236   4.813   0.109   6.774
  113SOL     OW 1237   6.561   6.204   2.242
  113SOL    HW1 1238   6.611   6.244   2.319
  113SOL    HW2 1239   6.494   6.270   2.208
  114SOL     OW 1240   0.897   4.149   3.569
  114SOL    HW1 1241   0.883   4.113   3.661
  114SOL    HW2 1242   0.835   4.103   3.506
  115SOL     OW 1243   5.552   1.154   3.357
  115SOL    HW1 1244   5.600   1.217   3.295
  115SOL    HW2 1245   5.520   1.204   3.437
  116SOL     OW 1246   1.336   4.884   0.534
  116SOL    HW1 1247   1.262   4.833   0.578
  116SOL    HW2 1248   1.297   4.950   0.469
  117SOL     OW 1249   2.481   1.450   0.093
  117SOL    HW1 1250   2.534   1.534   0.078
  117SOL    HW2 1251   2.503   1.384   0.022
  118SOL     OW 1252   1.657   1.244   4.533
  118SOL    HW1 1253   1.577   1.205   4.488
  118SOL    HW2 1254   1.653   1.222   4.631
  119SOL     OW 1255   6.970   5.993   6.367
  119SOL    HW1 1256   6.934   6.051   6.440
  119SOL    HW2 1257   7.016   5.914   6.407
  120SOL     OW 1258   4.577   1.983   4.626
  120SOL    HW1 1259   4.478   1.981   4.641
  120SOL    HW2 1260   4.615   2.068   4.663
  121SOL     OW 1261   1.334   3.851   6.275
  121SOL    HW1 1262   1.267   3.854   6.350
  121SOL    HW2 1263   1.417   3.806   6.307
  122SOL     OW 1264   0.625   4.145   0.219
  122SOL    HW1 1265   0.660   4.051   0.218
  122SOL    HW2 1266   0.692   4.204   0.264
  123SOL     OW 1267   1.267   1.136   1.750
  123SOL    HW1 1268   1.197   1.155   1.819
  123SOL    HW2 1269   1.239   1.177   1.663
  124SOL     OW 1270   2.455   2.499   0.908
  124SOL    HW1 1271   2.395   2.517   0.829
  124SOL    HW2 1272   2.497   2.585   0.937
  125SOL     OW 1273   3.609   3.042   0.402
  125SOL    HW1 1274   3.533   2.978   0.414
  125SOL    HW2 1275   3.601   3.115   0.470
  126SOL     OW 1276   3.806   3.450   4.216
  126SOL    HW1 1277   3.905   3.440   4.219
  126SOL    HW2 1278   3.782   3.547   4.220
  127SOL     OW 1279   0.598   6.350   5.938
  127SOL    HW1 1280   0.615   6.268   5.993
  127SOL    HW2 1281   0.685   6.398   5.923
  128SOL     OW 1282   4.587   3.619   0.783
  128SOL    HW1 1283   4.512   3.608   0.848
  128SOL    HW2 1284   4.608   3.531   0.741
  129SOL     OW 1285   2.198   6.149   1.164
  129SOL    HW1 1286   2.111   6.108   1.137
  129SOL    HW2 1287   2.236   6.098   1.241
  130SOL     OW 1288   5.647   2.427   4.577
  130SOL    HW1 1289   5.656   2.343   4.524
  130SOL    HW2 1290   5.551   2.449   4.588
  131SOL     OW 1291   6.699   2.423   3.423
  131SOL    HW1 1292   6.613   2.468   3.398
  131SOL    HW2 1293   6.768   2.442   3.354
  132SOL     OW 1294   3.407   4.002   1.803
  132SOL    HW1 1295   3.320   4.004   1.852
  132SOL    HW2 1296   3.454   4.090   1.813
  133SOL     OW 1297   5.301   6.707   5.762
  133SOL    HW1 1298   5.363   6.692   5.838
  133SOL    HW2 1299   5.326   6.647   5.686
  134SOL     OW 1300   5.826   0.899   2.276
  134SOL    HW1 1301   5.902   0.900   2.211
  134SOL    HW2 1302   5.842   0.968   2.347
  135SOL     OW 1303   5.076   3.693   4.259
  135SOL    HW1 1304   5.000   3.681   4.196
  135SOL    HW2 1305   5.041   3.716   4.350
  136SOL     OW 1306   3.793   0.148   5.572
  136SOL    HW1 1307   3.722   0.161   5.641
  136SOL    HW2 1308   3.808   0.233   5.522
  137SOL     OW 1309   2.999   2.225   5.260
  137SOL    HW1 1310   2.973   2.179   5.174
  137SOL    HW2 1311   3.066   2.297   5.240
  138SOL     OW 1312   0.840   6.006   5.729
  138SOL    HW1 1313   0.935   6.020   5.755
  138SOL    HW2 1314   0.803   5.925   5.775
  139SOL     OW 1315   2.327   6.211   6.752
  139SOL    HW1 1316   2.300   6.243   6.843
  139SOL    HW2 1317   2.416   6.165   6.759
  140SOL     OW 1318   2.093   0.755   2.760
  140SOL    HW1 1319   2.062   0.847   2.737
  140SOL    HW2 1320   2.037   0.688   2.710
  141SOL     OW 1321   0.038   4.772   0.373
  141SOL    HW1 1322   0.087   4.753   0.459
  141SOL    HW2 1323   0.079   4.719   0.299
  142SOL     OW 1324   1.537   4.109   2.120
  142SOL    HW1 1325   1.566   4.035   2.181
  142SOL    HW2 1326   1.580   4.096   2.031
  143SOL     OW 1327   4.794   6.891   1.904
  143SOL    HW1 1328   4.851   6.822   1.859
  143SOL    HW2 1329   4.808   6.885   2.003
  144SOL     OW 1330   3.289   4.903   3.522
  144SOL    HW1 1331   3.373   4.924   3.472
  144SOL    HW2 1332   3.311   4.885   3.618
  145SOL     OW 1333   0.068   4.573   3.000
  145SOL    HW1 1334   7.019   4.617   2.942
  145SOL    HW2 1335   0.133   4.642   3.033
  146SOL     OW 1336   6.058   1.560   6.012
  146SOL    HW1 1337   6.053   1.570   6.111
  146SOL    HW2 1338   6.003   1.631   5.968
  147SOL     OW 1339   4.695   1.469   5.541
  147SOL    HW1 1340   4.618   1.522   5.505
  147SOL    HW2 1341   4.676   1.442   5.635
  148SOL     OW 1342   1.210   5.149   1.300
  148SOL    HW1 1343   1.294   5.204   1.305
  148SOL    HW2 1344   1.143   5.185   1.365
  149SOL     OW 1345   2.060   2.495   5.848
  149SOL    HW1 1346   1.992   2.427   5.819
  149SOL    HW2 1347   2.093   2.546   5.769
  150SOL     OW 1348   4.476   1.660   4.406
  150SOL    HW1 1349   4.549   1.622   4.463
  150SOL    HW2 1350   4.389   1.615   4.428
  151SOL     OW 1351   4.285   2.185   0.812
  151SOL    HW1 1352   4.347   2.257   0.844
  151SOL    HW2 1353   4.339   2.108   0.780
  152SOL     OW 1354   0.724   1.229   0.096
  152SOL    HW1 1355   0.752   1.264   0.186
  152SOL    HW2 1356   0.754   1.134   0.088
  153SOL     OW 1357   2.658   1.024   3.980
  153SOL    HW1 1358   2.694   1.078   3.904
  153SOL    HW2 1359   2.608   1.084   4.043
  154SOL     OW 1360   6.084   2.177   1.305
  154SOL    HW1 1361   6.058   2.099   1.361
  154SOL    HW2 1362   6.179   2.203   1.326
  155SOL     OW 1363   1.457   6.793   1.941
  155SOL    HW1 1364   1.510   6.815   2.023
  155SOL    HW2 1365   1.461   6.870   1.877
  156SOL     OW 1366   5.488   2.507   0.432
  156SOL    HW1 1367   5.526   2.438   0.493
  156SOL    HW2 1368   5.448   2.581   0.486
  157SOL     OW 1369   4.849   5.158   0.103
  157SOL    HW1 1370   4.887   5.097   0.033
  157SOL    HW2 1371   4.849   5.112   0.191
  158SOL     OW 1372   0.459   3.350   2.846
  158SOL    HW1 1373   0.380   3.290   2.831
  158SOL    HW2 1374   0.470   3.365   2.944
  159SOL     OW 1375   5.671   5.516   0.647
  159SOL    HW1 1376   5.638   5.452   0.577
  159SOL    HW2 1377   5.709   5.464   0.723
  160SOL     OW 1378   6.284   6.861   1.363
  160SOL    HW1 1379   6.189   6.832   1.347
  160SOL    HW2 1380   6.284   6.952   1.405
  161SOL     OW 1381   0.506   7.009   0.292
  161SOL    HW1 1382   0.544   6.995   0.383
  161SOL    HW2 1383   0.539   0.077   0.255
  162SOL     OW 1384   3.717   6.709   0.341
  162SOL    HW1 1385   3.677   6.736   0.253
  162SOL    HW2 1386   3.720   6.609   0.347
  163SOL     OW 1387   0.173   3.618   3.811
  163SOL    HW1 1388   0.222   3.683   3.752
  163SOL    HW2 1389   0.110   3.668   3.870
  164SOL     OW 1390   1.609   2.221   3.269
  164SOL    HW1 1391   1.631   2.192   3.362
  164SOL    HW2 1392   1.533   2.286   3.272
  165SOL     OW 1393   1.157   5.385   3.278
  165SOL    HW1 1394   1.144   5.464   3.219
  165SOL    HW2 1395   1.069   5.338   3.290
  166SOL     OW 1396   6.846   3.839   2.673
  166SOL    HW1 1397   6.747   3.825   2.670
  166SOL    HW2 1398   6.892   3.754   2.647
  167SOL     OW 1399   5.002   2.112   6.939
  167SOL    HW1 1400   4.948   2.148   7.015
  167SOL    HW2 1401   4.968   2.150   6.853
  168SOL     OW 1402   4.871   3.635   1.991
  168SOL    HW1 1403   4.804   3.628   1.917
  168SOL    HW2 1404   4.906   3.728   1.995
  169SOL     OW 1405   6.170   2.722   1.041
  169SOL    HW1 1406   6.098   2.736   1.109
  169SOL    HW2 1407   6.224   2.806   1.032
  170SOL     OW 1408   0.751   4.800   2.506
  170SOL    HW1 1409   0.784   4.800   2.600
  170SOL    HW2 1410   0.815   4.749   2.448
  171SOL     OW 1411   3.032   3.320   0.543
  171SOL    HW1 1412   2.984   3.403   0.571
  171SOL    HW2 1413   2.968   3.243   0.542
  172SOL     OW 1414   6.359   1.946   0.927
  172SOL    HW1 1415   6.309   1.884   0.868
  172SOL    HW2 1416   6.311   2.034   0.931
  173SOL     OW 1417   6.437   1.844   5.694
  173SOL    HW1 1418   6.343   1.876   5.702
  173SOL    HW2 1419   6.500   1.921   5.709
  174SOL     OW 1420   6.070   5.363   5.650
  174SOL    HW1 1421   5.982   5.317   5.665
  174SOL    HW2 1422   6.087   5.369   5.551
  175SOL     OW 1423   0.637   0.571   0.765
  175SOL    HW1 1424   0.707   0.507   0.797
  175SOL    HW2 1425   0.573   0.523   0.706
  176SOL     OW 1426   5.113   4.642   2.769
  176SOL    HW1 1427   5.205   4.673   2.744
  176SOL    HW2 1428   5.106   4.544   2.752
  177SOL     OW 1429   5.835   2.132   3.983
  177SOL    HW1 1430   5.894   2.100   4.057
  177SOL    HW2 1431   5.745   2.089   3.990
  178SOL     OW 1432   1.768   6.491   5.511
  178SOL    HW1 1433   1.867   6.485   5.495
  178SOL    HW2 1434   1.726   6.550   5.442
  179SOL     OW 1435   3.981   5.100   0.877
  179SOL    HW1 1436   3.965   5.062   0.786
  179SOL    HW2 1437   4.062   5.057   0.918
  180SOL     OW 1438   4.236   1.471   0.972
  180SOL    HW1 1439   4.242   1.373   0.950
  180SOL    HW2 1440   4.321   1.500   1.016
  181SOL     OW 1441   3.693   2.336   5.578
  181SOL    HW1 1442   3.710   2.291   5.491
  181SOL    HW2 1443   3.618   2.401   5.567
  182SOL     OW 1444   4.758   2.134   6.447
  182SOL    HW1 1445   4.765   2.175   6.356
  182SOL    HW2 1446   4.686   2.065   6.446
  183SOL     OW 1447   3.306   1.467   3.748
  183SOL    HW1 1448   3.334   1.409   3.824
  183SOL    HW2 1449   3.382   1.525   3.720
  184SOL     OW 1450   6.633   6.527   2.914
  184SOL    HW1 1451   6.623   6.442   2.965
  184SOL    HW2 1452   6.703   6.516   2.843
  185SOL     OW 1453   0.438   1.084   4.236
  185SOL    HW1 1454   0.510   1.026   4.198
  185SOL    HW2 1455   0.473   1.130   4.318
  186SOL     OW 1456   4.513   5.694   3.480
  186SOL    HW1 1457   4.482   5.751   3.557
  186SOL    HW2 1458   4.487   5.739   3.394
  187SOL     OW 1459   4.306   6.149   1.979
  187SOL    HW1 1460   4.392   6.199   1.989
  187SOL    HW2 1461   4.232   6.214   1.958
  188SOL     OW 1462   2.266   2.696   2.995
  188SOL    HW1 1463   2.256   2.794   2.980
  188SOL    HW2 1464   2.308   2.654   2.915
  189SOL     OW 1465   6.208   4.913   6.231
  189SOL    HW1 1466   6.135   4.914   6.300
  189SOL    HW2 1467   6.192   4.987   6.165
  190SOL     OW 1468   5.762   0.139   0.184
  190SOL    HW1 1469   5.716   0.056   0.216
  190SOL    HW2 1470   5.703   0.186   0.118
  191SOL     OW 1471   6.166   0.797   5.791
  191SOL    HW1 1472   6.252   0.784   5.742
  191SOL    HW2 1473   6.140   0.894   5.788
  192SOL     OW 1474   0.706   5.200   0.512
  192SOL    HW1 1475   0.778   5.267   0.525
  192SOL    HW2 1476   0.642   5.232   0.442
  193SOL     OW 1477   2.589   5.396   5.967
  193SOL    HW1 1478   2.505   5.346   5.946
  193SOL    HW2 1479   2.618   5.376   6.060
  194SOL     OW 1480   3.581   6.949   2.360
  194SOL    HW1 1481   3.582   6.992   2.270
  194SOL    HW2 1482   3.490   6.955   2.400
  195SOL     OW 1483   2.759   1.019   1.751
  195SOL    HW1 1484   2.836   1.077   1.779
  195SOL    HW2 1485   2.726   1.049   1.661
  196SOL     OW 1486   2.130   0.843   6.956
  196SOL    HW1 1487   2.177   0.931   6.955
  196SOL    HW2 1488   2.123   0.807   6.863
  197SOL     OW 1489   2.466   5.620   0.324
  197SOL    HW1 1490   2.411   5.659   0.250
  197SOL    HW2 1491   2.483   5.690   0.393
  198SOL     OW 1492   4.172   6.292   0.029
  198SOL    HW1 1493   4.180   6.379   7.000
  198SOL    HW2 1494   4.206   6.218   6.991
  199SOL     OW 1495   6.294   6.724   3.106
  199SOL    HW1 1496   6.282   6.631   3.142
  199SOL    HW2 1497   6.392   6.740   3.088
  200SOL     OW 1498   0.400   4.025   2.883
  200SOL    HW1 1499   0.454   4.092   2.933
  200SOL    HW2 1500   0.404   4.045   2.785
  201SOL     OW 1501   3.062   1.002   0.166
  201SOL    HW1 1502   2.996   0.942   0.212
  201SOL    HW2 1503   3.024   1.031   0.078
  202SOL     OW 1504   3.599   6.855   3.416
  202SOL    HW1 1505   3.642   6.791   3.480
  202SOL    HW2 1506   3.664   6.928   3.393
  203SOL     OW 1507   5.293   3.589   6.059
  203SOL    HW1 1508   5.273   3.493   6.078
  203SOL    HW2 1509   5.350   3.626   6.131
  204SOL     OW 1510   2.584   6.543   0.506
  204SOL    HW1 1511   2.530   6.568   0.426
  204SOL    HW2 1512   2.615   6.626   0.553
  205SOL     OW 1513   5.892   1.998   0.997
  205SOL    HW1 1514   5.871   1.946   1.080
  205SOL    HW2 1515   5.920   1.934   0.925
  206SOL     OW 1516   0.041   4.897   1.789
  206SOL    HW1 1517   0.058   4.984   1.744
  206SOL    HW2 1518   6.994   4.910   1.863
  207SOL     OW 1519   4.769   0.838   5.932
  207SOL    HW1 1520   4.700   0.853   6.002
  207SOL    HW2 1521   4.725   0.803   5.849
  208SOL     OW 1522   4.904   5.513   6.201
  208SOL    HW1 1523   4.954   5.458   6.134
  208SOL    HW2 1524   4.836   5.569   6.153
  209SOL     OW 1525   6.612   5.325   6.124
  209SOL    HW1 1526   6.572   5.234   6.130
  209SOL    HW2 1527   6.688   5.324   6.059
  210SOL     OW 1528   3.828   2.061   1.284
  210SOL    HW1 1529   3.736   2.023   1.288
  210SOL    HW2 1530   3.881   2.013   1.214
  211SOL     OW 1531   0.529   1.405   0.955
  211SOL    HW1 1532   0.619   1.387   0.994
  211SOL    HW2 1533   0.516   1.349   0.873
  212SOL     OW 1534   1.087   5.220   3.661
  212SOL    HW1 1535   1.045   5.178   3.741
  212SOL    HW2 1536   1.099   5.318   3.677
  213SOL     OW 1537   5.269   2.094   6.994
  213SOL    HW1 1538   5.311   2.079   6.904
  213SOL    HW2 1539   5.170   2.084   6.986
  214SOL     OW 1540   1.030   6.433   2.176
  214SOL    HW1 1541   1.098   6.373   2.218
  214SOL    HW2 1542   1.074   6.491   2.108
  215SOL     OW 1543   3.266   3.153   2.281
  215SOL    HW1 1544   3.313   3.159   2.193
  215SOL    HW2 1545   3.320   3.099   2.345
  216SOL     OW 1546   0.599   0.346   5.362
  216SOL    HW1 1547   0.664   0.410   5.322
  216SOL    HW2 1548   0.579   0.272   5.297
  217SOL     OW 1549   1.031   3.202   3.882
  217SOL    HW1 1550   0.971   3.232   3.955
  217SOL    HW2 1551   1.037   3.102   3.883
  218SOL     OW 1552   1.175   3.074   5.094
  218SOL    HW1 1553   1.107   3.012   5.134
  218SOL    HW2 1554   1.208   3.036   5.007
  219SOL     OW 1555   4.635   4.902   0.490
  219SOL    HW1 1556   4.637   4.802   0.494
  219SOL    HW2 1557   4.546   4.932   0.454
  220SOL     OW 1558   2.499   5.007   7.008
  220SOL    HW1 1559   2.574   5.073   7.009
  220SOL    HW2 1560   2.482   4.977   6.914
  221SOL     OW 1561   5.445   2.351   3.852
  221SOL    HW1 1562   5.393   2.331   3.769
  221SOL    HW2 1563   5.542   2.331   3.837
  222SOL     OW 1564   0.451   5.807   6.060
  222SOL    HW1 1565   0.406   5.894   6.077
  222SOL    HW2 1566   0.385   5.742   6.023
  223SOL     OW 1567   0.082   3.600   2.017
  223SOL    HW1 1568   0.178   3.612   2.042
  223SOL    HW2 1569   0.051   3.678   1.962
  224SOL     OW 1570   2.664   2.167   2.102
  224SOL    HW1 1571   2.754   2.206   2.082
  224SOL    HW2 1572   2.624   2.130   2.018
  225SOL     OW 1573   5.774   0.685   7.009
  225SOL    HW1 1574   5.819   0.771   6.984
  225SOL    HW2 1575   5.765   0.628   6.928
  226SOL     OW 1576   0.791   6.103   0.540
  226SOL    HW1 1577   0.868   6.153   0.500
  226SOL    HW2 1578   0.774   6.020   0.488
  227SOL     OW 1579   1.684   3.610   4.023
  227SOL    HW1 1580   1.746   3.635   3.949
  227SOL    HW2 1581   1.647   3.519   4.007
  228SOL     OW 1582   4.514   6.220   3.706
  228SOL    HW1 1583   4.591   6.266   3.750
  228SOL    HW2 1584   4.534   6.122   3.698
  229SOL     OW 1585   5.927   6.223   1.838
  229SOL    HW1 1586   5.984   6.141   1.847
  229SOL    HW2 1587   5.857   6.206   1.769
  230SOL     OW 1588   2.224   4.298   5.070
  230SOL    HW1 1589   2.266   4.350   4.996
  230SOL    HW2 1590   2.246   4.201   5.060
  231SOL     OW 1591   0.485   3.557   6.340
  231SOL    HW1 1592   0.559   3.556   6.273
  231SOL    HW2 1593   0.402   3.522   6.298
  232SOL     OW 1594   1.295   3.566   6.938
  232SOL    HW1 1595   1.313   3.663   6.919
  232SOL    HW2 1596   1.334   3.541   0.007
  233SOL     OW 1597   1.998   1.575   5.424
  233SOL    HW1 1598   2.026   1.532   5.338
  233SOL    HW2 1599   1.952   1.662   5.405
  234SOL     OW 1600   2.555   4.956   6.742
  234SOL    HW1 1601   2.636   4.898   6.751
  234SOL    HW2 1602   2.476   4.900   6.716
  235SOL     OW 1603   3.315   3.490   4.009
  235SOL    HW1 1604   3.309   3.534   4.099
  235SOL    HW2 1605   3.246   3.530   3.948
  236SOL     OW 1606   6.426   2.486   5.249
  236SOL    HW1 1607   6.449   2.420   5.320
  236SOL    HW2 1608   6.355   2.448   5.189
  237SOL     OW 1609   0.432   7.016   1.662
  237SOL    HW1 1610   0.370   6.937   1.661
  237SOL    HW2 1611   0.526   6.985   1.646
  238SOL     OW 1612   5.482   3.467   2.563
  238SOL    HW1 1613   5.445   3.559   2.553
  238SOL    HW2 1614   5.552   3.451   2.493
  239SOL     OW 1615   6.805   5.994   6.958
  239SOL    HW1 1616   6.716   5.988   7.003
  239SOL    HW2 1617   6.793   6.031   6.866
  240SOL     OW 1618   0.621   4.085   5.890
  240SOL    HW1 1619   0.618   4.066   5.792
  240SOL    HW2 1620   0.534   4.125   5.918
  241SOL     OW 1621   0.202   0.780   3.252
  241SOL    HW1 1622   0.292   0.825   3.256
  241SOL    HW2 1623   0.148   0.820   3.178
  242SOL     OW 1624   1.652   3.471   4.493
  242SOL    HW1 1625   1.638   3.412   4.413
  242SOL    HW2 1626   1.571   3.467   4.552
  243SOL     OW 1627   5.609   6.607   5.191
  243SOL    HW1 1628   5.630   6.690   5.138
  243SOL    HW2 1629   5.667   6.532   5.159
  244SOL     OW 1630   5.503   2.172   4.855
  244SOL    HW1 1631   5.503   2.142   4.759
  244SOL    HW2 1632   5.593   2.209   4.878
  245SOL     OW 1633   6.258   2.910   3.919
  245SOL    HW1 1634   6.254   2.845   3.843
  245SOL    HW2 1635   6.172   2.908   3.969
  246SOL     OW 1636   4.917   3.494   3.560
  246SOL    HW1 1637   4.910   3.585   3.519
  246SOL    HW2 1638   4.843   3.482   3.626
  247SOL     OW 1639   1.922   1.497   3.729
  247SOL    HW1 1640   1.959   1.440   3.656
  247SOL    HW2 1641   1.927   1.593   3.702
  248SOL     OW 1642   5.506   1.600   3.709
  248SOL    HW1 1643   5.413   1.600   3.674
  248SOL    HW2 1644   5.557   1.524   3.669
  249SOL     OW 1645   3.491   6.659   4.274
  249SOL    HW1 1646   3.534   6.739   4.232
  249SOL    HW2 1647   3.517   6.655   4.371
  250SOL     OW 1648   5.402   3.537   5.815
  250SOL    HW1 1649   5.330   3.468   5.815
  250SOL    HW2 1650   5.398   3.591   5.899
  251SOL     OW 1651   4.504   2.595   6.769
  251SOL    HW1 1652   4.550   2.639   6.692
  251SOL    HW2 1653   4.428   2.652   6.799
  252SOL     OW 1654   6.834   0.533   6.025
  252SOL    HW1 1655   6.778   0.491   5.954
  252SOL    HW2 1656   6.879   0.461   6.078
  253SOL     OW 1657   2.915   3.079   0.447
  253SOL    HW1 1658   2.859   3.076   0.364
  253SOL    HW2 1659   3.011   3.068   0.422
  254SOL     OW 1660   5.897   2.989   5.059
  254SOL    HW1 1661   5.910   2.989   4.960
  254SOL    HW2 1662   5.822   2.928   5.082
  255SOL     OW 1663   2.650   2.093   3.137
  255SOL    HW1 1664   2.686   2.185   3.153
  255SOL    HW2 1665   2.578   2.098   3.067
  256SOL     OW 1666   5.219   5.140   0.088
  256SOL    HW1 1667   5.127   5.136   0.047
  256SOL    HW2 1668   5.230   5.063   0.151
  257SOL     OW 1669   2.884   5.698   6.041
  257SOL    HW1 1670   2.918   5.616   5.994
  257SOL    HW2 1671   2.875   5.679   6.139
  258SOL     OW 1672   5.616   4.344   4.398
  258SOL    HW1 1673   5.658   4.429   4.365
  258SOL    HW2 1674   5.620   4.276   4.325
  259SOL     OW 1675   1.400   2.041   2.659
  259SOL    HW1 1676   1.442   2.011   2.745
  259SOL    HW2 1677   1.467   2.034   2.585
  260SOL     OW 1678   5.762   0.473   5.724
  260SOL    HW1 1679   5.766   0.404   5.652
  260SOL    HW2 1680   5.828   0.546   5.704
  261SOL     OW 1681   1.004   3.957   2.163
  261SOL    HW1 1682   0.953   4.037   2.132
  261SOL    HW2 1683   1.099   3.965   2.134
  262SOL     OW 1684   0.806   4.179   2.036
  262SOL    HW1 1685   0.777   4.274   2.044
  262SOL    HW2 1686   0.730   4.118   2.060
  263SOL     OW 1687   0.650   1.871   4.667
  263SOL    HW1 1688   0.599   1.891   4.582
  263SOL    HW2 1689   0.737   1.827   4.644
  264SOL     OW 1690   2.057   4.552   6.431
  264SOL    HW1 1691   1.973   4.556   6.378
  264SOL    HW2 1692   2.036   4.566   6.528
  265SOL     OW 1693   5.238   4.529   4.075
  265SOL    HW1 1694   5.320   4.475   4.053
  265SOL    HW2 1695   5.186   4.546   3.992
  266SOL     OW 1696   4.083   1.651   0.802
  266SOL    HW1 1697   4.116   1.594   0.878
  266SOL    HW2 1698   4.141   1.637   0.722
  267SOL     OW 1699   1.268   2.255   6.220
  267SOL    HW1 1700   1.367   2.260   6.202
  267SOL    HW2 1701   1.250   2.273   6.316
  268SOL     OW 1702   4.031   4.796   4.567
  268SOL    HW1 1703   4.099   4.743   4.517
  268SOL    HW2 1704   4.008   4.750   4.652
  269SOL     OW 1705   0.786   2.364   5.998
  269SOL    HW1 1706   0.801   2.399   5.905
  269SOL    HW2 1707   0.872   2.329   6.035
  270SOL     OW 1708   5.017   1.001   2.935
  270SOL    HW1 1709   4.990   0.937   2.863
  270SOL    HW2 1710   4.952   1.077   2.938
  271SOL     OW 1711   1.493   0.708   6.851
  271SOL    HW1 1712   1.405   0.661   6.853
  271SOL    HW2 1713   1.481   0.798   6.808
  272SOL     OW 1714   3.029   5.934   3.408
  272SOL    HW1 1715   3.121   5.961   3.380
  272SOL    HW2 1716   3.018   5.835   3.397
  273SOL     OW 1717   2.641   6.138   5.220
  273SOL    HW1 1718   2.688   6.116   5.305
  273SOL    HW2 1719   2.550   6.096   5.220
  274SOL     OW 1720   6.192   2.483   2.651
  274SOL    HW1 1721   6.246   2.557   2.690
  274SOL    HW2 1722   6.185   2.496   2.552
  275SOL     OW 1723   6.662   5.992   5.297
  275SOL    HW1 1724   6.719   6.004   5.215
  275SOL    HW2 1725   6.584   6.055   5.292
  276SOL     OW 1726   6.272   6.232   3.596
  276SOL    HW1 1727   6.352   6.292   3.597
  276SOL    HW2 1728   6.224   6.242   3.508
  277SOL     OW 1729   4.089   1.732   5.433
  277SOL    HW1 1730   4.130   1.641   5.427
  277SOL    HW2 1731   4.091   1.764   5.528
  278SOL     OW 1732   5.483   3.687   2.831
  278SOL    HW1 1733   5.455   3.763   2.771
  278SOL    HW2 1734   5.413   3.616   2.829
  279SOL     OW 1735   0.057   2.500   3.398
  279SOL    HW1 1736   0.019   2.410   3.422
  279SOL    HW2 1737   0.007   2.537   3.320
  280SOL     OW 1738   3.952   0.489   4.183
  280SOL    HW1 1739   3.920   0.419   4.119
  280SOL    HW2 1740   4.009   0.446   4.253
  281SOL     OW 1741   4.959   6.175   4.072
  281SOL    HW1 1742   4.859   6.174   4.067
  281SOL    HW2 1743   4.995   6.094   4.026
  282SOL     OW 1744   4.131   1.843   7.019
  282SOL    HW1 1745   4.219   1.890   0.009
  282SOL    HW2 1746   4.057   1.910   0.009
  283SOL     OW 1747   6.461   1.404   4.934
  283SOL    HW1 1748   6.517   1.381   4.854
  283SOL    HW2 1749   6.371   1.433   4.905
  284SOL     OW 1750   6.029   5.256   4.431
  284SOL    HW1 1751   6.061   5.349   4.451
  284SOL    HW2 1752   5.978   5.221   4.509
  285SOL     OW 1753   4.163   0.511   6.605
  285SOL    HW1 1754   4.230   0.446   6.569
  285SOL    HW2 1755   4.135   0.483   6.697
  286SOL     OW 1756   3.675   4.986   4.769
  286SOL    HW1 1757   3.713   5.003   4.860
  286SOL    HW2 1758   3.733   5.030   4.700
  287SOL     OW 1759   2.636   6.373   5.573
  287SOL    HW1 1760   2.639   6.289   5.519
  287SOL    HW2 1761   2.556   6.426   5.546
  288SOL     OW 1762   3.373   0.883   0.609
  288SOL    HW1 1763   3.287   0.930   0.589
  288SOL    HW2 1764   3.418   0.927   0.686
  289SOL     OW 1765   0.601   6.415   4.105
  289SOL    HW1 1766   0.643   6.503   4.083
  289SOL    HW2 1767   0.520   6.429   4.161
  290SOL     OW 1768   3.426   0.468   4.284
  290SOL    HW1 1769   3.513   0.516   4.275
  290SOL    HW2 1770   3.353   0.522   4.242
  291SOL     OW 1771   4.360   0.509   4.889
  291SOL    HW1 1772   4.410   0.595   4.879
  291SOL    HW2 1773   4.330   0.478   4.799
  292SOL     OW 1774   3.588   0.194   3.666
  292SOL    HW1 1775   3.526   0.271   3.684
  292SOL    HW2 1776   3.610   0.192   3.569
  293SOL     OW 1777   6.029   6.814   2.991
  293SOL    HW1 1778   6.032   6.852   2.899
  293SOL    HW2 1779   6.122   6.813   3.029
  294SOL     OW 1780   5.866   0.956   5.883
  294SOL    HW1 1781   5.958   0.993   5.873
  294SOL    HW2 1782   5.866   0.882   5.950
  295SOL     OW 1783   0.937   1.729   5.498
  295SOL    HW1 1784   0.926   1.633   5.526
  295SOL    HW2 1785   0.934   1.788   5.578
  296SOL     OW 1786   6.897   1.694   1.562
  296SOL    HW1 1787   6.934   1.602   1.573
  296SOL    HW2 1788   6.806   1.689   1.521
  297SOL     OW 1789   5.922   4.310   3.504
  297SOL    HW1 1790   5.989   4.304   3.430
  297SOL    HW2 1791   5.963   4.352   3.584
  298SOL     OW 1792   3.566   1.172   0.083
  298SOL    HW1 1793   3.598   1.085   0.122
  298SOL    HW2 1794   3.475   1.193   0.118
  299SOL     OW 1795   2.256   1.441   6.465
  299SOL    HW1 1796   2.324   1.461   6.536
  299SOL    HW2 1797   2.168   1.422   6.507
  300SOL     OW 1798   4.001   0.691   2.988
  300SOL    HW1 1799   3.986   0.626   2.913
  300SOL    HW2 1800   4.000   0.643   3.075
  301SOL     OW 1801   6.199   5.862   1.118
  301SOL    HW1 1802   6.178   5.774   1.159
  301SOL    HW2 1803   6.297   5.882   1.130
  302SOL     OW 1804   6.056   6.322   0.959
  302SOL    HW1 1805   6.139   6.269   0.978
  302SOL    HW2 1806   5.980   6.261   0.941
  303SOL     OW 1807   6.019   5.874   2.600
  303SOL    HW1 1808   6.098   5.821   2.570
  303SOL    HW2 1809   5.960   5.895   2.522
  304SOL     OW 1810   1.171   6.839   5.142
  304SOL    HW1 1811   1.259   6.805   5.175
  304SOL    HW2 1812   1.145   6.920   5.194
  305SOL     OW 1813   1.389   2.593   2.332
  305SOL    HW1 1814   1.451   2.671   2.343
  305SOL    HW2 1815   1.391   2.537   2.415
  306SOL     OW 1816   6.448   0.759   3.088
  306SOL    HW1 1817   6.455   0.661   3.105
  306SOL    HW2 1818   6.377   0.798   3.147
  307SOL     OW 1819   3.456   3.293   2.685
  307SOL    HW1 1820   3.424   3.388   2.679
  307SOL    HW2 1821   3.440   3.259   2.778
  308SOL     OW 1822   5.585   1.434   4.251
  308SOL    HW1 1823   5.621   1.526   4.264
  308SOL    HW2 1824   5.646   1.368   4.293
  309SOL     OW 1825   1.040   6.458   6.138
  309SOL    HW1 1826   1.032   6.490   6.044
  309SOL    HW2 1827   1.042   6.358   6.139
  310SOL     OW 1828   5.430   5.641   5.003
  310SOL    HW1 1829   5.474   5.729   4.986
  310SOL    HW2 1830   5.480   5.592   5.074
  311SOL     OW 1831   1.692   5.712   2.831
  311SOL    HW1 1832   1.722   5.748   2.743
  311SOL    HW2 1833   1.599   5.677   2.824
  312SOL     OW 1834   4.708   2.155   3.144
  312SOL    HW1 1835   4.619   2.188   3.114
  312SOL    HW2 1836   4.720   2.175   3.241
  313SOL     OW 1837   3.604   3.227   3.623
  313SOL    HW1 1838   3.549   3.266   3.549
  313SOL    HW2 1839   3.668   3.296   3.656
  314SOL     OW 1840   2.397   6.475   5.502
  314SOL    HW1 1841   2.320   6.503   5.560
  314SOL    HW2 1842   2.390   6.377   5.484
  315SOL     OW 1843   6.344   1.396   3.632
  315SOL    HW1 1844   6.321   1.299   3.646
  315SOL    HW2 1845   6.378   1.409   3.539
  316SOL     OW 1846   3.638   1.862   5.293
  316SOL    HW1 1847   3.570   1.814   5.349
  316SOL    HW2 1848   3.727   1.816   5.303
  317SOL     OW 1849   1.176   1.284   1.526
  317SOL    HW1 1850   1.251   1.322   1.473
  317SOL    HW2 1851   1.107   1.246   1.464
  318SOL     OW 1852   0.181   0.826   5.368
  318SOL    HW1 1853   0.262   0.771   5.391
  318SOL    HW2 1854   0.192   0.862   5.275
  319SOL     OW 1855   1.301   2.346   2.177
  319SOL    HW1 1856   1.378   2.402   2.207
  319SOL    HW2 1857   1.327   2.296   2.094
  320SOL     OW 1858   6.269   2.607   7.007
  320SOL    HW1 1859   6.339   2.567   0.045
  320SOL    HW2 1860   6.235   2.539   6.942
  321SOL     OW 1861   4.147   3.126   0.851
  321SOL    HW1 1862   4.060   3.087   0.823
  321SOL    HW2 1863   4.184   3.074   0.928
  322SOL     OW 1864   4.288   3.176   6.525
  322SOL    HW1 1865   4.323   3.210   6.438
  322SOL    HW2 1866   4.294   3.248   6.594
  323SOL     OW 1867   0.558   3.563   3.715
  323SOL    HW1 1868   0.642   3.526   3.757
  323SOL    HW2 1869   0.492   3.490   3.703
  324SOL     OW 1870   1.456   0.041   3.083
  324SOL    HW1 1871   1.403   0.081   3.008
  324SOL    HW2 1872   1.446   6.961   3.082
  325SOL     OW 1873   0.719   3.685   2.623
  325SOL    HW1 1874   0.650   3.674   2.694
  325SOL    HW2 1875   0.676   3.714   2.538
  326SOL     OW 1876   1.736   6.365   6.534
  326SOL    HW1 1877   1.771   6.271   6.527
  326SOL    HW2 1878   1.806   6.429   6.502
  327SOL     OW 1879   4.235   5.391   3.924
  327SOL    HW1 1880   4.234   5.416   4.021
  327SOL    HW2 1881   4.147   5.414   3.883
  328SOL     OW 1882   2.375   4.486   2.284
  328SOL    HW1 1883   2.299   4.481   2.350
  328SOL    HW2 1884   2.439   4.557   2.314
  329SOL     OW 1885   3.194   4.129   1.558
  329SOL    HW1 1886   3.221   4.035   1.541
  329SOL    HW2 1887   3.151   4.136   1.648
  330SOL     OW 1888   4.098   4.995   0.453
  330SOL    HW1 1889   4.111   5.025   0.358
  330SOL    HW2 1890   4.092   4.896   0.456
  331SOL     OW 1891   4.942   5.709   0.165
  331SOL    HW1 1892   5.000   5.744   0.091
  331SOL    HW2 1893   4.977   5.620   0.195
  332SOL     OW 1894   5.363   2.181   2.934
  332SOL    HW1 1895   5.436   2.113   2.946
  332SOL    HW2 1896   5.395   2.255   2.876
  333SOL     OW 1897   3.637   1.147   5.902
  333SOL    HW1 1898   3.709   1.078   5.904
  333SOL    HW2 1899   3.570   1.123   5.831
  334SOL     OW 1900   3.980   3.917   3.606
  334SOL    HW1 1901   4.056   3.924   3.671
  334SOL    HW2 1902   3.929   3.832   3.622
  335SOL     OW 1903   3.598   0.092   6.359
  335SOL    HW1 1904   3.566   0.110   6.452
  335SOL    HW2 1905   3.524   0.054   6.305
  336SOL     OW 1906   2.811   1.870   3.072
  336SOL    HW1 1907   2.752   1.947   3.097
  336SOL    HW2 1908   2.892   1.869   3.132
  337SOL     OW 1909   1.652   1.761   5.786
  337SOL    HW1 1910   1.735   1.751   5.731
  337SOL    HW2 1911   1.607   1.672   5.796
  338SOL     OW 1912   4.481   2.349   1.422
  338SOL    HW1 1913   4.475   2.333   1.521
  338SOL    HW2 1914   4.501   2.445   1.405
  339SOL     OW 1915   4.001   5.062   4.619
  339SOL    HW1 1916   4.011   4.963   4.625
  339SOL    HW2 1917   4.089   5.104   4.599
  340SOL     OW 1918   4.846   2.322   4.395
  340SOL    HW1 1919   4.840   2.416   4.428
  340SOL    HW2 1920   4.864   2.322   4.297
  341SOL     OW 1921   5.954   6.432   3.256
  341SOL    HW1 1922   6.010   6.437   3.173
  341SOL    HW2 1923   5.859   6.449   3.233
  342SOL     OW 1924   4.729   2.227   1.399
  342SOL    HW1 1925   4.637   2.266   1.396
  342SOL    HW2 1926   4.735   2.158   1.472
  343SOL     OW 1927   1.388   5.209   3.246
  343SOL    HW1 1928   1.339   5.288   3.285
  343SOL    HW2 1929   1.486   5.223   3.255
  344SOL     OW 1930   1.925   1.182   1.424
  344SOL    HW1 1931   1.858   1.257   1.423
  344SOL    HW2 1932   1.877   1.095   1.433
  345SOL     OW 1933   6.438   2.712   4.089
  345SOL    HW1 1934   6.369   2.777   4.057
  345SOL    HW2 1935   6.475   2.662   4.011
  346SOL     OW 1936   1.365   0.408   2.636
  346SOL    HW1 1937   1.374   0.430   2.539
  346SOL    HW2 1938   1.329   0.315   2.646
  347SOL     OW 1939   2.978   5.160   0.357
  347SOL    HW1 1940   2.899   5.218   0.340
  347SOL    HW2 1941   2.990   5.147   0.455
  348SOL     OW 1942   5.006   5.579   2.003
  348SOL    HW1 1943   5.079   5.572   2.071
  348SOL    HW2 1944   5.006   5.495   1.947
  349SOL     OW 1945   0.055   4.109   1.106
  349SOL    HW1 1946   6.986   4.063   1.100
  349SOL    HW2 1947   0.112   4.081   1.029
  350SOL     OW 1948   3.504   2.986   0.056
  350SOL    HW1 1949   3.560   2.943   7.004
  350SOL    HW2 1950   3.559   3.052   0.106
  351SOL     OW 1951   3.598   4.433   0.427
  351SOL    HW1 1952   3.546   4.496   0.368
  351SOL    HW2 1953   3.558   4.434   0.518
  352SOL     OW 1954   4.331   6.322   3.410
  352SOL    HW1 1955   4.239   6.324   3.371
  352SOL    HW2 1956   4.367   6.415   3.416
  353SOL     OW 1957   2.706   6.696   6.326
  353SOL    HW1 1958   2.627   6.723   6.269
  353SOL    HW2 1959   2.750   6.778   6.362
  354SOL     OW 1960   5.805   2.550   0.971
  354SOL    HW1 1961   5.802   2.490   0.890
  354SOL    HW2 1962   5.848   2.502   1.047
  355SOL     OW 1963   2.028   2.682   2.361
  355SOL    HW1 1964   2.116   2.714   2.326
  355SOL    HW2 1965   1.993   2.748   2.428
  356SOL     OW 1966   1.722   0.237   5.826
  356SOL    HW1 1967   1.811   0.271   5.795
  356SOL    HW2 1968   1.732   0.143   5.859
  357SOL     OW 1969   5.697   6.851   5.119
  357SOL    HW1 1970   5.758   6.800   5.058
  357SOL    HW2 1971   5.750   6.919   5.170
  358SOL     OW 1972   5.096   5.968   0.617
  358SOL    HW1 1973   5.032   5.984   0.692
  358SOL    HW2 1974   5.055   5.996   0.531
  359SOL     OW 1975   3.203   2.085   1.861
  359SOL    HW1 1976   3.231   2.131   1.777
  359SOL    HW2 1977   3.263   2.007   1.877
  360SOL     OW 1978   1.144   5.073   4.162
  360SOL    HW1 1979   1.211   5.019   4.213
  360SOL    HW2 1980   1.059   5.021   4.152
  361SOL     OW 1981   6.775   5.825   3.170
  361SOL    HW1 1982   6.845   5.892   3.142
  361SOL    HW2 1983   6.815   5.762   3.236
  362SOL     OW 1984   3.892   4.219   1.005
  362SOL    HW1 1985   3.920   4.260   0.918
  362SOL    HW2 1986   3.792   4.226   1.014
  363SOL     OW 1987   6.582   4.902   2.578
  363SOL    HW1 1988   6.652   4.889   2.507
  363SOL    HW2 1989   6.507   4.837   2.563
  364SOL     OW 1990   0.932   5.271   6.809
  364SOL    HW1 1991   0.995   5.289   6.885
  364SOL    HW2 1992   0.969   5.198   6.751
  365SOL     OW 1993   3.479   1.329   2.090
  365SOL    HW1 1994   3.518   1.414   2.126
  365SOL    HW2 1995   3.387   1.318   2.125
  366SOL     OW 1996   5.660   3.326   0.271
  366SOL    HW1 1997   5.680   3.346   0.367
  366SOL    HW2 1998   5.561   3.326   0.257
  367SOL     OW 1999   4.581   1.877   5.679
  367SOL    HW1 2000   4.580   1.935   5.598
  367SOL    HW2 2001   4.548   1.785   5.655
  368SOL     OW 2002   6.434   2.365   6.077
  368SOL    HW1 2003   6.493   2.297   6.120
  368SOL    HW2 2004   6.480   2.454   6.074
  369SOL     OW 2005   5.634   3.876   3.063
  369SOL    HW1 2006   5.600   3.793   3.019
  369SOL    HW2 2007   5.728   3.861   3.095
  370SOL     OW 2008   2.037   2.414   3.961
  370SOL    HW1 2009   1.986   2.328   3.953
  370SOL    HW2 2010   2.111   2.403   4.027
  371SOL     OW 2011   2.207   3.902   6.700
  371SOL    HW1 2012   2.267   3.822   6.694
  371SOL    HW2 2013   2.259   3.984   6.678
  372SOL     OW 2014   2.555   6.770   5.556
  372SOL    HW1 2015   2.609   6.855   5.556
  372SOL    HW2 2016   2.566   6.725   5.467
  373SOL     OW 2017   5.845   6.765   4.633
  373SOL    HW1 2018   5.839   6.744   4.536
  373SOL    HW2 2019   5.936   6.801   4.654
  374SOL     OW 2020   2.856   1.655   2.574
  374SOL    HW1 2021   2.848   1.692   2.666
  374SOL    HW2 2022   2.852   1.730   2.507
  375SOL     OW 2023   0.625   5.295   4.970
  375SOL    HW1 2024   0.704   5.242   4.940
  375SOL    HW2 2025   0.554   5.233   5.002
  376SOL     OW 2026   2.585   1.323   4.277
  376SOL    HW1 2027   2.635   1.378   4.343
  376SOL    HW2 2028   2.625   1.231   4.274
  377SOL     OW 2029   1.569   2.220   0.036
  377SOL    HW1 2030   1.565   2.182   6.963
  377SOL    HW2 2031   1.481   2.260   0.060
  378SOL     OW 2032   2.867   1.679   0.294
  378SOL    HW1 2033   2.891   1.583   0.310
  378SOL    HW2 2034   2.835   1.719   0.380
  379SOL     OW 2035   5.722   2.529   6.427
  379SOL    HW1 2036   5.639   2.533   6.484
  379SOL    HW2 2037   5.739   2.620   6.389
  380SOL     OW 2038   3.250   1.291   1.288
  380SOL    HW1 2039   3.343   1.256   1.297
  380SOL    HW2 2040   3.246   1.358   1.214
  381SOL     OW 2041   1.327   4.734   3.877
  381SOL    HW1 2042   1.336   4.833   3.893
  381SOL    HW2 2043   1.252   4.717   3.813
  382SOL     OW 2044   6.203   0.798   0.067
  382SOL    HW1 2045   6.191   0.702   0.095
  382SOL    HW2 2046   6.143   0.856   0.123
  383SOL     OW 2047   3.789   2.942   1.097
  383SOL    HW1 2048   3.748   2.902   1.015
  383SOL    HW2 2049   3.756   3.036   1.109
  384SOL     OW 2050   6.832   3.854   4.191
  384SOL    HW1 2051   6.878   3.779   4.239
  384SOL    HW2 2052   6.851   3.940   4.237
  385SOL     OW 2053   3.992   5.178   6.318
  385SOL    HW1 2054   3.973   5.158   6.415
  385SOL    HW2 2055   3.915   5.145   6.263
  386SOL     OW 2056   4.506   0.275   4.550
  386SOL    HW1 2057   4.585   0.256   4.609
  386SOL    HW2 2058   4.429   0.302   4.607
  387SOL     OW 2059   2.530   5.055   3.051
  387SOL    HW1 2060   2.495   4.962   3.061
  387SOL    HW2 2061   2.461   5.120   3.081
  388SOL     OW 2062   1.885   2.262   6.113
  388SOL    HW1 2063   1.818   2.303   6.176
  388SOL    HW2 2064   1.975   2.302   6.130
  389SOL     OW 2065   3.568   4.100   3.084
  389SOL    HW1 2066   3.541   4.182   3.034
  389SOL    HW2 2067   3.527   4.020   3.040
  390SOL     OW 2068   2.639   1.231   3.641
  390SOL    HW1 2069   2.721   1.220   3.585
  390SOL    HW2 2070   2.663   1.272   3.729
  391SOL     OW 2071   1.481   2.833   0.504
  391SOL    HW1 2072   1.532   2.875   0.579
  391SOL    HW2 2073   1.542   2.819   0.426
  392SOL     OW 2074   2.416   4.980   1.547
  392SOL    HW1 2075   2.457   4.897   1.509
  392SOL    HW2 2076   2.460   5.003   1.634
  393SOL     OW 2077   6.099   4.704   5.566
  393SOL    HW1 2078   6.196   4.726   5.578
  393SOL    HW2 2079   6.076   4.622   5.619
  394SOL     OW 2080   0.394   6.698   0.020
  394SOL    HW1 2081   0.351   6.686   6.950
  394SOL    HW2 2082   0.340   6.651   0.090
  395SOL     OW 2083   4.902   3.483   2.239
  395SOL    HW1 2084   4.881   3.530   2.153
  395SOL    HW2 2085   4.897   3.384   2.225
  396SOL     OW 2086   3.845   3.559   3.127
  396SOL    HW1 2087   3.849   3.659   3.134
  396SOL    HW2 2088   3.933   3.525   3.092
  397SOL     OW 2089   4.526   2.544   5.443
  397SOL    HW1 2090   4.615   2.527   5.401
  397SOL    HW2 2091   4.537   2.553   5.542
  398SOL     OW 2092   0.970   5.827   2.492
  398SOL    HW1 2093   0.970   5.734   2.455
  398SOL    HW2 2094   0.879   5.850   2.524
  399SOL     OW 2095   4.778   5.541   2.196
  399SOL    HW1 2096   4.772   5.612   2.266
  399SOL    HW2 2097   4.862   5.553   2.144
  400SOL     OW 2098   0.061   0.284   5.355
  400SOL    HW1 2099   0.094   0.370   5.316
  400SOL    HW2 2100   0.039   0.220   5.281
  401SOL     OW 2101   4.851   0.935   6.516
  401SOL    HW1 2102   4.782   0.988   6.566
  401SOL    HW2 2103   4.836   0.946   6.418
  402SOL     OW 2104   6.581   6.197   2.662
  402SOL    HW1 2105   6.508   6.251   2.704
  402SOL    HW2 2106   6.648   6.172   2.732
  403SOL     OW 2107   4.763   2.097   6.067
  403SOL    HW1 2108   4.777   1.998   6.061
  403SOL    HW2 2109   4.666   2.117   6.055
  404SOL     OW 2110   1.476   6.762   3.358
  404SOL    HW1 2111   1.429   6.832   3.412
  404SOL    HW2 2112   1.408   6.705   3.312
  405SOL     OW 2113   1.642   2.359   1.302
  405SOL    HW1 2114   1.590   2.311   1.373
  405SOL    HW2 2115   1.740   2.352   1.323
  406SOL     OW 2116   1.127   2.706   4.042
  406SOL    HW1 2117   1.183   2.668   4.116
  406SOL    HW2 2118   1.032   2.713   4.073
  407SOL     OW 2119   2.554   6.963   4.619
  407SOL    HW1 2120   2.636   6.969   4.677
  407SOL    HW2 2121   2.483   6.911   4.667
  408SOL     OW 2122   1.656   0.455   3.275
  408SOL    HW1 2123   1.599   0.535   3.296
  408SOL    HW2 2124   1.707   0.472   3.190
  409SOL     OW 2125   5.703   3.333   3.036
  409SOL    HW1 2126   5.788   3.281   3.045
  409SOL    HW2 2127   5.628   3.271   3.011
  410SOL     OW 2128   2.609   0.417   0.841
  410SOL    HW1 2129   2.516   0.453   0.854
  410SOL    HW2 2130   2.676   0.488   0.861
  411SOL     OW 2131   5.693   5.843   6.752
  411SOL    HW1 2132   5.723   5.865   6.845
  411SOL    HW2 2133   5.755   5.776   6.712
  412SOL     OW 2134   3.868   6.245   2.847
  412SOL    HW1 2135   3.788   6.269   2.791
  412SOL    HW2 2136   3.837   6.203   2.933
  413SOL     OW 2137   3.595   4.755   0.790
  413SOL    HW1 2138   3.640   4.757   0.700
  413SOL    HW2 2139   3.512   4.810   0.787
  414SOL     OW 2140   4.352   5.196   2.255
  414SOL    HW1 2141   4.436   5.238   2.289
  414SOL    HW2 2142   4.273   5.240   2.298
  415SOL     OW 2143   1.517   5.844   0.456
  415SOL    HW1 2144   1.441   5.813   0.399
  415SOL    HW2 2145   1.497   5.935   0.493
  416SOL     OW 2146   4.287   5.483   4.850
  416SOL    HW1 2147   4.331   5.481   4.939
  416SOL    HW2 2148   4.318   5.564   4.800
  417SOL     OW 2149   3.031   6.568   1.112
  417SOL    HW1 2150   3.073   6.624   1.184
  417SOL    HW2 2151   2.969   6.502   1.153
  418SOL     OW 2152   4.766   6.141   0.345
  418SOL    HW1 2153   4.765   6.044   0.324
  418SOL    HW2 2154   4.748   6.193   0.261
  419SOL     OW 2155   0.963   0.467   1.448
  419SOL    HW1 2156   1.029   0.393   1.441
  419SOL    HW2 2157   1.004   0.545   1.494
  420SOL     OW 2158   5.870   3.727   1.378
  420SOL    HW1 2159   5.910   3.644   1.417
  420SOL    HW2 2160   5.877   3.802   1.444
  421SOL     OW 2161   1.016   4.944   6.425
  421SOL    HW1 2162   1.003   4.850   6.395
  421SOL    HW2 2163   0.972   5.006   6.360
  422SOL     OW 2164   6.056   5.332   0.943
  422SOL    HW1 2165   6.069   5.255   0.879
  422SOL    HW2 2166   6.145   5.372   0.964
  423SOL     OW 2167   6.228   3.191   0.334
  423SOL    HW1 2168   6.182   3.250   0.401
  423SOL    HW2 2169   6.324   3.219   0.326
  424SOL     OW 2170   3.244   3.339   0.320
  424SOL    HW1 2171   3.185   3.389   0.384
  424SOL    HW2 2172   3.235   3.241   0.336
  425SOL     OW 2173   5.205   1.391   1.636
  425SOL    HW1 2174   5.143   1.324   1.596
  425SOL    HW2 2175   5.260   1.348   1.708
  426SOL     OW 2176   5.697   2.357   4.911
  426SOL    HW1 2177   5.620   2.420   4.915
  426SOL    HW2 2178   5.773   2.400   4.862
  427SOL     OW 2179   5.631   4.960   2.346
  427SOL    HW1 2180   5.690   4.911   2.411
  427SOL    HW2 2181   5.559   4.898   2.314
  428SOL     OW 2182   4.555   0.503   5.156
  428SOL    HW1 2183   4.512   0.559   5.227
  428SOL    HW2 2184   4.488   0.440   5.118
  429SOL     OW 2185   2.675   5.191   0.664
  429SOL    HW1 2186   2.687   5.174   0.761
  429SOL    HW2 2187   2.737   5.264   0.634
  430SOL     OW 2188   1.251   6.842   4.227
  430SOL    HW1 2189   1.347   6.867   4.245
  430SOL    HW2 2190   1.194   6.872   4.304
  431SOL     OW 2191   3.084   1.287   7.012
  431SOL    HW1 2192   3.088   1.258   6.916
  431SOL    HW2 2193   2.988   1.302   0.018
  432SOL     OW 2194   6.523   2.691   0.850
  432SOL    HW1 2195   6.612   2.719   0.814
  432SOL    HW2 2196   6.513   2.724   0.944
  433SOL     OW 2197   2.708   0.199   4.232
  433SOL    HW1 2198   2.784   0.135   4.218
  433SOL    HW2 2199   2.634   0.178   4.168
  434SOL     OW 2200   5.007   5.164   1.552
  434SOL    HW1 2201   4.926   5.124   1.596
  434SOL    HW2 2202   5.084   5.102   1.564
  435SOL     OW 2203   3.741   2.592   5.291
  435SOL    HW1 2204   3.732   2.571   5.389
  435SOL    HW2 2205   3.816   2.656   5.277
  436SOL     OW 2206   1.998   6.686   0.775
  436SOL    HW1 2207   2.079   6.725   0.732
  436SOL    HW2 2208   1.968   6.745   0.850
  437SOL     OW 2209   0.344   0.239   6.274
  437SOL    HW1 2210   0.266   0.186   6.308
  437SOL    HW2 2211   0.353   0.226   6.175
  438SOL     OW 2212   1.930   2.917   2.111
  438SOL    HW1 2213   2.028   2.936   2.102
  438SOL    HW2 2214   1.882   3.002   2.134
  439SOL     OW 2215   5.717   4.498   3.510
  439SOL    HW1 2216   5.643   4.478   3.445
  439SOL    HW2 2217   5.775   4.417   3.521
  440SOL     OW 2218   1.279   2.006   4.604
  440SOL    HW1 2219   1.319   1.920   4.635
  440SOL    HW2 2220   1.319   2.083   4.655
  441SOL     OW 2221   0.405   1.793   3.069
  441SOL    HW1 2222   0.350   1.769   2.989
  441SOL    HW2 2223   0.501   1.802   3.042
  442SOL     OW 2224   1.686   4.625   0.195
  442SOL    HW1 2225   1.684   4.595   0.099
  442SOL    HW2 2226   1.772   4.673   0.213
  443SOL     OW 2227   0.765   4.281   5.277
  443SOL    HW1 2228   0.862   4.259   5.290
  443SOL    HW2 2229   0.730   4.233   5.197
  444SOL     OW 2230   5.009   2.504   5.858
  444SOL    HW1 2231   5.072   2.467   5.926
  444SOL    HW2 2232   5.044   2.593   5.827
  445SOL     OW 2233   1.778   5.531   3.291
  445SOL    HW1 2234   1.796   5.545   3.194
  445SOL    HW2 2235   1.848   5.577   3.345
  446SOL     OW 2236   4.130   4.795   3.293
  446SOL    HW1 2237   4.184   4.736   3.352
  446SOL    HW2 2238   4.148   4.773   3.197
  447SOL     OW 2239   0.500   3.827   6.718
  447SOL    HW1 2240   0.510   3.922   6.748
  447SOL    HW2 2241   0.450   3.824   6.632
  448SOL     OW 2242   3.710   0.219   4.879
  448SOL    HW1 2243   3.648   0.147   4.908
  448SOL    HW2 2244   3.690   0.243   4.783
  449SOL     OW 2245   4.787   0.981   5.505
  449SOL    HW1 2246   4.803   0.980   5.603
  449SOL    HW2 2247   4.712   0.918   5.482
  450SOL     OW 2248   1.049   5.724   3.088
  450SOL    HW1 2249   1.146   5.702   3.099
  450SOL    HW2 2250   1.039   5.814   3.045
  451SOL     OW 2251   1.118   2.261   2.353
  451SOL    HW1 2252   1.157   2.206   2.428
  451SOL    HW2 2253   1.191   2.282   2.288
  452SOL     OW 2254   6.490   5.825   0.242
  452SOL    HW1 2255   6.504   5.831   0.341
  452SOL    HW2 2256   6.469   5.731   0.217
  453SOL     OW 2257   3.041   0.026   5.815
  453SOL    HW1 2258   2.963   0.088   5.825
  453SOL    HW2 2259   3.120   0.077   5.780
  454SOL     OW 2260   6.887   5.521   5.874
  454SOL    HW1 2261   6.962   5.548   5.814
  454SOL    HW2 2262   6.803   5.511   5.821
  455SOL     OW 2263   6.621   0.351   4.207
  455SOL    HW1 2264   6.630   0.410   4.126
  455SOL    HW2 2265   6.546   0.384   4.264
  456SOL     OW 2266   4.556   5.816   5.008
  456SOL    HW1 2267   4.628   5.763   4.962
  456SOL    HW2 2268   4.513   5.760   5.079
  457SOL     OW 2269   2.003   3.618   3.593
  457SOL    HW1 2270   2.023   3.619   3.495
  457SOL    HW2 2271   1.908   3.593   3.608
  458SOL     OW 2272   4.907   5.444   5.169
  458SOL    HW1 2273   4.977   5.427   5.238
  458SOL    HW2 2274   4.948   5.436   5.078
  459SOL     OW 2275   1.327   0.325   3.927
  459SOL    HW1 2276   1.343   0.265   4.006
  459SOL    HW2 2277   1.269   0.278   3.861
  460SOL     OW 2278   0.370   1.141   2.314
  460SOL    HW1 2279   0.467   1.118   2.315
  460SOL    HW2 2280   0.319   1.069   2.265
  461SOL     OW 2281   5.669   6.551   4.437
  461SOL    HW1 2282   5.638   6.473   4.384
  461SOL    HW2 2283   5.716   6.616   4.377
  462SOL     OW 2284   4.201   2.285   5.802
  462SOL    HW1 2285   4.287   2.283   5.751
  462SOL    HW2 2286   4.178   2.379   5.827
  463SOL     OW 2287   6.088   6.459   2.988
  463SOL    HW1 2288   6.012   6.502   2.940
  463SOL    HW2 2289   6.175   6.493   2.952
  464SOL     OW 2290   2.993   2.083   6.317
  464SOL    HW1 2291   3.063   2.041   6.374
  464SOL    HW2 2292   2.942   2.012   6.268
  465SOL     OW 2293   1.551   2.151   4.010
  465SOL    HW1 2294   1.535   2.129   4.106
  465SOL    HW2 2295   1.536   2.070   3.954
  466SOL     OW 2296   0.566   5.421   3.085
  466SOL    HW1 2297   0.517   5.382   3.008
  466SOL    HW2 2298   0.503   5.436   3.161
  467SOL     OW 2299   0.887   0.354   6.244
  467SOL    HW1 2300   0.942   0.417   6.300
  467SOL    HW2 2301   0.871   0.270   6.295
  468SOL     OW 2302   2.957   6.016   0.332
  468SOL    HW1 2303   2.974   6.114   0.321
  468SOL    HW2 2304   2.859   5.997   0.317
  469SOL     OW 2305   2.731   4.449   0.648
  469SOL    HW1 2306   2.654   4.486   0.596
  469SOL    HW2 2307   2.729   4.485   0.741
  470SOL     OW 2308   3.346   0.813   2.262
  470SOL    HW1 2309   3.322   0.893   2.206
  470SOL    HW2 2310   3.272   0.793   2.326
  471SOL     OW 2311   1.538   2.194   4.495
  471SOL    HW1 2312   1.592   2.224   4.573
  471SOL    HW2 2313   1.454   2.249   4.489
  472SOL     OW 2314   5.187   3.848   6.943
  472SOL    HW1 2315   5.211   3.943   6.922
  472SOL    HW2 2316   5.111   3.820   6.886
  473SOL     OW 2317   0.220   2.869   1.225
  473SOL    HW1 2318   0.312   2.892   1.193
  473SOL    HW2 2319   0.205   2.909   1.316
  474SOL     OW 2320   4.320   4.930   3.801
  474SOL    HW1 2321   4.323   5.017   3.752
  474SOL    HW2 2322   4.319   4.948   3.900
  475SOL     OW 2323   6.179   0.778   6.801
  475SOL    HW1 2324   6.197   0.786   6.899
  475SOL    HW2 2325   6.081   0.787   6.785
  476SOL     OW 2326   0.682   4.112   2.379
  476SOL    HW1 2327   0.765   4.167   2.391
  476SOL    HW2 2328   0.617   4.161   2.321
  477SOL     OW 2329   2.021   4.738   5.048
  477SOL    HW1 2330   2.108   4.689   5.057
  477SOL    HW2 2331   2.038   4.836   5.058
  478SOL     OW 2332   3.033   6.490   2.379
  478SOL    HW1 2333   3.002   6.455   2.467
  478SOL    HW2 2334   2.954   6.516   2.323
  479SOL     OW 2335   4.389   2.234   0.062
  479SOL    HW1 2336   4.433   2.321   0.085
  479SOL    HW2 2337   4.291   2.240   0.080
  480SOL     OW 2338   2.184   0.657   0.378
  480SOL    HW1 2339   2.271   0.702   0.355
  480SOL    HW2 2340   2.142   0.622   0.294
  481SOL     OW 2341   1.592   6.708   0.282
  481SOL    HW1 2342   1.663   6.752   0.227
  481SOL    HW2 2343   1.508   6.762   0.276
  482SOL     OW 2344   4.427   4.527   2.602
  482SOL    HW1 2345   4.388   4.549   2.513
  482SOL    HW2 2346   4.375   4.572   2.674
  483SOL     OW 2347   6.599   2.211   1.461
  483SOL    HW1 2348   6.575   2.263   1.543
  483SOL    HW2 2349   6.676   2.254   1.414
  484SOL     OW 2350   1.371   3.206   4.827
  484SOL    HW1 2351   1.422   3.222   4.912
  484SOL    HW2 2352   1.364   3.108   4.811
  485SOL     OW 2353   4.310   5.632   1.854
  485SOL    HW1 2354   4.267   5.544   1.838
  485SOL    HW2 2355   4.381   5.648   1.785
  486SOL     OW 2356   0.343   1.888   0.642
  486SOL    HW1 2357   0.251   1.913   0.672
  486SOL    HW2 2358   0.402   1.875   0.722
  487SOL     OW 2359   0.700   1.858   0.311
  487SOL    HW1 2360   0.669   1.938   0.363
  487SOL    HW2 2361   0.742   1.888   0.226
  488SOL     OW 2362   0.532   1.182   1.638
  488SOL    HW1 2363   0.513   1.240   1.717
  488SOL    HW2 2364   0.457   1.117   1.626
  489SOL     OW 2365   3.954   5.989   6.465
  489SOL    HW1 2366   4.001   6.075   6.485
  489SOL    HW2 2367   3.855   6.005   6.465
  490SOL     OW 2368   6.773   6.261   3.316
  490SOL    HW1 2369   6.717   6.181   3.292
  490SOL    HW2 2370   6.804   6.252   3.411
  491SOL     OW 2371   0.400   2.769   2.724
  491SOL    HW1 2372   0.475   2.792   2.786
  491SOL    HW2 2373   0.391   2.669   2.718
  492SOL     OW 2374   2.974   0.070   4.930
  492SOL    HW1 2375   2.939   0.076   4.836
  492SOL    HW2 2376   2.911   0.118   4.992
  493SOL     OW 2377   5.497   5.826   5.301
  493SOL    HW1 2378   5.431   5.878   5.355
  493SOL    HW2 2379   5.504   5.866   5.209
  494SOL     OW 2380   0.538   0.090   6.863
  494SOL    HW1 2381   0.558   0.013   6.923
  494SOL    HW2 2382   0.460   0.141   6.898
  495SOL     OW 2383   5.322   6.064   2.825
  495SOL    HW1 2384   5.367   5.974   2.829
  495SOL    HW2 2385   5.391   6.136   2.823
  496SOL     OW 2386   5.270   3.513   2.849
  496SOL    HW1 2387   5.210   3.435   2.833
  496SOL    HW2 2388   5.215   3.597   2.849
  497SOL     OW 2389   3.192   1.811   5.868
  497SOL    HW1 2390   3.192   1.744   5.942
  497SOL    HW2 2391   3.160   1.899   5.903
  498SOL     OW 2392   1.609   3.698   1.775
  498SOL    HW1 2393   1.593   3.703   1.873
  498SOL    HW2 2394   1.607   3.603   1.745
  499SOL     OW 2395   3.175   0.291   4.191
  499SOL    HW1 2396   3.136   0.287   4.284
  499SOL    HW2 2397   3.115   0.346   4.133
  500SOL     OW 2398   0.943   3.781   2.744
  500SOL    HW1 2399   0.863   3.759   2.688
  500SOL    HW2 2400   0.995   3.854   2.699
  501SOL     OW 2401   3.080   0.420   0.414
  501SOL    HW1 2402   3.170   0.464   0.422
  501SOL    HW2 2403   3.016   0.465   0.476
  502SOL     OW 2404   6.203   4.591   6.449
  502SOL    HW1 2405   6.279   4.527   6.435
  502SOL    HW2 2406   6.232   4.665   6.510
  503SOL     OW 2407   5.732   5.564   5.888
  503SOL    HW1 2408   5.797   5.604   5.823
  503SOL    HW2 2409   5.763   5.584   5.982
  504SOL     OW 2410   2.785   5.937   3.305
  504SOL    HW1 2411   2.735   5.858   3.341
  504SOL    HW2 2412   2.868   5.951   3.359
  505SOL     OW 2413   3.956   0.068   5.792
  505SOL    HW1 2414   3.889   0.098   5.724
  505SOL    HW2 2415   4.007   7.010   5.755
  506SOL     OW 2416   1.352   5.462   4.547
  506SOL    HW1 2417   1.274   5.512   4.586
  506SOL    HW2 2418   1.348   5.470   4.447
  507SOL     OW 2419   3.668   0.876   4.224
  507SOL    HW1 2420   3.744   0.913   4.277
  507SOL    HW2 2421   3.605   0.949   4.200
  508SOL     OW 2422   6.449   4.178   2.861
  508SOL    HW1 2423   6.356   4.194   2.891
  508SOL    HW2 2424   6.473   4.081   2.875
  509SOL     OW 2425   2.855   1.127   1.401
  509SOL    HW1 2426   2.780   1.192   1.411
  509SOL    HW2 2427   2.817   1.035   1.385
  510SOL     OW 2428   6.516   5.072   6.008
  510SOL    HW1 2429   6.609   5.068   5.971
  510SOL    HW2 2430   6.451   5.080   5.932
  511SOL     OW 2431   0.676   6.713   6.764
  511SOL    HW1 2432   0.727   6.735   6.681
  511SOL    HW2 2433   0.739   6.701   6.841
  512SOL     OW 2434   6.766   3.464   0.288
  512SOL    HW1 2435   6.846   3.481   0.230
  512SOL    HW2 2436   6.691   3.428   0.232
  513SOL     OW 2437   5.884   6.545   2.776
  513SOL    HW1 2438   5.897   6.455   2.734
  513SOL    HW2 2439   5.790   6.554   2.808
  514SOL     OW 2440   6.675   2.459   3.720
  514SOL    HW1 2441   6.681   2.450   3.621
  514SOL    HW2 2442   6.766   2.456   3.760
  515SOL     OW 2443   1.732   0.466   6.596
  515SOL    HW1 2444   1.722   0.503   6.688
  515SOL    HW2 2445   1.800   0.520   6.546
  516SOL     OW 2446   3.185   4.618   1.670
  516SOL    HW1 2447   3.121   4.542   1.658
  516SOL    HW2 2448   3.180   4.651   1.764
  517SOL     OW 2449   5.059   6.262   2.185
  517SOL    HW1 2450   5.142   6.210   2.206
  517SOL    HW2 2451   4.979   6.210   2.213
  518SOL     OW 2452   3.058   2.096   2.162
  518SOL    HW1 2453   3.020   2.181   2.124
  518SOL    HW2 2454   3.021   2.018   2.112
  519SOL     OW 2455   0.238   0.768   4.587
  519SOL    HW1 2456   0.181   0.756   4.668
  519SOL    HW2 2457   0.323   0.717   4.599
  520SOL     OW 2458   6.221   4.797   6.642
  520SOL    HW1 2459   6.128   4.772   6.666
  520SOL    HW2 2460   6.226   4.895   6.623
  521SOL     OW 2461   6.380   2.747   6.384
  521SOL    HW1 2462   6.288   2.734   6.419
  521SOL    HW2 2463   6.391   2.696   6.299
  522SOL     OW 2464   3.753   2.892   5.010
  522SOL    HW1 2465   3.683   2.939   5.064
  522SOL    HW2 2466   3.818   2.848   5.071
  523SOL     OW 2467   0.354   4.887   2.815
  523SOL    HW1 2468   0.345   4.920   2.909
  523SOL    HW2 2469   0.343   4.788   2.814
  524SOL     OW 2470   2.241   1.042   6.563
  524SOL    HW1 2471   2.186   1.126   6.568
  524SOL    HW2 2472   2.190   0.971   6.514
  525SOL     OW 2473   2.760   3.583   6.534
  525SOL    HW1 2474   2.710   3.631   6.606
  525SOL    HW2 2475   2.749   3.632   6.448
  526SOL     OW 2476   2.802   0.182   5.102
  526SOL    HW1 2477   2.852   0.257   5.144
  526SOL    HW2 2478   2.719   0.217   5.059
  527SOL     OW 2479   5.683   3.088   6.157
  527SOL    HW1 2480   5.664   3.164   6.095
  527SOL    HW2 2481   5.754   3.030   6.117
  528SOL     OW 2482   0.867   1.978   4.148
  528SOL    HW1 2483   0.903   2.056   4.096
  528SOL    HW2 2484   0.767   1.979   4.144
  529SOL     OW 2485   0.369   5.691   4.453
  529SOL    HW1 2486   0.439   5.723   4.517
  529SOL    HW2 2487   0.376   5.591   4.443
  530SOL     OW 2488   2.867   2.863   5.462
  530SOL    HW1 2489   2.889   2.790   5.397
  530SOL    HW2 2490   2.776   2.899   5.443
  531SOL     OW 2491   0.296   0.657   1.603
  531SOL    HW1 2492   0.386   0.615   1.619
  531SOL    HW2 2493   0.276   0.656   1.505
  532SOL     OW 2494   0.927   2.762   6.680
  532SOL    HW1 2495   0.967   2.850   6.705
  532SOL    HW2 2496   0.840   2.777   6.633
  533SOL     OW 2497   4.642   5.852   4.283
  533SOL    HW1 2498   4.626   5.814   4.375
  533SOL    HW2 2499   4.737   5.839   4.258
  534SOL     OW 2500   5.317   5.459   3.679
  534SOL    HW1 2501   5.239   5.418   3.631
  534SOL    HW2 2502   5.382   5.495   3.612
  535SOL     OW 2503   0.926   4.144   4.758
  535SOL    HW1 2504   1.002   4.085   4.786
  535SOL    HW2 2505   0.847   4.087   4.733
  536SOL     OW 2506   0.006   4.808   2.222
  536SOL    HW1 2507   0.087   4.769   2.178
  536SOL    HW2 2508   6.987   4.879   2.163
  537SOL     OW 2509   1.802   6.129   3.886
  537SOL    HW1 2510   1.760   6.200   3.830
  537SOL    HW2 2511   1.901   6.144   3.891
  538SOL     OW 2512   1.921   5.881   3.941
  538SOL    HW1 2513   1.989   5.945   3.977
  538SOL    HW2 2514   1.859   5.928   3.879
  539SOL     OW 2515   0.529   6.141   0.114
  539SOL    HW1 2516   0.498   6.068   0.053
  539SOL    HW2 2517   0.622   6.121   0.146
  540SOL     OW 2518   0.368   1.673   1.698
  540SOL    HW1 2519   0.317   1.624   1.768
  540SOL    HW2 2520   0.458   1.698   1.734
  541SOL     OW 2521   2.892   6.364   4.180
  541SOL    HW1 2522   2.981   6.320   4.195
  541SOL    HW2 2523   2.905   6.462   4.169
  542SOL     OW 2524   0.063   0.101   0.574
  542SOL    HW1 2525   0.044   0.083   0.670
  542SOL    HW2 2526   6.999   0.133   0.529
  543SOL     OW 2527   0.106   5.115   5.504
  543SOL    HW1 2528   0.033   5.164   5.551
  543SOL    HW2 2529   0.194   5.156   5.526
  544SOL     OW 2530   1.820   4.241   1.110
  544SOL    HW1 2531   1.778   4.156   1.078
  544SOL    HW2 2532   1.847   4.231   1.205
  545SOL     OW 2533   3.437   1.511   3.303
  545SOL    HW1 2534   3.460   1.434   3.361
  545SOL    HW2 2535   3.474   1.496   3.211
  546SOL     OW 2536   1.538   3.111   1.300
  546SOL    HW1 2537   1.441   3.129   1.286
  546SOL    HW2 2538   1.553   3.088   1.396
  547SOL     OW 2539   2.516   1.068   6.653
  547SOL    HW1 2540   2.418   1.052   6.648
  547SOL    HW2 2541   2.558   1.001   6.714
  548SOL     OW 2542   4.103   3.315   2.842
  548SOL    HW1 2543   4.127   3.240   2.904
  548SOL    HW2 2544   4.005   3.314   2.825
  549SOL     OW 2545   4.548   3.855   1.566
  549SOL    HW1 2546   4.615   3.831   1.495
  549SOL    HW2 2547   4.464   3.888   1.523
  550SOL     OW 2548   0.295   3.409   3.664
  550SOL    HW1 2549   0.248   3.469   3.729
  550SOL    HW2 2550   0.231   3.378   3.594
  551SOL     OW 2551   7.002   1.337   1.107
  551SOL    HW1 2552   6.917   1.335   1.053
  551SOL    HW2 2553   0.061   1.324   1.047
  552SOL     OW 2554   4.331   5.237   0.903
  552SOL    HW1 2555   4.255   5.285   0.947
  552SOL    HW2 2556   4.397   5.209   0.972
  553SOL     OW 2557   1.952   6.770   2.804
  553SOL    HW1 2558   1.865   6.817   2.793
  553SOL    HW2 2559   1.939   6.685   2.855
  554SOL     OW 2560   5.195   6.994   6.472
  554SOL    HW1 2561   5.131   6.932   6.517
  554SOL    HW2 2562   5.146   0.033   6.408
  555SOL     OW 2563   2.238   5.370   4.360
  555SOL    HW1 2564   2.158   5.363   4.419
  555SOL    HW2 2565   2.235   5.298   4.291
  556SOL     OW 2566   6.165   1.966   4.590
  556SOL    HW1 2567   6.082   2.015   4.564
  556SOL    HW2 2568   6.219   1.946   4.508
  557SOL     OW 2569   0.089   5.490   6.790
  557SOL    HW1 2570   0.089   5.446   6.881
  557SOL    HW2 2571   0.183   5.505   6.761
  558SOL     OW 2572   4.057   3.814   4.822
  558SOL    HW1 2573   4.086   3.729   4.778
  558SOL    HW2 2574   4.127   3.844   4.887
  559SOL     OW 2575   5.984   6.045   6.856
  559SOL    HW1 2576   6.058   5.991   6.816
  559SOL    HW2 2577   5.942   5.993   6.931
  560SOL     OW 2578   3.930   6.561   1.030
  560SOL    HW1 2579   3.968   6.511   1.108
  560SOL    HW2 2580   3.830   6.563   1.037
  561SOL     OW 2581   6.343   6.990   6.427
  561SOL    HW1 2582   6.382   6.899   6.444
  561SOL    HW2 2583   6.258   6.979   6.376
  562SOL     OW 2584   4.603   0.511   6.414
  562SOL    HW1 2585   4.697   0.518   6.447
  562SOL    HW2 2586   4.601   0.530   6.316
  563SOL     OW 2587   2.752   0.263   3.506
  563SOL    HW1 2588   2.765   0.176   3.553
  563SOL    HW2 2589   2.839   0.311   3.500
  564SOL     OW 2590   2.216   2.075   5.672
  564SOL    HW1 2591   2.285   2.106   5.606
  564SOL    HW2 2592   2.234   2.118   5.761
  565SOL     OW 2593   4.337   3.152   5.539
  565SOL    HW1 2594   4.359   3.056   5.525
  565SOL    HW2 2595   4.401   3.208   5.486
  566SOL     OW 2596   4.454   4.515   3.647
  566SOL    HW1 2597   4.461   4.614   3.655
  566SOL    HW2 2598   4.528   4.480   3.590
  567SOL     OW 2599   2.870   3.703   3.766
  567SOL    HW1 2600   2.812   3.633   3.724
  567SOL    HW2 2601   2.868   3.786   3.710
  568SOL     OW 2602   3.619   2.513   1.428
  568SOL    HW1 2603   3.595   2.432   1.376
  568SOL    HW2 2604   3.718   2.527   1.425
  569SOL     OW 2605   1.540   3.180   0.670
  569SOL    HW1 2606   1.569   3.237   0.592
  569SOL    HW2 2607   1.598   3.099   0.676
  570SOL     OW 2608   1.417   6.645   6.719
  570SOL    HW1 2609   1.428   6.571   6.652
  570SOL    HW2 2610   1.321   6.673   6.722
  571SOL     OW 2611   3.125   6.207   2.407
  571SOL    HW1 2612   3.218   6.228   2.438
  571SOL    HW2 2613   3.066   6.195   2.486
  572SOL     OW 2614   2.385   4.683   5.561
  572SOL    HW1 2615   2.435   4.597   5.547
  572SOL    HW2 2616   2.428   4.755   5.507
  573SOL     OW 2617   3.635   1.779   4.909
  573SOL    HW1 2618   3.561   1.844   4.927
  573SOL    HW2 2619   3.653   1.727   4.993
  574SOL     OW 2620   2.321   2.407   4.336
  574SOL    HW1 2621   2.299   2.348   4.258
  574SOL    HW2 2622   2.414   2.388   4.366
  575SOL     OW 2623   6.118   4.430   6.880
  575SOL    HW1 2624   6.106   4.452   6.783
  575SOL    HW2 2625   6.215   4.426   6.902
  576SOL     OW 2626   1.224   1.973   1.732
  576SOL    HW1 2627   1.309   1.964   1.783
  576SOL    HW2 2628   1.232   1.925   1.644
  577SOL     OW 2629   2.212   1.479   3.306
  577SOL    HW1 2630   2.205   1.512   3.212
  577SOL    HW2 2631   2.283   1.410   3.312
  578SOL     OW 2632   0.055   3.340   3.501
  578SOL    HW1 2633   7.011   3.417   3.495
  578SOL    HW2 2634   0.003   3.256   3.519
  579SOL     OW 2635   3.371   2.066   1.171
  579SOL    HW1 2636   3.301   2.015   1.221
  579SOL    HW2 2637   3.458   2.016   1.176
  580SOL     OW 2638   0.816   4.952   6.160
  580SOL    HW1 2639   0.789   5.006   6.240
  580SOL    HW2 2640   0.736   4.936   6.102
  581SOL     OW 2641   3.775   3.032   3.000
  581SOL    HW1 2642   3.694   2.993   3.044
  581SOL    HW2 2643   3.816   2.964   2.939
  582SOL     OW 2644   5.909   4.200   2.338
  582SOL    HW1 2645   5.811   4.200   2.358
  582SOL    HW2 2646   5.939   4.107   2.318
  583SOL     OW 2647   2.607   4.640   6.550
  583SOL    HW1 2648   2.588   4.637   6.452
  583SOL    HW2 2649   2.528   4.677   6.598
  584SOL     OW 2650   0.133   4.702   6.161
  584SOL    HW1 2651   0.082   4.624   6.124
  584SOL    HW2 2652   0.191   4.670   6.236
  585SOL     OW 2653   6.276   2.626   6.026
  585SOL    HW1 2654   6.270   2.529   6.001
  585SOL    HW2 2655   6.351   2.669   5.976
  586SOL     OW 2656   3.266   6.529   0.280
  586SOL    HW1 2657   3.197   6.502   0.346
  586SOL    HW2 2658   3.225   6.535   0.189
  587SOL     OW 2659   2.062   1.964   5.179
  587SOL    HW1 2660   1.978   2.018   5.169
  587SOL    HW2 2661   2.053   1.879   5.127
  588SOL     OW 2662   3.624   6.995   1.796
  588SOL    HW1 2663   3.565   0.053   1.775
  588SOL    HW2 2664   3.699   6.991   1.729
  589SOL     OW 2665   4.116   5.078   1.636
  589SOL    HW1 2666   4.091   5.026   1.555
  589SOL    HW2 2667   4.151   5.168   1.609
  590SOL     OW 2668   0.298   2.754   2.307
  590SOL    HW1 2669   0.360   2.813   2.360
  590SOL    HW2 2670   0.352   2.688   2.254
  591SOL     OW 2671   3.826   0.034   3.410
  591SOL    HW1 2672   3.854   6.985   3.343
  591SOL    HW2 2673   3.905   0.089   3.435
  592SOL     OW 2674   4.553   1.068   0.369
  592SOL    HW1 2675   4.498   1.000   0.418
  592SOL    HW2 2676   4.497   1.148   0.350
  593SOL     OW 2677   4.295   2.344   3.831
  593SOL    HW1 2678   4.205   2.325   3.791
  593SOL    HW2 2679   4.364   2.290   3.783
  594SOL     OW 2680   4.425   2.727   6.438
  594SOL    HW1 2681   4.514   2.697   6.470
  594SOL    HW2 2682   4.363   2.739   6.516
  595SOL     OW 2683   4.527   6.998   4.182
  595SOL    HW1 2684   4.623   7.011   4.205
  595SOL    HW2 2685   4.496   0.053   4.123
  596SOL     OW 2686   1.044   3.904   1.653
  596SOL    HW1 2687   1.090   3.956   1.725
  596SOL    HW2 2688   0.974   3.845   1.694
  597SOL     OW 2689   4.157   6.499   6.439
  597SOL    HW1 2690   4.142   6.525   6.343
  597SOL    HW2 2691   4.200   6.574   6.488
  598SOL     OW 2692   3.672   4.179   0.426
  598SOL    HW1 2693   3.592   4.119   0.429
  598SOL    HW2 2694   3.642   4.273   0.411
  599SOL     OW 2695   0.608   0.965   2.772
  599SOL    HW1 2696   0.515   0.928   2.783
  599SOL    HW2 2697   0.664   0.898   2.724
  600SOL     OW 2698   0.572   6.985   0.575
  600SOL    HW1 2699   0.479   6.950   0.582
  600SOL    HW2 2700   0.601   0.003   0.663
  601SOL     OW 2701   3.005   5.734   3.658
  601SOL    HW1 2702   2.932   5.800   3.640
  601SOL    HW2 2703   2.992   5.653   3.601
  602SOL     OW 2704   1.051   0.523   0.635
  602SOL    HW1 2705   1.075   0.620   0.642
  602SOL    HW2 2706   1.132   0.469   0.613
  603SOL     OW 2707   3.860   1.851   3.924
  603SOL    HW1 2708   3.957   1.831   3.909
  603SOL    HW2 2709   3.847   1.950   3.932
  604SOL     OW 2710   1.240   2.709   0.134
  604SOL    HW1 2711   1.144   2.698   0.110
  604SOL    HW2 2712   1.253   2.683   0.230
  605SOL     OW 2713   0.093   5.771   3.007
  605SOL    HW1 2714   0.030   5.804   2.938
  605SOL    HW2 2715   0.156   5.844   3.033
  606SOL     OW 2716   4.808   1.047   5.231
  606SOL    HW1 2717   4.785   1.022   5.325
  606SOL    HW2 2718   4.731   1.096   5.190
  607SOL     OW 2719   5.738   1.232   4.343
  607SOL    HW1 2720   5.752   1.208   4.439
  607SOL    HW2 2721   5.819   1.208   4.290
  608SOL     OW 2722   3.133   0.211   0.874
  608SOL    HW1 2723   3.155   0.226   0.778
  608SOL    HW2 2724   3.086   0.124   0.884
  609SOL     OW 2725   3.280   2.929   4.623
  609SOL    HW1 2726   3.369   2.934   4.578
  609SOL    HW2 2727   3.277   2.848   4.682
  610SOL     OW 2728   5.296   2.659   3.212
  610SOL    HW1 2729   5.371   2.619   3.158
  610SOL    HW2 2730   5.322   2.659   3.308
  611SOL     OW 2731   0.380   0.802   6.621
  611SOL    HW1 2732   0.464   0.819   6.570
  611SOL    HW2 2733   0.391   0.835   6.715
  612SOL     OW 2734   3.564   5.491   5.857
  612SOL    HW1 2735   3.547   5.581   5.815
  612SOL    HW2 2736   3.653   5.457   5.827
  613SOL     OW 2737   4.144   1.089   5.443
  613SOL    HW1 2738   4.137   1.027   5.521
  613SOL    HW2 2739   4.067   1.074   5.381
  614SOL     OW 2740   6.138   5.401   0.615
  614SOL    HW1 2741   6.062   5.350   0.656
  614SOL    HW2 2742   6.129   5.498   0.636
  615SOL     OW 2743   0.774   0.419   6.533
  615SOL    HW1 2744   0.779   0.387   6.628
  615SOL    HW2 2745   0.696   0.376   6.488
  616SOL     OW 2746   5.588   1.807   4.383
  616SOL    HW1 2747   5.523   1.828   4.309
  616SOL    HW2 2748   5.675   1.778   4.344
  617SOL     OW 2749   0.493   4.379   6.028
  617SOL    HW1 2750   0.427   4.377   5.954
  617SOL    HW2 2751   0.451   4.342   6.111
  618SOL     OW 2752   6.112   3.246   1.619
  618SOL    HW1 2753   6.133   3.319   1.684
  618SOL    HW2 2754   6.099   3.160   1.669
  619SOL     OW 2755   3.389   0.230   6.836
  619SOL    HW1 2756   3.294   0.247   6.809
  619SOL    HW2 2757   3.391   0.192   6.928
  620SOL     OW 2758   5.745   3.671   2.101
  620SOL    HW1 2759   5.834   3.711   2.079
  620SOL    HW2 2760   5.699   3.643   2.017
  621SOL     OW 2761   2.694   6.692   5.799
  621SOL    HW1 2762   2.786   6.671   5.767
  621SOL    HW2 2763   2.634   6.708   5.721
  622SOL     OW 2764   0.680   2.854   5.342
  622SOL    HW1 2765   0.716   2.898   5.425
  622SOL    HW2 2766   0.584   2.877   5.331
  623SOL     OW 2767   5.983   6.405   5.036
  623SOL    HW1 2768   6.039   6.329   5.067
  623SOL    HW2 2769   6.039   6.469   4.984
  624SOL     OW 2770   6.380   1.430   6.687
  624SOL    HW1 2771   6.403   1.501   6.754
  624SOL    HW2 2772   6.328   1.357   6.733
  625SOL     OW 2773   2.375   0.929   0.448
  625SOL    HW1 2774   2.427   0.922   0.362
  625SOL    HW2 2775   2.278   0.941   0.427
  626SOL     OW 2776   1.673   5.870   3.774
  626SOL    HW1 2777   1.674   5.925   3.858
  626SOL    HW2 2778   1.606   5.909   3.710
  627SOL     OW 2779   6.405   6.385   0.532
  627SOL    HW1 2780   6.396   6.456   0.603
  627SOL    HW2 2781   6.440   6.427   0.448
  628SOL     OW 2782   5.519   3.913   5.326
  628SOL    HW1 2783   5.618   3.907   5.335
  628SOL    HW2 2784   5.475   3.867   5.404
  629SOL     OW 2785   0.471   0.641   0.226
  629SOL    HW1 2786   0.530   0.615   0.149
  629SOL    HW2 2787   0.488   0.736   0.250
  630SOL     OW 2788   6.471   0.856   0.751
  630SOL    HW1 2789   6.527   0.809   0.683
  630SOL    HW2 2790   6.499   0.828   0.843
  631SOL     OW 2791   2.568   2.481   4.773
  631SOL    HW1 2792   2.470   2.483   4.794
  631SOL    HW2 2793   2.620   2.465   4.857
  632SOL     OW 2794   4.925   3.214   0.593
  632SOL    HW1 2795   4.928   3.310   0.620
  632SOL    HW2 2796   4.917   3.157   0.674
  633SOL     OW 2797   2.343   5.270   1.040
  633SOL    HW1 2798   2.311   5.260   0.945
  633SOL    HW2 2799   2.386   5.360   1.050
  634SOL     OW 2800   3.535   3.699   3.503
  634SOL    HW1 2801   3.495   3.608   3.492
  634SOL    HW2 2802   3.486   3.749   3.575
  635SOL     OW 2803   4.598   0.817   0.098
  635SOL    HW1 2804   4.539   0.785   0.172
  635SOL    HW2 2805   4.541   0.844   0.020
  636SOL     OW 2806   3.214   6.927   5.460
  636SOL    HW1 2807   3.182   6.925   5.555
  636SOL    HW2 2808   3.313   6.921   5.458
  637SOL     OW 2809   6.004   1.608   2.516
  637SOL    HW1 2810   6.072   1.582   2.585
  637SOL    HW2 2811   5.958   1.526   2.482
  638SOL     OW 2812   5.807   3.767   3.808
  638SOL    HW1 2813   5.870   3.777   3.730
  638SOL    HW2 2814   5.810   3.673   3.841
  639SOL     OW 2815   5.525   4.992   3.141
  639SOL    HW1 2816   5.564   4.989   3.233
  639SOL    HW2 2817   5.500   5.086   3.119
  640SOL     OW 2818   0.120   3.266   3.044
  640SOL    HW1 2819   0.023   3.241   3.050
  640SOL    HW2 2820   0.172   3.212   3.110
  641SOL     OW 2821   1.533   4.415   5.422
  641SOL    HW1 2822   1.609   4.467   5.384
  641SOL    HW2 2823   1.563   4.323   5.447
  642SOL     OW 2824   1.285   3.754   4.538
  642SOL    HW1 2825   1.311   3.785   4.447
  642SOL    HW2 2826   1.253   3.660   4.533
  643SOL     OW 2827   6.313   6.512   6.875
  643SOL    HW1 2828   6.346   6.493   6.783
  643SOL    HW2 2829   6.271   6.430   6.913
  644SOL     OW 2830   0.653   0.780   4.711
  644SOL    HW1 2831   0.743   0.771   4.755
  644SOL    HW2 2832   0.588   0.718   4.756
  645SOL     OW 2833   3.702   4.953   2.798
  645SOL    HW1 2834   3.603   4.955   2.786
  645SOL    HW2 2835   3.734   5.045   2.822
  646SOL     OW 2836   3.906   0.455   5.028
  646SOL    HW1 2837   3.823   0.405   5.002
  646SOL    HW2 2838   3.917   0.534   4.968
  647SOL     OW 2839   5.040   2.478   4.679
  647SOL    HW1 2840   5.057   2.519   4.769
  647SOL    HW2 2841   4.977   2.537   4.627
  648SOL     OW 2842   6.256   2.253   3.241
  648SOL    HW1 2843   6.314   2.178   3.209
  648SOL    HW2 2844   6.222   2.305   3.163
  649SOL     OW 2845   2.312   4.471   0.366
  649SOL    HW1 2846   2.355   4.527   0.437
  649SOL    HW2 2847   2.358   4.486   0.279
  650SOL     OW 2848   6.714   5.867   0.679
  650SOL    HW1 2849   6.715   5.805   0.757
  650SOL    HW2 2850   6.705   5.961   0.711
  651SOL     OW 2851   1.551   0.379   5.532
  651SOL    HW1 2852   1.540   0.300   5.592
  651SOL    HW2 2853   1.506   0.458   5.573
  652SOL     OW 2854   3.993   0.494   1.755
  652SOL    HW1 2855   3.924   0.504   1.828
  652SOL    HW2 2856   4.001   0.580   1.705
  653SOL     OW 2857   6.909   6.519   0.725
  653SOL    HW1 2858   6.842   6.496   0.655
  653SOL    HW2 2859   6.935   6.615   0.717
  654SOL     OW 2860   6.796   6.323   5.585
  654SOL    HW1 2861   6.734   6.395   5.616
  654SOL    HW2 2862   6.795   6.247   5.651
  655SOL     OW 2863   0.146   5.246   1.914
  655SOL    HW1 2864   0.067   5.279   1.861
  655SOL    HW2 2865   0.183   5.322   1.968
  656SOL     OW 2866   3.382   6.142   0.715
  656SOL    HW1 2867   3.431   6.212   0.768
  656SOL    HW2 2868   3.286   6.169   0.706
  657SOL     OW 2869   3.239   3.319   1.902
  657SOL    HW1 2870   3.159   3.274   1.942
  657SOL    HW2 2871   3.302   3.250   1.868
  658SOL     OW 2872   1.898   3.998   4.583
  658SOL    HW1 2873   1.867   3.909   4.548
  658SOL    HW2 2874   1.935   3.987   4.675
  659SOL     OW 2875   3.721   5.688   5.429
  659SOL    HW1 2876   3.635   5.670   5.477
  659SOL    HW2 2877   3.708   5.763   5.365
  660SOL     OW 2878   4.915   4.887   2.514
  660SOL    HW1 2879   4.904   4.932   2.602
  660SOL    HW2 2880   4.827   4.850   2.484
  661SOL     OW 2881   4.966   4.315   4.062
  661SOL    HW1 2882   5.023   4.249   4.112
  661SOL    HW2 2883   4.981   4.407   4.099
  662SOL     OW 2884   4.722   1.954   6.747
  662SOL    HW1 2885   4.798   2.015   6.722
  662SOL    HW2 2886   4.644   2.009   6.778
  663SOL     OW 2887   0.325   4.806   0.045
  663SOL    HW1 2888   0.271   4.730   0.081
  663SOL    HW2 2889   0.404   4.823   0.104
  664SOL     OW 2890   1.807   5.438   6.407
  664SOL    HW1 2891   1.906   5.448   6.410
  664SOL    HW2 2892   1.764   5.517   6.452
  665SOL     OW 2893   3.885   5.402   1.650
  665SOL    HW1 2894   3.925   5.318   1.686
  665SOL    HW2 2895   3.889   5.400   1.550
  666SOL     OW 2896   3.393   2.086   0.534
  666SOL    HW1 2897   3.331   2.136   0.595
  666SOL    HW2 2898   3.464   2.041   0.589
  667SOL     OW 2899   0.281   2.660   4.135
  667SOL    HW1 2900   0.288   2.697   4.043
  667SOL    HW2 2901   0.262   2.734   4.200
  668SOL     OW 2902   4.206   6.306   0.313
  668SOL    HW1 2903   4.112   6.318   0.345
  668SOL    HW2 2904   4.205   6.264   0.223
  669SOL     OW 2905   1.410   6.753   3.065
  669SOL    HW1 2906   1.413   6.683   2.994
  669SOL    HW2 2907   1.493   6.749   3.120
  670SOL     OW 2908   3.141   3.321   2.961
  670SOL    HW1 2909   3.120   3.223   2.955
  670SOL    HW2 2910   3.061   3.374   2.934
  671SOL     OW 2911   1.822   5.525   5.994
  671SOL    HW1 2912   1.767   5.585   6.053
  671SOL    HW2 2913   1.766   5.449   5.962
  672SOL     OW 2914   0.549   3.093   4.147
  672SOL    HW1 2915   0.474   3.148   4.110
  672SOL    HW2 2916   0.559   3.009   4.093
  673SOL     OW 2917   4.561   0.292   6.876
  673SOL    HW1 2918   4.597   0.377   6.913
  673SOL    HW2 2919   4.574   0.218   6.942
  674SOL     OW 2920   0.828   2.692   4.115
  674SOL    HW1 2921   0.839   2.631   4.036
  674SOL    HW2 2922   0.773   2.646   4.185
  675SOL     OW 2923   0.705   2.390   4.674
  675SOL    HW1 2924   0.692   2.293   4.693
  675SOL    HW2 2925   0.739   2.436   4.757
  676SOL     OW 2926   2.822   4.711   4.225
  676SOL    HW1 2927   2.766   4.659   4.159
  676SOL    HW2 2928   2.869   4.785   4.177
  677SOL     OW 2929   6.099   0.289   6.991
  677SOL    HW1 2930   6.034   0.317   6.920
  677SOL    HW2 2931   6.170   0.232   6.950
  678SOL     OW 2932   2.204   1.364   5.010
  678SOL    HW1 2933   2.252   1.363   4.922
  678SOL    HW2 2934   2.263   1.405   5.080
  679SOL     OW 2935   3.831   0.898   3.555
  679SOL    HW1 2936   3.852   0.952   3.636
  679SOL    HW2 2937   3.737   0.864   3.560
  680SOL     OW 2938   5.934   4.238   6.473
  680SOL    HW1 2939   5.859   4.176   6.452
  680SOL    HW2 2940   6.019   4.201   6.435
  681SOL     OW 2941   6.631   6.360   0.796
  681SOL    HW1 2942   6.725   6.352   0.829
  681SOL    HW2 2943   6.632   6.373   0.697
  682SOL     OW 2944   2.081   6.841   6.823
  682SOL    HW1 2945   2.119   6.797   6.742
  682SOL    HW2 2946   2.000   6.894   6.798
  683SOL     OW 2947   4.157   1.185   5.793
  683SOL    HW1 2948   4.194   1.109   5.739
  683SOL    HW2 2949   4.128   1.151   5.883
  684SOL     OW 2950   6.947   0.464   6.430
  684SOL    HW1 2951   6.863   0.518   6.441
  684SOL    HW2 2952   6.959   0.440   6.334
  685SOL     OW 2953   5.078   0.437   6.328
  685SOL    HW1 2954   5.168   0.446   6.371
  685SOL    HW2 2955   5.007   0.447   6.397
  686SOL     OW 2956   5.496   3.166   3.506
  686SOL    HW1 2957   5.540   3.219   3.578
  686SOL    HW2 2958   5.397   3.175   3.513
  687SOL     OW 2959   0.037   3.400   6.495
  687SOL    HW1 2960   0.056   3.389   6.398
  687SOL    HW2 2961   6.969   3.358   6.517
  688SOL     OW 2962   1.753   3.517   0.560
  688SOL    HW1 2963   1.745   3.615   0.581
  688SOL    HW2 2964   1.807   3.472   0.631
  689SOL     OW 2965   1.022   4.050   6.051
  689SOL    HW1 2966   0.974   4.102   5.980
  689SOL    HW2 2967   1.041   4.110   6.129
  690SOL     OW 2968   0.845   2.593   3.471
  690SOL    HW1 2969   0.831   2.692   3.467
  690SOL    HW2 2970   0.933   2.574   3.516
  691SOL     OW 2971   1.553   2.174   6.098
  691SOL    HW1 2972   1.561   2.240   6.023
  691SOL    HW2 2973   1.522   2.086   6.062
  692SOL     OW 2974   2.663   6.959   3.218
  692SOL    HW1 2975   2.608   6.878   3.196
  692SOL    HW2 2976   2.743   6.963   3.158
  693SOL     OW 2977   6.457   1.473   2.755
  693SOL    HW1 2978   6.511   1.424   2.686
  693SOL    HW2 2979   6.509   1.551   2.789
  694SOL     OW 2980   3.463   5.870   1.333
  694SOL    HW1 2981   3.563   5.866   1.329
  694SOL    HW2 2982   3.426   5.899   1.245
  695SOL     OW 2983   4.995   5.206   4.782
  695SOL    HW1 2984   5.061   5.135   4.805
  695SOL    HW2 2985   5.014   5.288   4.837
  696SOL     OW 2986   3.106   5.538   2.651
  696SOL    HW1 2987   3.072   5.500   2.565
  696SOL    HW2 2988   3.078   5.479   2.727
  697SOL     OW 2989   0.863   3.145   5.283
  697SOL    HW1 2990   0.921   3.221   5.312
  697SOL    HW2 2991   0.836   3.158   5.187
  698SOL     OW 2992   4.960   0.042   4.067
  698SOL    HW1 2993   4.902   0.066   3.989
  698SOL    HW2 2994   5.007   6.975   4.049
  699SOL     OW 2995   1.759   4.630   1.118
  699SOL    HW1 2996   1.675   4.594   1.158
  699SOL    HW2 2997   1.801   4.695   1.182
  700SOL     OW 2998   2.924   1.849   3.362
  700SOL    HW1 2999   2.923   1.754   3.331
  700SOL    HW2 3000   2.853   1.862   3.432
  701SOL     OW 3001   1.555   4.475   0.398
  701SOL    HW1 3002   1.564   4.505   0.303
  701SOL    HW2 3003   1.636   4.505   0.450
  702SOL     OW 3004   5.198   6.138   5.461
  702SOL    HW1 3005   5.193   6.062   5.526
  702SOL    HW2 3006   5.289   6.180   5.466
  703SOL     OW 3007   4.657   3.526   6.947
  703SOL    HW1 3008   4.613   3.555   0.012
  703SOL    HW2 3009   4.694   3.607   6.899
  704SOL     OW 3010   0.631   1.209   6.126
  704SOL    HW1 3011   0.696   1.142   6.090
  704SOL    HW2 3012   0.635   1.209   6.226
  705SOL     OW 3013   4.962   0.495   3.979
  705SOL    HW1 3014   4.975   0.520   3.883
  705SOL    HW2 3015   5.004   0.565   4.037
  706SOL     OW 3016   3.726   1.745   3.720
  706SOL    HW1 3017   3.787   1.764   3.643
  706SOL    HW2 3018   3.763   1.786   3.803
  707SOL     OW 3019   4.694   0.539   1.460
  707SOL    HW1 3020   4.702   0.494   1.550
  707SOL    HW2 3021   4.759   0.615   1.455
  708SOL     OW 3022   4.865   0.374   0.762
  708SOL    HW1 3023   4.809   0.309   0.711
  708SOL    HW2 3024   4.907   0.439   0.698
  709SOL     OW 3025   1.680   4.876   1.556
  709SOL    HW1 3026   1.771   4.913   1.540
  709SOL    HW2 3027   1.626   4.941   1.609
  710SOL     OW 3028   3.211   4.057   2.586
  710SOL    HW1 3029   3.293   4.114   2.577
  710SOL    HW2 3030   3.220   3.998   2.667
  711SOL     OW 3031   6.701   2.438   5.045
  711SOL    HW1 3032   6.669   2.499   4.973
  711SOL    HW2 3033   6.623   2.399   5.093
  712SOL     OW 3034   1.309   3.762   1.345
  712SOL    HW1 3035   1.333   3.801   1.434
  712SOL    HW2 3036   1.388   3.769   1.283
  713SOL     OW 3037   3.669   3.729   1.886
  713SOL    HW1 3038   3.624   3.661   1.828
  713SOL    HW2 3039   3.720   3.793   1.829
  714SOL     OW 3040   5.633   4.210   5.277
  714SOL    HW1 3041   5.570   4.194   5.201
  714SOL    HW2 3042   5.714   4.153   5.266
  715SOL     OW 3043   4.411   5.825   6.830
  715SOL    HW1 3044   4.506   5.850   6.813
  715SOL    HW2 3045   4.367   5.798   6.744
  716SOL     OW 3046   0.505   5.259   1.153
  716SOL    HW1 3047   0.523   5.203   1.073
  716SOL    HW2 3048   0.571   5.237   1.225
  717SOL     OW 3049   5.975   4.720   6.694
  717SOL    HW1 3050   5.890   4.715   6.747
  717SOL    HW2 3051   5.989   4.633   6.646
  718SOL     OW 3052   4.101   2.204   6.109
  718SOL    HW1 3053   4.031   2.270   6.136
  718SOL    HW2 3054   4.137   2.229   6.019
  719SOL     OW 3055   6.892   2.762   1.362
  719SOL    HW1 3056   6.831   2.781   1.285
  719SOL    HW2 3057   6.926   2.849   1.399
  720SOL     OW 3058   2.440   1.911   5.166
  720SOL    HW1 3059   2.516   1.904   5.231
  720SOL    HW2 3060   2.410   2.007   5.162
  721SOL     OW 3061   1.195   0.845   5.416
  721SOL    HW1 3062   1.116   0.846   5.477
  721SOL    HW2 3063   1.164   0.851   5.321
  722SOL     OW 3064   4.374   6.569   4.900
  722SOL    HW1 3065   4.431   6.650   4.915
  722SOL    HW2 3066   4.277   6.596   4.905
  723SOL     OW 3067   2.281   2.770   2.280
  723SOL    HW1 3068   2.321   2.777   2.189
  723SOL    HW2 3069   2.233   2.855   2.301
  724SOL     OW 3070   1.017   2.088   5.587
  724SOL    HW1 3071   1.087   2.085   5.516
  724SOL    HW2 3072   0.927   2.079   5.545
  725SOL     OW 3073   2.763   5.046   1.864
  725SOL    HW1 3074   2.815   4.968   1.828
  725SOL    HW2 3075   2.785   5.059   1.961
  726SOL     OW 3076   2.989   4.892   6.524
  726SOL    HW1 3077   3.021   4.805   6.485
  726SOL    HW2 3078   3.067   4.941   6.563
  727SOL     OW 3079   3.939   6.174   4.327
  727SOL    HW1 3080   4.003   6.251   4.323
  727SOL    HW2 3081   3.892   6.166   4.239
  728SOL     OW 3082   6.916   3.857   5.118
  728SOL    HW1 3083   7.012   3.836   5.137
  728SOL    HW2 3084   6.891   3.821   5.028
  729SOL     OW 3085   1.869   0.601   0.708
  729SOL    HW1 3086   1.800   0.648   0.763
  729SOL    HW2 3087   1.826   0.526   0.658
  730SOL     OW 3088   5.532   0.669   3.395
  730SOL    HW1 3089   5.540   0.726   3.476
  730SOL    HW2 3090   5.555   0.574   3.419
  731SOL     OW 3091   5.736   2.990   5.401
  731SOL    HW1 3092   5.835   2.998   5.413
  731SOL    HW2 3093   5.710   3.026   5.310
  732SOL     OW 3094   0.427   3.093   1.731
  732SOL    HW1 3095   0.467   3.095   1.640
  732SOL    HW2 3096   0.422   2.999   1.764
  733SOL     OW 3097   5.220   3.842   4.068
  733SOL    HW1 3098   5.226   3.781   3.988
  733SOL    HW2 3099   5.189   3.790   4.147
  734SOL     OW 3100   0.314   5.004   2.032
  734SOL    HW1 3101   0.272   5.083   1.987
  734SOL    HW2 3102   0.332   5.027   2.128
  735SOL     OW 3103   2.067   3.165   0.874
  735SOL    HW1 3104   2.140   3.160   0.806
  735SOL    HW2 3105   2.068   3.254   0.918
  736SOL     OW 3106   6.482   6.696   2.659
  736SOL    HW1 3107   6.544   6.761   2.616
  736SOL    HW2 3108   6.532   6.614   2.687
  737SOL     OW 3109   4.432   3.703   1.344
  737SOL    HW1 3110   4.401   3.638   1.414
  737SOL    HW2 3111   4.385   3.791   1.357
  738SOL     OW 3112   0.872   4.850   3.739
  738SOL    HW1 3113   0.887   4.853   3.640
  738SOL    HW2 3114   0.832   4.937   3.769
  739SOL     OW 3115   4.687   6.776   5.615
  739SOL    HW1 3116   4.618   6.838   5.578
  739SOL    HW2 3117   4.775   6.796   5.572
  740SOL     OW 3118   5.311   0.357   0.818
  740SOL    HW1 3119   5.254   0.401   0.749
  740SOL    HW2 3120   5.320   0.259   0.796
  741SOL     OW 3121   1.605   6.322   3.211
  741SOL    HW1 3122   1.642   6.365   3.129
  741SOL    HW2 3123   1.528   6.376   3.245
  742SOL     OW 3124   2.378   6.369   3.116
  742SOL    HW1 3125   2.388   6.322   3.028
  742SOL    HW2 3126   2.466   6.410   3.142
  743SOL     OW 3127   1.618   4.034   4.296
  743SOL    HW1 3128   1.571   4.091   4.362
  743SOL    HW2 3129   1.655   3.953   4.342
  744SOL     OW 3130   0.418   6.445   6.596
  744SOL    HW1 3131   0.413   6.530   6.647
  744SOL    HW2 3132   0.510   6.435   6.558
  745SOL     OW 3133   0.849   5.646   4.381
  745SOL    HW1 3134   0.796   5.580   4.435
  745SOL    HW2 3135   0.874   5.604   4.294
  746SOL     OW 3136   0.075   6.217   5.158
  746SOL    HW1 3137   0.037   6.164   5.234
  746SOL    HW2 3138   0.003   6.268   5.112
  747SOL     OW 3139   4.202   5.057   4.050
  747SOL    HW1 3140   4.168   5.093   4.137
  747SOL    HW2 3141   4.132   5.071   3.980
  748SOL     OW 3142   4.418   5.101   1.837
  748SOL    HW1 3143   4.340   5.038   1.830
  748SOL    HW2 3144   4.446   5.129   1.745
  749SOL     OW 3145   7.015   2.734   4.655
  749SOL    HW1 3146   0.001   2.677   4.736
  749SOL    HW2 3147   6.920   2.765   4.642
  750SOL     OW 3148   2.716   3.208   0.590
  750SOL    HW1 3149   2.781   3.152   0.539
  750SOL    HW2 3150   2.666   3.267   0.527
  751SOL     OW 3151   4.251   2.132   6.693
  751SOL    HW1 3152   4.203   2.209   6.650
  751SOL    HW2 3153   4.212   2.046   6.661
  752SOL     OW 3154   4.416   2.621   1.765
  752SOL    HW1 3155   4.445   2.525   1.769
  752SOL    HW2 3156   4.496   2.679   1.747
  753SOL     OW 3157   2.161   2.992   4.620
  753SOL    HW1 3158   2.142   3.082   4.658
  753SOL    HW2 3159   2.077   2.938   4.616
  754SOL     OW 3160   5.805   3.779   6.619
  754SOL    HW1 3161   5.835   3.698   6.669
  754SOL    HW2 3162   5.709   3.769   6.592
  755SOL     OW 3163   1.243   5.411   0.317
  755SOL    HW1 3164   1.262   5.463   0.401
  755SOL    HW2 3165   1.219   5.475   0.244
  756SOL     OW 3166   5.378   0.569   1.725
  756SOL    HW1 3167   5.369   0.510   1.805
  756SOL    HW2 3168   5.288   0.603   1.699
  757SOL     OW 3169   0.792   6.245   3.176
  757SOL    HW1 3170   0.788   6.185   3.256
  757SOL    HW2 3171   0.709   6.300   3.171
  758SOL     OW 3172   3.301   1.629   1.655
  758SOL    HW1 3173   3.205   1.629   1.625
  758SOL    HW2 3174   3.339   1.537   1.643
  759SOL     OW 3175   0.201   0.837   0.494
  759SOL    HW1 3176   0.173   0.886   0.576
  759SOL    HW2 3177   0.120   0.796   0.450
  760SOL     OW 3178   5.071   1.508   6.431
  760SOL    HW1 3179   5.027   1.578   6.487
  760SOL    HW2 3180   5.029   1.419   6.451
  761SOL     OW 3181   5.827   3.826   6.901
  761SOL    HW1 3182   5.744   3.876   6.926
  761SOL    HW2 3183   5.826   3.806   6.803
  762SOL     OW 3184   1.923   5.968   3.424
  762SOL    HW1 3185   1.853   6.025   3.467
  762SOL    HW2 3186   1.888   5.931   3.338
  763SOL     OW 3187   3.893   5.405   6.159
  763SOL    HW1 3188   3.969   5.346   6.186
  763SOL    HW2 3189   3.811   5.349   6.146
  764SOL     OW 3190   3.557   0.607   3.981
  764SOL    HW1 3191   3.602   0.611   4.070
  764SOL    HW2 3192   3.559   0.513   3.947
  765SOL     OW 3193   0.906   6.348   0.788
  765SOL    HW1 3194   0.869   6.320   0.876
  765SOL    HW2 3195   0.837   6.338   0.717
  766SOL     OW 3196   6.748   1.207   6.777
  766SOL    HW1 3197   6.822   1.164   6.724
  766SOL    HW2 3198   6.769   1.200   6.874
  767SOL     OW 3199   0.920   6.431   1.740
  767SOL    HW1 3200   1.018   6.423   1.758
  767SOL    HW2 3201   0.875   6.345   1.764
  768SOL     OW 3202   2.144   1.081   2.590
  768SOL    HW1 3203   2.204   1.007   2.558
  768SOL    HW2 3204   2.088   1.047   2.666
  769SOL     OW 3205   3.304   6.467   4.345
  769SOL    HW1 3206   3.306   6.393   4.278
  769SOL    HW2 3207   3.367   6.539   4.318
  770SOL     OW 3208   2.834   5.155   3.029
  770SOL    HW1 3209   2.748   5.105   3.018
  770SOL    HW2 3210   2.846   5.180   3.125
  771SOL     OW 3211   2.021   5.585   2.521
  771SOL    HW1 3212   2.111   5.591   2.564
  771SOL    HW2 3213   2.022   5.635   2.435
  772SOL     OW 3214   6.733   4.859   0.731
  772SOL    HW1 3215   6.657   4.874   0.795
  772SOL    HW2 3216   6.766   4.765   0.741
  773SOL     OW 3217   0.081   2.994   3.721
  773SOL    HW1 3218   0.082   2.919   3.654
  773SOL    HW2 3219   0.170   3.040   3.721
  774SOL     OW 3220   1.647   1.929   1.703
  774SOL    HW1 3221   1.559   1.919   1.749
  774SOL    HW2 3222   1.719   1.946   1.771
  775SOL     OW 3223   0.969   2.092   3.905
  775SOL    HW1 3224   1.047   2.141   3.866
  775SOL    HW2 3225   0.998   2.000   3.932
  776SOL     OW 3226   0.319   0.281   5.985
  776SOL    HW1 3227   0.299   0.378   5.997
  776SOL    HW2 3228   0.386   0.269   5.911
  777SOL     OW 3229   3.456   0.447   0.854
  777SOL    HW1 3230   3.370   0.484   0.890
  777SOL    HW2 3231   3.518   0.428   0.930
  778SOL     OW 3232   3.965   1.065   3.803
  778SOL    HW1 3233   4.018   1.000   3.748
  778SOL    HW2 3234   3.971   1.155   3.762
  779SOL     OW 3235   0.305   2.062   2.052
  779SOL    HW1 3236   0.324   2.157   2.076
  779SOL    HW2 3237   0.227   2.058   1.990
  780SOL     OW 3238   5.445   2.916   4.650
  780SOL    HW1 3239   5.402   2.845   4.595
  780SOL    HW2 3240   5.544   2.901   4.653
  781SOL     OW 3241   6.122   1.049   5.793
  781SOL    HW1 3242   6.177   1.068   5.875
  781SOL    HW2 3243   6.084   1.135   5.758
  782SOL     OW 3244   1.190   3.692   0.837
  782SOL    HW1 3245   1.206   3.695   0.936
  782SOL    HW2 3246   1.278   3.698   0.790
  783SOL     OW 3247   3.711   4.747   0.270
  783SOL    HW1 3248   3.768   4.756   0.189
  783SOL    HW2 3249   3.627   4.699   0.247
  784SOL     OW 3250   4.408   0.917   5.139
  784SOL    HW1 3251   4.351   0.839   5.110
  784SOL    HW2 3252   4.477   0.936   5.069
  785SOL     OW 3253   5.986   2.034   2.835
  785SOL    HW1 3254   6.074   2.058   2.794
  785SOL    HW2 3255   5.994   2.041   2.935
  786SOL     OW 3256   0.541   0.434   0.383
  786SOL    HW1 3257   0.631   0.471   0.406
  786SOL    HW2 3258   0.485   0.505   0.342
  787SOL     OW 3259   2.743   1.042   5.934
  787SOL    HW1 3260   2.827   1.086   5.902
  787SOL    HW2 3261   2.667   1.069   5.875
  788SOL     OW 3262   2.010   2.720   4.681
  788SOL    HW1 3263   2.081   2.685   4.620
  788SOL    HW2 3264   2.044   2.720   4.775
  789SOL     OW 3265   6.192   4.338   2.016
  789SOL    HW1 3266   6.157   4.327   1.923
  789SOL    HW2 3267   6.249   4.259   2.039
  790SOL     OW 3268   2.063   1.406   3.967
  790SOL    HW1 3269   2.133   1.388   3.898
  790SOL    HW2 3270   1.976   1.423   3.923
  791SOL     OW 3271   4.030   0.017   3.733
  791SOL    HW1 3272   4.071   6.982   3.806
  791SOL    HW2 3273   4.055   6.998   3.644
  792SOL     OW 3274   6.465   6.910   1.693
  792SOL    HW1 3275   6.391   6.848   1.720
  792SOL    HW2 3276   6.429   6.979   1.630
  793SOL     OW 3277   4.498   6.369   1.999
  793SOL    HW1 3278   4.551   6.302   1.948
  793SOL    HW2 3279   4.560   6.438   2.038
  794SOL     OW 3280   2.021   4.987   5.289
  794SOL    HW1 3281   2.007   4.920   5.362
  794SOL    HW2 3282   1.933   5.018   5.254
  795SOL     OW 3283   2.784   5.242   5.462
  795SOL    HW1 3284   2.833   5.194   5.389
  795SOL    HW2 3285   2.753   5.176   5.530
  796SOL     OW 3286   0.402   2.215   6.590
  796SOL    HW1 3287   0.355   2.192   6.505
  796SOL    HW2 3288   0.402   2.136   6.651
  797SOL     OW 3289   5.120   2.307   2.358
  797SOL    HW1 3290   5.134   2.241   2.284
  797SOL    HW2 3291   5.040   2.364   2.337
  798SOL     OW 3292   4.934   0.658   1.110
  798SOL    HW1 3293   4.968   0.632   1.201
  798SOL    HW2 3294   4.897   0.577   1.064
  799SOL     OW 3295   6.739   1.735   3.391
  799SOL    HW1 3296   6.779   1.691   3.310
  799SOL    HW2 3297   6.640   1.742   3.380
  800SOL     OW 3298   5.708   0.607   2.528
  800SOL    HW1 3299   5.759   0.579   2.609
  800SOL    HW2 3300   5.611   0.588   2.541
  801SOL     OW 3301   1.294   3.100   3.337
  801SOL    HW1 3302   1.197   3.088   3.318
  801SOL    HW2 3303   1.348   3.049   3.270
  802SOL     OW 3304   5.217   1.291   0.584
  802SOL    HW1 3305   5.181   1.376   0.622
  802SOL    HW2 3306   5.156   1.258   0.512
  803SOL     OW 3307   5.909   6.240   4.823
  803SOL    HW1 3308   5.920   6.295   4.906
  803SOL    HW2 3309   5.974   6.271   4.754
  804SOL     OW 3310   6.572   6.500   0.252
  804SOL    HW1 3311   6.552   6.597   0.266
  804SOL    HW2 3312   6.493   6.456   0.208
  805SOL     OW 3313   4.856   2.784   5.562
  805SOL    HW1 3314   4.813   2.813   5.648
  805SOL    HW2 3315   4.789   2.792   5.488
  806SOL     OW 3316   3.672   2.046   5.095
  806SOL    HW1 3317   3.716   2.012   5.012
  806SOL    HW2 3318   3.660   1.971   5.160
  807SOL     OW 3319   0.964   1.259   3.591
  807SOL    HW1 3320   0.881   1.207   3.572
  807SOL    HW2 3321   1.026   1.204   3.648
  808SOL     OW 3322   4.920   3.269   6.486
  808SOL    HW1 3323   4.920   3.279   6.585
  808SOL    HW2 3324   4.892   3.356   6.443
  809SOL     OW 3325   1.553   4.855   1.283
  809SOL    HW1 3326   1.616   4.836   1.359
  809SOL    HW2 3327   1.588   4.931   1.229
  810SOL     OW 3328   4.508   2.969   0.800
  810SOL    HW1 3329   4.430   2.920   0.762
  810SOL    HW2 3330   4.556   3.017   0.726
  811SOL     OW 3331   4.523   5.320   3.997
  811SOL    HW1 3332   4.557   5.283   3.911
  811SOL    HW2 3333   4.426   5.343   3.988
  812SOL     OW 3334   6.979   0.556   1.564
  812SOL    HW1 3335   6.906   0.624   1.567
  812SOL    HW2 3336   0.022   0.570   1.641
  813SOL     OW 3337   4.274   6.005   3.278
  813SOL    HW1 3338   4.352   6.004   3.341
  813SOL    HW2 3339   4.190   6.019   3.329
  814SOL     OW 3340   5.470   6.756   3.034
  814SOL    HW1 3341   5.565   6.732   3.057
  814SOL    HW2 3342   5.443   6.708   2.951
  815SOL     OW 3343   6.144   2.710   2.277
  815SOL    HW1 3344   6.105   2.789   2.230
  815SOL    HW2 3345   6.118   2.626   2.229
  816SOL     OW 3346   6.994   6.762   0.138
  816SOL    HW1 3347   6.970   6.834   0.073
  816SOL    HW2 3348   0.074   6.753   0.142
  817SOL     OW 3349   2.075   4.625   2.266
  817SOL    HW1 3350   2.127   4.666   2.192
  817SOL    HW2 3351   2.091   4.526   2.267
  818SOL     OW 3352   6.385   2.963   0.357
  818SOL    HW1 3353   6.316   3.034   0.345
  818SOL    HW2 3354   6.354   2.898   0.426
  819SOL     OW 3355   6.092   3.495   4.578
  819SOL    HW1 3356   6.129   3.458   4.663
  819SOL    HW2 3357   6.159   3.556   4.536
  820SOL     OW 3358   1.488   2.754   5.422
  820SOL    HW1 3359   1.506   2.739   5.520
  820SOL    HW2 3360   1.546   2.694   5.368
  821SOL     OW 3361   2.569   4.638   0.496
  821SOL    HW1 3362   2.638   4.666   0.429
  821SOL    HW2 3363   2.539   4.718   0.548
  822SOL     OW 3364   0.885   5.166   4.408
  822SOL    HW1 3365   0.981   5.194   4.409
  822SOL    HW2 3366   0.877   5.072   4.440
  823SOL     OW 3367   4.866   4.110   6.862
  823SOL    HW1 3368   4.850   4.204   6.833
  823SOL    HW2 3369   4.779   4.061   6.869
  824SOL     OW 3370   5.015   1.195   5.314
  824SOL    HW1 3371   5.080   1.119   5.319
  824SOL    HW2 3372   4.923   1.160   5.301
  825SOL     OW 3373   2.194   3.002   2.102
  825SOL    HW1 3374   2.186   3.082   2.043
  825SOL    HW2 3375   2.218   3.031   2.195
  826SOL     OW 3376   5.987   4.225   0.577
  826SOL    HW1 3377   6.007   4.308   0.629
  826SOL    HW2 3378   6.071   4.172   0.565
  827SOL     OW 3379   3.437   5.756   5.805
  827SOL    HW1 3380   3.405   5.718   5.718
  827SOL    HW2 3381   3.359   5.766   5.867
  828SOL     OW 3382   6.116   0.695   4.977
  828SOL    HW1 3383   6.073   0.658   5.060
  828SOL    HW2 3384   6.046   0.722   4.912
  829SOL     OW 3385   2.955   3.420   4.175
  829SOL    HW1 3386   2.961   3.361   4.095
  829SOL    HW2 3387   2.973   3.515   4.148
  830SOL     OW 3388   5.140   4.662   5.727
  830SOL    HW1 3389   5.209   4.609   5.678
  830SOL    HW2 3390   5.100   4.729   5.665
  831SOL     OW 3391   0.082   6.816   4.289
  831SOL    HW1 3392   0.180   6.834   4.290
  831SOL    HW2 3393   0.053   6.798   4.195
  832SOL     OW 3394   2.227   1.287   0.210
  832SOL    HW1 3395   2.325   1.305   0.219
  832SOL    HW2 3396   2.176   1.365   0.247
  833SOL     OW 3397   6.554   5.782   6.159
  833SOL    HW1 3398   6.465   5.815   6.190
  833SOL    HW2 3399   6.626   5.821   6.217
  834SOL     OW 3400   3.632   3.509   2.484
  834SOL    HW1 3401   3.722   3.522   2.442
  834SOL    HW2 3402   3.563   3.557   2.430
  835SOL     OW 3403   4.171   6.548   3.565
  835SOL    HW1 3404   4.191   6.560   3.468
  835SOL    HW2 3405   4.242   6.593   3.619
  836SOL     OW 3406   3.338   6.377   6.601
  836SOL    HW1 3407   3.366   6.295   6.550
  836SOL    HW2 3408   3.267   6.353   6.666
  837SOL     OW 3409   4.935   0.368   0.031
  837SOL    HW1 3410   4.924   0.467   0.041
  837SOL    HW2 3411   4.970   0.330   0.116
  838SOL     OW 3412   0.851   7.009   5.091
  838SOL    HW1 3413   0.783   6.936   5.101
  838SOL    HW2 3414   0.902   6.994   5.007
  839SOL     OW 3415   2.650   1.647   3.137
  839SOL    HW1 3416   2.716   1.716   3.107
  839SOL    HW2 3417   2.597   1.683   3.214
  840SOL     OW 3418   0.066   1.158   5.798
  840SOL    HW1 3419   0.019   1.161   5.886
  840SOL    HW2 3420   0.041   1.074   5.750
  841SOL     OW 3421   5.831   4.384   0.400
  841SOL    HW1 3422   5.788   4.347   0.318
  841SOL    HW2 3423   5.896   4.318   0.437
  842SOL     OW 3424   4.532   5.327   3.291
  842SOL    HW1 3425   4.466   5.253   3.303
  842SOL    HW2 3426   4.551   5.369   3.380
  843SOL     OW 3427   6.166   2.496   0.243
  843SOL    HW1 3428   6.147   2.566   0.174
  843SOL    HW2 3429   6.147   2.406   0.205
  844SOL     OW 3430   4.721   6.210   0.648
  844SOL    HW1 3431   4.733   6.171   0.556
  844SOL    HW2 3432   4.688   6.139   0.710
  845SOL     OW 3433   6.154   2.658   5.051
  845SOL    HW1 3434   6.216   2.632   4.978
  845SOL    HW2 3435   6.187   2.741   5.096
  846SOL     OW 3436   6.057   1.626   6.696
  846SOL    HW1 3437   6.092   1.699   6.755
  846SOL    HW2 3438   6.125   1.605   6.626
  847SOL     OW 3439   6.059   3.291   0.776
  847SOL    HW1 3440   6.054   3.357   0.851
  847SOL    HW2 3441   5.987   3.222   0.786
  848SOL     OW 3442   5.917   0.639   6.289
  848SOL    HW1 3443   6.017   0.646   6.288
  848SOL    HW2 3444   5.882   0.690   6.368
  849SOL     OW 3445   0.195   5.561   5.169
  849SOL    HW1 3446   0.173   5.656   5.146
  849SOL    HW2 3447   0.293   5.553   5.186
  850SOL     OW 3448   4.355   0.118   3.715
  850SOL    HW1 3449   4.437   0.174   3.724
  850SOL    HW2 3450   4.275   0.177   3.701
  851SOL     OW 3451   0.168   1.266   0.315
  851SOL    HW1 3452   0.232   1.256   0.239
  851SOL    HW2 3453   0.150   1.363   0.331
  852SOL     OW 3454   2.364   2.368   6.555
  852SOL    HW1 3455   2.425   2.328   6.622
  852SOL    HW2 3456   2.323   2.296   6.499
  853SOL     OW 3457   0.779   3.568   2.931
  853SOL    HW1 3458   0.740   3.567   3.023
  853SOL    HW2 3459   0.839   3.647   2.920
  854SOL     OW 3460   5.137   6.754   2.215
  854SOL    HW1 3461   5.182   6.842   2.232
  854SOL    HW2 3462   5.164   6.719   2.126
  855SOL     OW 3463   5.918   0.024   1.641
  855SOL    HW1 3464   5.824   0.040   1.672
  855SOL    HW2 3465   5.946   0.099   1.580
  856SOL     OW 3466   1.804   0.658   5.447
  856SOL    HW1 3467   1.848   0.688   5.362
  856SOL    HW2 3468   1.873   0.641   5.516
  857SOL     OW 3469   5.587   5.166   1.384
  857SOL    HW1 3470   5.571   5.206   1.474
  857SOL    HW2 3471   5.621   5.072   1.394
  858SOL     OW 3472   2.755   4.773   1.754
  858SOL    HW1 3473   2.679   4.808   1.808
  858SOL    HW2 3474   2.802   4.701   1.805
  859SOL     OW 3475   5.692   5.099   6.645
  859SOL    HW1 3476   5.743   5.168   6.594
  859SOL    HW2 3477   5.729   5.008   6.624
  860SOL     OW 3478   4.180   3.952   0.128
  860SOL    HW1 3479   4.173   4.010   0.210
  860SOL    HW2 3480   4.178   3.856   0.156
  861SOL     OW 3481   2.854   0.052   4.668
  861SOL    HW1 3482   2.830   6.977   4.689
  861SOL    HW2 3483   2.924   0.054   4.596
  862SOL     OW 3484   5.829   4.615   5.105
  862SOL    HW1 3485   5.829   4.524   5.064
  862SOL    HW2 3486   5.863   4.610   5.199
  863SOL     OW 3487   1.145   0.196   0.940
  863SOL    HW1 3488   1.223   0.207   0.879
  863SOL    HW2 3489   1.097   0.111   0.918
  864SOL     OW 3490   5.058   4.537   3.439
  864SOL    HW1 3491   5.023   4.583   3.358
  864SOL    HW2 3492   5.156   4.557   3.450
  865SOL     OW 3493   0.999   0.118   4.129
  865SOL    HW1 3494   0.913   0.083   4.166
  865SOL    HW2 3495   1.014   0.211   4.161
  866SOL     OW 3496   2.839   1.519   2.015
  866SOL    HW1 3497   2.811   1.498   2.108
  866SOL    HW2 3498   2.766   1.496   1.951
  867SOL     OW 3499   3.253   2.605   0.293
  867SOL    HW1 3500   3.235   2.555   0.208
  867SOL    HW2 3501   3.350   2.596   0.317
  868SOL     OW 3502   5.988   0.263   2.267
  868SOL    HW1 3503   5.960   0.259   2.171
  868SOL    HW2 3504   5.975   0.355   2.302
  869SOL     OW 3505   6.484   5.632   2.637
  869SOL    HW1 3506   6.581   5.641   2.613
  869SOL    HW2 3507   6.476   5.618   2.736
  870SOL     OW 3508   6.696   3.064   1.740
  870SOL    HW1 3509   6.597   3.064   1.753
  870SOL    HW2 3510   6.718   3.113   1.656
  871SOL     OW 3511   6.928   2.917   2.140
  871SOL    HW1 3512   6.848   2.938   2.083
  871SOL    HW2 3513   7.007   2.898   2.082
  872SOL     OW 3514   6.631   2.732   4.293
  872SOL    HW1 3515   6.641   2.808   4.357
  872SOL    HW2 3516   6.559   2.753   4.228
  873SOL     OW 3517   3.683   6.981   3.065
  873SOL    HW1 3518   3.710   6.976   2.969
  873SOL    HW2 3519   3.599   0.015   3.073
  874SOL     OW 3520   1.949   4.422   5.417
  874SOL    HW1 3521   2.033   4.474   5.401
  874SOL    HW2 3522   1.959   4.331   5.376
  875SOL     OW 3523   5.247   4.884   0.708
  875SOL    HW1 3524   5.283   4.976   0.692
  875SOL    HW2 3525   5.322   4.818   0.705
  876SOL     OW 3526   6.353   3.715   2.822
  876SOL    HW1 3527   6.403   3.729   2.737
  876SOL    HW2 3528   6.410   3.743   2.899
  877SOL     OW 3529   4.978   4.965   6.965
  877SOL    HW1 3530   5.016   4.897   0.007
  877SOL    HW2 3531   4.901   4.925   6.915
  878SOL     OW 3532   3.585   5.050   6.584
  878SOL    HW1 3533   3.500   5.009   6.618
  878SOL    HW2 3534   3.595   5.142   6.621
  879SOL     OW 3535   4.332   1.796   2.851
  879SOL    HW1 3536   4.377   1.847   2.925
  879SOL    HW2 3537   4.387   1.716   2.828
  880SOL     OW 3538   3.761   4.524   6.891
  880SOL    HW1 3539   3.793   4.553   6.801
  880SOL    HW2 3540   3.684   4.460   6.879
  881SOL     OW 3541   4.373   4.718   4.682
  881SOL    HW1 3542   4.354   4.635   4.632
  881SOL    HW2 3543   4.347   4.706   4.778
  882SOL     OW 3544   1.528   0.752   4.648
  882SOL    HW1 3545   1.467   0.815   4.696
  882SOL    HW2 3546   1.603   0.726   4.708
  883SOL     OW 3547   3.680   4.889   5.562
  883SOL    HW1 3548   3.723   4.973   5.594
  883SOL    HW2 3549   3.581   4.897   5.569
  884SOL     OW 3550   6.392   3.364   1.900
  884SOL    HW1 3551   6.321   3.294   1.890
  884SOL    HW2 3552   6.359   3.436   1.961
  885SOL     OW 3553   5.458   6.245   0.441
  885SOL    HW1 3554   5.548   6.281   0.464
  885SOL    HW2 3555   5.435   6.170   0.502
  886SOL     OW 3556   4.132   0.881   6.607
  886SOL    HW1 3557   4.200   0.846   6.672
  886SOL    HW2 3558   4.050   0.910   6.656
  887SOL     OW 3559   4.101   0.019   6.354
  887SOL    HW1 3560   4.026   0.059   6.301
  887SOL    HW2 3561   4.068   7.013   6.445
  888SOL     OW 3562   0.149   6.314   3.507
  888SOL    HW1 3563   0.079   6.247   3.531
  888SOL    HW2 3564   0.135   6.398   3.559
  889SOL     OW 3565   0.337   6.132   5.425
  889SOL    HW1 3566   0.280   6.154   5.504
  889SOL    HW2 3567   0.279   6.095   5.352
  890SOL     OW 3568   2.672   4.774   2.095
  890SOL    HW1 3569   2.692   4.857   2.147
  890SOL    HW2 3570   2.758   4.735   2.061
  891SOL     OW 3571   5.458   3.340   1.385
  891SOL    HW1 3572   5.443   3.356   1.482
  891SOL    HW2 3573   5.494   3.424   1.343
  892SOL     OW 3574   2.821   4.177   0.690
  892SOL    HW1 3575   2.786   4.266   0.660
  892SOL    HW2 3576   2.851   4.125   0.610
  893SOL     OW 3577   1.546   0.315   0.347
  893SOL    HW1 3578   1.527   0.250   0.274
  893SOL    HW2 3579   1.615   0.276   0.409
  894SOL     OW 3580   1.143   5.247   3.958
  894SOL    HW1 3581   1.133   5.195   4.043
  894SOL    HW2 3582   1.240   5.266   3.942
  895SOL     OW 3583   1.969   6.918   4.563
  895SOL    HW1 3584   2.000   6.856   4.492
  895SOL    HW2 3585   2.013   6.895   4.650
  896SOL     OW 3586   5.900   6.169   4.008
  896SOL    HW1 3587   5.885   6.080   4.050
  896SOL    HW2 3588   5.814   6.202   3.968
  897SOL     OW 3589   5.291   2.398   0.302
  897SOL    HW1 3590   5.331   2.319   0.255
  897SOL    HW2 3591   5.363   2.448   0.349
  898SOL     OW 3592   5.073   6.348   3.692
  898SOL    HW1 3593   5.100   6.252   3.688
  898SOL    HW2 3594   4.982   6.356   3.731
  899SOL     OW 3595   0.784   4.893   6.613
  899SOL    HW1 3596   0.873   4.913   6.572
  899SOL    HW2 3597   0.717   4.876   6.540
  900SOL     OW 3598   0.222   6.123   2.535
  900SOL    HW1 3599   0.223   6.190   2.609
  900SOL    HW2 3600   0.296   6.143   2.471
  901SOL     OW 3601   6.878   1.176   4.462
  901SOL    HW1 3602   6.971   1.188   4.428
  901SOL    HW2 3603   6.859   1.245   4.532
  902SOL     OW 3604   6.950   0.321   6.148
  902SOL    HW1 3605   6.880   0.280   6.207
  902SOL    HW2 3606   6.977   0.256   6.078
  903SOL     OW 3607   7.001   4.141   0.770
  903SOL    HW1 3608   6.946   4.057   0.777
  903SOL    HW2 3609   0.022   4.146   0.679
  904SOL     OW 3610   1.352   1.114   3.445
  904SOL    HW1 3611   1.402   1.187   3.399
  904SOL    HW2 3612   1.378   1.026   3.405
  905SOL     OW 3613   5.039   2.263   6.316
  905SOL    HW1 3614   4.976   2.339   6.330
  905SOL    HW2 3615   5.047   2.244   6.218
  906SOL     OW 3616   0.723   4.318   6.746
  906SOL    HW1 3617   0.662   4.321   6.824
  906SOL    HW2 3618   0.692   4.384   6.677
  907SOL     OW 3619   6.352   2.072   2.564
  907SOL    HW1 3620   6.271   2.125   2.589
  907SOL    HW2 3621   6.345   2.045   2.468
  908SOL     OW 3622   1.618   0.202   4.274
  908SOL    HW1 3623   1.701   0.154   4.301
  908SOL    HW2 3624   1.593   0.176   4.181
  909SOL     OW 3625   2.479   0.759   0.631
  909SOL    HW1 3626   2.443   0.818   0.559
  909SOL    HW2 3627   2.464   0.803   0.720
  910SOL     OW 3628   1.127   0.586   0.121
  910SOL    HW1 3629   1.193   0.654   0.150
  910SOL    HW2 3630   1.054   0.630   0.069
  911SOL     OW 3631   0.582   4.761   1.624
  911SOL    HW1 3632   0.501   4.747   1.568
  911SOL    HW2 3633   0.584   4.693   1.698
  912SOL     OW 3634   0.498   1.862   5.930
  912SOL    HW1 3635   0.501   1.953   5.889
  912SOL    HW2 3636   0.461   1.797   5.864
  913SOL     OW 3637   2.633   0.848   3.372
  913SOL    HW1 3638   2.661   0.874   3.279
  913SOL    HW2 3639   2.579   0.922   3.412
  914SOL     OW 3640   2.420   5.848   4.153
  914SOL    HW1 3641   2.467   5.841   4.241
  914SOL    HW2 3642   2.411   5.757   4.113
  915SOL     OW 3643   0.546   3.649   0.250
  915SOL    HW1 3644   0.616   3.597   0.300
  915SOL    HW2 3645   0.582   3.675   0.161
  916SOL     OW 3646   2.378   2.142   2.673
  916SOL    HW1 3647   2.467   2.187   2.673
  916SOL    HW2 3648   2.367   2.088   2.590
  917SOL     OW 3649   3.779   0.937   1.155
  917SOL    HW1 3650   3.691   0.984   1.145
  917SOL    HW2 3651   3.769   0.841   1.128
  918SOL     OW 3652   2.550   6.141   6.382
  918SOL    HW1 3653   2.545   6.089   6.297
  918SOL    HW2 3654   2.471   6.203   6.387
  919SOL     OW 3655   1.532   5.239   1.898
  919SOL    HW1 3656   1.626   5.207   1.899
  919SOL    HW2 3657   1.495   5.239   1.991
  920SOL     OW 3658   2.614   0.566   2.846
  920SOL    HW1 3659   2.664   0.640   2.891
  920SOL    HW2 3660   2.671   0.483   2.843
  921SOL     OW 3661   5.895   4.588   4.433
  921SOL    HW1 3662   5.927   4.493   4.441
  921SOL    HW2 3663   5.970   4.645   4.399
  922SOL     OW 3664   2.851   3.682   6.940
  922SOL    HW1 3665   2.839   3.757   7.005
  922SOL    HW2 3666   2.829   3.595   6.985
  923SOL     OW 3667   2.484   5.997   6.789
  923SOL    HW1 3668   2.492   5.956   6.698
  923SOL    HW2 3669   2.449   5.929   6.853
  924SOL     OW 3670   5.806   3.624   3.179
  924SOL    HW1 3671   5.735   3.569   3.221
  924SOL    HW2 3672   5.785   3.637   3.082
  925SOL     OW 3673   0.424   2.256   5.553
  925SOL    HW1 3674   0.438   2.160   5.529
  925SOL    HW2 3675   0.483   2.279   5.631
  926SOL     OW 3676   5.154   6.320   0.662
  926SOL    HW1 3677   5.092   6.271   0.601
  926SOL    HW2 3678   5.236   6.348   0.611
  927SOL     OW 3679   4.694   4.247   4.307
  927SOL    HW1 3680   4.660   4.337   4.335
  927SOL    HW2 3681   4.663   4.227   4.214
  928SOL     OW 3682   1.738   0.156   0.515
  928SOL    HW1 3683   1.831   0.154   0.478
  928SOL    HW2 3684   1.731   0.091   0.591
  929SOL     OW 3685   0.610   2.646   2.251
  929SOL    HW1 3686   0.641   2.567   2.199
  929SOL    HW2 3687   0.634   2.634   2.347
  930SOL     OW 3688   5.388   4.733   4.388
  930SOL    HW1 3689   5.431   4.710   4.301
  930SOL    HW2 3690   5.456   4.724   4.462
  931SOL     OW 3691   0.753   2.655   2.920
  931SOL    HW1 3692   0.679   2.714   2.889
  931SOL    HW2 3693   0.764   2.579   2.856
  932SOL     OW 3694   4.394   5.806   1.126
  932SOL    HW1 3695   4.424   5.725   1.176
  932SOL    HW2 3696   4.303   5.789   1.086
  933SOL     OW 3697   1.421   4.852   2.637
  933SOL    HW1 3698   1.465   4.924   2.689
  933SOL    HW2 3699   1.390   4.780   2.699
  934SOL     OW 3700   3.509   0.786   5.459
  934SOL    HW1 3701   3.549   0.810   5.548
  934SOL    HW2 3702   3.415   0.754   5.473
  935SOL     OW 3703   4.633   3.643   6.153
  935SOL    HW1 3704   4.731   3.650   6.167
  935SOL    HW2 3705   4.615   3.593   6.068
  936SOL     OW 3706   0.490   0.229   1.302
  936SOL    HW1 3707   0.559   0.245   1.373
  936SOL    HW2 3708   0.399   0.241   1.341
  937SOL     OW 3709   4.436   1.849   4.215
  937SOL    HW1 3710   4.462   1.797   4.296
  937SOL    HW2 3711   4.350   1.897   4.233
  938SOL     OW 3712   6.991   3.424   5.617
  938SOL    HW1 3713   6.956   3.395   5.706
  938SOL    HW2 3714   7.018   3.343   5.564
  939SOL     OW 3715   5.189   1.213   6.317
  939SOL    HW1 3716   5.108   1.229   6.374
  939SOL    HW2 3717   5.188   1.276   6.240
  940SOL     OW 3718   6.875   0.981   3.169
  940SOL    HW1 3719   6.824   1.009   3.087
  940SOL    HW2 3720   6.842   0.892   3.200
  941SOL     OW 3721   5.497   1.217   4.104
  941SOL    HW1 3722   5.549   1.288   4.151
  941SOL    HW2 3723   5.446   1.257   4.028
  942SOL     OW 3724   5.289   6.942   5.315
  942SOL    HW1 3725   5.325   6.883   5.243
  942SOL    HW2 3726   5.365   6.985   5.364
  943SOL     OW 3727   6.227   2.935   2.665
  943SOL    HW1 3728   6.236   2.998   2.742
  943SOL    HW2 3729   6.276   2.971   2.586
  944SOL     OW 3730   5.904   2.996   4.749
  944SOL    HW1 3731   5.854   3.028   4.669
  944SOL    HW2 3732   5.946   2.907   4.728
  945SOL     OW 3733   4.635   4.782   4.107
  945SOL    HW1 3734   4.658   4.714   4.038
  945SOL    HW2 3735   4.544   4.820   4.088
  946SOL     OW 3736   5.795   2.812   5.812
  946SOL    HW1 3737   5.871   2.774   5.758
  946SOL    HW2 3738   5.727   2.852   5.750
  947SOL     OW 3739   3.151   3.099   6.456
  947SOL    HW1 3740   3.229   3.069   6.401
  947SOL    HW2 3741   3.068   3.099   6.399
  948SOL     OW 3742   3.241   1.303   0.764
  948SOL    HW1 3743   3.155   1.323   0.717
  948SOL    HW2 3744   3.222   1.264   0.854
  949SOL     OW 3745   6.296   5.677   6.559
  949SOL    HW1 3746   6.386   5.720   6.545
  949SOL    HW2 3747   6.305   5.600   6.622
  950SOL     OW 3748   3.970   5.019   1.395
  950SOL    HW1 3749   3.874   5.029   1.424
  950SOL    HW2 3750   3.976   4.945   1.328
  951SOL     OW 3751   0.754   0.673   1.685
  951SOL    HW1 3752   0.814   0.607   1.731
  951SOL    HW2 3753   0.688   0.624   1.629
  952SOL     OW 3754   5.384   0.667   2.955
  952SOL    HW1 3755   5.293   0.656   2.994
  952SOL    HW2 3756   5.378   0.668   2.855
  953SOL     OW 3757   4.580   6.376   5.481
  953SOL    HW1 3758   4.563   6.312   5.406
  953SOL    HW2 3759   4.623   6.459   5.446
  954SOL     OW 3760   6.378   0.103   1.499
  954SOL    HW1 3761   6.406   0.138   1.589
  954SOL    HW2 3762   6.440   0.139   1.429
  955SOL     OW 3763   0.731   4.945   3.172
  955SOL    HW1 3764   0.831   4.943   3.172
  955SOL    HW2 3765   0.700   5.033   3.208
  956SOL     OW 3766   1.030   1.164   1.299
  956SOL    HW1 3767   0.973   1.082   1.288
  956SOL    HW2 3768   1.119   1.148   1.255
  957SOL     OW 3769   1.224   4.803   5.689
  957SOL    HW1 3770   1.263   4.717   5.657
  957SOL    HW2 3771   1.258   4.823   5.781
  958SOL     OW 3772   5.368   2.068   1.062
  958SOL    HW1 3773   5.448   2.107   1.108
  958SOL    HW2 3774   5.394   1.985   1.012
  959SOL     OW 3775   3.169   4.869   2.783
  959SOL    HW1 3776   3.071   4.888   2.779
  959SOL    HW2 3777   3.199   4.830   2.696
  960SOL     OW 3778   2.090   6.119   4.491
  960SOL    HW1 3779   2.167   6.056   4.490
  960SOL    HW2 3780   2.088   6.168   4.578
  961SOL     OW 3781   3.861   6.957   2.438
  961SOL    HW1 3782   3.879   0.032   2.465
  961SOL    HW2 3783   3.764   6.945   2.421
  962SOL     OW 3784   1.730   0.825   3.266
  962SOL    HW1 3785   1.827   0.805   3.275
  962SOL    HW2 3786   1.677   0.759   3.320
  963SOL     OW 3787   5.873   0.751   1.519
  963SOL    HW1 3788   5.962   0.720   1.484
  963SOL    HW2 3789   5.823   0.798   1.446
  964SOL     OW 3790   5.445   3.497   1.013
  964SOL    HW1 3791   5.370   3.562   0.999
  964SOL    HW2 3792   5.476   3.502   1.108
  965SOL     OW 3793   6.589   1.771   0.638
  965SOL    HW1 3794   6.514   1.724   0.591
  965SOL    HW2 3795   6.607   1.726   0.725
  966SOL     OW 3796   6.171   1.463   2.741
  966SOL    HW1 3797   6.271   1.459   2.733
  966SOL    HW2 3798   6.143   1.423   2.828
  967SOL     OW 3799   1.644   5.611   0.479
  967SOL    HW1 3800   1.601   5.696   0.449
  967SOL    HW2 3801   1.706   5.578   0.408
  968SOL     OW 3802   4.623   2.598   2.575
  968SOL    HW1 3803   4.631   2.564   2.481
  968SOL    HW2 3804   4.652   2.693   2.578
  969SOL     OW 3805   4.086   6.719   6.153
  969SOL    HW1 3806   4.110   6.623   6.138
  969SOL    HW2 3807   4.021   6.749   6.083
  970SOL     OW 3808   4.327   1.700   5.293
  970SOL    HW1 3809   4.313   1.646   5.210
  970SOL    HW2 3810   4.239   1.738   5.323
  971SOL     OW 3811   6.832   1.519   2.367
  971SOL    HW1 3812   6.836   1.421   2.349
  971SOL    HW2 3813   6.922   1.551   2.397
  972SOL     OW 3814   6.237   4.714   0.632
  972SOL    HW1 3815   6.269   4.776   0.561
  972SOL    HW2 3816   6.165   4.758   0.685
  973SOL     OW 3817   6.876   4.488   6.503
  973SOL    HW1 3818   6.801   4.549   6.477
  973SOL    HW2 3819   6.858   4.397   6.465
  974SOL     OW 3820   3.009   0.555   2.507
  974SOL    HW1 3821   3.107   0.568   2.525
  974SOL    HW2 3822   2.978   0.471   2.552
  975SOL     OW 3823   2.910   5.953   5.969
  975SOL    HW1 3824   2.904   5.862   6.010
  975SOL    HW2 3825   3.004   5.985   5.974
  976SOL     OW 3826   6.764   3.000   2.704
  976SOL    HW1 3827   6.683   3.053   2.681
  976SOL    HW2 3828   6.794   2.949   2.623
  977SOL     OW 3829   1.284   1.197   3.881
  977SOL    HW1 3830   1.188   1.172   3.869
  977SOL    HW2 3831   1.328   1.131   3.942
  978SOL     OW 3832   6.007   4.138   4.080
  978SOL    HW1 3833   6.068   4.081   4.027
  978SOL    HW2 3834   6.059   4.186   4.151
  979SOL     OW 3835   6.157   1.566   3.227
  979SOL    HW1 3836   6.102   1.591   3.307
  979SOL    HW2 3837   6.179   1.469   3.231
  980SOL     OW 3838   5.588   2.553   3.580
  980SOL    HW1 3839   5.556   2.617   3.650
  980SOL    HW2 3840   5.542   2.573   3.493
  981SOL     OW 3841   1.128   1.672   4.838
  981SOL    HW1 3842   1.088   1.591   4.881
  981SOL    HW2 3843   1.128   1.748   4.903
  982SOL     OW 3844   0.981   2.526   1.774
  982SOL    HW1 3845   0.931   2.578   1.844
  982SOL    HW2 3846   1.071   2.568   1.759
  983SOL     OW 3847   6.247   1.836   3.241
  983SOL    HW1 3848   6.177   1.884   3.294
  983SOL    HW2 3849   6.207   1.754   3.200
  984SOL     OW 3850   4.542   1.177   5.640
  984SOL    HW1 3851   4.534   1.126   5.554
  984SOL    HW2 3852   4.511   1.119   5.715
  985SOL     OW 3853   4.136   5.650   0.681
  985SOL    HW1 3854   4.125   5.747   0.703
  985SOL    HW2 3855   4.049   5.603   0.691
  986SOL     OW 3856   5.334   5.669   6.353
  986SOL    HW1 3857   5.423   5.668   6.309
  986SOL    HW2 3858   5.263   5.642   6.287
  987SOL     OW 3859   3.020   6.528   1.595
  987SOL    HW1 3860   2.928   6.538   1.631
  987SOL    HW2 3861   3.072   6.612   1.610
  988SOL     OW 3862   3.771   2.815   0.618
  988SOL    HW1 3863   3.822   2.733   0.593
  988SOL    HW2 3864   3.686   2.820   0.566
  989SOL     OW 3865   0.259   0.551   5.969
  989SOL    HW1 3866   0.339   0.593   6.012
  989SOL    HW2 3867   0.176   0.580   6.016
  990SOL     OW 3868   4.782   0.145   4.244
  990SOL    HW1 3869   4.839   0.106   4.172
  990SOL    HW2 3870   4.839   0.172   4.321
  991SOL     OW 3871   1.370   2.212   4.774
  991SOL    HW1 3872   1.428   2.292   4.792
  991SOL    HW2 3873   1.402   2.135   4.830
  992SOL     OW 3874   0.666   3.060   6.746
  992SOL    HW1 3875   0.598   3.043   6.675
  992SOL    HW2 3876   0.681   3.159   6.754
  993SOL     OW 3877   2.795   5.388   2.613
  993SOL    HW1 3878   2.733   5.461   2.641
  993SOL    HW2 3879   2.873   5.428   2.564
  994SOL     OW 3880   3.514   4.087   2.579
  994SOL    HW1 3881   3.541   4.081   2.675
  994SOL    HW2 3882   3.594   4.074   2.521
  995SOL     OW 3883   1.883   2.804   6.216
  995SOL    HW1 3884   1.798   2.754   6.234
  995SOL    HW2 3885   1.895   2.875   6.285
  996SOL     OW 3886   1.724   3.579   3.570
  996SOL    HW1 3887   1.698   3.527   3.650
  996SOL    HW2 3888   1.710   3.524   3.488
  997SOL     OW 3889   0.727   0.556   1.387
  997SOL    HW1 3890   0.740   0.640   1.335
  997SOL    HW2 3891   0.813   0.504   1.387
  998SOL     OW 3892   4.134   6.897   2.585
  998SOL    HW1 3893   4.134   6.991   2.620
  998SOL    HW2 3894   4.043   6.872   2.555
  999SOL     OW 3895   5.722   5.627   1.007
  999SOL    HW1 3896   5.747   5.709   0.956
  999SOL    HW2 3897   5.697   5.651   1.100
 1000SOL     OW 3898   2.106   1.857   2.562
 1000SOL    HW1 3899   2.106   1.915   2.481
 1000SOL    HW2 3900   2.088   1.913   2.643
 1001SOL     OW 3901   4.187   6.515   6.894
 1001SOL    HW1 3902   4.240   6.487   6.813
 1001SOL    HW2 3903   4.230   6.594   6.937
 1002SOL     OW 3904   5.754   1.566   6.656
 1002SOL    HW1 3905   5.728   1.588   6.750
 1002SOL    HW2 3906   5.822   1.632   6.624
 1003SOL     OW 3907   2.227   6.742   3.026
 1003SOL    HW1 3908   2.241   6.673   2.955
 1003SOL    HW2 3909   2.291   6.817   3.013
 1004SOL     OW 3910   0.018   0.353   6.976
 1004SOL    HW1 3911   0.003   0.452   6.972
 1004SOL    HW2 3912   6.996   0.316   0.040
 1005SOL     OW 3913   0.304   0.652   2.703
 1005SOL    HW1 3914   0.270   0.558   2.708
 1005SOL    HW2 3915   0.322   0.676   2.608
 1006SOL     OW 3916   2.379   5.648   1.699
 1006SOL    HW1 3917   2.374   5.549   1.686
 1006SOL    HW2 3918   2.456   5.685   1.648
 1007SOL     OW 3919   6.285   0.673   3.442
 1007SOL    HW1 3920   6.255   0.578   3.438
 1007SOL    HW2 3921   6.327   0.691   3.531
 1008SOL     OW 3922   0.699   2.317   3.827
 1008SOL    HW1 3923   0.687   2.223   3.861
 1008SOL    HW2 3924   0.699   2.317   3.727
 1009SOL     OW 3925   6.675   5.880   3.887
 1009SOL    HW1 3926   6.595   5.834   3.924
 1009SOL    HW2 3927   6.758   5.834   3.919
 1010SOL     OW 3928   3.859   2.137   6.715
 1010SOL    HW1 3929   3.833   2.191   6.795
 1010SOL    HW2 3930   3.848   2.039   6.735
 1011SOL     OW 3931   3.143   5.792   4.096
 1011SOL    HW1 3932   3.102   5.786   4.187
 1011SOL    HW2 3933   3.072   5.815   4.029
 1012SOL     OW 3934   6.429   5.360   0.369
 1012SOL    HW1 3935   6.386   5.277   0.403
 1012SOL    HW2 3936   6.526   5.360   0.393
 1013SOL     OW 3937   0.639   0.970   6.529
 1013SOL    HW1 3938   0.687   1.024   6.460
 1013SOL    HW2 3939   0.696   0.893   6.557
 1014SOL     OW 3940   5.200   5.546   6.593
 1014SOL    HW1 3941   5.105   5.565   6.568
 1014SOL    HW2 3942   5.261   5.590   6.527
 1015SOL     OW 3943   4.103   6.633   4.895
 1015SOL    HW1 3944   4.075   6.575   4.972
 1015SOL    HW2 3945   4.085   6.585   4.809
 1016SOL     OW 3946   2.837   2.688   1.035
 1016SOL    HW1 3947   2.924   2.647   1.063
 1016SOL    HW2 3948   2.852   2.782   1.006
 1017SOL     OW 3949   5.135   2.315   1.185
 1017SOL    HW1 3950   5.202   2.300   1.257
 1017SOL    HW2 3951   5.118   2.413   1.174
 1018SOL     OW 3952   1.880   2.977   4.178
 1018SOL    HW1 3953   1.963   3.032   4.174
 1018SOL    HW2 3954   1.885   2.914   4.256
 1019SOL     OW 3955   6.991   1.005   0.297
 1019SOL    HW1 3956   6.933   1.034   0.373
 1019SOL    HW2 3957   0.033   1.080   0.272
 1020SOL     OW 3958   1.474   7.015   0.711
 1020SOL    HW1 3959   1.440   6.941   0.770
 1020SOL    HW2 3960   1.574   7.009   0.704
 1021SOL     OW 3961   5.998   1.391   2.138
 1021SOL    HW1 3962   6.060   1.461   2.102
 1021SOL    HW2 3963   5.972   1.328   2.066
 1022SOL     OW 3964   4.211   4.318   6.072
 1022SOL    HW1 3965   4.265   4.331   6.155
 1022SOL    HW2 3966   4.118   4.350   6.087
 1023SOL     OW 3967   6.056   6.968   1.909
 1023SOL    HW1 3968   6.064   6.974   1.810
 1023SOL    HW2 3969   6.019   6.878   1.934
 1024SOL     OW 3970   6.541   2.422   4.132
 1024SOL    HW1 3971   6.453   2.466   4.147
 1024SOL    HW2 3972   6.551   2.399   4.035
 1025SOL     OW 3973   3.866   4.732   0.055
 1025SOL    HW1 3974   3.946   4.699   0.104
 1025SOL    HW2 3975   3.834   4.662   7.011
 1026SOL     OW 3976   1.239   1.039   0.708
 1026SOL    HW1 3977   1.288   1.036   0.795
 1026SOL    HW2 3978   1.294   0.993   0.638
 1027SOL     OW 3979   2.937   5.611   1.263
 1027SOL    HW1 3980   2.985   5.689   1.223
 1027SOL    HW2 3981   2.963   5.603   1.360
 1028SOL     OW 3982   2.425   6.031   0.220
 1028SOL    HW1 3983   2.357   5.998   0.155
 1028SOL    HW2 3984   2.393   6.117   0.262
 1029SOL     OW 3985   1.912   0.497   0.279
 1029SOL    HW1 3986   1.882   0.584   0.317
 1029SOL    HW2 3987   1.847   0.466   0.210
 1030SOL     OW 3988   3.673   2.952   4.134
 1030SOL    HW1 3989   3.586   2.960   4.085
 1030SOL    HW2 3990   3.666   2.999   4.222
 1031SOL     OW 3991   3.595   5.432   1.650
 1031SOL    HW1 3992   3.547   5.372   1.585
 1031SOL    HW2 3993   3.687   5.395   1.667
 1032SOL     OW 3994   2.244   1.304   5.600
 1032SOL    HW1 3995   2.150   1.278   5.625
 1032SOL    HW2 3996   2.266   1.268   5.510
 1033SOL     OW 3997   1.766   5.758   1.467
 1033SOL    HW1 3998   1.816   5.809   1.537
 1033SOL    HW2 3999   1.705   5.820   1.417
 1034SOL     OW 4000   1.712   6.475   4.034
 1034SOL    HW1 4001   1.699   6.475   4.133
 1034SOL    HW2 4002   1.810   6.478   4.013
 1035SOL     OW 4003   2.814   1.875   3.915
 1035SOL    HW1 4004   2.745   1.918   3.857
 1035SOL    HW2 4005   2.905   1.897   3.879
 1036SOL     OW 4006   3.996   1.057   0.981
 1036SOL    HW1 4007   3.912   1.031   1.028
 1036SOL    HW2 4008   3.997   1.016   0.889
 1037SOL     OW 4009   0.664   1.125   0.744
 1037SOL    HW1 4010   0.592   1.192   0.759
 1037SOL    HW2 4011   0.663   1.094   0.649
 1038SOL     OW 4012   0.548   1.471   5.695
 1038SOL    HW1 4013   0.633   1.424   5.720
 1038SOL    HW2 4014   0.471   1.408   5.708
 1039SOL     OW 4015   4.409   1.679   4.778
 1039SOL    HW1 4016   4.386   1.631   4.863
 1039SOL    HW2 4017   4.508   1.687   4.770
 1040SOL     OW 4018   5.715   3.489   3.568
 1040SOL    HW1 4019   5.770   3.440   3.501
 1040SOL    HW2 4020   5.619   3.486   3.542
 1041SOL     OW 4021   6.259   0.271   3.984
 1041SOL    HW1 4022   6.287   0.340   4.052
 1041SOL    HW2 4023   6.309   0.186   4.001
 1042SOL     OW 4024   4.472   4.770   1.958
 1042SOL    HW1 4025   4.444   4.809   2.045
 1042SOL    HW2 4026   4.418   4.811   1.884
 1043SOL     OW 4027   3.904   1.265   6.347
 1043SOL    HW1 4028   3.821   1.255   6.292
 1043SOL    HW2 4029   3.956   1.180   6.346
 1044SOL     OW 4030   3.283   2.315   1.393
 1044SOL    HW1 4031   3.371   2.278   1.365
 1044SOL    HW2 4032   3.209   2.262   1.353
 1045SOL     OW 4033   2.851   0.783   1.583
 1045SOL    HW1 4034   2.872   0.860   1.643
 1045SOL    HW2 4035   2.790   0.813   1.510
 1046SOL     OW 4036   2.357   6.775   6.797
 1046SOL    HW1 4037   2.309   6.748   6.713
 1046SOL    HW2 4038   2.295   6.828   6.855
 1047SOL     OW 4039   1.656   5.298   3.027
 1047SOL    HW1 4040   1.639   5.285   3.125
 1047SOL    HW2 4041   1.714   5.379   3.014
 1048SOL     OW 4042   5.115   5.430   5.329
 1048SOL    HW1 4043   5.113   5.333   5.305
 1048SOL    HW2 4044   5.192   5.448   5.390
 1049SOL     OW 4045   0.050   3.848   4.854
 1049SOL    HW1 4046   6.998   3.918   4.850
 1049SOL    HW2 4047   0.115   3.871   4.926
 1050SOL     OW 4048   3.785   6.530   0.649
 1050SOL    HW1 4049   3.734   6.497   0.570
 1050SOL    HW2 4050   3.777   6.466   0.725
 1051SOL     OW 4051   4.230   4.799   6.844
 1051SOL    HW1 4052   4.133   4.791   6.819
 1051SOL    HW2 4053   4.264   4.710   6.872
 1052SOL     OW 4054   3.904   0.657   4.811
 1052SOL    HW1 4055   3.824   0.650   4.751
 1052SOL    HW2 4056   3.987   0.655   4.755
 1053SOL     OW 4057   5.629   5.826   3.789
 1053SOL    HW1 4058   5.661   5.746   3.840
 1053SOL    HW2 4059   5.608   5.799   3.695
 1054SOL     OW 4060   2.389   5.029   5.505
 1054SOL    HW1 4061   2.364   4.977   5.423
 1054SOL    HW2 4062   2.488   5.035   5.513
 1055SOL     OW 4063   5.534   5.044   4.388
 1055SOL    HW1 4064   5.558   4.959   4.435
 1055SOL    HW2 4065   5.462   5.025   4.321
 1056SOL     OW 4066   1.629   6.659   5.250
 1056SOL    HW1 4067   1.553   6.691   5.306
 1056SOL    HW2 4068   1.595   6.601   5.176
 1057SOL     OW 4069   2.983   3.741   3.134
 1057SOL    HW1 4070   2.996   3.747   3.035
 1057SOL    HW2 4071   2.971   3.646   3.161
 1058SOL     OW 4072   4.323   1.461   1.908
 1058SOL    HW1 4073   4.320   1.438   2.005
 1058SOL    HW2 4074   4.235   1.497   1.879
 1059SOL     OW 4075   3.599   0.501   1.799
 1059SOL    HW1 4076   3.673   0.516   1.864
 1059SOL    HW2 4077   3.631   0.443   1.724
 1060SOL     OW 4078   0.218   3.395   5.806
 1060SOL    HW1 4079   0.142   3.435   5.859
 1060SOL    HW2 4080   0.245   3.458   5.734
 1061SOL     OW 4081   3.315   4.633   1.039
 1061SOL    HW1 4082   3.280   4.592   1.122
 1061SOL    HW2 4083   3.346   4.726   1.058
 1062SOL     OW 4084   6.810   5.789   5.015
 1062SOL    HW1 4085   6.721   5.831   5.000
 1062SOL    HW2 4086   6.804   5.690   4.998
 1063SOL     OW 4087   0.817   3.695   1.173
 1063SOL    HW1 4088   0.914   3.717   1.185
 1063SOL    HW2 4089   0.772   3.769   1.123
 1064SOL     OW 4090   1.790   3.153   2.166
 1064SOL    HW1 4091   1.758   3.239   2.126
 1064SOL    HW2 4092   1.832   3.171   2.255
 1065SOL     OW 4093   5.242   0.053   3.815
 1065SOL    HW1 4094   5.334   0.052   3.852
 1065SOL    HW2 4095   5.179   0.010   3.880
 1066SOL     OW 4096   5.526   6.997   4.733
 1066SOL    HW1 4097   5.444   6.982   4.679
 1066SOL    HW2 4098   5.507   6.979   4.829
 1067SOL     OW 4099   1.585   2.636   0.998
 1067SOL    HW1 4100   1.556   2.541   0.997
 1067SOL    HW2 4101   1.616   2.661   1.090
 1068SOL     OW 4102   0.259   3.924   1.971
 1068SOL    HW1 4103   0.266   3.946   1.874
 1068SOL    HW2 4104   0.162   3.919   1.997
 1069SOL     OW 4105   4.378   4.401   0.874
 1069SOL    HW1 4106   4.477   4.396   0.870
 1069SOL    HW2 4107   4.344   4.341   0.946
 1070SOL     OW 4108   1.936   0.916   0.137
 1070SOL    HW1 4109   2.009   0.895   0.071
 1070SOL    HW2 4110   1.902   1.009   0.120
 1071SOL     OW 4111   3.937   0.033   3.123
 1071SOL    HW1 4112   3.926   0.127   3.157
 1071SOL    HW2 4113   3.847   7.013   3.106
 1072SOL     OW 4114   2.700   6.295   2.399
 1072SOL    HW1 4115   2.743   6.239   2.328
 1072SOL    HW2 4116   2.649   6.370   2.356
 1073SOL     OW 4117   3.639   5.171   2.269
 1073SOL    HW1 4118   3.616   5.232   2.193
 1073SOL    HW2 4119   3.658   5.080   2.233
 1074SOL     OW 4120   1.576   5.532   2.001
 1074SOL    HW1 4121   1.575   5.580   1.913
 1074SOL    HW2 4122   1.581   5.434   1.985
 1075SOL     OW 4123   4.890   5.080   3.222
 1075SOL    HW1 4124   4.802   5.058   3.179
 1075SOL    HW2 4125   4.932   4.996   3.255
 1076SOL     OW 4126   1.037   4.343   5.028
 1076SOL    HW1 4127   1.124   4.297   5.047
 1076SOL    HW2 4128   0.963   4.294   5.074
 1077SOL     OW 4129   5.596   6.652   0.452
 1077SOL    HW1 4130   5.576   6.700   0.537
 1077SOL    HW2 4131   5.614   6.718   0.379
 1078SOL     OW 4132   1.656   1.417   2.497
 1078SOL    HW1 4133   1.643   1.384   2.591
 1078SOL    HW2 4134   1.705   1.504   2.499
 1079SOL     OW 4135   2.588   5.767   3.687
 1079SOL    HW1 4136   2.600   5.670   3.671
 1079SOL    HW2 4137   2.491   5.786   3.705
 1080SOL     OW 4138   3.209   5.484   3.705
 1080SOL    HW1 4139   3.114   5.513   3.704
 1080SOL    HW2 4140   3.234   5.449   3.615
 1081SOL     OW 4141   1.310   1.318   5.749
 1081SOL    HW1 4142   1.305   1.388   5.678
 1081SOL    HW2 4143   1.282   1.358   5.837
 1082SOL     OW 4144   1.235   0.094   5.458
 1082SOL    HW1 4145   1.186   0.178   5.480
 1082SOL    HW2 4146   1.173   0.031   5.410
 1083SOL     OW 4147   3.572   3.390   2.213
 1083SOL    HW1 4148   3.503   3.461   2.224
 1083SOL    HW2 4149   3.656   3.430   2.176
 1084SOL     OW 4150   6.237   5.169   1.162
 1084SOL    HW1 4151   6.142   5.135   1.166
 1084SOL    HW2 4152   6.290   5.109   1.102
 1085SOL     OW 4153   2.093   4.574   4.146
 1085SOL    HW1 4154   2.121   4.565   4.241
 1085SOL    HW2 4155   2.161   4.529   4.087
 1086SOL     OW 4156   5.901   5.617   3.547
 1086SOL    HW1 4157   5.993   5.633   3.511
 1086SOL    HW2 4158   5.872   5.525   3.523
 1087SOL     OW 4159   5.015   3.095   5.047
 1087SOL    HW1 4160   5.112   3.102   5.023
 1087SOL    HW2 4161   4.980   3.187   5.067
 1088SOL     OW 4162   4.996   4.566   3.152
 1088SOL    HW1 4163   5.071   4.542   3.089
 1088SOL    HW2 4164   4.914   4.516   3.125
 1089SOL     OW 4165   0.279   0.297   4.531
 1089SOL    HW1 4166   0.300   0.280   4.434
 1089SOL    HW2 4167   0.351   0.354   4.570
 1090SOL     OW 4168   2.705   1.188   5.079
 1090SOL    HW1 4169   2.722   1.287   5.085
 1090SOL    HW2 4170   2.791   1.139   5.086
 1091SOL     OW 4171   1.469   1.893   3.937
 1091SOL    HW1 4172   1.553   1.845   3.959
 1091SOL    HW2 4173   1.463   1.907   3.838
 1092SOL     OW 4174   2.046   3.745   1.226
 1092SOL    HW1 4175   2.009   3.676   1.289
 1092SOL    HW2 4176   2.085   3.820   1.279
 1093SOL     OW 4177   1.539   2.349   2.468
 1093SOL    HW1 4178   1.447   2.348   2.509
 1093SOL    HW2 4179   1.588   2.430   2.500
 1094SOL     OW 4180   0.264   6.756   1.681
 1094SOL    HW1 4181   0.197   6.792   1.746
 1094SOL    HW2 4182   0.337   6.709   1.732
 1095SOL     OW 4183   6.122   2.742   6.485
 1095SOL    HW1 4184   6.050   2.741   6.554
 1095SOL    HW2 4185   6.104   2.671   6.417
 1096SOL     OW 4186   3.818   5.425   1.063
 1096SOL    HW1 4187   3.835   5.522   1.077
 1096SOL    HW2 4188   3.884   5.389   0.998
 1097SOL     OW 4189   1.841   5.399   4.992
 1097SOL    HW1 4190   1.815   5.359   5.080
 1097SOL    HW2 4191   1.788   5.483   4.976
 1098SOL     OW 4192   5.348   2.324   0.942
 1098SOL    HW1 4193   5.347   2.302   0.844
 1098SOL    HW2 4194   5.338   2.239   0.995
 1099SOL     OW 4195   3.920   2.213   4.506
 1099SOL    HW1 4196   3.984   2.278   4.464
 1099SOL    HW2 4197   3.965   2.166   4.582
 1100SOL     OW 4198   0.756   1.209   6.407
 1100SOL    HW1 4199   0.855   1.199   6.395
 1100SOL    HW2 4200   0.738   1.291   6.462
 1101SOL     OW 4201   5.366   3.137   1.247
 1101SOL    HW1 4202   5.396   3.124   1.152
 1101SOL    HW2 4203   5.411   3.217   1.286
 1102SOL     OW 4204   1.106   4.687   3.690
 1102SOL    HW1 4205   1.031   4.740   3.730
 1102SOL    HW2 4206   1.095   4.591   3.714
 1103SOL     OW 4207   1.732   1.634   2.176
 1103SOL    HW1 4208   1.729   1.734   2.165
 1103SOL    HW2 4209   1.812   1.599   2.128
 1104SOL     OW 4210   2.414   4.463   6.104
 1104SOL    HW1 4211   2.464   4.377   6.091
 1104SOL    HW2 4212   2.326   4.457   6.057
 1105SOL     OW 4213   5.060   4.129   0.036
 1105SOL    HW1 4214   4.990   4.108   6.987
 1105SOL    HW2 4215   5.151   4.115   7.016
 1106SOL     OW 4216   0.293   2.150   6.064
 1106SOL    HW1 4217   0.264   2.205   6.143
 1106SOL    HW2 4218   0.298   2.054   6.091
 1107SOL     OW 4219   0.790   0.274   6.782
 1107SOL    HW1 4220   0.782   0.187   6.734
 1107SOL    HW2 4221   0.865   0.269   6.848
 1108SOL     OW 4222   2.530   0.747   5.852
 1108SOL    HW1 4223   2.486   0.804   5.922
 1108SOL    HW2 4224   2.529   0.651   5.882
 1109SOL     OW 4225   4.165   6.053   4.502
 1109SOL    HW1 4226   4.124   5.965   4.524
 1109SOL    HW2 4227   4.142   6.078   4.408
 1110SOL     OW 4228   2.691   2.735   1.296
 1110SOL    HW1 4229   2.755   2.712   1.222
 1110SOL    HW2 4230   2.694   2.664   1.366
 1111SOL     OW 4231   5.548   0.143   6.799
 1111SOL    HW1 4232   5.574   0.197   6.879
 1111SOL    HW2 4233   5.522   0.051   6.828
 1112SOL     OW 4234   6.072   0.892   2.884
 1112SOL    HW1 4235   6.068   0.961   2.811
 1112SOL    HW2 4236   6.022   0.925   2.964
 1113SOL     OW 4237   6.275   3.400   2.494
 1113SOL    HW1 4238   6.341   3.393   2.419
 1113SOL    HW2 4239   6.196   3.342   2.475
 1114SOL     OW 4240   5.603   0.770   6.501
 1114SOL    HW1 4241   5.611   0.670   6.497
 1114SOL    HW2 4242   5.692   0.812   6.486
 1115SOL     OW 4243   4.174   2.472   0.529
 1115SOL    HW1 4244   4.084   2.515   0.529
 1115SOL    HW2 4245   4.232   2.515   0.598
 1116SOL     OW 4246   5.198   5.844   3.883
 1116SOL    HW1 4247   5.271   5.819   3.947
 1116SOL    HW2 4248   5.167   5.762   3.835
 1117SOL     OW 4249   2.482   2.587   1.712
 1117SOL    HW1 4250   2.468   2.684   1.733
 1117SOL    HW2 4251   2.542   2.578   1.633
 1118SOL     OW 4252   1.996   5.399   2.831
 1118SOL    HW1 4253   1.988   5.486   2.781
 1118SOL    HW2 4254   2.091   5.388   2.862
 1119SOL     OW 4255   4.259   4.061   1.654
 1119SOL    HW1 4256   4.290   4.083   1.746
 1119SOL    HW2 4257   4.332   4.082   1.588
 1120SOL     OW 4258   5.118   0.168   6.291
 1120SOL    HW1 4259   5.100   0.265   6.274
 1120SOL    HW2 4260   5.040   0.114   6.262
 1121SOL     OW 4261   5.073   2.514   1.911
 1121SOL    HW1 4262   4.998   2.458   1.947
 1121SOL    HW2 4263   5.057   2.532   1.814
 1122SOL     OW 4264   5.737   2.960   6.520
 1122SOL    HW1 4265   5.813   3.026   6.522
 1122SOL    HW2 4266   5.655   3.005   6.487
 1123SOL     OW 4267   4.654   1.427   2.011
 1123SOL    HW1 4268   4.640   1.444   1.914
 1123SOL    HW2 4269   4.739   1.375   2.025
 1124SOL     OW 4270   6.717   3.497   5.090
 1124SOL    HW1 4271   6.689   3.486   4.995
 1124SOL    HW2 4272   6.671   3.577   5.129
 1125SOL     OW 4273   2.946   2.644   5.280
 1125SOL    HW1 4274   3.013   2.604   5.343
 1125SOL    HW2 4275   2.873   2.578   5.264
 1126SOL     OW 4276   4.478   7.007   0.461
 1126SOL    HW1 4277   4.469   0.028   0.552
 1126SOL    HW2 4278   4.471   6.908   0.468
 1127SOL     OW 4279   2.650   4.412   6.808
 1127SOL    HW1 4280   2.578   4.481   6.823
 1127SOL    HW2 4281   2.740   4.456   6.814
 1128SOL     OW 4282   4.100   2.270   4.036
 1128SOL    HW1 4283   4.091   2.366   4.013
 1128SOL    HW2 4284   4.183   2.232   3.994
 1129SOL     OW 4285   4.377   0.393   0.552
 1129SOL    HW1 4286   4.308   0.393   0.480
 1129SOL    HW2 4287   4.365   0.474   0.610
 1130SOL     OW 4288   1.579   3.814   1.169
 1130SOL    HW1 4289   1.675   3.794   1.151
 1130SOL    HW2 4290   1.571   3.905   1.208
 1131SOL     OW 4291   0.140   5.823   5.873
 1131SOL    HW1 4292   0.112   5.877   5.793
 1131SOL    HW2 4293   0.141   5.882   5.954
 1132SOL     OW 4294   5.074   6.842   5.682
 1132SOL    HW1 4295   5.150   6.810   5.737
 1132SOL    HW2 4296   5.005   6.883   5.741
 1133SOL     OW 4297   0.566   2.416   0.974
 1133SOL    HW1 4298   0.656   2.371   0.967
 1133SOL    HW2 4299   0.560   2.489   0.907
 1134SOL     OW 4300   5.545   2.613   6.612
 1134SOL    HW1 4301   5.545   2.711   6.636
 1134SOL    HW2 4302   5.453   2.586   6.583
 1135SOL     OW 4303   3.023   2.172   3.430
 1135SOL    HW1 4304   3.034   2.162   3.529
 1135SOL    HW2 4305   2.969   2.253   3.410
 1136SOL     OW 4306   2.314   5.717   3.765
 1136SOL    HW1 4307   2.252   5.659   3.817
 1136SOL    HW2 4308   2.270   5.744   3.679
 1137SOL     OW 4309   1.165   1.886   6.719
 1137SOL    HW1 4310   1.122   1.831   6.791
 1137SOL    HW2 4311   1.263   1.865   6.715
 1138SOL     OW 4312   2.487   3.563   6.338
 1138SOL    HW1 4313   2.419   3.634   6.353
 1138SOL    HW2 4314   2.575   3.606   6.314
 1139SOL     OW 4315   1.283   6.386   3.156
 1139SOL    HW1 4316   1.201   6.395   3.099
 1139SOL    HW2 4317   1.255   6.370   3.251
 1140SOL     OW 4318   3.326   1.970   3.202
 1140SOL    HW1 4319   3.386   2.033   3.251
 1140SOL    HW2 4320   3.239   2.014   3.182
 1141SOL     OW 4321   5.451   5.690   5.946
 1141SOL    HW1 4322   5.393   5.701   5.865
 1141SOL    HW2 4323   5.535   5.642   5.921
 1142SOL     OW 4324   4.961   0.382   4.232
 1142SOL    HW1 4325   4.866   0.414   4.235
 1142SOL    HW2 4326   4.989   0.354   4.324
 1143SOL     OW 4327   4.390   2.197   2.776
 1143SOL    HW1 4328   4.372   2.117   2.718
 1143SOL    HW2 4329   4.317   2.207   2.843
 1144SOL     OW 4330   0.353   4.358   4.234
 1144SOL    HW1 4331   0.389   4.377   4.142
 1144SOL    HW2 4332   0.354   4.259   4.250
 1145SOL     OW 4333   7.002   5.635   4.000
 1145SOL    HW1 4334   0.020   5.597   4.085
 1145SOL    HW2 4335   6.998   5.734   4.007
 1146SOL     OW 4336   5.962   2.187   0.694
 1146SOL    HW1 4337   6.018   2.233   0.624
 1146SOL    HW2 4338   5.894   2.252   0.729
 1147SOL     OW 4339   1.008   3.595   1.936
 1147SOL    HW1 4340   0.989   3.603   2.034
 1147SOL    HW2 4341   1.107   3.589   1.922
 1148SOL     OW 4342   3.452   5.839   6.109
 1148SOL    HW1 4343   3.487   5.863   6.019
 1148SOL    HW2 4344   3.517   5.777   6.154
 1149SOL     OW 4345   6.341   3.498   3.135
 1149SOL    HW1 4346   6.435   3.532   3.140
 1149SOL    HW2 4347   6.333   3.433   3.059
 1150SOL     OW 4348   2.422   4.787   1.191
 1150SOL    HW1 4349   2.409   4.794   1.092
 1150SOL    HW2 4350   2.516   4.810   1.214
 1151SOL     OW 4351   5.796   5.703   6.156
 1151SOL    HW1 4352   5.783   5.797   6.125
 1151SOL    HW2 4353   5.717   5.675   6.211
 1152SOL     OW 4354   1.068   0.305   5.016
 1152SOL    HW1 4355   1.076   0.308   4.917
 1152SOL    HW2 4356   1.158   0.289   5.057
 1153SOL     OW 4357   2.305   6.120   3.219
 1153SOL    HW1 4358   2.324   6.218   3.215
 1153SOL    HW2 4359   2.247   6.101   3.299
 1154SOL     OW 4360   0.633   3.983   2.072
 1154SOL    HW1 4361   0.548   3.968   2.122
 1154SOL    HW2 4362   0.700   3.914   2.098
 1155SOL     OW 4363   3.166   5.907   0.491
 1155SOL    HW1 4364   3.073   5.925   0.460
 1155SOL    HW2 4365   3.211   5.844   0.428
 1156SOL     OW 4366   2.476   0.376   3.872
 1156SOL    HW1 4367   2.380   0.373   3.846
 1156SOL    HW2 4368   2.529   0.420   3.800
 1157SOL     OW 4369   6.846   2.312   4.757
 1157SOL    HW1 4370   6.845   2.380   4.683
 1157SOL    HW2 4371   6.936   2.269   4.761
 1158SOL     OW 4372   5.705   4.613   5.908
 1158SOL    HW1 4373   5.644   4.650   5.838
 1158SOL    HW2 4374   5.670   4.637   5.998
 1159SOL     OW 4375   3.375   6.565   2.652
 1159SOL    HW1 4376   3.294   6.575   2.708
 1159SOL    HW2 4377   3.429   6.650   2.655
 1160SOL     OW 4378   3.745   3.824   2.185
 1160SOL    HW1 4379   3.714   3.732   2.208
 1160SOL    HW2 4380   3.835   3.820   2.142
 1161SOL     OW 4381   5.512   0.264   4.633
 1161SOL    HW1 4382   5.544   0.303   4.547
 1161SOL    HW2 4383   5.534   0.167   4.636
 1162SOL     OW 4384   3.328   3.377   1.208
 1162SOL    HW1 4385   3.364   3.467   1.185
 1162SOL    HW2 4386   3.230   3.375   1.194
 1163SOL     OW 4387   5.082   2.067   1.779
 1163SOL    HW1 4388   5.112   1.977   1.810
 1163SOL    HW2 4389   5.132   2.091   1.695
 1164SOL     OW 4390   5.519   3.120   2.991
 1164SOL    HW1 4391   5.436   3.100   2.939
 1164SOL    HW2 4392   5.505   3.095   3.087
 1165SOL     OW 4393   0.922   3.546   3.533
 1165SOL    HW1 4394   1.002   3.529   3.591
 1165SOL    HW2 4395   0.881   3.459   3.508
 1166SOL     OW 4396   4.464   2.096   6.267
 1166SOL    HW1 4397   4.499   2.005   6.287
 1166SOL    HW2 4398   4.470   2.112   6.168
 1167SOL     OW 4399   3.734   1.166   5.433
 1167SOL    HW1 4400   3.781   1.110   5.501
 1167SOL    HW2 4401   3.769   1.146   5.342
 1168SOL     OW 4402   6.634   6.271   3.030
 1168SOL    HW1 4403   6.640   6.225   3.118
 1168SOL    HW2 4404   6.726   6.279   2.990
 1169SOL     OW 4405   0.404   3.249   1.001
 1169SOL    HW1 4406   0.475   3.318   1.011
 1169SOL    HW2 4407   0.316   3.286   1.030
 1170SOL     OW 4408   3.843   1.293   3.025
 1170SOL    HW1 4409   3.745   1.304   3.008
 1170SOL    HW2 4410   3.879   1.379   3.062
 1171SOL     OW 4411   3.268   6.311   1.082
 1171SOL    HW1 4412   3.265   6.364   1.167
 1171SOL    HW2 4413   3.202   6.349   1.017
 1172SOL     OW 4414   3.972   3.852   4.211
 1172SOL    HW1 4415   3.998   3.925   4.273
 1172SOL    HW2 4416   4.020   3.863   4.124
 1173SOL     OW 4417   3.319   0.498   5.696
 1173SOL    HW1 4418   3.416   0.476   5.683
 1173SOL    HW2 4419   3.291   0.564   5.626
 1174SOL     OW 4420   2.611   5.680   0.817
 1174SOL    HW1 4421   2.592   5.629   0.734
 1174SOL    HW2 4422   2.537   5.745   0.834
 1175SOL     OW 4423   5.787   4.377   6.679
 1175SOL    HW1 4424   5.879   4.416   6.678
 1175SOL    HW2 4425   5.791   4.282   6.709
 1176SOL     OW 4426   5.491   5.178   1.000
 1176SOL    HW1 4427   5.451   5.269   0.996
 1176SOL    HW2 4428   5.564   5.171   0.933
 1177SOL     OW 4429   6.577   2.718   5.243
 1177SOL    HW1 4430   6.597   2.761   5.331
 1177SOL    HW2 4431   6.538   2.627   5.258
 1178SOL     OW 4432   4.843   3.728   2.359
 1178SOL    HW1 4433   4.840   3.631   2.339
 1178SOL    HW2 4434   4.846   3.780   2.273
 1179SOL     OW 4435   1.842   3.706   1.037
 1179SOL    HW1 4436   1.922   3.718   1.096
 1179SOL    HW2 4437   1.868   3.724   0.942
 1180SOL     OW 4438   1.983   1.382   3.455
 1180SOL    HW1 4439   1.894   1.375   3.410
 1180SOL    HW2 4440   2.049   1.422   3.391
 1181SOL     OW 4441   0.934   4.899   4.111
 1181SOL    HW1 4442   0.884   4.892   4.197
 1181SOL    HW2 4443   0.964   4.808   4.083
 1182SOL     OW 4444   2.250   4.029   3.771
 1182SOL    HW1 4445   2.215   3.969   3.700
 1182SOL    HW2 4446   2.213   4.121   3.758
 1183SOL     OW 4447   4.421   5.687   1.415
 1183SOL    HW1 4448   4.466   5.673   1.503
 1183SOL    HW2 4449   4.324   5.665   1.424
 1184SOL     OW 4450   3.131   2.881   5.470
 1184SOL    HW1 4451   3.032   2.892   5.465
 1184SOL    HW2 4452   3.174   2.970   5.484
 1185SOL     OW 4453   2.292   0.174   0.607
 1185SOL    HW1 4454   2.232   0.094   0.613
 1185SOL    HW2 4455   2.237   0.256   0.595
 1186SOL     OW 4456   6.070   0.093   5.268
 1186SOL    HW1 4457   6.072   0.190   5.294
 1186SOL    HW2 4458   6.153   0.070   5.218
 1187SOL     OW 4459   5.648   6.252   4.588
 1187SOL    HW1 4460   5.712   6.265   4.512
 1187SOL    HW2 4461   5.625   6.341   4.627
 1188SOL     OW 4462   2.220   6.871   6.088
 1188SOL    HW1 4463   2.293   6.905   6.148
 1188SOL    HW2 4464   2.225   6.772   6.083
 1189SOL     OW 4465   5.607   1.368   1.646
 1189SOL    HW1 4466   5.589   1.317   1.562
 1189SOL    HW2 4467   5.555   1.453   1.645
 1190SOL     OW 4468   3.959   5.241   3.371
 1190SOL    HW1 4469   3.956   5.282   3.280
 1190SOL    HW2 4470   3.866   5.218   3.399
 1191SOL     OW 4471   3.052   5.170   6.080
 1191SOL    HW1 4472   2.984   5.170   6.007
 1191SOL    HW2 4473   3.006   5.180   6.168
 1192SOL     OW 4474   6.161   4.792   2.931
 1192SOL    HW1 4475   6.232   4.808   3.000
 1192SOL    HW2 4476   6.195   4.726   2.864
 1193SOL     OW 4477   5.292   6.942   4.612
 1193SOL    HW1 4478   5.254   6.867   4.666
 1193SOL    HW2 4479   5.250   6.942   4.521
 1194SOL     OW 4480   6.173   0.410   0.618
 1194SOL    HW1 4481   6.182   0.380   0.522
 1194SOL    HW2 4482   6.214   0.501   0.628
 1195SOL     OW 4483   6.315   1.092   6.428
 1195SOL    HW1 4484   6.354   1.144   6.352
 1195SOL    HW2 4485   6.307   0.996   6.403
 1196SOL     OW 4486   0.450   4.778   2.403
 1196SOL    HW1 4487   0.448   4.683   2.434
 1196SOL    HW2 4488   0.520   4.828   2.452
 1197SOL     OW 4489   3.830   6.176   5.453
 1197SOL    HW1 4490   3.753   6.112   5.455
 1197SOL    HW2 4491   3.909   6.134   5.497
 1198SOL     OW 4492   3.301   2.175   2.993
 1198SOL    HW1 4493   3.238   2.169   3.070
 1198SOL    HW2 4494   3.254   2.150   2.908
 1199SOL     OW 4495   3.002   3.524   1.926
 1199SOL    HW1 4496   3.003   3.612   1.973
 1199SOL    HW2 4497   3.019   3.451   1.992
 1200SOL     OW 4498   4.592   4.191   5.544
 1200SOL    HW1 4499   4.617   4.212   5.638
 1200SOL    HW2 4500   4.498   4.220   5.527
 1201SOL     OW 4501   1.413   1.407   4.841
 1201SOL    HW1 4502   1.415   1.313   4.875
 1201SOL    HW2 4503   1.354   1.413   4.761
 1202SOL     OW 4504   5.517   0.185   5.663
 1202SOL    HW1 4505   5.474   0.120   5.726
 1202SOL    HW2 4506   5.468   0.272   5.667
 1203SOL     OW 4507   5.558   0.522   1.052
 1203SOL    HW1 4508   5.467   0.507   1.011
 1203SOL    HW2 4509   5.575   0.620   1.059
 1204SOL     OW 4510   3.740   1.551   0.499
 1204SOL    HW1 4511   3.818   1.529   0.439
 1204SOL    HW2 4512   3.658   1.563   0.443
 1205SOL     OW 4513   5.697   2.578   5.911
 1205SOL    HW1 4514   5.748   2.652   5.868
 1205SOL    HW2 4515   5.607   2.611   5.940
 1206SOL     OW 4516   1.819   1.495   4.503
 1206SOL    HW1 4517   1.764   1.412   4.514
 1206SOL    HW2 4518   1.761   1.570   4.473
 1207SOL     OW 4519   6.127   6.829   0.347
 1207SOL    HW1 4520   6.118   6.895   0.273
 1207SOL    HW2 4521   6.048   6.835   0.407
 1208SOL     OW 4522   3.476   3.646   3.191
 1208SOL    HW1 4523   3.474   3.690   3.280
 1208SOL    HW2 4524   3.412   3.569   3.190
 1209SOL     OW 4525   6.153   6.066   5.372
 1209SOL    HW1 4526   6.091   5.989   5.379
 1209SOL    HW2 4527   6.248   6.033   5.376
 1210SOL     OW 4528   3.526   0.224   2.806
 1210SOL    HW1 4529   3.567   0.133   2.809
 1210SOL    HW2 4530   3.430   0.216   2.779
 1211SOL     OW 4531   1.330   3.459   4.351
 1211SOL    HW1 4532   1.389   3.380   4.335
 1211SOL    HW2 4533   1.257   3.459   4.283
 1212SOL     OW 4534   1.575   3.659   5.511
 1212SOL    HW1 4535   1.640   3.679   5.438
 1212SOL    HW2 4536   1.577   3.733   5.579
 1213SOL     OW 4537   6.755   2.800   5.013
 1213SOL    HW1 4538   6.696   2.750   5.077
 1213SOL    HW2 4539   6.840   2.749   4.999
 1214SOL     OW 4540   1.874   3.744   4.673
 1214SOL    HW1 4541   1.881   3.645   4.684
 1214SOL    HW2 4542   1.961   3.786   4.700
 1215SOL     OW 4543   2.563   4.683   2.450
 1215SOL    HW1 4544   2.580   4.768   2.401
 1215SOL    HW2 4545   2.537   4.703   2.544
 1216SOL     OW 4546   1.602   6.755   1.356
 1216SOL    HW1 4547   1.615   6.836   1.412
 1216SOL    HW2 4548   1.519   6.707   1.384
 1217SOL     OW 4549   1.506   6.423   0.216
 1217SOL    HW1 4550   1.542   6.495   0.275
 1217SOL    HW2 4551   1.519   6.448   0.120
 1218SOL     OW 4552   0.720   3.678   4.856
 1218SOL    HW1 4553   0.636   3.731   4.869
 1218SOL    HW2 4554   0.797   3.730   4.892
 1219SOL     OW 4555   4.283   5.571   0.451
 1219SOL    HW1 4556   4.228   5.585   0.533
 1219SOL    HW2 4557   4.349   5.646   0.442
 1220SOL     OW 4558   5.689   3.134   2.693
 1220SOL    HW1 4559   5.686   3.034   2.693
 1220SOL    HW2 4560   5.637   3.170   2.771
 1221SOL     OW 4561   5.857   3.842   0.413
 1221SOL    HW1 4562   5.872   3.781   0.491
 1221SOL    HW2 4563   5.887   3.796   0.329
 1222SOL     OW 4564   6.714   6.445   0.544
 1222SOL    HW1 4565   6.723   6.359   0.494
 1222SOL    HW2 4566   6.693   6.519   0.481
 1223SOL     OW 4567   6.098   6.467   6.344
 1223SOL    HW1 4568   6.156   6.501   6.271
 1223SOL    HW2 4569   6.115   6.520   6.427
 1224SOL     OW 4570   3.998   6.017   0.265
 1224SOL    HW1 4571   3.961   5.957   0.335
 1224SOL    HW2 4572   3.932   6.027   0.191
 1225SOL     OW 4573   4.055   1.861   0.642
 1225SOL    HW1 4574   4.049   1.784   0.706
 1225SOL    HW2 4575   4.116   1.837   0.567
 1226SOL     OW 4576   5.869   6.403   1.202
 1226SOL    HW1 4577   5.924   6.353   1.268
 1226SOL    HW2 4578   5.924   6.424   1.121
 1227SOL     OW 4579   5.738   4.344   5.693
 1227SOL    HW1 4580   5.687   4.277   5.639
 1227SOL    HW2 4581   5.746   4.312   5.788
 1228SOL     OW 4582   3.873   3.104   2.118
 1228SOL    HW1 4583   3.861   3.120   2.020
 1228SOL    HW2 4584   3.817   3.027   2.146
 1229SOL     OW 4585   2.195   6.332   2.453
 1229SOL    HW1 4586   2.244   6.407   2.498
 1229SOL    HW2 4587   2.261   6.265   2.418
 1230SOL     OW 4588   5.249   5.242   2.309
 1230SOL    HW1 4589   5.233   5.156   2.359
 1230SOL    HW2 4590   5.346   5.263   2.310
 1231SOL     OW 4591   1.429   2.520   6.017
 1231SOL    HW1 4592   1.361   2.457   5.980
 1231SOL    HW2 4593   1.417   2.530   6.115
 1232SOL     OW 4594   3.472   0.847   5.089
 1232SOL    HW1 4595   3.498   0.941   5.113
 1232SOL    HW2 4596   3.372   0.841   5.083
 1233SOL     OW 4597   1.040   4.484   3.333
 1233SOL    HW1 4598   1.054   4.580   3.308
 1233SOL    HW2 4599   0.942   4.465   3.339
 1234SOL     OW 4600   6.719   3.485   6.931
 1234SOL    HW1 4601   6.763   3.574   6.943
 1234SOL    HW2 4602   6.657   3.468   7.007
 1235SOL     OW 4603   6.077   4.779   0.185
 1235SOL    HW1 4604   6.054   4.690   0.144
 1235SOL    HW2 4605   5.995   4.835   0.191
 1236SOL     OW 4606   2.888   1.073   0.457
 1236SOL    HW1 4607   2.931   1.112   0.538
 1236SOL    HW2 4608   2.814   1.133   0.426
 1237SOL     OW 4609   1.407   0.434   4.721
 1237SOL    HW1 4610   1.474   0.466   4.655
 1237SOL    HW2 4611   1.453   0.406   4.805
 1238SOL     OW 4612   0.379   0.239   3.348
 1238SOL    HW1 4613   0.416   0.185   3.425
 1238SOL    HW2 4614   0.426   0.327   3.345
 1239SOL     OW 4615   6.459   5.469   4.485
 1239SOL    HW1 4616   6.465   5.389   4.425
 1239SOL    HW2 4617   6.516   5.454   4.566
 1240SOL     OW 4618   6.021   5.517   3.203
 1240SOL    HW1 4619   6.054   5.572   3.279
 1240SOL    HW2 4620   5.921   5.516   3.203
 1241SOL     OW 4621   6.550   5.306   4.735
 1241SOL    HW1 4622   6.548   5.405   4.747
 1241SOL    HW2 4623   6.458   5.269   4.750
 1242SOL     OW 4624   1.499   3.525   0.106
 1242SOL    HW1 4625   1.443   3.451   0.141
 1242SOL    HW2 4626   1.554   3.493   0.029
 1243SOL     OW 4627   0.948   3.889   5.634
 1243SOL    HW1 4628   0.950   3.979   5.678
 1243SOL    HW2 4629   0.950   3.818   5.705
 1244SOL     OW 4630   5.725   6.495   4.953
 1244SOL    HW1 4631   5.822   6.470   4.951
 1244SOL    HW2 4632   5.710   6.573   4.892
 1245SOL     OW 4633   5.274   6.081   0.934
 1245SOL    HW1 4634   5.286   6.013   1.007
 1245SOL    HW2 4635   5.183   6.122   0.941
 1246SOL     OW 4636   4.822   1.437   0.625
 1246SOL    HW1 4637   4.818   1.437   0.525
 1246SOL    HW2 4638   4.883   1.510   0.656
 1247SOL     OW 4639   6.690   6.668   3.763
 1247SOL    HW1 4640   6.641   6.581   3.751
 1247SOL    HW2 4641   6.689   6.718   3.676
 1248SOL     OW 4642   0.162   0.139   4.717
 1248SOL    HW1 4643   0.213   0.200   4.656
 1248SOL    HW2 4644   0.224   0.071   4.756
 1249SOL     OW 4645   0.473   4.883   1.289
 1249SOL    HW1 4646   0.427   4.829   1.360
 1249SOL    HW2 4647   0.565   4.907   1.320
 1250SOL     OW 4648   5.520   3.527   5.168
 1250SOL    HW1 4649   5.469   3.447   5.199
 1250SOL    HW2 4650   5.617   3.515   5.187
 1251SOL     OW 4651   1.848   0.872   2.603
 1251SOL    HW1 4652   1.762   0.882   2.653
 1251SOL    HW2 4653   1.864   0.955   2.549
 1252SOL     OW 4654   2.841   5.425   6.797
 1252SOL    HW1 4655   2.757   5.451   6.845
 1252SOL    HW2 4656   2.917   5.479   6.832
 1253SOL     OW 4657   2.926   0.929   0.782
 1253SOL    HW1 4658   2.925   0.869   0.702
 1253SOL    HW2 4659   2.840   0.981   0.785
 1254SOL     OW 4660   6.387   1.764   2.348
 1254SOL    HW1 4661   6.342   1.734   2.432
 1254SOL    HW2 4662   6.483   1.739   2.351
 1255SOL     OW 4663   5.343   2.373   4.832
 1255SOL    HW1 4664   5.394   2.288   4.842
 1255SOL    HW2 4665   5.276   2.381   4.906
 1256SOL     OW 4666   0.367   6.094   3.893
 1256SOL    HW1 4667   0.424   6.127   3.818
 1256SOL    HW2 4668   0.425   6.047   3.961
 1257SOL     OW 4669   0.456   4.366   3.387
 1257SOL    HW1 4670   0.458   4.354   3.287
 1257SOL    HW2 4671   0.463   4.276   3.431
 1258SOL     OW 4672   2.720   6.039   4.155
 1258SOL    HW1 4673   2.711   6.028   4.056
 1258SOL    HW2 4674   2.803   6.090   4.175
 1259SOL     OW 4675   4.717   0.561   4.945
 1259SOL    HW1 4676   4.805   0.588   4.985
 1259SOL    HW2 4677   4.658   0.524   5.017
 1260SOL     OW 4678   1.968   0.622   2.310
 1260SOL    HW1 4679   2.037   0.550   2.311
 1260SOL    HW2 4680   1.986   0.686   2.236
 1261SOL     OW 4681   0.207   3.975   6.373
 1261SOL    HW1 4682   0.211   3.906   6.445
 1261SOL    HW2 4683   0.280   3.957   6.307
 1262SOL     OW 4684   4.873   5.093   0.977
 1262SOL    HW1 4685   4.856   5.018   1.041
 1262SOL    HW2 4686   4.868   5.058   0.883
 1263SOL     OW 4687   0.011   2.424   0.701
 1263SOL    HW1 4688   6.940   2.447   0.736
 1263SOL    HW2 4689   0.048   2.347   0.753
 1264SOL     OW 4690   0.973   4.033   3.196
 1264SOL    HW1 4691   1.050   3.998   3.249
 1264SOL    HW2 4692   0.888   3.990   3.228
 1265SOL     OW 4693   0.125   3.615   4.214
 1265SOL    HW1 4694   0.088   3.679   4.147
 1265SOL    HW2 4695   0.172   3.541   4.166
 1266SOL     OW 4696   3.063   1.616   5.695
 1266SOL    HW1 4697   3.134   1.611   5.624
 1266SOL    HW2 4698   3.088   1.685   5.762
 1267SOL     OW 4699   0.054   5.446   3.026
 1267SOL    HW1 4700   0.063   5.513   3.100
 1267SOL    HW2 4701   0.135   5.450   2.967
 1268SOL     OW 4702   5.614   2.388   6.725
 1268SOL    HW1 4703   5.612   2.487   6.738
 1268SOL    HW2 4704   5.575   2.343   6.806
 1269SOL     OW 4705   6.566   6.503   4.700
 1269SOL    HW1 4706   6.651   6.528   4.747
 1269SOL    HW2 4707   6.529   6.420   4.743
 1270SOL     OW 4708   2.199   4.111   4.774
 1270SOL    HW1 4709   2.243   4.085   4.860
 1270SOL    HW2 4710   2.168   4.205   4.779
 1271SOL     OW 4711   3.323   1.842   2.889
 1271SOL    HW1 4712   3.284   1.787   2.964
 1271SOL    HW2 4713   3.289   1.936   2.895
 1272SOL     OW 4714   0.487   5.473   0.521
 1272SOL    HW1 4715   0.577   5.464   0.564
 1272SOL    HW2 4716   0.451   5.564   0.538
 1273SOL     OW 4717   2.960   4.466   0.276
 1273SOL    HW1 4718   3.025   4.524   0.324
 1273SOL    HW2 4719   3.008   4.407   0.211
 1274SOL     OW 4720   0.043   2.827   1.721
 1274SOL    HW1 4721   7.001   2.895   1.760
 1274SOL    HW2 4722   0.034   2.741   1.770
 1275SOL     OW 4723   4.477   0.773   4.148
 1275SOL    HW1 4724   4.450   0.678   4.163
 1275SOL    HW2 4725   4.576   0.778   4.133
 1276SOL     OW 4726   6.924   0.697   2.831
 1276SOL    HW1 4727   6.851   0.636   2.861
 1276SOL    HW2 4728   6.988   0.712   2.906
 1277SOL     OW 4729   0.328   1.023   4.655
 1277SOL    HW1 4730   0.245   1.060   4.696
 1277SOL    HW2 4731   0.311   0.929   4.626
 1278SOL     OW 4732   1.396   2.059   5.345
 1278SOL    HW1 4733   1.460   2.120   5.298
 1278SOL    HW2 4734   1.445   2.006   5.414
 1279SOL     OW 4735   2.835   6.583   0.745
 1279SOL    HW1 4736   2.880   6.640   0.677
 1279SOL    HW2 4737   2.837   6.488   0.715
 1280SOL     OW 4738   1.698   0.623   2.539
 1280SOL    HW1 4739   1.644   0.591   2.617
 1280SOL    HW2 4740   1.737   0.713   2.559
 1281SOL     OW 4741   1.398   5.879   2.947
 1281SOL    HW1 4742   1.394   5.907   2.852
 1281SOL    HW2 4743   1.406   5.960   3.006
 1282SOL     OW 4744   0.411   1.220   0.793
 1282SOL    HW1 4745   0.356   1.237   0.711
 1282SOL    HW2 4746   0.377   1.140   0.841
 1283SOL     OW 4747   5.448   3.826   5.571
 1283SOL    HW1 4748   5.431   3.735   5.534
 1283SOL    HW2 4749   5.377   3.848   5.638
 1284SOL     OW 4750   2.905   2.411   1.600
 1284SOL    HW1 4751   2.940   2.420   1.693
 1284SOL    HW2 4752   2.859   2.323   1.591
 1285SOL     OW 4753   5.199   3.190   6.600
 1285SOL    HW1 4754   5.270   3.152   6.540
 1285SOL    HW2 4755   5.109   3.178   6.557
 1286SOL     OW 4756   5.014   4.373   2.175
 1286SOL    HW1 4757   4.935   4.313   2.186
 1286SOL    HW2 4758   4.988   4.466   2.203
 1287SOL     OW 4759   5.953   4.944   6.412
 1287SOL    HW1 4760   6.002   4.969   6.495
 1287SOL    HW2 4761   5.900   4.861   6.428
 1288SOL     OW 4762   0.438   3.004   0.164
 1288SOL    HW1 4763   0.513   2.938   0.165
 1288SOL    HW2 4764   0.444   3.064   0.244
 1289SOL     OW 4765   0.587   6.539   2.036
 1289SOL    HW1 4766   0.610   6.579   1.948
 1289SOL    HW2 4767   0.614   6.443   2.037
 1290SOL     OW 4768   0.208   0.152   6.654
 1290SOL    HW1 4769   0.121   0.135   6.699
 1290SOL    HW2 4770   0.208   0.244   6.615
 1291SOL     OW 4771   2.426   5.130   6.250
 1291SOL    HW1 4772   2.400   5.103   6.157
 1291SOL    HW2 4773   2.462   5.051   6.300
 1292SOL     OW 4774   6.892   4.391   1.645
 1292SOL    HW1 4775   6.896   4.452   1.723
 1292SOL    HW2 4776   6.847   4.437   1.568
 1293SOL     OW 4777   2.448   1.009   6.357
 1293SOL    HW1 4778   2.401   1.001   6.269
 1293SOL    HW2 4779   2.382   1.033   6.428
 1294SOL     OW 4780   7.009   3.204   2.192
 1294SOL    HW1 4781   6.995   3.106   2.172
 1294SOL    HW2 4782   0.086   3.225   2.186
 1295SOL     OW 4783   6.079   3.805   2.758
 1295SOL    HW1 4784   6.134   3.768   2.832
 1295SOL    HW2 4785   5.984   3.814   2.788
 1296SOL     OW 4786   2.895   1.604   6.113
 1296SOL    HW1 4787   2.991   1.599   6.087
 1296SOL    HW2 4788   2.868   1.521   6.161
 1297SOL     OW 4789   5.734   1.793   5.596
 1297SOL    HW1 4790   5.736   1.773   5.694
 1297SOL    HW2 4791   5.643   1.777   5.559
 1298SOL     OW 4792   5.798   3.488   3.826
 1298SOL    HW1 4793   5.777   3.464   3.732
 1298SOL    HW2 4794   5.734   3.441   3.887
 1299SOL     OW 4795   1.994   4.162   3.416
 1299SOL    HW1 4796   2.032   4.077   3.379
 1299SOL    HW2 4797   2.056   4.199   3.485
 1300SOL     OW 4798   3.301   3.654   1.890
 1300SOL    HW1 4799   3.273   3.559   1.878
 1300SOL    HW2 4800   3.222   3.709   1.918
 1301SOL     OW 4801   1.268   6.538   3.395
 1301SOL    HW1 4802   1.214   6.602   3.341
 1301SOL    HW2 4803   1.310   6.587   3.472
 1302SOL     OW 4804   2.557   6.609   4.732
 1302SOL    HW1 4805   2.600   6.551   4.663
 1302SOL    HW2 4806   2.543   6.555   4.815
 1303SOL     OW 4807   3.682   1.344   1.077
 1303SOL    HW1 4808   3.652   1.414   1.141
 1303SOL    HW2 4809   3.601   1.300   1.036
 1304SOL     OW 4810   1.098   0.588   6.030
 1304SOL    HW1 4811   1.072   0.500   6.070
 1304SOL    HW2 4812   1.022   0.624   5.977
 1305SOL     OW 4813   5.338   6.121   5.076
 1305SOL    HW1 4814   5.251   6.095   5.116
 1305SOL    HW2 4815   5.323   6.158   4.984
 1306SOL     OW 4816   1.400   3.527   5.191
 1306SOL    HW1 4817   1.308   3.490   5.179
 1306SOL    HW2 4818   1.455   3.463   5.245
 1307SOL     OW 4819   1.746   3.205   4.821
 1307SOL    HW1 4820   1.801   3.121   4.824
 1307SOL    HW2 4821   1.684   3.208   4.898
 1308SOL     OW 4822   4.358   5.966   4.217
 1308SOL    HW1 4823   4.444   6.003   4.251
 1308SOL    HW2 4824   4.321   5.900   4.283
 1309SOL     OW 4825   6.006   3.113   5.554
 1309SOL    HW1 4826   5.997   3.097   5.652
 1309SOL    HW2 4827   5.953   3.194   5.529
 1310SOL     OW 4828   5.616   3.633   4.668
 1310SOL    HW1 4829   5.528   3.594   4.643
 1310SOL    HW2 4830   5.690   3.576   4.631
 1311SOL     OW 4831   5.637   6.855   4.140
 1311SOL    HW1 4832   5.698   6.799   4.196
 1311SOL    HW2 4833   5.692   6.913   4.079
 1312SOL     OW 4834   0.592   0.656   6.418
 1312SOL    HW1 4835   0.578   0.560   6.444
 1312SOL    HW2 4836   0.684   0.685   6.443
 1313SOL     OW 4837   3.150   5.494   5.142
 1313SOL    HW1 4838   3.153   5.584   5.097
 1313SOL    HW2 4839   3.122   5.425   5.076
 1314SOL     OW 4840   1.545   1.479   5.785
 1314SOL    HW1 4841   1.561   1.487   5.687
 1314SOL    HW2 4842   1.458   1.433   5.802
 1315SOL     OW 4843   0.952   1.007   0.666
 1315SOL    HW1 4844   0.935   0.956   0.751
 1315SOL    HW2 4845   1.050   1.012   0.649
 1316SOL     OW 4846   2.075   6.987   3.421
 1316SOL    HW1 4847   2.051   6.915   3.487
 1316SOL    HW2 4848   2.028   0.052   3.446
 1317SOL     OW 4849   0.671   4.312   4.536
 1317SOL    HW1 4850   0.742   4.244   4.556
 1317SOL    HW2 4851   0.690   4.396   4.587
 1318SOL     OW 4852   0.474   0.817   0.547
 1318SOL    HW1 4853   0.457   0.735   0.601
 1318SOL    HW2 4854   0.392   0.841   0.495
 1319SOL     OW 4855   6.401   0.928   0.432
 1319SOL    HW1 4856   6.414   0.902   0.337
 1319SOL    HW2 4857   6.315   0.890   0.466
 1320SOL     OW 4858   5.730   4.539   0.103
 1320SOL    HW1 4859   5.689   4.584   0.183
 1320SOL    HW2 4860   5.691   4.448   0.092
 1321SOL     OW 4861   4.617   3.159   7.012
 1321SOL    HW1 4862   4.554   3.083   0.009
 1321SOL    HW2 4863   4.587   3.209   6.931
 1322SOL     OW 4864   6.006   0.946   3.185
 1322SOL    HW1 4865   5.975   1.015   3.251
 1322SOL    HW2 4866   6.105   0.937   3.190
 1323SOL     OW 4867   5.465   1.764   5.500
 1323SOL    HW1 4868   5.454   1.668   5.526
 1323SOL    HW2 4869   5.391   1.791   5.439
 1324SOL     OW 4870   1.543   2.322   1.599
 1324SOL    HW1 4871   1.599   2.404   1.596
 1324SOL    HW2 4872   1.584   2.256   1.662
 1325SOL     OW 4873   1.674   6.789   2.768
 1325SOL    HW1 4874   1.688   6.699   2.726
 1325SOL    HW2 4875   1.603   6.839   2.718
 1326SOL     OW 4876   4.774   2.550   4.534
 1326SOL    HW1 4877   4.720   2.530   4.615
 1326SOL    HW2 4878   4.787   2.648   4.524
 1327SOL     OW 4879   2.495   5.041   2.406
 1327SOL    HW1 4880   2.514   4.977   2.480
 1327SOL    HW2 4881   2.397   5.042   2.387
 1328SOL     OW 4882   1.513   2.391   6.499
 1328SOL    HW1 4883   1.432   2.333   6.495
 1328SOL    HW2 4884   1.530   2.417   6.594
 1329SOL     OW 4885   6.759   1.474   0.638
 1329SOL    HW1 4886   6.767   1.573   0.625
 1329SOL    HW2 4887   6.774   1.452   0.734
 1330SOL     OW 4888   6.437   0.365   0.890
 1330SOL    HW1 4889   6.476   0.411   0.970
 1330SOL    HW2 4890   6.376   0.428   0.842
 1331SOL     OW 4891   5.176   1.286   2.685
 1331SOL    HW1 4892   5.127   1.221   2.628
 1331SOL    HW2 4893   5.248   1.239   2.735
 1332SOL     OW 4894   4.229   1.201   1.016
 1332SOL    HW1 4895   4.150   1.151   0.982
 1332SOL    HW2 4896   4.227   1.201   1.116
 1333SOL     OW 4897   3.578   4.148   5.302
 1333SOL    HW1 4898   3.673   4.117   5.298
 1333SOL    HW2 4899   3.554   4.192   5.215
 1334SOL     OW 4900   1.600   3.186   5.054
 1334SOL    HW1 4901   1.545   3.120   5.105
 1334SOL    HW2 4902   1.633   3.257   5.116
 1335SOL     OW 4903   2.424   6.743   2.691
 1335SOL    HW1 4904   2.482   6.685   2.748
 1335SOL    HW2 4905   2.401   6.827   2.741
 1336SOL     OW 4906   1.356   1.365   6.778
 1336SOL    HW1 4907   1.409   1.412   6.707
 1336SOL    HW2 4908   1.288   1.306   6.735
 1337SOL     OW 4909   1.924   2.707   5.955
 1337SOL    HW1 4910   1.955   2.615   5.930
 1337SOL    HW2 4911   1.949   2.726   6.050
 1338SOL     OW 4912   4.500   3.939   6.598
 1338SOL    HW1 4913   4.423   3.991   6.562
 1338SOL    HW2 4914   4.585   3.974   6.559
 1339SOL     OW 4915   7.000   4.715   6.841
 1339SOL    HW1 4916   6.913   4.758   6.816
 1339SOL    HW2 4917   0.056   4.771   6.808
 1340SOL     OW 4918   1.005   1.875   0.825
 1340SOL    HW1 4919   0.945   1.817   0.879
 1340SOL    HW2 4920   1.056   1.819   0.759
 1341SOL     OW 4921   3.692   1.079   5.100
 1341SOL    HW1 4922   3.650   1.041   5.017
 1341SOL    HW2 4923   3.743   1.161   5.077
 1342SOL     OW 4924   1.121   6.052   5.831
 1342SOL    HW1 4925   1.179   6.103   5.767
 1342SOL    HW2 4926   1.168   5.969   5.860
 1343SOL     OW 4927   3.371   6.707   2.344
 1343SOL    HW1 4928   3.467   6.708   2.372
 1343SOL    HW2 4929   3.341   6.612   2.332
 1344SOL     OW 4930   6.322   1.900   2.861
 1344SOL    HW1 4931   6.419   1.918   2.843
 1344SOL    HW2 4932   6.309   1.803   2.881
 1345SOL     OW 4933   0.542   1.154   3.468
 1345SOL    HW1 4934   0.582   1.217   3.402
 1345SOL    HW2 4935   0.442   1.155   3.458
 1346SOL     OW 4936   0.921   6.462   3.343
 1346SOL    HW1 4937   0.988   6.389   3.359
 1346SOL    HW2 4938   0.893   6.460   3.247
 1347SOL     OW 4939   6.563   6.795   3.027
 1347SOL    HW1 4940   6.615   6.872   2.990
 1347SOL    HW2 4941   6.565   6.720   2.961
 1348SOL     OW 4942   5.844   4.921   4.432
 1348SOL    HW1 4943   5.930   4.874   4.448
 1348SOL    HW2 4944   5.853   5.017   4.458
 1349SOL     OW 4945   4.409   2.479   0.397
 1349SOL    HW1 4946   4.467   2.456   0.476
 1349SOL    HW2 4947   4.313   2.482   0.427
 1350SOL     OW 4948   3.227   4.631   6.660
 1350SOL    HW1 4949   3.145   4.575   6.671
 1350SOL    HW2 4950   3.228   4.669   6.567
 1351SOL     OW 4951   0.727   0.475   3.003
 1351SOL    HW1 4952   0.781   0.503   2.923
 1351SOL    HW2 4953   0.716   0.553   3.065
 1352SOL     OW 4954   6.639   0.507   3.908
 1352SOL    HW1 4955   6.640   0.595   3.859
 1352SOL    HW2 4956   6.727   0.494   3.953
 1353SOL     OW 4957   6.758   4.070   5.155
 1353SOL    HW1 4958   6.686   4.069   5.224
 1353SOL    HW2 4959   6.794   3.978   5.142
 1354SOL     OW 4960   6.468   1.127   0.855
 1354SOL    HW1 4961   6.461   1.030   0.832
 1354SOL    HW2 4962   6.378   1.169   0.852
 1355SOL     OW 4963   5.394   4.371   0.792
 1355SOL    HW1 4964   5.310   4.321   0.815
 1355SOL    HW2 4965   5.465   4.306   0.764
 1356SOL     OW 4966   3.426   3.817   2.603
 1356SOL    HW1 4967   3.497   3.754   2.634
 1356SOL    HW2 4968   3.469   3.899   2.564
 1357SOL     OW 4969   2.703   3.239   6.086
 1357SOL    HW1 4970   2.608   3.218   6.063
 1357SOL    HW2 4971   2.709   3.269   6.181
 1358SOL     OW 4972   2.365   2.758   6.526
 1358SOL    HW1 4973   2.301   2.815   6.475
 1358SOL    HW2 4974   2.401   2.686   6.466
 1359SOL     OW 4975   6.121   3.857   1.950
 1359SOL    HW1 4976   6.028   3.845   1.986
 1359SOL    HW2 4977   6.115   3.890   1.856
 1360SOL     OW 4978   4.021   3.697   2.846
 1360SOL    HW1 4979   4.083   3.657   2.914
 1360SOL    HW2 4980   3.950   3.749   2.894
 1361SOL     OW 4981   0.946   6.960   6.105
 1361SOL    HW1 4982   1.030   6.974   6.052
 1361SOL    HW2 4983   0.936   6.862   6.126
 1362SOL     OW 4984   2.953   3.516   5.724
 1362SOL    HW1 4985   2.994   3.471   5.803
 1362SOL    HW2 4986   2.935   3.448   5.653
 1363SOL     OW 4987   6.601   6.058   3.245
 1363SOL    HW1 4988   6.511   6.033   3.282
 1363SOL    HW2 4989   6.655   5.975   3.232
 1364SOL     OW 4990   6.846   3.353   0.526
 1364SOL    HW1 4991   6.909   3.415   0.573
 1364SOL    HW2 4992   6.820   3.391   0.438
 1365SOL     OW 4993   1.601   3.400   5.513
 1365SOL    HW1 4994   1.536   3.355   5.575
 1365SOL    HW2 4995   1.596   3.499   5.525
 1366SOL     OW 4996   0.071   3.146   1.236
 1366SOL    HW1 4997   0.157   3.161   1.286
 1366SOL    HW2 4998   0.084   3.167   1.140
 1367SOL     OW 4999   1.456   4.402   3.714
 1367SOL    HW1 5000   1.541   4.354   3.734
 1367SOL    HW2 5001   1.475   4.498   3.695
 1368SOL     OW 5002   6.460   6.762   4.760
 1368SOL    HW1 5003   6.532   6.831   4.754
 1368SOL    HW2 5004   6.500   6.671   4.758
 1369SOL     OW 5005   2.057   6.275   2.219
 1369SOL    HW1 5006   1.982   6.338   2.202
 1369SOL    HW2 5007   2.095   6.292   2.310
 1370SOL     OW 5008   0.236   2.370   3.610
 1370SOL    HW1 5009   0.165   2.430   3.574
 1370SOL    HW2 5010   0.316   2.373   3.551
 1371SOL     OW 5011   6.150   0.917   4.359
 1371SOL    HW1 5012   6.189   0.844   4.415
 1371SOL    HW2 5013   6.128   0.996   4.417
 1372SOL     OW 5014   6.374   2.843   0.659
 1372SOL    HW1 5015   6.436   2.774   0.696
 1372SOL    HW2 5016   6.405   2.934   0.687
 1373SOL     OW 5017   4.433   2.148   1.239
 1373SOL    HW1 5018   4.466   2.205   1.314
 1373SOL    HW2 5019   4.488   2.166   1.157
 1374SOL     OW 5020   5.291   4.058   0.933
 1374SOL    HW1 5021   5.287   4.116   1.014
 1374SOL    HW2 5022   5.346   3.977   0.952
 1375SOL     OW 5023   6.624   5.534   6.290
 1375SOL    HW1 5024   6.570   5.610   6.253
 1375SOL    HW2 5025   6.626   5.459   6.224
 1376SOL     OW 5026   2.709   4.353   6.217
 1376SOL    HW1 5027   2.643   4.365   6.290
 1376SOL    HW2 5028   2.731   4.442   6.177
 1377SOL     OW 5029   1.077   2.567   3.627
 1377SOL    HW1 5030   1.092   2.573   3.725
 1377SOL    HW2 5031   1.139   2.631   3.580
 1378SOL     OW 5032   4.006   2.208   4.855
 1378SOL    HW1 5033   4.075   2.207   4.782
 1378SOL    HW2 5034   4.030   2.277   4.923
 1379SOL     OW 5035   4.935   5.820   2.165
 1379SOL    HW1 5036   4.954   5.738   2.113
 1379SOL    HW2 5037   4.911   5.796   2.259
 1380SOL     OW 5038   6.354   6.408   2.170
 1380SOL    HW1 5039   6.290   6.453   2.108
 1380SOL    HW2 5040   6.362   6.461   2.254
 1381SOL     OW 5041   5.641   2.233   6.163
 1381SOL    HW1 5042   5.726   2.216   6.114
 1381SOL    HW2 5043   5.656   2.303   6.233
 1382SOL     OW 5044   4.408   2.792   1.371
 1382SOL    HW1 5045   4.429   2.885   1.338
 1382SOL    HW2 5046   4.341   2.798   1.445
 1383SOL     OW 5047   1.714   6.341   1.622
 1383SOL    HW1 5048   1.694   6.371   1.715
 1383SOL    HW2 5049   1.681   6.247   1.610
 1384SOL     OW 5050   4.383   0.585   0.762
 1384SOL    HW1 5051   4.397   0.678   0.727
 1384SOL    HW2 5052   4.435   0.573   0.846
 1385SOL     OW 5053   2.295   4.808   3.963
 1385SOL    HW1 5054   2.267   4.799   4.059
 1385SOL    HW2 5055   2.371   4.873   3.957
 1386SOL     OW 5056   3.156   6.464   4.014
 1386SOL    HW1 5057   3.192   6.434   3.926
 1386SOL    HW2 5058   3.084   6.532   3.999
 1387SOL     OW 5059   4.000   5.628   1.237
 1387SOL    HW1 5060   3.913   5.604   1.281
 1387SOL    HW2 5061   3.982   5.656   1.142
 1388SOL     OW 5062   6.104   6.680   1.076
 1388SOL    HW1 5063   6.075   6.715   1.164
 1388SOL    HW2 5064   6.204   6.678   1.072
 1389SOL     OW 5065   5.665   1.320   3.185
 1389SOL    HW1 5066   5.617   1.405   3.165
 1389SOL    HW2 5067   5.710   1.286   3.102
 1390SOL     OW 5068   0.508   3.429   6.984
 1390SOL    HW1 5069   0.568   3.401   0.039
 1390SOL    HW2 5070   0.545   3.395   6.898
 1391SOL     OW 5071   6.605   0.757   3.814
 1391SOL    HW1 5072   6.566   0.788   3.727
 1391SOL    HW2 5073   6.584   0.823   3.886
 1392SOL     OW 5074   5.231   5.960   5.889
 1392SOL    HW1 5075   5.170   6.032   5.856
 1392SOL    HW2 5076   5.284   5.994   5.967
 1393SOL     OW 5077   6.345   5.049   5.529
 1393SOL    HW1 5078   6.362   4.986   5.453
 1393SOL    HW2 5079   6.260   5.023   5.575
 1394SOL     OW 5080   3.217   6.173   4.988
 1394SOL    HW1 5081   3.276   6.191   5.067
 1394SOL    HW2 5082   3.139   6.117   5.016
 1395SOL     OW 5083   2.384   4.224   5.947
 1395SOL    HW1 5084   2.287   4.227   5.967
 1395SOL    HW2 5085   2.399   4.245   5.850
 1396SOL     OW 5086   2.056   0.601   3.985
 1396SOL    HW1 5087   1.971   0.608   3.934
 1396SOL    HW2 5088   2.039   0.623   4.081
 1397SOL     OW 5089   0.206   0.547   3.714
 1397SOL    HW1 5090   0.302   0.570   3.698
 1397SOL    HW2 5091   0.148   0.607   3.659
 1398SOL     OW 5092   1.824   1.058   5.752
 1398SOL    HW1 5093   1.774   1.128   5.802
 1398SOL    HW2 5094   1.768   1.025   5.676
 1399SOL     OW 5095   4.160   6.737   0.910
 1399SOL    HW1 5096   4.155   6.799   0.988
 1399SOL    HW2 5097   4.073   6.690   0.898
 1400SOL     OW 5098   6.846   2.088   2.705
 1400SOL    HW1 5099   6.874   2.182   2.724
 1400SOL    HW2 5100   6.876   2.062   2.613
 1401SOL     OW 5101   6.866   1.962   5.135
 1401SOL    HW1 5102   6.876   2.053   5.095
 1401SOL    HW2 5103   6.932   1.951   5.209
 1402SOL     OW 5104   0.821   4.348   0.310
 1402SOL    HW1 5105   0.912   4.320   0.340
 1402SOL    HW2 5106   0.775   4.396   0.385
 1403SOL     OW 5107   3.059   1.311   1.557
 1403SOL    HW1 5108   3.141   1.264   1.591
 1403SOL    HW2 5109   3.084   1.403   1.525
 1404SOL     OW 5110   5.216   6.914   0.191
 1404SOL    HW1 5111   5.291   6.970   0.226
 1404SOL    HW2 5112   5.159   6.882   0.267
 1405SOL     OW 5113   1.959   3.298   1.212
 1405SOL    HW1 5114   1.864   3.280   1.186
 1405SOL    HW2 5115   1.960   3.361   1.289
 1406SOL     OW 5116   1.490   5.034   1.701
 1406SOL    HW1 5117   1.506   5.120   1.749
 1406SOL    HW2 5118   1.408   5.042   1.644
 1407SOL     OW 5119   0.848   2.058   1.748
 1407SOL    HW1 5120   0.901   2.135   1.711
 1407SOL    HW2 5121   0.792   2.090   1.824
 1408SOL     OW 5122   5.528   1.270   5.826
 1408SOL    HW1 5123   5.428   1.266   5.814
 1408SOL    HW2 5124   5.549   1.309   5.915
 1409SOL     OW 5125   0.598   0.132   5.200
 1409SOL    HW1 5126   0.680   0.098   5.156
 1409SOL    HW2 5127   0.577   0.076   5.280
 1410SOL     OW 5128   2.363   3.664   6.678
 1410SOL    HW1 5129   2.453   3.672   6.721
 1410SOL    HW2 5130   2.362   3.716   6.592
 1411SOL     OW 5131   2.951   6.435   2.642
 1411SOL    HW1 5132   2.868   6.483   2.613
 1411SOL    HW2 5133   3.014   6.500   2.685
 1412SOL     OW 5134   0.498   2.428   0.611
 1412SOL    HW1 5135   0.401   2.437   0.589
 1412SOL    HW2 5136   0.541   2.362   0.549
 1413SOL     OW 5137   2.201   0.991   4.674
 1413SOL    HW1 5138   2.173   0.896   4.670
 1413SOL    HW2 5139   2.292   1.001   4.633
 1414SOL     OW 5140   2.339   0.898   1.230
 1414SOL    HW1 5141   2.245   0.932   1.231
 1414SOL    HW2 5142   2.365   0.872   1.323
 1415SOL     OW 5143   2.600   1.066   4.794
 1415SOL    HW1 5144   2.619   1.128   4.870
 1415SOL    HW2 5145   2.537   0.994   4.823
 1416SOL     OW 5146   4.437   4.559   4.292
 1416SOL    HW1 5147   4.481   4.516   4.371
 1416SOL    HW2 5148   4.489   4.640   4.265
 1417SOL     OW 5149   2.174   1.718   0.214
 1417SOL    HW1 5150   2.201   1.787   0.147
 1417SOL    HW2 5151   2.131   1.641   0.167
 1418SOL     OW 5152   2.901   3.531   3.537
 1418SOL    HW1 5153   2.901   3.471   3.457
 1418SOL    HW2 5154   2.919   3.625   3.509
 1419SOL     OW 5155   3.283   6.274   4.549
 1419SOL    HW1 5156   3.288   6.315   4.458
 1419SOL    HW2 5157   3.362   6.216   4.564
 1420SOL     OW 5158   1.970   6.312   1.691
 1420SOL    HW1 5159   1.878   6.327   1.653
 1420SOL    HW2 5160   1.973   6.344   1.786
 1421SOL     OW 5161   1.946   3.435   3.285
 1421SOL    HW1 5162   1.853   3.438   3.320
 1421SOL    HW2 5163   1.990   3.524   3.297
 1422SOL     OW 5164   2.086   4.218   1.355
 1422SOL    HW1 5165   2.140   4.295   1.390
 1422SOL    HW2 5166   2.117   4.196   1.262
 1423SOL     OW 5167   5.075   6.647   2.844
 1423SOL    HW1 5168   5.134   6.641   2.763
 1423SOL    HW2 5169   5.103   6.725   2.900
 1424SOL     OW 5170   6.301   4.176   4.622
 1424SOL    HW1 5171   6.330   4.141   4.533
 1424SOL    HW2 5172   6.374   4.233   4.661
 1425SOL     OW 5173   1.507   6.151   4.523
 1425SOL    HW1 5174   1.567   6.074   4.504
 1425SOL    HW2 5175   1.468   6.185   4.438
 1426SOL     OW 5176   1.343   2.142   5.599
 1426SOL    HW1 5177   1.311   2.236   5.586
 1426SOL    HW2 5178   1.377   2.107   5.512
 1427SOL     OW 5179   6.960   0.097   3.206
 1427SOL    HW1 5180   6.924   0.146   3.127
 1427SOL    HW2 5181   6.894   0.100   3.281
 1428SOL     OW 5182   5.588   2.685   0.760
 1428SOL    HW1 5183   5.611   2.706   0.855
 1428SOL    HW2 5184   5.520   2.612   0.757
 1429SOL     OW 5185   5.633   2.215   0.351
 1429SOL    HW1 5186   5.704   2.242   0.286
 1429SOL    HW2 5187   5.546   2.206   0.303
 1430SOL     OW 5188   1.820   4.584   4.337
 1430SOL    HW1 5189   1.726   4.571   4.305
 1430SOL    HW2 5190   1.883   4.561   4.263
 1431SOL     OW 5191   1.842   1.899   1.226
 1431SOL    HW1 5192   1.791   1.931   1.306
 1431SOL    HW2 5193   1.871   1.978   1.171
 1432SOL     OW 5194   3.387   1.471   2.890
 1432SOL    HW1 5195   3.358   1.531   2.816
 1432SOL    HW2 5196   3.356   1.378   2.872
 1433SOL     OW 5197   4.292   1.613   3.792
 1433SOL    HW1 5198   4.276   1.627   3.889
 1433SOL    HW2 5199   4.366   1.547   3.780
 1434SOL     OW 5200   6.784   0.884   5.661
 1434SOL    HW1 5201   6.807   0.856   5.754
 1434SOL    HW2 5202   6.869   0.899   5.610
 1435SOL     OW 5203   5.504   0.865   2.330
 1435SOL    HW1 5204   5.462   0.901   2.413
 1435SOL    HW2 5205   5.597   0.833   2.351
 1436SOL     OW 5206   5.683   4.019   0.841
 1436SOL    HW1 5207   5.733   4.014   0.755
 1436SOL    HW2 5208   5.603   3.959   0.836
 1437SOL     OW 5209   2.369   2.736   3.397
 1437SOL    HW1 5210   2.271   2.723   3.414
 1437SOL    HW2 5211   2.389   2.834   3.393
 1438SOL     OW 5212   3.110   6.772   1.298
 1438SOL    HW1 5213   3.068   6.856   1.333
 1438SOL    HW2 5214   3.185   6.744   1.358
 1439SOL     OW 5215   6.775   5.417   1.148
 1439SOL    HW1 5216   6.868   5.433   1.114
 1439SOL    HW2 5217   6.717   5.385   1.073
 1440SOL     OW 5218   2.976   3.955   0.612
 1440SOL    HW1 5219   3.004   3.869   0.570
 1440SOL    HW2 5220   2.917   3.936   0.690
 1441SOL     OW 5221   5.877   0.538   2.735
 1441SOL    HW1 5222   5.960   0.593   2.741
 1441SOL    HW2 5223   5.897   0.445   2.766
 1442SOL     OW 5224   6.653   5.434   0.120
 1442SOL    HW1 5225   6.607   5.501   0.179
 1442SOL    HW2 5226   6.748   5.424   0.148
 1443SOL     OW 5227   0.748   2.363   2.469
 1443SOL    HW1 5228   0.721   2.427   2.541
 1443SOL    HW2 5229   0.831   2.395   2.425
 1444SOL     OW 5230   5.169   0.121   0.655
 1444SOL    HW1 5231   5.216   0.042   0.616
 1444SOL    HW2 5232   5.180   0.199   0.595
 1445SOL     OW 5233   1.168   3.012   2.402
 1445SOL    HW1 5234   1.103   2.978   2.470
 1445SOL    HW2 5235   1.216   3.091   2.439
 1446SOL     OW 5236   6.389   0.837   6.661
 1446SOL    HW1 5237   6.390   0.937   6.657
 1446SOL    HW2 5238   6.304   0.806   6.704
 1447SOL     OW 5239   6.180   5.499   4.205
 1447SOL    HW1 5240   6.231   5.579   4.176
 1447SOL    HW2 5241   6.146   5.450   4.125
 1448SOL     OW 5242   6.606   2.987   4.719
 1448SOL    HW1 5243   6.515   3.016   4.692
 1448SOL    HW2 5244   6.618   2.890   4.699
 1449SOL     OW 5245   1.175   4.057   5.529
 1449SOL    HW1 5246   1.190   3.990   5.602
 1449SOL    HW2 5247   1.214   4.022   5.444
 1450SOL     OW 5248   1.248   2.058   6.997
 1450SOL    HW1 5249   1.329   2.089   6.947
 1450SOL    HW2 5250   1.274   1.984   0.040
 1451SOL     OW 5251   1.487   6.329   2.691
 1451SOL    HW1 5252   1.585   6.325   2.672
 1451SOL    HW2 5253   1.471   6.387   2.771
 1452SOL     OW 5254   4.314   2.672   5.331
 1452SOL    HW1 5255   4.247   2.615   5.283
 1452SOL    HW2 5256   4.388   2.613   5.365
 1453SOL     OW 5257   0.344   4.345   5.779
 1453SOL    HW1 5258   0.424   4.390   5.740
 1453SOL    HW2 5259   0.349   4.246   5.760
 1454SOL     OW 5260   1.814   2.084   2.608
 1454SOL    HW1 5261   1.901   2.037   2.624
 1454SOL    HW2 5262   1.750   2.020   2.565
 1455SOL     OW 5263   1.933   6.826   2.297
 1455SOL    HW1 5264   1.844   6.822   2.340
 1455SOL    HW2 5265   1.949   6.742   2.245
 1456SOL     OW 5266   6.392   6.703   5.741
 1456SOL    HW1 5267   6.345   6.778   5.693
 1456SOL    HW2 5268   6.332   6.623   5.743
 1457SOL     OW 5269   1.849   4.857   0.171
 1457SOL    HW1 5270   1.787   4.934   0.186
 1457SOL    HW2 5271   1.869   4.812   0.258
 1458SOL     OW 5272   5.500   4.775   5.366
 1458SOL    HW1 5273   5.478   4.836   5.442
 1458SOL    HW2 5274   5.537   4.689   5.403
 1459SOL     OW 5275   4.198   0.053   6.024
 1459SOL    HW1 5276   4.270   0.055   6.094
 1459SOL    HW2 5277   4.110   0.033   6.067
 1460SOL     OW 5278   1.636   6.785   4.874
 1460SOL    HW1 5279   1.650   6.687   4.891
 1460SOL    HW2 5280   1.691   6.838   4.937
 1461SOL     OW 5281   0.143   4.018   3.150
 1461SOL    HW1 5282   0.176   4.016   3.245
 1461SOL    HW2 5283   0.196   4.086   3.098
 1462SOL     OW 5284   1.126   0.683   6.530
 1462SOL    HW1 5285   1.100   0.594   6.494
 1462SOL    HW2 5286   1.222   0.682   6.558
 1463SOL     OW 5287   0.941   4.770   5.688
 1463SOL    HW1 5288   1.039   4.790   5.696
 1463SOL    HW2 5289   0.929   4.676   5.656
 1464SOL     OW 5290   0.029   4.895   2.647
 1464SOL    HW1 5291   0.012   4.827   2.719
 1464SOL    HW2 5292   0.090   4.856   2.578
 1465SOL     OW 5293   1.991   1.773   3.680
 1465SOL    HW1 5294   2.085   1.785   3.712
 1465SOL    HW2 5295   1.965   1.850   3.621
 1466SOL     OW 5296   3.883   1.722   1.992
 1466SOL    HW1 5297   3.851   1.731   2.086
 1466SOL    HW2 5298   3.920   1.810   1.961
 1467SOL     OW 5299   1.979   1.185   4.113
 1467SOL    HW1 5300   1.982   1.199   4.212
 1467SOL    HW2 5301   1.981   1.273   4.067
 1468SOL     OW 5302   2.038   5.823   1.920
 1468SOL    HW1 5303   1.976   5.748   1.944
 1468SOL    HW2 5304   2.027   5.898   1.985
 1469SOL     OW 5305   6.679   6.516   2.624
 1469SOL    HW1 5306   6.770   6.480   2.646
 1469SOL    HW2 5307   6.688   6.605   2.579
 1470SOL     OW 5308   0.079   2.038   1.913
 1470SOL    HW1 5309   0.000   2.099   1.900
 1470SOL    HW2 5310   0.108   2.002   1.824
 1471SOL     OW 5311   0.983   0.444   0.325
 1471SOL    HW1 5312   1.019   0.497   0.248
 1471SOL    HW2 5313   1.058   0.401   0.375
 1472SOL     OW 5314   2.936   5.617   0.426
 1472SOL    HW1 5315   3.034   5.610   0.446
 1472SOL    HW2 5316   2.913   5.559   0.348
 1473SOL     OW 5317   2.883   5.867   5.155
 1473SOL    HW1 5318   2.809   5.800   5.152
 1473SOL    HW2 5319   2.848   5.956   5.125
 1474SOL     OW 5320   4.165   4.576   1.267
 1474SOL    HW1 5321   4.066   4.579   1.249
 1474SOL    HW2 5322   4.181   4.539   1.359
 1475SOL     OW 5323   5.506   1.200   6.913
 1475SOL    HW1 5324   5.483   1.185   6.817
 1475SOL    HW2 5325   5.528   1.296   6.927
 1476SOL     OW 5326   2.376   1.128   1.487
 1476SOL    HW1 5327   2.356   1.031   1.479
 1476SOL    HW2 5328   2.290   1.178   1.505
 1477SOL     OW 5329   3.517   6.659   0.069
 1477SOL    HW1 5330   3.475   6.740   0.111
 1477SOL    HW2 5331   3.445   6.598   0.036
 1478SOL     OW 5332   5.597   6.291   5.430
 1478SOL    HW1 5333   5.560   6.325   5.343
 1478SOL    HW2 5334   5.649   6.364   5.474
 1479SOL     OW 5335   3.279   3.280   1.470
 1479SOL    HW1 5336   3.259   3.346   1.542
 1479SOL    HW2 5337   3.298   3.329   1.385
 1480SOL     OW 5338   2.330   6.806   5.699
 1480SOL    HW1 5339   2.279   6.720   5.706
 1480SOL    HW2 5340   2.411   6.792   5.642
 1481SOL     OW 5341   5.793   3.591   5.489
 1481SOL    HW1 5342   5.713   3.591   5.549
 1481SOL    HW2 5343   5.764   3.604   5.395
 1482SOL     OW 5344   4.555   0.586   0.997
 1482SOL    HW1 5345   4.520   0.536   1.076
 1482SOL    HW2 5346   4.647   0.553   0.976
 1483SOL     OW 5347   5.855   2.436   5.232
 1483SOL    HW1 5348   5.859   2.488   5.146
 1483SOL    HW2 5349   5.764   2.395   5.241
 1484SOL     OW 5350   4.670   5.037   3.861
 1484SOL    HW1 5351   4.623   5.085   3.787
 1484SOL    HW2 5352   4.604   5.017   3.934
 1485SOL     OW 5353   5.096   0.755   4.129
 1485SOL    HW1 5354   5.034   0.812   4.182
 1485SOL    HW2 5355   5.146   0.694   4.191
 1486SOL     OW 5356   5.022   0.304   3.156
 1486SOL    HW1 5357   5.104   0.303   3.213
 1486SOL    HW2 5358   4.960   0.377   3.188
 1487SOL     OW 5359   0.179   1.650   6.936
 1487SOL    HW1 5360   0.084   1.624   6.917
 1487SOL    HW2 5361   0.232   1.568   6.957
 1488SOL     OW 5362   5.016   0.710   3.445
 1488SOL    HW1 5363   5.101   0.704   3.392
 1488SOL    HW2 5364   4.958   0.632   3.423
 1489SOL     OW 5365   4.247   4.417   5.829
 1489SOL    HW1 5366   4.243   4.398   5.927
 1489SOL    HW2 5367   4.186   4.493   5.807
 1490SOL     OW 5368   0.420   3.610   0.631
 1490SOL    HW1 5369   0.478   3.557   0.692
 1490SOL    HW2 5370   0.329   3.568   0.625
 1491SOL     OW 5371   6.498   3.731   2.581
 1491SOL    HW1 5372   6.510   3.823   2.544
 1491SOL    HW2 5373   6.580   3.677   2.563
 1492SOL     OW 5374   6.676   0.058   2.478
 1492SOL    HW1 5375   6.710   0.124   2.411
 1492SOL    HW2 5376   6.622   7.007   2.431
 1493SOL     OW 5377   3.693   0.771   6.292
 1493SOL    HW1 5378   3.722   0.845   6.353
 1493SOL    HW2 5379   3.773   0.730   6.249
 1494SOL     OW 5380   5.966   2.913   6.708
 1494SOL    HW1 5381   5.933   2.822   6.685
 1494SOL    HW2 5382   5.932   2.939   6.798
 1495SOL     OW 5383   6.758   4.389   4.582
 1495SOL    HW1 5384   6.807   4.359   4.500
 1495SOL    HW2 5385   6.785   4.483   4.605
 1496SOL     OW 5386   0.907   0.663   7.019
 1496SOL    HW1 5387   0.943   0.591   6.960
 1496SOL    HW2 5388   0.809   0.649   0.013
 1497SOL     OW 5389   5.066   2.740   2.061
 1497SOL    HW1 5390   5.085   2.657   2.010
 1497SOL    HW2 5391   4.968   2.761   2.054
 1498SOL     OW 5392   3.106   4.029   0.984
 1498SOL    HW1 5393   3.101   3.942   0.935
 1498SOL    HW2 5394   3.031   4.088   0.954
 1499SOL     OW 5395   0.439   3.348   6.538
 1499SOL    HW1 5396   0.460   3.396   6.453
 1499SOL    HW2 5397   0.451   3.250   6.525
 1500SOL     OW 5398   1.121   6.467   6.397
 1500SOL    HW1 5399   1.050   6.398   6.384
 1500SOL    HW2 5400   1.125   6.526   6.317
 1501SOL     OW 5401   6.132   1.851   6.258
 1501SOL    HW1 5402   6.206   1.862   6.192
 1501SOL    HW2 5403   6.119   1.935   6.310
 1502SOL     OW 5404   5.458   1.209   6.631
 1502SOL    HW1 5405   5.402   1.128   6.643
 1502SOL    HW2 5406   5.489   1.215   6.536
 1503SOL     OW 5407   0.738   3.400   2.653
 1503SOL    HW1 5408   0.738   3.499   2.640
 1503SOL    HW2 5409   0.674   3.376   2.726
 1504SOL     OW 5410   0.857   0.498   3.296
 1504SOL    HW1 5411   0.924   0.500   3.221
 1504SOL    HW2 5412   0.898   0.538   3.378
 1505SOL     OW 5413   5.173   0.166   5.689
 1505SOL    HW1 5414   5.251   0.105   5.699
 1505SOL    HW2 5415   5.144   0.198   5.779
 1506SOL     OW 5416   1.339   0.164   6.973
 1506SOL    HW1 5417   1.303   0.072   6.963
 1506SOL    HW2 5418   1.418   0.176   6.912
 1507SOL     OW 5419   6.596   1.880   5.021
 1507SOL    HW1 5420   6.687   1.897   5.059
 1507SOL    HW2 5421   6.565   1.960   4.969
 1508SOL     OW 5422   6.928   1.943   1.483
 1508SOL    HW1 5423   6.866   1.945   1.404
 1508SOL    HW2 5424   6.921   1.854   1.528
 1509SOL     OW 5425   4.671   2.198   4.750
 1509SOL    HW1 5426   4.753   2.226   4.700
 1509SOL    HW2 5427   4.591   2.242   4.710
 1510SOL     OW 5428   5.415   6.577   4.653
 1510SOL    HW1 5429   5.515   6.573   4.653
 1510SOL    HW2 5430   5.380   6.539   4.568
 1511SOL     OW 5431   3.433   3.263   4.227
 1511SOL    HW1 5432   3.357   3.242   4.166
 1511SOL    HW2 5433   3.424   3.356   4.261
 1512SOL     OW 5434   6.335   5.619   1.862
 1512SOL    HW1 5435   6.304   5.525   1.866
 1512SOL    HW2 5436   6.435   5.622   1.863
 1513SOL     OW 5437   3.401   0.104   4.688
 1513SOL    HW1 5438   3.334   0.038   4.653
 1513SOL    HW2 5439   3.359   0.160   4.759
 1514SOL     OW 5440   4.063   2.619   5.511
 1514SOL    HW1 5441   3.970   2.591   5.536
 1514SOL    HW2 5442   4.078   2.602   5.414
 1515SOL     OW 5443   6.336   1.256   2.514
 1515SOL    HW1 5444   6.353   1.234   2.418
 1515SOL    HW2 5445   6.286   1.342   2.520
 1516SOL     OW 5446   5.509   5.257   5.447
 1516SOL    HW1 5447   5.504   5.264   5.348
 1516SOL    HW2 5448   5.582   5.315   5.482
 1517SOL     OW 5449   4.302   6.253   3.089
 1517SOL    HW1 5450   4.237   6.177   3.088
 1517SOL    HW2 5451   4.361   6.245   3.169
 1518SOL     OW 5452   6.267   3.457   0.723
 1518SOL    HW1 5453   6.189   3.395   0.732
 1518SOL    HW2 5454   6.257   3.532   0.788
 1519SOL     OW 5455   6.709   4.558   1.166
 1519SOL    HW1 5456   6.757   4.482   1.210
 1519SOL    HW2 5457   6.698   4.539   1.069
 1520SOL     OW 5458   0.640   4.376   1.525
 1520SOL    HW1 5459   0.652   4.277   1.527
 1520SOL    HW2 5460   0.658   4.414   1.615
 1521SOL     OW 5461   1.815   4.882   6.902
 1521SOL    HW1 5462   1.790   4.825   6.824
 1521SOL    HW2 5463   1.851   4.824   6.975
 1522SOL     OW 5464   6.112   5.459   4.726
 1522SOL    HW1 5465   6.155   5.508   4.651
 1522SOL    HW2 5466   6.083   5.523   4.796
 1523SOL     OW 5467   3.665   6.675   6.607
 1523SOL    HW1 5468   3.733   6.601   6.606
 1523SOL    HW2 5469   3.709   6.760   6.636
 1524SOL     OW 5470   2.916   2.086   2.705
 1524SOL    HW1 5471   2.868   2.004   2.738
 1524SOL    HW2 5472   2.949   2.070   2.612
 1525SOL     OW 5473   5.431   3.075   0.996
 1525SOL    HW1 5474   5.363   3.145   0.974
 1525SOL    HW2 5475   5.396   2.985   0.970
 1526SOL     OW 5476   6.999   0.770   6.701
 1526SOL    HW1 5477   0.018   0.806   6.616
 1526SOL    HW2 5478   0.024   0.814   6.779
 1527SOL     OW 5479   3.489   0.888   4.490
 1527SOL    HW1 5480   3.412   0.865   4.430
 1527SOL    HW2 5481   3.566   0.919   4.434
 1528SOL     OW 5482   4.237   4.916   1.800
 1528SOL    HW1 5483   4.180   4.903   1.881
 1528SOL    HW2 5484   4.185   4.966   1.731
 1529SOL     OW 5485   4.565   1.340   6.871
 1529SOL    HW1 5486   4.555   1.270   6.941
 1529SOL    HW2 5487   4.648   1.393   6.888
 1530SOL     OW 5488   2.996   1.230   1.201
 1530SOL    HW1 5489   2.941   1.168   1.259
 1530SOL    HW2 5490   3.065   1.276   1.257
 1531SOL     OW 5491   4.635   0.931   4.997
 1531SOL    HW1 5492   4.647   1.024   4.962
 1531SOL    HW2 5493   4.701   0.914   5.070
 1532SOL     OW 5494   3.560   4.208   5.862
 1532SOL    HW1 5495   3.498   4.145   5.815
 1532SOL    HW2 5496   3.650   4.166   5.871
 1533SOL     OW 5497   5.546   5.385   0.443
 1533SOL    HW1 5498   5.588   5.459   0.391
 1533SOL    HW2 5499   5.562   5.298   0.395
 1534SOL     OW 5500   3.039   5.470   5.894
 1534SOL    HW1 5501   3.017   5.378   5.926
 1534SOL    HW2 5502   3.070   5.467   5.799
 1535SOL     OW 5503   5.499   5.819   4.602
 1535SOL    HW1 5504   5.430   5.750   4.624
 1535SOL    HW2 5505   5.485   5.900   4.659
 1536SOL     OW 5506   3.886   4.828   6.395
 1536SOL    HW1 5507   3.915   4.864   6.306
 1536SOL    HW2 5508   3.964   4.786   6.441
 1537SOL     OW 5509   4.431   5.840   3.697
 1537SOL    HW1 5510   4.394   5.770   3.759
 1537SOL    HW2 5511   4.470   5.915   3.750
 1538SOL     OW 5512   3.558   0.171   6.614
 1538SOL    HW1 5513   3.478   0.181   6.672
 1538SOL    HW2 5514   3.612   0.093   6.645
 1539SOL     OW 5515   4.835   3.049   2.432
 1539SOL    HW1 5516   4.852   3.083   2.524
 1539SOL    HW2 5517   4.840   3.126   2.367
 1540SOL     OW 5518   0.341   6.515   5.087
 1540SOL    HW1 5519   0.362   6.417   5.085
 1540SOL    HW2 5520   0.351   6.553   4.996
 1541SOL     OW 5521   3.167   3.976   4.281
 1541SOL    HW1 5522   3.256   3.931   4.271
 1541SOL    HW2 5523   3.139   3.972   4.377
 1542SOL     OW 5524   6.703   0.117   2.083
 1542SOL    HW1 5525   6.646   0.039   2.054
 1542SOL    HW2 5526   6.720   0.176   2.005
 1543SOL     OW 5527   3.750   5.429   5.328
 1543SOL    HW1 5528   3.737   5.364   5.404
 1543SOL    HW2 5529   3.751   5.522   5.364
 1544SOL     OW 5530   3.207   3.944   3.542
 1544SOL    HW1 5531   3.260   3.923   3.624
 1544SOL    HW2 5532   3.223   4.039   3.515
 1545SOL     OW 5533   4.703   0.798   2.894
 1545SOL    HW1 5534   4.635   0.869   2.912
 1545SOL    HW2 5535   4.659   0.708   2.896
 1546SOL     OW 5536   5.644   6.416   5.941
 1546SOL    HW1 5537   5.639   6.320   5.971
 1546SOL    HW2 5538   5.721   6.461   5.986
 1547SOL     OW 5539   1.343   3.478   1.472
 1547SOL    HW1 5540   1.397   3.557   1.444
 1547SOL    HW2 5541   1.401   3.414   1.522
 1548SOL     OW 5542   5.104   3.770   0.174
 1548SOL    HW1 5543   5.123   3.821   0.090
 1548SOL    HW2 5544   5.088   3.674   0.152
 1549SOL     OW 5545   3.891   1.243   2.386
 1549SOL    HW1 5546   3.894   1.342   2.368
 1549SOL    HW2 5547   3.813   1.204   2.338
 1550SOL     OW 5548   3.756   3.549   1.349
 1550SOL    HW1 5549   3.771   3.479   1.419
 1550SOL    HW2 5550   3.685   3.612   1.380
 1551SOL     OW 5551   1.868   5.139   6.825
 1551SOL    HW1 5552   1.901   5.056   6.870
 1551SOL    HW2 5553   1.786   5.117   6.772
 1552SOL     OW 5554   1.644   5.652   0.855
 1552SOL    HW1 5555   1.636   5.739   0.806
 1552SOL    HW2 5556   1.698   5.588   0.801
 1553SOL     OW 5557   6.949   1.784   6.296
 1553SOL    HW1 5558   6.859   1.749   6.323
 1553SOL    HW2 5559   6.939   1.849   6.221
 1554SOL     OW 5560   3.313   2.096   3.592
 1554SOL    HW1 5561   3.391   2.135   3.543
 1554SOL    HW2 5562   3.232   2.102   3.535
 1555SOL     OW 5563   5.819   3.325   6.642
 1555SOL    HW1 5564   5.810   3.267   6.722
 1555SOL    HW2 5565   5.851   3.270   6.564
 1556SOL     OW 5566   1.484   1.876   6.280
 1556SOL    HW1 5567   1.400   1.823   6.266
 1556SOL    HW2 5568   1.541   1.868   6.198
 1557SOL     OW 5569   2.312   3.480   5.798
 1557SOL    HW1 5570   2.225   3.458   5.843
 1557SOL    HW2 5571   2.385   3.482   5.866
 1558SOL     OW 5572   5.890   0.830   4.574
 1558SOL    HW1 5573   5.893   0.818   4.475
 1558SOL    HW2 5574   5.983   0.832   4.611
 1559SOL     OW 5575   1.849   3.185   6.728
 1559SOL    HW1 5576   1.926   3.124   6.713
 1559SOL    HW2 5577   1.778   3.137   6.780
 1560SOL     OW 5578   6.766   0.152   5.771
 1560SOL    HW1 5579   6.701   0.227   5.783
 1560SOL    HW2 5580   6.838   0.181   5.708
 1561SOL     OW 5581   4.987   6.398   3.397
 1561SOL    HW1 5582   5.011   6.392   3.494
 1561SOL    HW2 5583   5.033   6.476   3.356
 1562SOL     OW 5584   5.060   6.370   2.585
 1562SOL    HW1 5585   5.049   6.338   2.491
 1562SOL    HW2 5586   5.045   6.294   2.649
 1563SOL     OW 5587   2.966   0.689   5.462
 1563SOL    HW1 5588   2.901   0.678   5.387
 1563SOL    HW2 5589   2.920   0.731   5.540
 1564SOL     OW 5590   1.549   0.669   3.401
 1564SOL    HW1 5591   1.569   0.616   3.483
 1564SOL    HW2 5592   1.463   0.718   3.413
 1565SOL     OW 5593   4.755   4.361   3.103
 1565SOL    HW1 5594   4.674   4.417   3.089
 1565SOL    HW2 5595   4.770   4.303   3.022
 1566SOL     OW 5596   5.849   4.066   3.386
 1566SOL    HW1 5597   5.772   4.014   3.423
 1566SOL    HW2 5598   5.858   4.153   3.435
 1567SOL     OW 5599   6.223   6.184   0.560
 1567SOL    HW1 5600   6.296   6.252   0.556
 1567SOL    HW2 5601   6.135   6.229   0.542
 1568SOL     OW 5602   1.219   0.249   0.172
 1568SOL    HW1 5603   1.141   0.191   0.195
 1568SOL    HW2 5604   1.270   0.208   0.096
 1569SOL     OW 5605   4.504   6.536   3.312
 1569SOL    HW1 5606   4.488   6.464   3.245
 1569SOL    HW2 5607   4.577   6.508   3.374
 1570SOL     OW 5608   1.764   0.361   0.931
 1570SOL    HW1 5609   1.823   0.303   0.987
 1570SOL    HW2 5610   1.764   0.327   0.836
 1571SOL     OW 5611   5.657   3.283   0.948
 1571SOL    HW1 5612   5.589   3.213   0.972
 1571SOL    HW2 5613   5.742   3.238   0.921
 1572SOL     OW 5614   0.439   0.222   2.304
 1572SOL    HW1 5615   0.472   0.128   2.306
 1572SOL    HW2 5616   0.513   0.283   2.277
 1573SOL     OW 5617   4.910   1.388   1.956
 1573SOL    HW1 5618   4.869   1.419   1.870
 1573SOL    HW2 5619   4.960   1.463   1.999
 1574SOL     OW 5620   6.841   1.322   1.707
 1574SOL    HW1 5621   6.798   1.390   1.767
 1574SOL    HW2 5622   6.918   1.363   1.659
 1575SOL     OW 5623   2.611   1.495   0.649
 1575SOL    HW1 5624   2.588   1.506   0.552
 1575SOL    HW2 5625   2.535   1.448   0.695
 1576SOL     OW 5626   6.315   6.380   4.450
 1576SOL    HW1 5627   6.293   6.477   4.450
 1576SOL    HW2 5628   6.248   6.331   4.506
 1577SOL     OW 5629   3.025   1.813   4.301
 1577SOL    HW1 5630   2.973   1.887   4.345
 1577SOL    HW2 5631   2.963   1.755   4.250
 1578SOL     OW 5632   6.398   3.151   5.751
 1578SOL    HW1 5633   6.355   3.240   5.737
 1578SOL    HW2 5634   6.392   3.098   5.667
 1579SOL     OW 5635   0.317   1.587   3.215
 1579SOL    HW1 5636   0.341   1.674   3.173
 1579SOL    HW2 5637   0.290   1.602   3.310
 1580SOL     OW 5638   2.897   3.947   5.252
 1580SOL    HW1 5639   2.927   4.042   5.264
 1580SOL    HW2 5640   2.797   3.943   5.258
 1581SOL     OW 5641   0.059   4.583   4.419
 1581SOL    HW1 5642   7.007   4.550   4.357
 1581SOL    HW2 5643   0.141   4.606   4.366
 1582SOL     OW 5644   1.536   6.457   4.622
 1582SOL    HW1 5645   1.463   6.493   4.563
 1582SOL    HW2 5646   1.525   6.358   4.631
 1583SOL     OW 5647   1.345   2.411   4.101
 1583SOL    HW1 5648   1.355   2.482   4.170
 1583SOL    HW2 5649   1.423   2.415   4.038
 1584SOL     OW 5650   2.096   6.822   4.817
 1584SOL    HW1 5651   2.059   6.733   4.844
 1584SOL    HW2 5652   2.056   6.893   4.874
 1585SOL     OW 5653   5.708   1.463   3.569
 1585SOL    HW1 5654   5.723   1.510   3.481
 1585SOL    HW2 5655   5.639   1.392   3.557
 1586SOL     OW 5656   3.818   3.996   1.937
 1586SOL    HW1 5657   3.908   3.958   1.959
 1586SOL    HW2 5658   3.827   4.064   1.864
 1587SOL     OW 5659   2.947   5.144   6.343
 1587SOL    HW1 5660   2.937   5.236   6.381
 1587SOL    HW2 5661   2.952   5.077   6.417
 1588SOL     OW 5662   4.622   1.537   3.409
 1588SOL    HW1 5663   4.629   1.622   3.461
 1588SOL    HW2 5664   4.690   1.471   3.443
 1589SOL     OW 5665   5.310   4.200   3.495
 1589SOL    HW1 5666   5.218   4.195   3.536
 1589SOL    HW2 5667   5.372   4.245   3.560
 1590SOL     OW 5668   1.673   0.167   6.114
 1590SOL    HW1 5669   1.763   0.198   6.147
 1590SOL    HW2 5670   1.666   0.068   6.125
 1591SOL     OW 5671   1.663   5.290   3.283
 1591SOL    HW1 5672   1.709   5.378   3.278
 1591SOL    HW2 5673   1.708   5.233   3.352
 1592SOL     OW 5674   2.401   4.081   1.722
 1592SOL    HW1 5675   2.499   4.059   1.717
 1592SOL    HW2 5676   2.380   4.158   1.662
 1593SOL     OW 5677   0.868   6.818   3.530
 1593SOL    HW1 5678   0.805   6.877   3.481
 1593SOL    HW2 5679   0.959   6.824   3.490
 1594SOL     OW 5680   0.378   4.664   3.101
 1594SOL    HW1 5681   0.463   4.714   3.087
 1594SOL    HW2 5682   0.316   4.718   3.158
 1595SOL     OW 5683   0.345   4.689   6.347
 1595SOL    HW1 5684   0.384   4.704   6.438
 1595SOL    HW2 5685   0.419   4.680   6.280
 1596SOL     OW 5686   1.254   3.628   5.501
 1596SOL    HW1 5687   1.209   3.630   5.412
 1596SOL    HW2 5688   1.352   3.613   5.489
 1597SOL     OW 5689   2.783   5.484   0.597
 1597SOL    HW1 5690   2.850   5.554   0.571
 1597SOL    HW2 5691   2.793   5.464   0.695
 1598SOL     OW 5692   0.396   4.130   0.365
 1598SOL    HW1 5693   0.461   4.132   0.289
 1598SOL    HW2 5694   0.345   4.216   0.368
 1599SOL     OW 5695   4.644   3.447   5.651
 1599SOL    HW1 5696   4.626   3.383   5.726
 1599SOL    HW2 5697   4.570   3.441   5.584
 1600SOL     OW 5698   4.908   2.182   4.623
 1600SOL    HW1 5699   4.885   2.232   4.539
 1600SOL    HW2 5700   4.984   2.227   4.669
 1601SOL     OW 5701   0.949   5.047   4.692
 1601SOL    HW1 5702   0.934   4.950   4.711
 1601SOL    HW2 5703   1.040   5.059   4.653
 1602SOL     OW 5704   1.735   5.611   4.153
 1602SOL    HW1 5705   1.770   5.517   4.144
 1602SOL    HW2 5706   1.713   5.647   4.062
 1603SOL     OW 5707   1.398   6.141   1.956
 1603SOL    HW1 5708   1.436   6.048   1.956
 1603SOL    HW2 5709   1.303   6.137   1.925
 1604SOL     OW 5710   6.033   5.037   6.687
 1604SOL    HW1 5711   5.997   4.963   6.744
 1604SOL    HW2 5712   6.048   5.118   6.744
 1605SOL     OW 5713   6.272   0.185   1.928
 1605SOL    HW1 5714   6.227   0.100   1.902
 1605SOL    HW2 5715   6.282   0.188   2.028
 1606SOL     OW 5716   4.407   1.071   5.372
 1606SOL    HW1 5717   4.384   1.020   5.290
 1606SOL    HW2 5718   4.323   1.095   5.422
 1607SOL     OW 5719   5.266   2.583   1.307
 1607SOL    HW1 5720   5.322   2.661   1.337
 1607SOL    HW2 5721   5.174   2.592   1.346
 1608SOL     OW 5722   1.499   0.650   5.674
 1608SOL    HW1 5723   1.438   0.621   5.748
 1608SOL    HW2 5724   1.594   0.633   5.701
 1609SOL     OW 5725   5.492   1.567   6.546
 1609SOL    HW1 5726   5.578   1.583   6.594
 1609SOL    HW2 5727   5.430   1.516   6.606
 1610SOL     OW 5728   5.553   4.452   5.349
 1610SOL    HW1 5729   5.594   4.490   5.432
 1610SOL    HW2 5730   5.590   4.360   5.333
 1611SOL     OW 5731   4.032   3.549   1.746
 1611SOL    HW1 5732   4.083   3.500   1.817
 1611SOL    HW2 5733   4.073   3.639   1.731
 1612SOL     OW 5734   2.739   1.089   5.603
 1612SOL    HW1 5735   2.703   1.138   5.682
 1612SOL    HW2 5736   2.664   1.063   5.542
 1613SOL     OW 5737   2.517   5.529   1.101
 1613SOL    HW1 5738   2.583   5.558   1.170
 1613SOL    HW2 5739   2.547   5.563   1.011
 1614SOL     OW 5740   6.797   3.967   0.330
 1614SOL    HW1 5741   6.820   4.062   0.353
 1614SOL    HW2 5742   6.709   3.966   0.281
 1615SOL     OW 5743   6.714   4.889   1.488
 1615SOL    HW1 5744   6.715   4.819   1.560
 1615SOL    HW2 5745   6.619   4.911   1.465
 1616SOL     OW 5746   4.439   1.660   5.730
 1616SOL    HW1 5747   4.513   1.644   5.795
 1616SOL    HW2 5748   4.386   1.576   5.719
 1617SOL     OW 5749   5.910   0.212   2.011
 1617SOL    HW1 5750   5.890   0.296   1.962
 1617SOL    HW2 5751   5.877   0.134   1.958
 1618SOL     OW 5752   0.522   3.770   1.090
 1618SOL    HW1 5753   0.476   3.851   1.126
 1618SOL    HW2 5754   0.593   3.799   1.025
 1619SOL     OW 5755   1.680   2.612   4.130
 1619SOL    HW1 5756   1.779   2.630   4.122
 1619SOL    HW2 5757   1.651   2.551   4.057
 1620SOL     OW 5758   2.220   5.636   0.699
 1620SOL    HW1 5759   2.179   5.545   0.694
 1620SOL    HW2 5760   2.297   5.641   0.635
 1621SOL     OW 5761   0.560   0.952   6.921
 1621SOL    HW1 5762   0.611   1.021   6.871
 1621SOL    HW2 5763   0.584   0.861   6.888
 1622SOL     OW 5764   1.484   2.006   4.899
 1622SOL    HW1 5765   1.466   1.938   4.827
 1622SOL    HW2 5766   1.583   2.014   4.912
 1623SOL     OW 5767   2.614   2.843   6.239
 1623SOL    HW1 5768   2.628   2.938   6.269
 1623SOL    HW2 5769   2.620   2.782   6.318
 1624SOL     OW 5770   2.585   0.803   6.437
 1624SOL    HW1 5771   2.556   0.895   6.409
 1624SOL    HW2 5772   2.659   0.772   6.378
 1625SOL     OW 5773   1.623   5.088   2.862
 1625SOL    HW1 5774   1.603   5.110   2.767
 1625SOL    HW2 5775   1.648   5.171   2.911
 1626SOL     OW 5776   2.037   1.906   6.516
 1626SOL    HW1 5777   2.074   1.832   6.459
 1626SOL    HW2 5778   1.991   1.973   6.458
 1627SOL     OW 5779   6.779   1.841   4.433
 1627SOL    HW1 5780   6.702   1.883   4.480
 1627SOL    HW2 5781   6.831   1.786   4.499
 1628SOL     OW 5782   3.910   5.350   0.026
 1628SOL    HW1 5783   3.919   5.388   0.118
 1628SOL    HW2 5784   3.995   5.305   7.020
 1629SOL     OW 5785   2.854   2.143   3.985
 1629SOL    HW1 5786   2.833   2.050   4.015
 1629SOL    HW2 5787   2.939   2.174   4.028
 1630SOL     OW 5788   0.528   5.960   5.580
 1630SOL    HW1 5789   0.494   6.040   5.532
 1630SOL    HW2 5790   0.554   5.985   5.673
 1631SOL     OW 5791   6.924   0.583   5.673
 1631SOL    HW1 5792   6.882   0.659   5.722
 1631SOL    HW2 5793   6.930   0.504   5.734
 1632SOL     OW 5794   0.086   1.352   6.649
 1632SOL    HW1 5795   7.017   1.366   6.604
 1632SOL    HW2 5796   0.080   1.274   6.711
 1633SOL     OW 5797   5.707   2.922   2.977
 1633SOL    HW1 5798   5.664   2.838   2.942
 1633SOL    HW2 5799   5.636   2.989   2.998
 1634SOL     OW 5800   4.010   6.023   5.594
 1634SOL    HW1 5801   4.004   6.018   5.694
 1634SOL    HW2 5802   4.103   6.003   5.565
 1635SOL     OW 5803   6.288   5.238   4.754
 1635SOL    HW1 5804   6.227   5.159   4.762
 1635SOL    HW2 5805   6.235   5.320   4.733
 1636SOL     OW 5806   2.408   4.321   1.580
 1636SOL    HW1 5807   2.371   4.370   1.501
 1636SOL    HW2 5808   2.487   4.370   1.617
 1637SOL     OW 5809   6.582   1.722   2.799
 1637SOL    HW1 5810   6.664   1.761   2.757
 1637SOL    HW2 5811   6.505   1.729   2.736
 1638SOL     OW 5812   0.387   3.594   4.283
 1638SOL    HW1 5813   0.455   3.620   4.351
 1638SOL    HW2 5814   0.295   3.612   4.319
 1639SOL     OW 5815   5.397   6.088   2.427
 1639SOL    HW1 5816   5.297   6.076   2.429
 1639SOL    HW2 5817   5.441   5.999   2.439
 1640SOL     OW 5818   6.024   2.051   0.337
 1640SOL    HW1 5819   6.114   2.080   0.369
 1640SOL    HW2 5820   5.988   2.119   0.273
 1641SOL     OW 5821   5.806   3.056   4.122
 1641SOL    HW1 5822   5.848   3.078   4.034
 1641SOL    HW2 5823   5.760   2.968   4.116
 1642SOL     OW 5824   6.541   3.459   0.109
 1642SOL    HW1 5825   6.467   3.516   0.073
 1642SOL    HW2 5826   6.512   3.364   0.112
 1643SOL     OW 5827   3.546   6.228   4.711
 1643SOL    HW1 5828   3.619   6.213   4.644
 1643SOL    HW2 5829   3.497   6.142   4.727
 1644SOL     OW 5830   2.388   2.716   1.186
 1644SOL    HW1 5831   2.379   2.788   1.117
 1644SOL    HW2 5832   2.483   2.711   1.216
 1645SOL     OW 5833   3.323   6.564   5.574
 1645SOL    HW1 5834   3.315   6.466   5.555
 1645SOL    HW2 5835   3.233   6.606   5.568
 1646SOL     OW 5836   3.049   4.982   1.222
 1646SOL    HW1 5837   2.964   5.030   1.246
 1646SOL    HW2 5838   3.034   4.925   1.142
 1647SOL     OW 5839   5.668   2.212   3.778
 1647SOL    HW1 5840   5.600   2.146   3.748
 1647SOL    HW2 5841   5.719   2.176   3.856
 1648SOL     OW 5842   5.280   6.253   1.671
 1648SOL    HW1 5843   5.290   6.326   1.739
 1648SOL    HW2 5844   5.332   6.278   1.588
 1649SOL     OW 5845   3.205   0.439   2.845
 1649SOL    HW1 5846   3.274   0.460   2.914
 1649SOL    HW2 5847   3.126   0.498   2.858
 1650SOL     OW 5848   3.098   6.661   4.313
 1650SOL    HW1 5849   3.148   6.574   4.314
 1650SOL    HW2 5850   3.140   6.722   4.246
 1651SOL     OW 5851   0.462   0.679   1.202
 1651SOL    HW1 5852   0.515   0.594   1.198
 1651SOL    HW2 5853   0.511   0.751   1.153
 1652SOL     OW 5854   2.020   1.653   0.803
 1652SOL    HW1 5855   1.926   1.621   0.807
 1652SOL    HW2 5856   2.054   1.669   0.896
 1653SOL     OW 5857   0.461   5.443   1.626
 1653SOL    HW1 5858   0.476   5.401   1.716
 1653SOL    HW2 5859   0.422   5.376   1.564
 1654SOL     OW 5860   6.844   2.864   2.420
 1654SOL    HW1 5861   6.865   2.838   2.325
 1654SOL    HW2 5862   6.929   2.877   2.470
 1655SOL     OW 5863   5.655   3.701   5.892
 1655SOL    HW1 5864   5.599   3.759   5.833
 1655SOL    HW2 5865   5.735   3.751   5.923
 1656SOL     OW 5866   1.752   4.237   3.236
 1656SOL    HW1 5867   1.777   4.181   3.157
 1656SOL    HW2 5868   1.814   4.217   3.312
 1657SOL     OW 5869   0.626   1.237   5.255
 1657SOL    HW1 5870   0.652   1.243   5.159
 1657SOL    HW2 5871   0.526   1.230   5.262
 1658SOL     OW 5872   6.834   0.272   2.739
 1658SOL    HW1 5873   6.910   0.213   2.710
 1658SOL    HW2 5874   6.752   0.217   2.751
 1659SOL     OW 5875   3.343   2.068   6.209
 1659SOL    HW1 5876   3.362   2.165   6.226
 1659SOL    HW2 5877   3.251   2.058   6.170
 1660SOL     OW 5878   1.404   5.696   3.855
 1660SOL    HW1 5879   1.461   5.755   3.912
 1660SOL    HW2 5880   1.432   5.706   3.759
 1661SOL     OW 5881   3.351   1.833   1.816
 1661SOL    HW1 5882   3.344   1.752   1.758
 1661SOL    HW2 5883   3.437   1.881   1.797
 1662SOL     OW 5884   6.020   1.115   3.417
 1662SOL    HW1 5885   6.091   1.176   3.384
 1662SOL    HW2 5886   6.061   1.045   3.475
 1663SOL     OW 5887   2.637   0.520   3.241
 1663SOL    HW1 5888   2.637   0.596   3.176
 1663SOL    HW2 5889   2.555   0.464   3.227
 1664SOL     OW 5890   2.004   0.213   4.275
 1664SOL    HW1 5891   1.960   0.146   4.335
 1664SOL    HW2 5892   1.945   0.230   4.196
 1665SOL     OW 5893   0.066   1.430   3.055
 1665SOL    HW1 5894   0.104   1.340   3.076
 1665SOL    HW2 5895   0.110   1.499   3.113
 1666SOL     OW 5896   6.355   2.664   0.385
 1666SOL    HW1 5897   6.418   2.627   0.454
 1666SOL    HW2 5898   6.282   2.598   0.368
 1667SOL     OW 5899   5.270   0.208   0.334
 1667SOL    HW1 5900   5.345   0.146   0.358
 1667SOL    HW2 5901   5.304   0.302   0.332
 1668SOL     OW 5902   4.927   6.661   4.698
 1668SOL    HW1 5903   4.860   6.593   4.670
 1668SOL    HW2 5904   4.884   6.727   4.760
 1669SOL     OW 5905   6.099   6.557   0.450
 1669SOL    HW1 5906   6.025   6.609   0.409
 1669SOL    HW2 5907   6.120   6.593   0.541
 1670SOL     OW 5908   6.634   5.463   5.760
 1670SOL    HW1 5909   6.539   5.430   5.763
 1670SOL    HW2 5910   6.666   5.464   5.665
 1671SOL     OW 5911   4.224   2.641   0.948
 1671SOL    HW1 5912   4.262   2.571   1.009
 1671SOL    HW2 5913   4.236   2.731   0.989
 1672SOL     OW 5914   2.173   3.918   2.767
 1672SOL    HW1 5915   2.220   3.950   2.685
 1672SOL    HW2 5916   2.220   3.953   2.848
 1673SOL     OW 5917   0.521   2.755   4.676
 1673SOL    HW1 5918   0.594   2.701   4.717
 1673SOL    HW2 5919   0.525   2.745   4.576
 1674SOL     OW 5920   1.749   3.867   1.477
 1674SOL    HW1 5921   1.663   3.917   1.490
 1674SOL    HW2 5922   1.826   3.927   1.494
 1675SOL     OW 5923   4.750   0.235   6.488
 1675SOL    HW1 5924   4.707   0.186   6.412
 1675SOL    HW2 5925   4.753   0.333   6.469
 1676SOL     OW 5926   3.050   1.423   2.786
 1676SOL    HW1 5927   3.101   1.503   2.753
 1676SOL    HW2 5928   2.952   1.444   2.785
 1677SOL     OW 5929   5.000   1.941   5.230
 1677SOL    HW1 5930   4.988   2.039   5.217
 1677SOL    HW2 5931   4.942   1.910   5.305
 1678SOL     OW 5932   5.489   4.704   4.140
 1678SOL    HW1 5933   5.501   4.781   4.078
 1678SOL    HW2 5934   5.566   4.640   4.130
 1679SOL     OW 5935   1.755   3.737   5.275
 1679SOL    HW1 5936   1.770   3.799   5.198
 1679SOL    HW2 5937   1.842   3.699   5.306
 1680SOL     OW 5938   0.872   1.690   4.211
 1680SOL    HW1 5939   0.971   1.671   4.214
 1680SOL    HW2 5940   0.848   1.731   4.123
 1681SOL     OW 5941   6.534   5.623   1.537
 1681SOL    HW1 5942   6.458   5.687   1.544
 1681SOL    HW2 5943   6.546   5.595   1.441
 1682SOL     OW 5944   0.114   2.953   4.750
 1682SOL    HW1 5945   0.053   2.897   4.695
 1682SOL    HW2 5946   0.188   2.897   4.786
 1683SOL     OW 5947   3.885   5.025   0.629
 1683SOL    HW1 5948   3.968   5.008   0.576
 1683SOL    HW2 5949   3.825   4.945   0.624
 1684SOL     OW 5950   1.119   6.468   3.676
 1684SOL    HW1 5951   1.049   6.539   3.669
 1684SOL    HW2 5952   1.075   6.378   3.686
 1685SOL     OW 5953   1.563   1.068   6.239
 1685SOL    HW1 5954   1.632   1.105   6.302
 1685SOL    HW2 5955   1.593   0.979   6.206
 1686SOL     OW 5956   1.345   5.591   5.966
 1686SOL    HW1 5957   1.444   5.598   5.968
 1686SOL    HW2 5958   1.318   5.501   5.932
 1687SOL     OW 5959   1.985   2.933   1.772
 1687SOL    HW1 5960   2.008   2.882   1.688
 1687SOL    HW2 5961   1.957   2.868   1.843
 1688SOL     OW 5962   1.342   1.527   3.407
 1688SOL    HW1 5963   1.374   1.456   3.470
 1688SOL    HW2 5964   1.276   1.586   3.455
 1689SOL     OW 5965   3.593   1.533   2.181
 1689SOL    HW1 5966   3.678   1.586   2.186
 1689SOL    HW2 5967   3.544   1.539   2.268
 1690SOL     OW 5968   1.354   2.648   3.276
 1690SOL    HW1 5969   1.266   2.692   3.293
 1690SOL    HW2 5970   1.424   2.689   3.333
 1691SOL     OW 5971   5.054   4.053   3.190
 1691SOL    HW1 5972   5.118   4.129   3.202
 1691SOL    HW2 5973   5.045   4.032   3.093
 1692SOL     OW 5974   6.664   0.203   1.218
 1692SOL    HW1 5975   6.659   0.295   1.179
 1692SOL    HW2 5976   6.710   0.206   1.306
 1693SOL     OW 5977   1.530   2.653   2.763
 1693SOL    HW1 5978   1.499   2.740   2.801
 1693SOL    HW2 5979   1.621   2.631   2.799
 1694SOL     OW 5980   4.239   6.208   4.234
 1694SOL    HW1 5981   4.255   6.110   4.228
 1694SOL    HW2 5982   4.223   6.244   4.142
 1695SOL     OW 5983   2.797   1.687   4.703
 1695SOL    HW1 5984   2.876   1.709   4.645
 1695SOL    HW2 5985   2.713   1.701   4.651
 1696SOL     OW 5986   5.130   5.447   0.660
 1696SOL    HW1 5987   5.089   5.486   0.742
 1696SOL    HW2 5988   5.228   5.432   0.676
 1697SOL     OW 5989   0.358   6.720   1.225
 1697SOL    HW1 5990   0.446   6.758   1.251
 1697SOL    HW2 5991   0.358   6.622   1.242
 1698SOL     OW 5992   4.498   1.923   1.382
 1698SOL    HW1 5993   4.469   2.011   1.344
 1698SOL    HW2 5994   4.541   1.868   1.310
 1699SOL     OW 5995   2.736   2.166   1.642
 1699SOL    HW1 5996   2.670   2.239   1.662
 1699SOL    HW2 5997   2.778   2.135   1.727
 1700SOL     OW 5998   6.444   2.060   3.157
 1700SOL    HW1 5999   6.427   1.965   3.128
 1700SOL    HW2 6000   6.491   2.059   3.245
 1701SOL     OW 6001   5.827   2.544   4.752
 1701SOL    HW1 6002   5.753   2.503   4.699
 1701SOL    HW2 6003   5.853   2.632   4.711
 1702SOL     OW 6004   6.062   4.074   0.956
 1702SOL    HW1 6005   6.077   4.039   1.048
 1702SOL    HW2 6006   5.998   4.013   0.907
 1703SOL     OW 6007   3.192   4.049   1.968
 1703SOL    HW1 6008   3.246   4.096   2.038
 1703SOL    HW2 6009   3.145   4.116   1.911
 1704SOL     OW 6010   0.117   1.002   0.691
 1704SOL    HW1 6011   0.028   1.040   0.665
 1704SOL    HW2 6012   0.144   1.039   0.780
 1705SOL     OW 6013   3.284   2.170   1.618
 1705SOL    HW1 6014   3.319   2.247   1.671
 1705SOL    HW2 6015   3.271   2.197   1.523
 1706SOL     OW 6016   4.042   0.342   1.529
 1706SOL    HW1 6017   4.003   0.402   1.599
 1706SOL    HW2 6018   4.010   0.372   1.439
 1707SOL     OW 6019   4.104   1.602   1.826
 1707SOL    HW1 6020   4.029   1.651   1.872
 1707SOL    HW2 6021   4.068   1.550   1.749
 1708SOL     OW 6022   6.168   6.183   3.099
 1708SOL    HW1 6023   6.163   6.263   3.039
 1708SOL    HW2 6024   6.231   6.116   3.060
 1709SOL     OW 6025   2.649   6.701   1.614
 1709SOL    HW1 6026   2.566   6.718   1.561
 1709SOL    HW2 6027   2.642   6.612   1.659
 1710SOL     OW 6028   6.909   4.001   3.262
 1710SOL    HW1 6029   6.919   3.916   3.313
 1710SOL    HW2 6030   6.980   4.007   3.191
 1711SOL     OW 6031   1.303   4.283   5.105
 1711SOL    HW1 6032   1.282   4.338   5.185
 1711SOL    HW2 6033   1.397   4.300   5.076
 1712SOL     OW 6034   0.873   3.863   6.396
 1712SOL    HW1 6035   0.816   3.945   6.389
 1712SOL    HW2 6036   0.881   3.820   6.306
 1713SOL     OW 6037   2.184   2.080   1.512
 1713SOL    HW1 6038   2.189   2.111   1.416
 1713SOL    HW2 6039   2.104   2.023   1.524
 1714SOL     OW 6040   3.959   1.583   6.340
 1714SOL    HW1 6041   3.948   1.502   6.398
 1714SOL    HW2 6042   3.870   1.628   6.328
 1715SOL     OW 6043   6.958   2.930   2.897
 1715SOL    HW1 6044   0.018   2.912   2.840
 1715SOL    HW2 6045   6.877   2.941   2.839
 1716SOL     OW 6046   5.728   6.609   1.409
 1716SOL    HW1 6047   5.636   6.629   1.375
 1716SOL    HW2 6048   5.786   6.582   1.332
 1717SOL     OW 6049   2.697   6.234   6.577
 1717SOL    HW1 6050   2.657   6.324   6.594
 1717SOL    HW2 6051   2.647   6.188   6.505
 1718SOL     OW 6052   1.991   2.613   0.495
 1718SOL    HW1 6053   2.006   2.651   0.586
 1718SOL    HW2 6054   1.905   2.648   0.458
 1719SOL     OW 6055   2.437   3.734   1.226
 1719SOL    HW1 6056   2.391   3.769   1.308
 1719SOL    HW2 6057   2.465   3.811   1.168
 1720SOL     OW 6058   6.538   2.058   1.103
 1720SOL    HW1 6059   6.466   1.998   1.070
 1720SOL    HW2 6060   6.595   2.088   1.026
 1721SOL     OW 6061   1.233   6.645   2.304
 1721SOL    HW1 6062   1.156   6.589   2.335
 1721SOL    HW2 6063   1.280   6.597   2.230
 1722SOL     OW 6064   4.875   0.706   3.100
 1722SOL    HW1 6065   4.903   0.774   3.168
 1722SOL    HW2 6066   4.812   0.749   3.034
 1723SOL     OW 6067   6.691   1.736   3.915
 1723SOL    HW1 6068   6.673   1.833   3.902
 1723SOL    HW2 6069   6.650   1.683   3.841
 1724SOL     OW 6070   6.076   1.067   0.712
 1724SOL    HW1 6071   6.010   1.119   0.658
 1724SOL    HW2 6072   6.131   1.130   0.767
 1725SOL     OW 6073   3.443   4.227   0.019
 1725SOL    HW1 6074   3.530   4.210   6.993
 1725SOL    HW2 6075   3.403   4.313   7.005
 1726SOL     OW 6076   6.572   4.200   4.231
 1726SOL    HW1 6077   6.584   4.118   4.175
 1726SOL    HW2 6078   6.612   4.278   4.184
 1727SOL     OW 6079   3.645   3.142   4.324
 1727SOL    HW1 6080   3.716   3.211   4.305
 1727SOL    HW2 6081   3.559   3.171   4.282
 1728SOL     OW 6082   5.034   4.570   4.280
 1728SOL    HW1 6083   4.999   4.664   4.279
 1728SOL    HW2 6084   5.130   4.571   4.253
 1729SOL     OW 6085   2.127   3.878   3.568
 1729SOL    HW1 6086   2.127   3.781   3.593
 1729SOL    HW2 6087   2.033   3.912   3.565
 1730SOL     OW 6088   6.673   0.684   5.513
 1730SOL    HW1 6089   6.707   0.764   5.562
 1730SOL    HW2 6090   6.613   0.713   5.438
 1731SOL     OW 6091   1.353   5.039   2.246
 1731SOL    HW1 6092   1.254   5.028   2.260
 1731SOL    HW2 6093   1.371   5.130   2.208
 1732SOL     OW 6094   2.275   4.108   6.528
 1732SOL    HW1 6095   2.369   4.085   6.502
 1732SOL    HW2 6096   2.232   4.160   6.454
 1733SOL     OW 6097   1.937   3.284   2.397
 1733SOL    HW1 6098   2.010   3.283   2.329
 1733SOL    HW2 6099   1.977   3.270   2.488
 1734SOL     OW 6100   4.359   3.093   1.755
 1734SOL    HW1 6101   4.427   3.064   1.823
 1734SOL    HW2 6102   4.322   3.012   1.709
 1735SOL     OW 6103   5.873   5.605   1.961
 1735SOL    HW1 6104   5.882   5.506   1.970
 1735SOL    HW2 6105   5.795   5.636   2.016
 1736SOL     OW 6106   5.009   2.424   0.272
 1736SOL    HW1 6107   4.966   2.339   0.241
 1736SOL    HW2 6108   5.108   2.416   0.263
 1737SOL     OW 6109   2.759   0.268   3.906
 1737SOL    HW1 6110   2.670   0.298   3.871
 1737SOL    HW2 6111   2.756   0.262   4.006
 1738SOL     OW 6112   2.263   2.802   3.699
 1738SOL    HW1 6113   2.211   2.727   3.660
 1738SOL    HW2 6114   2.247   2.807   3.798
 1739SOL     OW 6115   4.635   2.544   4.750
 1739SOL    HW1 6116   4.635   2.525   4.848
 1739SOL    HW2 6117   4.554   2.501   4.709
 1740SOL     OW 6118   0.279   1.077   6.657
 1740SOL    HW1 6119   0.281   1.024   6.742
 1740SOL    HW2 6120   0.218   1.032   6.591
 1741SOL     OW 6121   2.311   1.284   2.694
 1741SOL    HW1 6122   2.248   1.213   2.663
 1741SOL    HW2 6123   2.260   1.367   2.717
 1742SOL     OW 6124   3.889   5.980   6.078
 1742SOL    HW1 6125   3.980   5.975   6.035
 1742SOL    HW2 6126   3.824   5.929   6.022
 1743SOL     OW 6127   1.762   1.311   2.290
 1743SOL    HW1 6128   1.837   1.370   2.261
 1743SOL    HW2 6129   1.710   1.356   2.362
 1744SOL     OW 6130   1.412   0.073   1.870
 1744SOL    HW1 6131   1.498   0.114   1.839
 1744SOL    HW2 6132   1.381   0.121   1.952
 1745SOL     OW 6133   6.336   1.393   4.564
 1745SOL    HW1 6134   6.309   1.467   4.502
 1745SOL    HW2 6135   6.320   1.422   4.658
 1746SOL     OW 6136   2.286   5.588   5.673
 1746SOL    HW1 6137   2.320   5.652   5.604
 1746SOL    HW2 6138   2.325   5.498   5.657
 1747SOL     OW 6139   5.234   7.005   2.286
 1747SOL    HW1 6140   5.317   6.983   2.235
 1747SOL    HW2 6141   5.259   0.011   2.380
 1748SOL     OW 6142   6.580   0.926   4.048
 1748SOL    HW1 6143   6.565   1.018   4.084
 1748SOL    HW2 6144   6.657   0.883   4.096
 1749SOL     OW 6145   3.820   6.433   5.565
 1749SOL    HW1 6146   3.801   6.338   5.541
 1749SOL    HW2 6147   3.895   6.467   5.508
 1750SOL     OW 6148   4.899   0.953   3.267
 1750SOL    HW1 6149   4.994   0.946   3.234
 1750SOL    HW2 6150   4.841   0.989   3.194
 1751SOL     OW 6151   2.962   4.847   4.421
 1751SOL    HW1 6152   2.962   4.825   4.519
 1751SOL    HW2 6153   2.917   4.774   4.370
 1752SOL     OW 6154   6.340   2.677   1.869
 1752SOL    HW1 6155   6.337   2.730   1.954
 1752SOL    HW2 6156   6.431   2.686   1.827
 1753SOL     OW 6157   0.526   1.192   0.482
 1753SOL    HW1 6158   0.534   1.096   0.456
 1753SOL    HW2 6159   0.432   1.211   0.512
 1754SOL     OW 6160   3.607   3.190   0.860
 1754SOL    HW1 6161   3.568   3.282   0.864
 1754SOL    HW2 6162   3.661   3.174   0.943
 1755SOL     OW 6163   5.627   5.353   1.595
 1755SOL    HW1 6164   5.616   5.446   1.628
 1755SOL    HW2 6165   5.717   5.318   1.622
 1756SOL     OW 6166   5.585   4.781   5.104
 1756SOL    HW1 6167   5.662   4.717   5.101
 1756SOL    HW2 6168   5.539   4.774   5.193
 1757SOL     OW 6169   2.383   6.835   4.778
 1757SOL    HW1 6170   2.435   6.751   4.763
 1757SOL    HW2 6171   2.290   6.812   4.806
 1758SOL     OW 6172   2.375   0.654   3.885
 1758SOL    HW1 6173   2.326   0.689   3.965
 1758SOL    HW2 6174   2.427   0.572   3.910
 1759SOL     OW 6175   0.174   5.269   6.417
 1759SOL    HW1 6176   0.078   5.275   6.445
 1759SOL    HW2 6177   0.229   5.242   6.496
 1760SOL     OW 6178   6.085   1.646   1.357
 1760SOL    HW1 6179   6.049   1.554   1.347
 1760SOL    HW2 6180   6.141   1.669   1.277
 1761SOL     OW 6181   6.984   6.988   0.307
 1761SOL    HW1 6182   6.973   6.897   0.267
 1761SOL    HW2 6183   6.941   6.990   0.398
 1762SOL     OW 6184   6.451   2.058   5.481
 1762SOL    HW1 6185   6.376   2.081   5.418
 1762SOL    HW2 6186   6.432   1.969   5.523
 1763SOL     OW 6187   1.467   4.028   4.070
 1763SOL    HW1 6188   1.508   4.014   4.161
 1763SOL    HW2 6189   1.451   3.939   4.027
 1764SOL     OW 6190   2.141   3.663   2.715
 1764SOL    HW1 6191   2.157   3.754   2.752
 1764SOL    HW2 6192   2.100   3.604   2.785
 1765SOL     OW 6193   3.046   1.790   6.533
 1765SOL    HW1 6194   3.071   1.700   6.570
 1765SOL    HW2 6195   3.115   1.818   6.467
 1766SOL     OW 6196   5.357   2.894   3.857
 1766SOL    HW1 6197   5.260   2.870   3.860
 1766SOL    HW2 6198   5.367   2.990   3.829
 1767SOL     OW 6199   4.835   3.954   2.515
 1767SOL    HW1 6200   4.845   3.883   2.445
 1767SOL    HW2 6201   4.926   3.987   2.541
 1768SOL     OW 6202   3.942   0.899   4.875
 1768SOL    HW1 6203   3.938   0.800   4.860
 1768SOL    HW2 6204   3.852   0.939   4.858
 1769SOL     OW 6205   4.129   2.266   4.300
 1769SOL    HW1 6206   4.104   2.267   4.203
 1769SOL    HW2 6207   4.223   2.296   4.310
 1770SOL     OW 6208   2.170   6.084   5.171
 1770SOL    HW1 6209   2.125   6.108   5.085
 1770SOL    HW2 6210   2.108   6.028   5.226
 1771SOL     OW 6211   2.683   5.617   6.545
 1771SOL    HW1 6212   2.777   5.645   6.565
 1771SOL    HW2 6213   2.620   5.670   6.603
 1772SOL     OW 6214   3.272   6.785   4.118
 1772SOL    HW1 6215   3.262   6.776   4.019
 1772SOL    HW2 6216   3.354   6.737   4.148
 1773SOL     OW 6217   2.174   4.982   5.678
 1773SOL    HW1 6218   2.194   4.895   5.721
 1773SOL    HW2 6219   2.244   5.003   5.609
 1774SOL     OW 6220   4.319   6.160   1.660
 1774SOL    HW1 6221   4.358   6.202   1.743
 1774SOL    HW2 6222   4.369   6.192   1.580
 1775SOL     OW 6223   1.655   4.133   3.525
 1775SOL    HW1 6224   1.625   4.219   3.484
 1775SOL    HW2 6225   1.657   4.062   3.455
 1776SOL     OW 6226   2.950   6.602   3.925
 1776SOL    HW1 6227   2.995   6.675   3.874
 1776SOL    HW2 6228   2.889   6.551   3.864
 1777SOL     OW 6229   3.939   5.109   5.910
 1777SOL    HW1 6230   3.983   5.198   5.910
 1777SOL    HW2 6231   3.914   5.084   5.816
 1778SOL     OW 6232   4.247   3.539   5.795
 1778SOL    HW1 6233   4.265   3.443   5.777
 1778SOL    HW2 6234   4.202   3.580   5.716
 1779SOL     OW 6235   4.563   0.977   4.563
 1779SOL    HW1 6236   4.651   0.930   4.568
 1779SOL    HW2 6237   4.575   1.073   4.586
 1780SOL     OW 6238   3.613   2.956   6.793
 1780SOL    HW1 6239   3.703   2.996   6.810
 1780SOL    HW2 6240   3.560   3.016   6.733
 1781SOL     OW 6241   4.144   5.803   3.624
 1781SOL    HW1 6242   4.118   5.893   3.590
 1781SOL    HW2 6243   4.243   5.801   3.640
 1782SOL     OW 6244   3.148   1.793   2.419
 1782SOL    HW1 6245   3.189   1.716   2.370
 1782SOL    HW2 6246   3.064   1.820   2.374
 1783SOL     OW 6247   1.708   5.313   5.879
 1783SOL    HW1 6248   1.725   5.245   5.949
 1783SOL    HW2 6249   1.670   5.269   5.797
 1784SOL     OW 6250   4.332   1.376   6.018
 1784SOL    HW1 6251   4.294   1.440   6.084
 1784SOL    HW2 6252   4.282   1.383   5.932
 1785SOL     OW 6253   6.172   4.118   3.431
 1785SOL    HW1 6254   6.212   4.043   3.377
 1785SOL    HW2 6255   6.152   4.195   3.370
 1786SOL     OW 6256   2.523   2.256   6.743
 1786SOL    HW1 6257   2.568   2.346   6.745
 1786SOL    HW2 6258   2.544   2.207   6.828
 1787SOL     OW 6259   3.084   0.832   5.222
 1787SOL    HW1 6260   3.015   0.776   5.268
 1787SOL    HW2 6261   3.107   0.791   5.134
 1788SOL     OW 6262   2.903   2.727   0.316
 1788SOL    HW1 6263   2.815   2.679   0.324
 1788SOL    HW2 6264   2.938   2.717   0.223
 1789SOL     OW 6265   5.981   1.831   3.110
 1789SOL    HW1 6266   5.883   1.842   3.092
 1789SOL    HW2 6267   6.027   1.810   3.024
 1790SOL     OW 6268   4.237   6.022   3.953
 1790SOL    HW1 6269   4.309   6.008   4.021
 1790SOL    HW2 6270   4.279   6.029   3.862
 1791SOL     OW 6271   5.779   0.904   3.040
 1791SOL    HW1 6272   5.692   0.874   3.080
 1791SOL    HW2 6273   5.842   0.931   3.113
 1792SOL     OW 6274   6.588   3.474   4.827
 1792SOL    HW1 6275   6.502   3.515   4.856
 1792SOL    HW2 6276   6.591   3.469   4.727
 1793SOL     OW 6277   6.084   6.855   3.378
 1793SOL    HW1 6278   6.008   6.793   3.398
 1793SOL    HW2 6279   6.170   6.803   3.377
 1794SOL     OW 6280   5.463   6.128   5.598
 1794SOL    HW1 6281   5.439   6.178   5.680
 1794SOL    HW2 6282   5.524   6.183   5.541
 1795SOL     OW 6283   0.976   1.793   0.455
 1795SOL    HW1 6284   0.879   1.781   0.476
 1795SOL    HW2 6285   1.029   1.797   0.540
 1796SOL     OW 6286   2.435   0.806   4.569
 1796SOL    HW1 6287   2.528   0.768   4.572
 1796SOL    HW2 6288   2.369   0.731   4.560
 1797SOL     OW 6289   1.797   6.576   0.432
 1797SOL    HW1 6290   1.779   6.566   0.530
 1797SOL    HW2 6291   1.718   6.620   0.389
 1798SOL     OW 6292   5.010   2.774   3.543
 1798SOL    HW1 6293   5.033   2.869   3.520
 1798SOL    HW2 6294   5.081   2.714   3.507
 1799SOL     OW 6295   6.916   2.579   6.018
 1799SOL    HW1 6296   6.882   2.492   6.053
 1799SOL    HW2 6297   6.906   2.581   5.918
 1800SOL     OW 6298   3.902   4.806   1.927
 1800SOL    HW1 6299   3.939   4.738   1.863
 1800SOL    HW2 6300   3.802   4.800   1.927
 1801SOL     OW 6301   0.184   0.422   1.752
 1801SOL    HW1 6302   0.241   0.453   1.676
 1801SOL    HW2 6303   0.193   0.323   1.762
 1802SOL     OW 6304   5.520   5.489   3.480
 1802SOL    HW1 6305   5.574   5.438   3.414
 1802SOL    HW2 6306   5.554   5.583   3.484
 1803SOL     OW 6307   0.680   5.840   6.984
 1803SOL    HW1 6308   0.725   5.763   6.939
 1803SOL    HW2 6309   0.646   5.904   6.914
 1804SOL     OW 6310   2.627   3.910   5.296
 1804SOL    HW1 6311   2.584   3.905   5.386
 1804SOL    HW2 6312   2.556   3.904   5.225
 1805SOL     OW 6313   5.870   3.992   6.153
 1805SOL    HW1 6314   5.861   3.982   6.252
 1805SOL    HW2 6315   5.784   3.965   6.109
 1806SOL     OW 6316   0.537   0.248   0.185
 1806SOL    HW1 6317   0.534   0.305   0.267
 1806SOL    HW2 6318   0.446   0.242   0.145
 1807SOL     OW 6319   5.518   2.590   4.883
 1807SOL    HW1 6320   5.480   2.681   4.871
 1807SOL    HW2 6321   5.447   2.521   4.866
 1808SOL     OW 6322   0.082   4.452   5.808
 1808SOL    HW1 6323   0.175   4.416   5.799
 1808SOL    HW2 6324   0.029   4.396   5.871
 1809SOL     OW 6325   2.106   2.313   4.930
 1809SOL    HW1 6326   2.062   2.365   4.857
 1809SOL    HW2 6327   2.046   2.309   5.010
 1810SOL     OW 6328   2.460   6.766   3.344
 1810SOL    HW1 6329   2.389   6.695   3.339
 1810SOL    HW2 6330   2.420   6.851   3.377
 1811SOL     OW 6331   6.037   5.356   4.012
 1811SOL    HW1 6332   5.978   5.277   4.027
 1811SOL    HW2 6333   6.072   5.355   3.918
 1812SOL     OW 6334   4.656   6.305   4.856
 1812SOL    HW1 6335   4.726   6.364   4.815
 1812SOL    HW2 6336   4.651   6.219   4.805
 1813SOL     OW 6337   6.382   4.563   1.063
 1813SOL    HW1 6338   6.354   4.636   1.125
 1813SOL    HW2 6339   6.394   4.478   1.114
 1814SOL     OW 6340   5.805   0.257   1.470
 1814SOL    HW1 6341   5.903   0.273   1.460
 1814SOL    HW2 6342   5.755   0.339   1.441
 1815SOL     OW 6343   0.426   1.907   2.503
 1815SOL    HW1 6344   0.444   1.909   2.405
 1815SOL    HW2 6345   0.511   1.927   2.552
 1816SOL     OW 6346   3.058   3.396   1.191
 1816SOL    HW1 6347   3.027   3.317   1.244
 1816SOL    HW2 6348   3.037   3.480   1.241
 1817SOL     OW 6349   2.709   6.935   2.633
 1817SOL    HW1 6350   2.797   6.981   2.617
 1817SOL    HW2 6351   2.637   6.985   2.586
 1818SOL     OW 6352   1.426   6.764   2.587
 1818SOL    HW1 6353   1.327   6.772   2.601
 1818SOL    HW2 6354   1.450   6.667   2.574
 1819SOL     OW 6355   1.432   4.258   1.479
 1819SOL    HW1 6356   1.343   4.304   1.471
 1819SOL    HW2 6357   1.453   4.242   1.575
 1820SOL     OW 6358   4.235   1.026   2.767
 1820SOL    HW1 6359   4.274   1.116   2.749
 1820SOL    HW2 6360   4.185   0.994   2.687
 1821SOL     OW 6361   0.873   0.987   1.659
 1821SOL    HW1 6362   0.808   0.919   1.624
 1821SOL    HW2 6363   0.822   1.065   1.696
 1822SOL     OW 6364   2.703   3.038   1.214
 1822SOL    HW1 6365   2.779   3.048   1.278
 1822SOL    HW2 6366   2.662   2.948   1.223
 1823SOL     OW 6367   3.238   5.893   3.120
 1823SOL    HW1 6368   3.225   5.979   3.169
 1823SOL    HW2 6369   3.336   5.874   3.111
 1824SOL     OW 6370   3.347   2.373   1.001
 1824SOL    HW1 6371   3.366   2.276   1.016
 1824SOL    HW2 6372   3.299   2.411   1.081
 1825SOL     OW 6373   1.247   1.237   2.620
 1825SOL    HW1 6374   1.195   1.240   2.534
 1825SOL    HW2 6375   1.310   1.160   2.619
 1826SOL     OW 6376   2.835   0.537   1.672
 1826SOL    HW1 6377   2.739   0.521   1.696
 1826SOL    HW2 6378   2.846   0.632   1.641
 1827SOL     OW 6379   0.033   5.175   2.232
 1827SOL    HW1 6380   0.085   5.153   2.314
 1827SOL    HW2 6381   0.060   5.113   2.158
 1828SOL     OW 6382   0.305   2.768   0.308
 1828SOL    HW1 6383   0.357   2.807   0.385
 1828SOL    HW2 6384   0.332   2.813   0.223
 1829SOL     OW 6385   4.113   7.012   2.910
 1829SOL    HW1 6386   4.048   0.005   2.985
 1829SOL    HW2 6387   4.155   0.080   2.888
 1830SOL     OW 6388   5.608   5.570   4.215
 1830SOL    HW1 6389   5.577   5.658   4.251
 1830SOL    HW2 6390   5.533   5.504   4.221
 1831SOL     OW 6391   6.109   0.273   3.024
 1831SOL    HW1 6392   6.022   0.272   2.974
 1831SOL    HW2 6393   6.122   0.184   3.069
 1832SOL     OW 6394   5.859   1.907   0.714
 1832SOL    HW1 6395   5.880   2.005   0.716
 1832SOL    HW2 6396   5.834   1.881   0.620
 1833SOL     OW 6397   5.628   0.946   5.247
 1833SOL    HW1 6398   5.606   0.906   5.159
 1833SOL    HW2 6399   5.724   0.926   5.269
 1834SOL     OW 6400   3.242   3.774   0.228
 1834SOL    HW1 6401   3.339   3.752   0.219
 1834SOL    HW2 6402   3.188   3.692   0.210
 1835SOL     OW 6403   1.860   4.422   2.265
 1835SOL    HW1 6404   1.858   4.440   2.167
 1835SOL    HW2 6405   1.886   4.506   2.313
 1836SOL     OW 6406   6.109   1.668   0.930
 1836SOL    HW1 6407   6.019   1.696   0.962
 1836SOL    HW2 6408   6.171   1.659   1.008
 1837SOL     OW 6409   0.467   2.579   3.501
 1837SOL    HW1 6410   0.526   2.503   3.472
 1837SOL    HW2 6411   0.435   2.628   3.420
 1838SOL     OW 6412   0.241   2.082   3.716
 1838SOL    HW1 6413   0.229   2.173   3.677
 1838SOL    HW2 6414   0.290   2.090   3.803
 1839SOL     OW 6415   4.443   2.345   4.704
 1839SOL    HW1 6416   4.389   2.348   4.788
 1839SOL    HW2 6417   4.391   2.297   4.633
 1840SOL     OW 6418   3.620   6.164   1.338
 1840SOL    HW1 6419   3.609   6.225   1.416
 1840SOL    HW2 6420   3.707   6.184   1.292
 1841SOL     OW 6421   2.425   2.710   4.607
 1841SOL    HW1 6422   2.514   2.755   4.608
 1841SOL    HW2 6423   2.385   2.713   4.698
 1842SOL     OW 6424   1.149   5.724   0.537
 1842SOL    HW1 6425   1.191   5.812   0.559
 1842SOL    HW2 6426   1.221   5.654   0.528
 1843SOL     OW 6427   1.103   2.194   4.460
 1843SOL    HW1 6428   1.182   2.151   4.502
 1843SOL    HW2 6429   1.043   2.124   4.421
 1844SOL     OW 6430   3.780   0.733   5.610
 1844SOL    HW1 6431   3.779   0.655   5.674
 1844SOL    HW2 6432   3.778   0.699   5.516
 1845SOL     OW 6433   2.416   7.011   5.874
 1845SOL    HW1 6434   2.377   6.932   5.826
 1845SOL    HW2 6435   2.358   0.071   5.857
 1846SOL     OW 6436   3.583   1.985   0.163
 1846SOL    HW1 6437   3.596   2.017   0.069
 1846SOL    HW2 6438   3.561   1.887   0.161
 1847SOL     OW 6439   1.678   1.069   6.869
 1847SOL    HW1 6440   1.627   1.125   6.934
 1847SOL    HW2 6441   1.615   1.032   6.800
 1848SOL     OW 6442   1.900   6.608   2.476
 1848SOL    HW1 6443   1.846   6.536   2.432
 1848SOL    HW2 6444   1.955   6.656   2.408
 1849SOL     OW 6445   4.089   1.409   0.576
 1849SOL    HW1 6446   4.012   1.414   0.640
 1849SOL    HW2 6447   4.174   1.399   0.628
 1850SOL     OW 6448   6.721   2.668   2.537
 1850SOL    HW1 6449   6.758   2.741   2.480
 1850SOL    HW2 6450   6.790   2.640   2.605
 1851SOL     OW 6451   0.207   1.373   0.951
 1851SOL    HW1 6452   0.277   1.342   0.887
 1851SOL    HW2 6453   0.245   1.445   1.009
 1852SOL     OW 6454   5.133   3.923   1.335
 1852SOL    HW1 6455   5.070   3.872   1.277
 1852SOL    HW2 6456   5.083   3.961   1.413
 1853SOL     OW 6457   0.811   2.869   2.407
 1853SOL    HW1 6458   0.897   2.879   2.457
 1853SOL    HW2 6459   0.830   2.838   2.314
 1854SOL     OW 6460   2.784   5.923   3.621
 1854SOL    HW1 6461   2.803   5.991   3.692
 1854SOL    HW2 6462   2.700   5.873   3.644
 1855SOL     OW 6463   4.399   4.121   0.047
 1855SOL    HW1 6464   4.329   4.054   0.073
 1855SOL    HW2 6465   4.394   4.138   6.969
 1856SOL     OW 6466   6.468   3.236   5.302
 1856SOL    HW1 6467   6.484   3.212   5.206
 1856SOL    HW2 6468   6.445   3.333   5.309
 1857SOL     OW 6469   3.447   1.089   5.721
 1857SOL    HW1 6470   3.434   0.991   5.735
 1857SOL    HW2 6471   3.448   1.109   5.623
 1858SOL     OW 6472   5.902   3.026   3.855
 1858SOL    HW1 6473   5.843   2.986   3.784
 1858SOL    HW2 6474   5.964   3.092   3.813
 1859SOL     OW 6475   4.082   1.598   3.584
 1859SOL    HW1 6476   4.099   1.506   3.617
 1859SOL    HW2 6477   4.020   1.594   3.505
 1860SOL     OW 6478   6.090   0.462   3.793
 1860SOL    HW1 6479   6.023   0.411   3.740
 1860SOL    HW2 6480   6.150   0.397   3.841
 1861SOL     OW 6481   4.837   6.502   2.707
 1861SOL    HW1 6482   4.910   6.449   2.664
 1861SOL    HW2 6483   4.872   6.550   2.787
 1862SOL     OW 6484   2.352   0.193   6.678
 1862SOL    HW1 6485   2.390   0.274   6.723
 1862SOL    HW2 6486   2.253   0.202   6.669
 1863SOL     OW 6487   2.125   2.095   0.212
 1863SOL    HW1 6488   2.171   2.181   0.193
 1863SOL    HW2 6489   2.034   2.113   0.248
 1864SOL     OW 6490   1.375   6.721   5.377
 1864SOL    HW1 6491   1.318   6.759   5.451
 1864SOL    HW2 6492   1.344   6.628   5.356
 1865SOL     OW 6493   3.578   0.165   5.734
 1865SOL    HW1 6494   3.529   0.238   5.780
 1865SOL    HW2 6495   3.520   0.083   5.730
 1866SOL     OW 6496   4.268   4.686   2.772
 1866SOL    HW1 6497   4.241   4.769   2.723
 1866SOL    HW2 6498   4.239   4.693   2.867
 1867SOL     OW 6499   1.222   4.479   0.712
 1867SOL    HW1 6500   1.249   4.548   0.645
 1867SOL    HW2 6501   1.273   4.494   0.797
 1868SOL     OW 6502   4.663   4.341   0.557
 1868SOL    HW1 6503   4.641   4.248   0.585
 1868SOL    HW2 6504   4.757   4.363   0.585
 1869SOL     OW 6505   6.846   2.184   5.015
 1869SOL    HW1 6506   6.880   2.236   5.093
 1869SOL    HW2 6507   6.860   2.237   4.931
 1870SOL     OW 6508   2.022   3.460   5.925
 1870SOL    HW1 6509   2.058   3.374   5.961
 1870SOL    HW2 6510   1.934   3.481   5.968
 1871SOL     OW 6511   1.042   0.070   6.582
 1871SOL    HW1 6512   1.092   0.143   6.630
 1871SOL    HW2 6513   0.964   0.040   6.637
 1872SOL     OW 6514   3.653   3.264   6.602
 1872SOL    HW1 6515   3.635   3.354   6.561
 1872SOL    HW2 6516   3.573   3.205   6.590
 1873SOL     OW 6517   4.588   1.209   5.176
 1873SOL    HW1 6518   4.497   1.205   5.135
 1873SOL    HW2 6519   4.583   1.254   5.264
 1874SOL     OW 6520   2.332   0.940   0.936
 1874SOL    HW1 6521   2.365   1.009   0.872
 1874SOL    HW2 6522   2.395   0.934   1.014
 1875SOL     OW 6523   0.503   1.267   6.953
 1875SOL    HW1 6524   0.573   1.243   7.020
 1875SOL    HW2 6525   0.539   1.254   6.860
 1876SOL     OW 6526   3.727   0.414   5.970
 1876SOL    HW1 6527   3.763   0.491   6.023
 1876SOL    HW2 6528   3.642   0.382   6.011
 1877SOL     OW 6529   0.873   0.281   2.569
 1877SOL    HW1 6530   0.921   0.301   2.654
 1877SOL    HW2 6531   0.884   0.357   2.505
 1878SOL     OW 6532   6.899   1.603   3.983
 1878SOL    HW1 6533   6.810   1.648   3.981
 1878SOL    HW2 6534   6.966   1.664   4.025
 1879SOL     OW 6535   1.006   4.120   4.205
 1879SOL    HW1 6536   0.973   4.025   4.210
 1879SOL    HW2 6537   1.033   4.151   4.296
 1880SOL     OW 6538   6.677   1.607   5.013
 1880SOL    HW1 6539   6.620   1.537   4.970
 1880SOL    HW2 6540   6.632   1.696   5.005
 1881SOL     OW 6541   5.464   2.562   3.025
 1881SOL    HW1 6542   5.552   2.584   2.983
 1881SOL    HW2 6543   5.414   2.498   2.966
 1882SOL     OW 6544   0.982   4.300   6.789
 1882SOL    HW1 6545   0.885   4.278   6.780
 1882SOL    HW2 6546   1.008   4.368   6.720
 1883SOL     OW 6547   6.292   2.164   2.908
 1883SOL    HW1 6548   6.290   2.064   2.916
 1883SOL    HW2 6549   6.386   2.195   2.898
 1884SOL     OW 6550   0.227   2.082   0.137
 1884SOL    HW1 6551   0.231   1.982   0.142
 1884SOL    HW2 6552   0.320   2.119   0.130
 1885SOL     OW 6553   1.807   1.920   6.679
 1885SOL    HW1 6554   1.773   2.012   6.658
 1885SOL    HW2 6555   1.900   1.909   6.642
 1886SOL     OW 6556   1.252   0.390   2.022
 1886SOL    HW1 6557   1.337   0.350   2.056
 1886SOL    HW2 6558   1.207   0.326   1.960
 1887SOL     OW 6559   0.721   5.185   5.535
 1887SOL    HW1 6560   0.776   5.178   5.451
 1887SOL    HW2 6561   0.665   5.267   5.531
 1888SOL     OW 6562   3.362   2.653   6.715
 1888SOL    HW1 6563   3.437   2.586   6.712
 1888SOL    HW2 6564   3.275   2.606   6.699
 1889SOL     OW 6565   0.230   3.885   5.072
 1889SOL    HW1 6566   0.247   3.846   5.163
 1889SOL    HW2 6567   0.256   3.981   5.072
 1890SOL     OW 6568   1.683   5.362   3.932
 1890SOL    HW1 6569   1.692   5.455   3.897
 1890SOL    HW2 6570   1.730   5.299   3.870
 1891SOL     OW 6571   4.697   2.608   1.641
 1891SOL    HW1 6572   4.648   2.693   1.664
 1891SOL    HW2 6573   4.668   2.576   1.551
 1892SOL     OW 6574   0.586   6.646   2.292
 1892SOL    HW1 6575   0.590   6.616   2.197
 1892SOL    HW2 6576   0.491   6.664   2.318
 1893SOL     OW 6577   3.510   2.834   2.049
 1893SOL    HW1 6578   3.500   2.929   2.079
 1893SOL    HW2 6579   3.443   2.814   1.978
 1894SOL     OW 6580   3.811   3.382   3.699
 1894SOL    HW1 6581   3.892   3.324   3.687
 1894SOL    HW2 6582   3.778   3.374   3.792
 1895SOL     OW 6583   4.101   7.009   0.603
 1895SOL    HW1 6584   4.125   0.029   0.515
 1895SOL    HW2 6585   4.013   6.962   0.596
 1896SOL     OW 6586   5.993   1.921   1.398
 1896SOL    HW1 6587   5.915   1.901   1.457
 1896SOL    HW2 6588   6.013   1.843   1.339
 1897SOL     OW 6589   2.384   5.324   1.648
 1897SOL    HW1 6590   2.463   5.271   1.680
 1897SOL    HW2 6591   2.361   5.297   1.555
 1898SOL     OW 6592   1.883   4.671   3.572
 1898SOL    HW1 6593   1.968   4.639   3.531
 1898SOL    HW2 6594   1.806   4.639   3.518
 1899SOL     OW 6595   0.255   1.877   0.328
 1899SOL    HW1 6596   0.195   1.844   0.402
 1899SOL    HW2 6597   0.312   1.952   0.363
 1900SOL     OW 6598   2.169   0.613   0.082
 1900SOL    HW1 6599   2.160   0.691   0.020
 1900SOL    HW2 6600   2.129   0.532   0.039
 1901SOL     OW 6601   2.195   2.083   0.855
 1901SOL    HW1 6602   2.198   2.159   0.921
 1901SOL    HW2 6603   2.284   2.075   0.810
 1902SOL     OW 6604   2.352   0.949   4.345
 1902SOL    HW1 6605   2.388   0.922   4.435
 1902SOL    HW2 6606   2.296   0.875   4.308
 1903SOL     OW 6607   0.875   3.107   2.869
 1903SOL    HW1 6608   0.838   3.120   2.777
 1903SOL    HW2 6609   0.917   3.192   2.900
 1904SOL     OW 6610   5.551   5.337   3.245
 1904SOL    HW1 6611   5.475   5.277   3.270
 1904SOL    HW2 6612   5.533   5.379   3.156
 1905SOL     OW 6613   0.649   0.346   3.579
 1905SOL    HW1 6614   0.624   0.424   3.521
 1905SOL    HW2 6615   0.734   0.367   3.627
 1906SOL     OW 6616   3.121   0.963   5.800
 1906SOL    HW1 6617   3.106   0.877   5.850
 1906SOL    HW2 6618   3.120   0.945   5.702
 1907SOL     OW 6619   4.329   2.508   1.188
 1907SOL    HW1 6620   4.326   2.413   1.219
 1907SOL    HW2 6621   4.332   2.569   1.267
 1908SOL     OW 6622   3.697   6.006   6.270
 1908SOL    HW1 6623   3.631   6.059   6.216
 1908SOL    HW2 6624   3.787   6.012   6.229
 1909SOL     OW 6625   0.789   3.247   3.518
 1909SOL    HW1 6626   0.848   3.226   3.596
 1909SOL    HW2 6627   0.783   3.167   3.458
 1910SOL     OW 6628   0.106   6.009   5.666
 1910SOL    HW1 6629   0.137   5.992   5.573
 1910SOL    HW2 6630   0.007   6.023   5.667
 1911SOL     OW 6631   0.008   3.702   4.459
 1911SOL    HW1 6632   0.056   3.657   4.384
 1911SOL    HW2 6633   0.052   3.789   4.480
 1912SOL     OW 6634   2.986   5.870   2.010
 1912SOL    HW1 6635   3.053   5.807   1.971
 1912SOL    HW2 6636   2.991   5.958   1.963
 1913SOL     OW 6637   2.845   0.807   5.009
 1913SOL    HW1 6638   2.764   0.761   4.973
 1913SOL    HW2 6639   2.868   0.769   5.099
 1914SOL     OW 6640   3.777   3.403   0.222
 1914SOL    HW1 6641   3.822   3.322   0.262
 1914SOL    HW2 6642   3.682   3.406   0.254
 1915SOL     OW 6643   4.856   3.080   6.037
 1915SOL    HW1 6644   4.924   3.099   6.108
 1915SOL    HW2 6645   4.845   2.981   6.027
 1916SOL     OW 6646   4.725   6.341   1.158
 1916SOL    HW1 6647   4.825   6.345   1.159
 1916SOL    HW2 6648   4.688   6.424   1.201
 1917SOL     OW 6649   2.417   3.246   0.031
 1917SOL    HW1 6650   2.368   3.175   0.080
 1917SOL    HW2 6651   2.393   3.243   6.953
 1918SOL     OW 6652   0.522   0.973   4.830
 1918SOL    HW1 6653   0.584   0.914   4.777
 1918SOL    HW2 6654   0.451   1.008   4.769
 1919SOL     OW 6655   1.767   1.402   1.459
 1919SOL    HW1 6656   1.768   1.463   1.380
 1919SOL    HW2 6657   1.796   1.453   1.540
 1920SOL     OW 6658   6.095   3.653   2.992
 1920SOL    HW1 6659   6.182   3.702   2.983
 1920SOL    HW2 6660   6.098   3.595   3.074
 1921SOL     OW 6661   1.737   2.975   6.915
 1921SOL    HW1 6662   1.641   2.947   6.914
 1921SOL    HW2 6663   1.791   2.912   6.860
 1922SOL     OW 6664   2.832   3.440   1.706
 1922SOL    HW1 6665   2.881   3.498   1.772
 1922SOL    HW2 6666   2.884   3.356   1.691
 1923SOL     OW 6667   4.088   1.379   6.823
 1923SOL    HW1 6668   4.182   1.372   6.789
 1923SOL    HW2 6669   4.082   1.453   6.890
 1924SOL     OW 6670   4.733   0.159   0.668
 1924SOL    HW1 6671   4.643   0.172   0.627
 1924SOL    HW2 6672   4.750   0.061   0.680
 1925SOL     OW 6673   1.402   4.749   1.819
 1925SOL    HW1 6674   1.345   4.691   1.760
 1925SOL    HW2 6675   1.426   4.833   1.770
 1926SOL     OW 6676   2.974   0.264   2.021
 1926SOL    HW1 6677   2.924   0.349   2.003
 1926SOL    HW2 6678   3.027   0.274   2.105
 1927SOL     OW 6679   2.396   3.789   0.544
 1927SOL    HW1 6680   2.480   3.736   0.546
 1927SOL    HW2 6681   2.322   3.737   0.586
 1928SOL     OW 6682   5.323   5.028   4.225
 1928SOL    HW1 6683   5.264   4.986   4.294
 1928SOL    HW2 6684   5.356   4.957   4.163
 1929SOL     OW 6685   2.215   0.564   1.778
 1929SOL    HW1 6686   2.121   0.576   1.809
 1929SOL    HW2 6687   2.277   0.612   1.839
 1930SOL     OW 6688   5.529   3.194   6.813
 1930SOL    HW1 6689   5.487   3.110   6.846
 1930SOL    HW2 6690   5.626   3.195   6.837
 1931SOL     OW 6691   1.085   2.097   6.546
 1931SOL    HW1 6692   1.042   2.156   6.613
 1931SOL    HW2 6693   1.137   2.025   6.592
 1932SOL     OW 6694   4.735   2.748   3.512
 1932SOL    HW1 6695   4.833   2.758   3.491
 1932SOL    HW2 6696   4.712   2.804   3.591
 1933SOL     OW 6697   0.866   2.123   0.461
 1933SOL    HW1 6698   0.921   2.096   0.382
 1933SOL    HW2 6699   0.886   2.218   0.484
 1934SOL     OW 6700   0.344   1.145   5.306
 1934SOL    HW1 6701   0.310   1.232   5.339
 1934SOL    HW2 6702   0.391   1.097   5.380
 1935SOL     OW 6703   4.509   4.792   3.667
 1935SOL    HW1 6704   4.586   4.782   3.730
 1935SOL    HW2 6705   4.438   4.847   3.710
 1936SOL     OW 6706   4.866   3.700   4.078
 1936SOL    HW1 6707   4.841   3.790   4.114
 1936SOL    HW2 6708   4.834   3.692   3.984
 1937SOL     OW 6709   4.451   6.297   0.189
 1937SOL    HW1 6710   4.374   6.352   0.219
 1937SOL    HW2 6711   4.424   6.200   0.186
 1938SOL     OW 6712   0.807   1.939   0.651
 1938SOL    HW1 6713   0.836   1.998   0.576
 1938SOL    HW2 6714   0.872   1.946   0.727
 1939SOL     OW 6715   0.395   6.230   4.396
 1939SOL    HW1 6716   0.307   6.207   4.354
 1939SOL    HW2 6717   0.434   6.149   4.440
 1940SOL     OW 6718   5.915   4.529   1.408
 1940SOL    HW1 6719   5.909   4.539   1.508
 1940SOL    HW2 6720   5.826   4.499   1.373
 1941SOL     OW 6721   1.072   2.888   3.628
 1941SOL    HW1 6722   1.148   2.842   3.582
 1941SOL    HW2 6723   1.102   2.918   3.718
 1942SOL     OW 6724   5.430   4.133   2.713
 1942SOL    HW1 6725   5.404   4.127   2.809
 1942SOL    HW2 6726   5.505   4.070   2.694
 1943SOL     OW 6727   1.225   1.608   2.536
 1943SOL    HW1 6728   1.297   1.676   2.521
 1943SOL    HW2 6729   1.250   1.549   2.613
 1944SOL     OW 6730   6.380   4.316   7.001
 1944SOL    HW1 6731   6.402   4.270   6.916
 1944SOL    HW2 6732   6.454   4.304   0.047
 1945SOL     OW 6733   3.680   6.801   1.327
 1945SOL    HW1 6734   3.737   6.771   1.403
 1945SOL    HW2 6735   3.622   6.877   1.357
 1946SOL     OW 6736   5.723   6.173   1.649
 1946SOL    HW1 6737   5.743   6.107   1.577
 1946SOL    HW2 6738   5.624   6.189   1.653
 1947SOL     OW 6739   6.293   5.798   4.181
 1947SOL    HW1 6740   6.232   5.876   4.165
 1947SOL    HW2 6741   6.343   5.811   4.266
 1948SOL     OW 6742   5.559   4.437   2.857
 1948SOL    HW1 6743   5.557   4.535   2.837
 1948SOL    HW2 6744   5.529   4.385   2.777
 1949SOL     OW 6745   4.121   4.078   0.362
 1949SOL    HW1 6746   4.210   4.120   0.343
 1949SOL    HW2 6747   4.074   4.131   0.432
 1950SOL     OW 6748   4.034   3.203   3.656
 1950SOL    HW1 6749   3.982   3.118   3.656
 1950SOL    HW2 6750   4.043   3.237   3.563
 1951SOL     OW 6751   6.628   4.132   5.506
 1951SOL    HW1 6752   6.714   4.179   5.525
 1951SOL    HW2 6753   6.586   4.103   5.593
 1952SOL     OW 6754   4.955   4.503   1.403
 1952SOL    HW1 6755   4.988   4.577   1.344
 1952SOL    HW2 6756   5.021   4.428   1.402
 1953SOL     OW 6757   0.137   1.363   6.129
 1953SOL    HW1 6758   0.229   1.328   6.109
 1953SOL    HW2 6759   0.069   1.292   6.109
 1954SOL     OW 6760   5.596   0.764   1.892
 1954SOL    HW1 6761   5.526   0.717   1.837
 1954SOL    HW2 6762   5.552   0.821   1.961
 1955SOL     OW 6763   0.145   1.375   1.321
 1955SOL    HW1 6764   0.235   1.341   1.297
 1955SOL    HW2 6765   0.078   1.343   1.254
 1956SOL     OW 6766   4.663   7.013   2.595
 1956SOL    HW1 6767   4.759   7.002   2.619
 1956SOL    HW2 6768   4.613   6.931   2.621
 1957SOL     OW 6769   5.137   3.444   4.242
 1957SOL    HW1 6770   5.149   3.541   4.266
 1957SOL    HW2 6771   5.193   3.388   4.303
 1958SOL     OW 6772   4.760   1.684   1.318
 1958SOL    HW1 6773   4.734   1.678   1.221
 1958SOL    HW2 6774   4.809   1.770   1.334
 1959SOL     OW 6775   6.412   6.363   3.998
 1959SOL    HW1 6776   6.344   6.299   3.963
 1959SOL    HW2 6777   6.368   6.449   4.024
 1960SOL     OW 6778   6.960   2.683   3.070
 1960SOL    HW1 6779   6.918   2.772   3.054
 1960SOL    HW2 6780   7.016   2.658   2.990
 1961SOL     OW 6781   6.214   4.552   4.342
 1961SOL    HW1 6782   6.186   4.627   4.282
 1961SOL    HW2 6783   6.262   4.588   4.422
 1962SOL     OW 6784   1.133   5.834   2.694
 1962SOL    HW1 6785   1.191   5.757   2.666
 1962SOL    HW2 6786   1.073   5.859   2.618
 1963SOL     OW 6787   0.651   1.572   1.213
 1963SOL    HW1 6788   0.575   1.520   1.174
 1963SOL    HW2 6789   0.677   1.532   1.301
 1964SOL     OW 6790   5.189   4.622   1.935
 1964SOL    HW1 6791   5.183   4.687   1.859
 1964SOL    HW2 6792   5.114   4.557   1.928
 1965SOL     OW 6793   1.174   3.430   4.094
 1965SOL    HW1 6794   1.239   3.364   4.055
 1965SOL    HW2 6795   1.091   3.382   4.123
 1966SOL     OW 6796   1.650   4.817   0.898
 1966SOL    HW1 6797   1.633   4.896   0.956
 1966SOL    HW2 6798   1.666   4.736   0.955
 1967SOL     OW 6799   6.912   2.073   3.870
 1967SOL    HW1 6800   6.915   2.058   3.771
 1967SOL    HW2 6801   6.989   2.026   3.913
 1968SOL     OW 6802   2.517   1.086   5.458
 1968SOL    HW1 6803   2.486   1.107   5.550
 1968SOL    HW2 6804   2.494   1.161   5.396
 1969SOL     OW 6805   3.244   0.992   2.056
 1969SOL    HW1 6806   3.221   1.088   2.038
 1969SOL    HW2 6807   3.192   0.933   1.994
 1970SOL     OW 6808   6.590   6.595   5.105
 1970SOL    HW1 6809   6.688   6.611   5.096
 1970SOL    HW2 6810   6.568   6.504   5.070
 1971SOL     OW 6811   0.599   7.007   5.467
 1971SOL    HW1 6812   0.653   0.053   5.519
 1971SOL    HW2 6813   0.631   6.914   5.488
 1972SOL     OW 6814   5.558   2.350   1.400
 1972SOL    HW1 6815   5.604   2.293   1.468
 1972SOL    HW2 6816   5.463   2.364   1.428
 1973SOL     OW 6817   2.241   3.870   1.695
 1973SOL    HW1 6818   2.172   3.942   1.692
 1973SOL    HW2 6819   2.331   3.910   1.680
 1974SOL     OW 6820   4.567   6.836   4.595
 1974SOL    HW1 6821   4.524   6.748   4.618
 1974SOL    HW2 6822   4.502   6.910   4.612
 1975SOL     OW 6823   2.202   3.044   3.945
 1975SOL    HW1 6824   2.155   3.100   4.014
 1975SOL    HW2 6825   2.300   3.045   3.963
 1976SOL     OW 6826   5.846   0.011   6.759
 1976SOL    HW1 6827   5.830   0.102   6.720
 1976SOL    HW2 6828   5.764   7.001   6.809
 1977SOL     OW 6829   2.739   3.315   6.358
 1977SOL    HW1 6830   2.742   3.409   6.324
 1977SOL    HW2 6831   2.751   3.314   6.457
 1978SOL     OW 6832   1.985   5.784   3.104
 1978SOL    HW1 6833   1.885   5.782   3.099
 1978SOL    HW2 6834   2.024   5.753   3.016
 1979SOL     OW 6835   6.173   4.973   7.000
 1979SOL    HW1 6836   6.111   4.908   0.024
 1979SOL    HW2 6837   6.266   4.957   0.013
 1980SOL     OW 6838   3.281   0.608   2.571
 1980SOL    HW1 6839   3.371   0.601   2.527
 1980SOL    HW2 6840   3.292   0.652   2.660
 1981SOL     OW 6841   5.372   2.706   2.699
 1981SOL    HW1 6842   5.427   2.639   2.748
 1981SOL    HW2 6843   5.276   2.678   2.699
 1982SOL     OW 6844   0.126   4.224   4.030
 1982SOL    HW1 6845   0.033   4.193   4.009
 1982SOL    HW2 6846   0.124   4.282   4.111
 1983SOL     OW 6847   0.557   0.113   0.789
 1983SOL    HW1 6848   0.631   0.107   0.856
 1983SOL    HW2 6849   0.470   0.090   0.833
 1984SOL     OW 6850   5.135   2.424   5.009
 1984SOL    HW1 6851   5.040   2.414   4.980
 1984SOL    HW2 6852   5.163   2.519   4.998
 1985SOL     OW 6853   6.435   5.268   1.864
 1985SOL    HW1 6854   6.524   5.297   1.899
 1985SOL    HW2 6855   6.380   5.229   1.938
 1986SOL     OW 6856   2.742   1.133   6.483
 1986SOL    HW1 6857   2.735   1.116   6.384
 1986SOL    HW2 6858   2.650   1.140   6.522
 1987SOL     OW 6859   1.935   1.074   3.804
 1987SOL    HW1 6860   2.016   1.127   3.830
 1987SOL    HW2 6861   1.948   1.037   3.712
 1988SOL     OW 6862   6.901   1.588   1.260
 1988SOL    HW1 6863   6.943   1.532   1.189
 1988SOL    HW2 6864   6.809   1.615   1.232
 1989SOL     OW 6865   3.098   6.083   4.587
 1989SOL    HW1 6866   3.134   6.176   4.582
 1989SOL    HW2 6867   3.004   6.082   4.553
 1990SOL     OW 6868   3.746   6.937   0.515
 1990SOL    HW1 6869   3.747   6.966   0.610
 1990SOL    HW2 6870   3.731   6.838   0.509
 1991SOL     OW 6871   2.593   4.748   0.078
 1991SOL    HW1 6872   2.656   4.728   0.003
 1991SOL    HW2 6873   2.555   4.839   0.066
 1992SOL     OW 6874   7.004   6.789   0.717
 1992SOL    HW1 6875   0.049   6.829   0.652
 1992SOL    HW2 6876   7.010   6.837   0.804
 1993SOL     OW 6877   2.593   2.193   4.281
 1993SOL    HW1 6878   2.613   2.204   4.379
 1993SOL    HW2 6879   2.605   2.280   4.234
 1994SOL     OW 6880   4.691   1.928   0.821
 1994SOL    HW1 6881   4.662   1.983   0.899
 1994SOL    HW2 6882   4.776   1.880   0.843
 1995SOL     OW 6883   5.700   2.903   4.567
 1995SOL    HW1 6884   5.766   2.833   4.538
 1995SOL    HW2 6885   5.700   2.978   4.502
 1996SOL     OW 6886   2.549   1.765   1.437
 1996SOL    HW1 6887   2.534   1.818   1.520
 1996SOL    HW2 6888   2.508   1.813   1.359
 1997SOL     OW 6889   3.466   1.449   4.227
 1997SOL    HW1 6890   3.461   1.510   4.147
 1997SOL    HW2 6891   3.426   1.495   4.306
 1998SOL     OW 6892   1.400   3.589   1.041
 1998SOL    HW1 6893   1.453   3.587   1.126
 1998SOL    HW2 6894   1.461   3.584   0.963
 1999SOL     OW 6895   0.062   1.098   4.771
 1999SOL    HW1 6896   7.019   1.144   4.835
 1999SOL    HW2 6897   0.009   1.052   4.700
 2000SOL     OW 6898   4.244   3.692   6.039
 2000SOL    HW1 6899   4.309   3.767   6.048
 2000SOL    HW2 6900   4.273   3.630   5.965
 2001SOL     OW 6901   1.466   1.681   6.929
 2001SOL    HW1 6902   1.385   1.622   6.921
 2001SOL    HW2 6903   1.498   1.680   0.004
 2002SOL     OW 6904   0.835   5.426   0.853
 2002SOL    HW1 6905   0.804   5.341   0.896
 2002SOL    HW2 6906   0.757   5.476   0.815
 2003SOL     OW 6907   6.114   5.256   2.211
 2003SOL    HW1 6908   6.195   5.308   2.186
 2003SOL    HW2 6909   6.037   5.283   2.152
 2004SOL     OW 6910   4.360   1.018   3.906
 2004SOL    HW1 6911   4.321   1.009   3.997
 2004SOL    HW2 6912   4.397   0.930   3.876
 2005SOL     OW 6913   6.789   6.006   0.300
 2005SOL    HW1 6914   6.765   6.090   0.250
 2005SOL    HW2 6915   6.784   5.928   0.238
 2006SOL     OW 6916   5.161   6.914   4.354
 2006SOL    HW1 6917   5.081   6.958   4.312
 2006SOL    HW2 6918   5.222   6.881   4.282
 2007SOL     OW 6919   5.181   4.331   1.352
 2007SOL    HW1 6920   5.241   4.258   1.320
 2007SOL    HW2 6921   5.209   4.359   1.444
 2008SOL     OW 6922   1.919   3.401   4.098
 2008SOL    HW1 6923   2.008   3.448   4.097
 2008SOL    HW2 6924   1.847   3.467   4.115
 2009SOL     OW 6925   5.408   5.999   1.796
 2009SOL    HW1 6926   5.380   6.083   1.748
 2009SOL    HW2 6927   5.474   6.021   1.867
 2010SOL     OW 6928   1.636   2.023   1.418
 2010SOL    HW1 6929   1.543   2.051   1.391
 2010SOL    HW2 6930   1.642   2.022   1.518
 2011SOL     OW 6931   6.968   0.249   5.598
 2011SOL    HW1 6932   7.005   0.263   5.506
 2011SOL    HW2 6933   7.019   0.306   5.663
 2012SOL     OW 6934   1.695   3.954   2.271
 2012SOL    HW1 6935   1.676   3.869   2.222
 2012SOL    HW2 6936   1.752   3.934   2.351
 2013SOL     OW 6937   0.095   2.985   3.323
 2013SOL    HW1 6938   0.012   2.977   3.268
 2013SOL    HW2 6939   0.145   3.067   3.297
 2014SOL     OW 6940   3.134   0.413   3.176
 2014SOL    HW1 6941   3.057   0.398   3.238
 2014SOL    HW2 6942   3.150   0.330   3.122
 2015SOL     OW 6943   3.832   0.547   0.884
 2015SOL    HW1 6944   3.782   0.588   0.960
 2015SOL    HW2 6945   3.800   0.586   0.798
 2016SOL     OW 6946   1.460   5.956   5.560
 2016SOL    HW1 6947   1.449   5.856   5.566
 2016SOL    HW2 6948   1.555   5.977   5.540
 2017SOL     OW 6949   4.212   0.360   3.652
 2017SOL    HW1 6950   4.279   0.434   3.661
 2017SOL    HW2 6951   4.169   0.343   3.741
 2018SOL     OW 6952   6.972   2.282   3.457
 2018SOL    HW1 6953   6.998   2.191   3.486
 2018SOL    HW2 6954   6.880   2.303   3.491
 2019SOL     OW 6955   6.471   4.718   6.709
 2019SOL    HW1 6956   6.472   4.618   6.701
 2019SOL    HW2 6957   6.396   4.755   6.655
 2020SOL     OW 6958   0.880   5.687   6.283
 2020SOL    HW1 6959   0.966   5.725   6.317
 2020SOL    HW2 6960   0.816   5.676   6.359
 2021SOL     OW 6961   6.286   6.483   3.223
 2021SOL    HW1 6962   6.237   6.424   3.287
 2021SOL    HW2 6963   6.294   6.438   3.134
 2022SOL     OW 6964   1.580   4.320   5.062
 2022SOL    HW1 6965   1.575   4.260   5.142
 2022SOL    HW2 6966   1.654   4.385   5.075
 2023SOL     OW 6967   0.109   6.524   6.837
 2023SOL    HW1 6968   0.091   6.615   6.802
 2023SOL    HW2 6969   0.023   6.480   6.865
 2024SOL     OW 6970   0.302   5.780   4.203
 2024SOL    HW1 6971   0.370   5.839   4.158
 2024SOL    HW2 6972   0.330   5.765   4.298
 2025SOL     OW 6973   2.946   0.570   3.707
 2025SOL    HW1 6974   2.946   0.643   3.776
 2025SOL    HW2 6975   2.942   0.611   3.616
 2026SOL     OW 6976   5.949   0.978   6.252
 2026SOL    HW1 6977   5.984   1.047   6.189
 2026SOL    HW2 6978   5.894   0.911   6.201
 2027SOL     OW 6979   0.654   5.987   1.686
 2027SOL    HW1 6980   0.624   5.926   1.760
 2027SOL    HW2 6981   0.653   5.937   1.599
 2028SOL     OW 6982   3.777   5.938   2.926
 2028SOL    HW1 6983   3.694   5.960   2.875
 2028SOL    HW2 6984   3.830   5.870   2.875
 2029SOL     OW 6985   6.701   1.553   6.879
 2029SOL    HW1 6986   6.722   1.650   6.882
 2029SOL    HW2 6987   6.611   1.536   6.920
 2030SOL     OW 6988   2.907   6.156   2.628
 2030SOL    HW1 6989   2.917   6.256   2.624
 2030SOL    HW2 6990   2.855   6.131   2.710
 2031SOL     OW 6991   0.268   5.770   2.368
 2031SOL    HW1 6992   0.350   5.748   2.316
 2031SOL    HW2 6993   0.253   5.699   2.437
 2032SOL     OW 6994   3.483   1.728   0.106
 2032SOL    HW1 6995   3.398   1.767   0.071
 2032SOL    HW2 6996   3.463   1.666   0.182
 2033SOL     OW 6997   1.313   1.134   0.282
 2033SOL    HW1 6998   1.251   1.059   0.305
 2033SOL    HW2 6999   1.341   1.125   0.186
 2034SOL     OW 7000   1.522   5.095   5.276
 2034SOL    HW1 7001   1.426   5.068   5.286
 2034SOL    HW2 7002   1.569   5.087   5.364
 2035SOL     OW 7003   6.985   0.255   2.014
 2035SOL    HW1 7004   0.041   0.224   1.957
 2035SOL    HW2 7005   6.915   0.298   1.957
 2036SOL     OW 7006   0.966   3.360   2.927
 2036SOL    HW1 7007   0.887   3.420   2.911
 2036SOL    HW2 7008   1.010   3.386   3.012
 2037SOL     OW 7009   0.156   3.144   6.134
 2037SOL    HW1 7010   0.162   3.047   6.114
 2037SOL    HW2 7011   0.066   3.178   6.108
 2038SOL     OW 7012   2.819   1.384   7.001
 2038SOL    HW1 7013   2.836   1.428   0.069
 2038SOL    HW2 7014   2.804   1.453   6.931
 2039SOL     OW 7015   0.233   5.969   2.142
 2039SOL    HW1 7016   0.224   5.921   2.230
 2039SOL    HW2 7017   0.160   5.939   2.081
 2040SOL     OW 7018   1.871   2.785   6.761
 2040SOL    HW1 7019   1.884   2.698   6.810
 2040SOL    HW2 7020   1.935   2.789   6.684
 2041SOL     OW 7021   2.035   6.535   5.482
 2041SOL    HW1 7022   2.094   6.533   5.563
 2041SOL    HW2 7023   2.059   6.613   5.425
 2042SOL     OW 7024   5.029   0.250   5.940
 2042SOL    HW1 7025   5.024   0.314   6.016
 2042SOL    HW2 7026   4.957   0.270   5.873
 2043SOL     OW 7027   6.725   2.586   1.489
 2043SOL    HW1 7028   6.777   2.658   1.443
 2043SOL    HW2 7029   6.743   2.498   1.444
 2044SOL     OW 7030   5.868   1.102   1.594
 2044SOL    HW1 7031   5.804   1.031   1.623
 2044SOL    HW2 7032   5.855   1.121   1.497
 2045SOL     OW 7033   1.556   5.422   5.437
 2045SOL    HW1 7034   1.612   5.434   5.355
 2045SOL    HW2 7035   1.612   5.383   5.511
 2046SOL     OW 7036   0.101   1.898   5.608
 2046SOL    HW1 7037   0.105   1.798   5.599
 2046SOL    HW2 7038   0.060   1.921   5.696
 2047SOL     OW 7039   6.451   2.377   0.667
 2047SOL    HW1 7040   6.487   2.430   0.743
 2047SOL    HW2 7041   6.469   2.280   0.682
 2048SOL     OW 7042   0.537   1.829   4.399
 2048SOL    HW1 7043   0.443   1.818   4.367
 2048SOL    HW2 7044   0.590   1.749   4.373
 2049SOL     OW 7045   4.511   1.293   4.663
 2049SOL    HW1 7046   4.568   1.375   4.658
 2049SOL    HW2 7047   4.422   1.316   4.703
 2050SOL     OW 7048   0.248   2.137   4.201
 2050SOL    HW1 7049   0.312   2.112   4.129
 2050SOL    HW2 7050   0.217   2.231   4.186
 2051SOL     OW 7051   2.441   6.351   0.281
 2051SOL    HW1 7052   2.536   6.326   0.299
 2051SOL    HW2 7053   2.392   6.361   0.368
 2052SOL     OW 7054   1.798   3.334   0.787
 2052SOL    HW1 7055   1.784   3.237   0.809
 2052SOL    HW2 7056   1.884   3.365   0.827
 2053SOL     OW 7057   0.871   5.399   4.617
 2053SOL    HW1 7058   0.905   5.323   4.562
 2053SOL    HW2 7059   0.774   5.384   4.637
 2054SOL     OW 7060   3.376   2.925   2.425
 2054SOL    HW1 7061   3.474   2.943   2.421
 2054SOL    HW2 7062   3.360   2.827   2.428
 2055SOL     OW 7063   0.198   2.603   5.080
 2055SOL    HW1 7064   0.235   2.695   5.079
 2055SOL    HW2 7065   0.271   2.537   5.063
 2056SOL     OW 7066   4.191   5.009   1.013
 2056SOL    HW1 7067   4.167   5.065   1.092
 2056SOL    HW2 7068   4.290   4.996   1.012
 2057SOL     OW 7069   5.819   2.704   4.428
 2057SOL    HW1 7070   5.785   2.626   4.376
 2057SOL    HW2 7071   5.915   2.718   4.407
 2058SOL     OW 7072   0.678   6.129   2.953
 2058SOL    HW1 7073   0.733   6.112   2.872
 2058SOL    HW2 7074   0.735   6.121   3.035
 2059SOL     OW 7075   2.470   0.387   5.483
 2059SOL    HW1 7076   2.423   0.310   5.438
 2059SOL    HW2 7077   2.405   0.462   5.496
 2060SOL     OW 7078   1.077   3.369   0.269
 2060SOL    HW1 7079   1.169   3.341   0.241
 2060SOL    HW2 7080   1.078   3.465   0.295
 2061SOL     OW 7081   1.952   2.882   2.535
 2061SOL    HW1 7082   1.878   2.948   2.539
 2061SOL    HW2 7083   1.960   2.835   2.623
 2062SOL     OW 7084   6.794   5.019   5.130
 2062SOL    HW1 7085   6.821   5.036   5.035
 2062SOL    HW2 7086   6.870   4.975   5.178
 2063SOL     OW 7087   1.495   6.359   5.299
 2063SOL    HW1 7088   1.397   6.348   5.314
 2063SOL    HW2 7089   1.538   6.268   5.297
 2064SOL     OW 7090   1.160   3.781   4.171
 2064SOL    HW1 7091   1.252   3.815   4.189
 2064SOL    HW2 7092   1.159   3.728   4.086
 2065SOL     OW 7093   5.469   2.980   5.297
 2065SOL    HW1 7094   5.531   2.935   5.361
 2065SOL    HW2 7095   5.375   2.952   5.316
 2066SOL     OW 7096   5.968   3.774   5.719
 2066SOL    HW1 7097   6.007   3.691   5.680
 2066SOL    HW2 7098   5.957   3.763   5.818
 2067SOL     OW 7099   6.554   4.808   1.821
 2067SOL    HW1 7100   6.507   4.761   1.896
 2067SOL    HW2 7101   6.486   4.847   1.759
 2068SOL     OW 7102   3.756   1.156   4.195
 2068SOL    HW1 7103   3.816   1.235   4.182
 2068SOL    HW2 7104   3.734   1.117   4.106
 2069SOL     OW 7105   0.055   1.713   4.255
 2069SOL    HW1 7106   0.005   1.712   4.342
 2069SOL    HW2 7107   0.057   1.621   4.217
 2070SOL     OW 7108   1.318   2.972   1.471
 2070SOL    HW1 7109   1.350   2.984   1.565
 2070SOL    HW2 7110   1.248   3.040   1.451
 2071SOL     OW 7111   6.580   1.014   6.086
 2071SOL    HW1 7112   6.566   0.915   6.084
 2071SOL    HW2 7113   6.604   1.045   5.994
 2072SOL     OW 7114   3.879   4.630   5.258
 2072SOL    HW1 7115   3.872   4.563   5.332
 2072SOL    HW2 7116   3.799   4.690   5.261
 2073SOL     OW 7117   3.612   6.213   6.663
 2073SOL    HW1 7118   3.536   6.259   6.617
 2073SOL    HW2 7119   3.644   6.138   6.606
 2074SOL     OW 7120   1.749   3.432   5.760
 2074SOL    HW1 7121   1.661   3.442   5.806
 2074SOL    HW2 7122   1.748   3.350   5.703
 2075SOL     OW 7123   0.094   2.568   2.181
 2075SOL    HW1 7124   0.101   2.477   2.220
 2075SOL    HW2 7125   0.149   2.632   2.234
 2076SOL     OW 7126   5.911   0.211   5.025
 2076SOL    HW1 7127   5.887   0.241   5.117
 2076SOL    HW2 7128   5.862   0.267   4.958
 2077SOL     OW 7129   0.770   2.721   1.247
 2077SOL    HW1 7130   0.766   2.728   1.147
 2077SOL    HW2 7131   0.739   2.630   1.274
 2078SOL     OW 7132   1.646   4.784   5.812
 2078SOL    HW1 7133   1.628   4.881   5.798
 2078SOL    HW2 7134   1.722   4.755   5.754
 2079SOL     OW 7135   5.160   1.093   1.869
 2079SOL    HW1 7136   5.240   1.150   1.889
 2079SOL    HW2 7137   5.101   1.091   1.950
 2080SOL     OW 7138   2.828   2.286   4.682
 2080SOL    HW1 7139   2.834   2.370   4.735
 2080SOL    HW2 7140   2.787   2.213   4.738
 2081SOL     OW 7141   0.166   6.708   3.207
 2081SOL    HW1 7142   0.231   6.713   3.132
 2081SOL    HW2 7143   0.182   6.624   3.260
 2082SOL     OW 7144   0.783   6.327   2.341
 2082SOL    HW1 7145   0.747   6.286   2.257
 2082SOL    HW2 7146   0.874   6.363   2.324
 2083SOL     OW 7147   0.377   6.171   3.385
 2083SOL    HW1 7148   0.298   6.209   3.433
 2083SOL    HW2 7149   0.423   6.104   3.443
 2084SOL     OW 7150   1.155   1.608   1.293
 2084SOL    HW1 7151   1.228   1.593   1.359
 2084SOL    HW2 7152   1.066   1.593   1.337
 2085SOL     OW 7153   5.194   5.884   0.270
 2085SOL    HW1 7154   5.203   5.858   0.366
 2085SOL    HW2 7155   5.123   5.829   0.227
 2086SOL     OW 7156   3.902   6.726   0.089
 2086SOL    HW1 7157   3.875   6.638   0.049
 2086SOL    HW2 7158   3.849   6.800   0.047
 2087SOL     OW 7159   3.891   1.997   0.105
 2087SOL    HW1 7160   3.858   1.954   0.021
 2087SOL    HW2 7161   3.815   2.041   0.152
 2088SOL     OW 7162   0.049   5.630   6.041
 2088SOL    HW1 7163   6.987   5.583   6.008
 2088SOL    HW2 7164   0.081   5.695   5.972
 2089SOL     OW 7165   3.926   2.785   5.246
 2089SOL    HW1 7166   4.010   2.733   5.232
 2089SOL    HW2 7167   3.944   2.864   5.304
 2090SOL     OW 7168   4.564   3.325   5.409
 2090SOL    HW1 7169   4.656   3.289   5.405
 2090SOL    HW2 7170   4.560   3.414   5.363
 2091SOL     OW 7171   6.475   5.964   1.486
 2091SOL    HW1 7172   6.485   5.951   1.387
 2091SOL    HW2 7173   6.398   5.909   1.519
 2092SOL     OW 7174   4.846   4.060   1.108
 2092SOL    HW1 7175   4.775   4.060   1.039
 2092SOL    HW2 7176   4.839   4.143   1.163
 2093SOL     OW 7177   4.098   2.067   2.269
 2093SOL    HW1 7178   4.079   2.086   2.172
 2093SOL    HW2 7179   4.090   1.968   2.285
 2094SOL     OW 7180   5.851   2.955   6.977
 2094SOL    HW1 7181   5.786   2.953   0.034
 2094SOL    HW2 7182   5.914   2.878   6.984
 2095SOL     OW 7183   5.972   6.463   4.059
 2095SOL    HW1 7184   5.943   6.368   4.048
 2095SOL    HW2 7185   5.892   6.521   4.073
 2096SOL     OW 7186   4.694   6.199   2.214
 2096SOL    HW1 7187   4.668   6.115   2.261
 2096SOL    HW2 7188   4.774   6.182   2.157
 2097SOL     OW 7189   1.944   4.624   6.710
 2097SOL    HW1 7190   2.007   4.605   6.786
 2097SOL    HW2 7191   1.868   4.560   6.713
 2098SOL     OW 7192   4.037   5.863   3.264
 2098SOL    HW1 7193   4.044   5.800   3.186
 2098SOL    HW2 7194   3.993   5.815   3.341
 2099SOL     OW 7195   4.473   1.583   0.054
 2099SOL    HW1 7196   4.483   1.485   0.036
 2099SOL    HW2 7197   4.417   1.625   7.002
 2100SOL     OW 7198   5.706   1.054   0.462
 2100SOL    HW1 7199   5.708   1.066   0.363
 2100SOL    HW2 7200   5.670   0.963   0.484
 2101SOL     OW 7201   6.976   6.402   0.982
 2101SOL    HW1 7202   0.048   6.363   0.986
 2101SOL    HW2 7203   6.963   6.447   0.893
 2102SOL     OW 7204   4.076   2.932   1.421
 2102SOL    HW1 7205   4.041   2.916   1.328
 2102SOL    HW2 7206   4.022   2.880   1.486
 2103SOL     OW 7207   3.073   5.012   0.028
 2103SOL    HW1 7208   3.135   4.934   0.032
 2103SOL    HW2 7209   3.008   4.999   6.973
 2104SOL     OW 7210   1.944   4.669   2.919
 2104SOL    HW1 7211   1.919   4.749   2.866
 2104SOL    HW2 7212   1.887   4.591   2.891
 2105SOL     OW 7213   5.253   4.467   0.268
 2105SOL    HW1 7214   5.325   4.399   0.278
 2105SOL    HW2 7215   5.271   4.544   0.330
 2106SOL     OW 7216   5.050   3.405   1.520
 2106SOL    HW1 7217   5.109   3.448   1.452
 2106SOL    HW2 7218   5.052   3.459   1.604
 2107SOL     OW 7219   5.045   3.729   5.990
 2107SOL    HW1 7220   5.042   3.820   6.031
 2107SOL    HW2 7221   5.119   3.676   6.032
 2108SOL     OW 7222   5.749   6.930   6.182
 2108SOL    HW1 7223   5.759   6.885   6.094
 2108SOL    HW2 7224   5.699   7.016   6.171
 2109SOL     OW 7225   2.958   5.479   2.421
 2109SOL    HW1 7226   2.986   5.408   2.357
 2109SOL    HW2 7227   2.976   5.569   2.380
 2110SOL     OW 7228   3.741   0.796   6.680
 2110SOL    HW1 7229   3.727   0.822   6.776
 2110SOL    HW2 7230   3.740   0.697   6.672
 2111SOL     OW 7231   1.102   2.995   5.886
 2111SOL    HW1 7232   1.067   3.049   5.963
 2111SOL    HW2 7233   1.074   3.038   5.800
 2112SOL     OW 7234   6.172   1.141   0.323
 2112SOL    HW1 7235   6.127   1.058   0.290
 2112SOL    HW2 7236   6.217   1.121   0.410
 2113SOL     OW 7237   1.776   6.733   4.248
 2113SOL    HW1 7238   1.709   6.759   4.178
 2113SOL    HW2 7239   1.741   6.654   4.299
 2114SOL     OW 7240   1.968   2.492   6.822
 2114SOL    HW1 7241   1.965   2.423   6.894
 2114SOL    HW2 7242   2.061   2.528   6.814
 2115SOL     OW 7243   0.860   4.765   2.756
 2115SOL    HW1 7244   0.873   4.677   2.801
 2115SOL    HW2 7245   0.931   4.829   2.785
 2116SOL     OW 7246   1.299   2.146   0.380
 2116SOL    HW1 7247   1.382   2.116   0.332
 2116SOL    HW2 7248   1.221   2.093   0.347
 2117SOL     OW 7249   5.354   2.436   2.784
 2117SOL    HW1 7250   5.261   2.401   2.776
 2117SOL    HW2 7251   5.401   2.427   2.697
 2118SOL     OW 7252   6.720   3.586   2.556
 2118SOL    HW1 7253   6.716   3.497   2.600
 2118SOL    HW2 7254   6.756   3.576   2.463
 2119SOL     OW 7255   2.433   0.667   6.631
 2119SOL    HW1 7256   2.491   0.717   6.566
 2119SOL    HW2 7257   2.464   0.573   6.638
 2120SOL     OW 7258   6.330   2.139   1.890
 2120SOL    HW1 7259   6.389   2.210   1.930
 2120SOL    HW2 7260   6.341   2.054   1.942
 2121SOL     OW 7261   1.678   1.239   5.894
 2121SOL    HW1 7262   1.674   1.332   5.857
 2121SOL    HW2 7263   1.589   1.194   5.883
 2122SOL     OW 7264   5.982   0.446   5.529
 2122SOL    HW1 7265   5.912   0.375   5.540
 2122SOL    HW2 7266   6.073   0.403   5.527
 2123SOL     OW 7267   0.396   5.651   2.922
 2123SOL    HW1 7268   0.439   5.639   3.012
 2123SOL    HW2 7269   0.331   5.727   2.925
 2124SOL     OW 7270   3.626   2.761   5.716
 2124SOL    HW1 7271   3.543   2.780   5.662
 2124SOL    HW2 7272   3.669   2.848   5.741
 2125SOL     OW 7273   1.949   5.632   3.495
 2125SOL    HW1 7274   2.039   5.676   3.495
 2125SOL    HW2 7275   1.885   5.687   3.549
 2126SOL     OW 7276   3.533   3.418   0.343
 2126SOL    HW1 7277   3.444   3.403   0.301
 2126SOL    HW2 7278   3.527   3.400   0.441
 2127SOL     OW 7279   0.135   3.146   5.856
 2127SOL    HW1 7280   0.175   3.231   5.822
 2127SOL    HW2 7281   0.204   3.096   5.909
 2128SOL     OW 7282   5.360   4.077   1.198
 2128SOL    HW1 7283   5.269   4.054   1.234
 2128SOL    HW2 7284   5.422   4.000   1.213
 2129SOL     OW 7285   5.055   3.824   3.691
 2129SOL    HW1 7286   5.132   3.766   3.716
 2129SOL    HW2 7287   5.063   3.852   3.595
 2130SOL     OW 7288   2.169   1.296   1.847
 2130SOL    HW1 7289   2.145   1.254   1.759
 2130SOL    HW2 7290   2.254   1.347   1.837
 2131SOL     OW 7291   5.634   1.870   5.906
 2131SOL    HW1 7292   5.621   1.840   6.000
 2131SOL    HW2 7293   5.577   1.950   5.888
 2132SOL     OW 7294   2.476   1.487   6.628
 2132SOL    HW1 7295   2.541   1.485   6.705
 2132SOL    HW2 7296   2.525   1.469   6.543
 2133SOL     OW 7297   2.312   1.689   1.923
 2133SOL    HW1 7298   2.257   1.677   1.841
 2133SOL    HW2 7299   2.319   1.787   1.944
 2134SOL     OW 7300   0.373   6.777   4.358
 2134SOL    HW1 7301   0.454   6.836   4.361
 2134SOL    HW2 7302   0.393   6.696   4.304
 2135SOL     OW 7303   0.757   1.043   3.626
 2135SOL    HW1 7304   0.686   1.074   3.563
 2135SOL    HW2 7305   0.716   0.989   3.700
 2136SOL     OW 7306   0.942   3.812   4.948
 2136SOL    HW1 7307   0.972   3.772   4.861
 2136SOL    HW2 7308   1.017   3.866   4.987
 2137SOL     OW 7309   1.188   6.064   5.374
 2137SOL    HW1 7310   1.220   6.147   5.420
 2137SOL    HW2 7311   1.094   6.045   5.402
 2138SOL     OW 7312   6.716   3.028   0.824
 2138SOL    HW1 7313   6.657   2.951   0.848
 2138SOL    HW2 7314   6.793   3.033   0.888
 2139SOL     OW 7315   2.697   0.698   4.537
 2139SOL    HW1 7316   2.743   0.624   4.586
 2139SOL    HW2 7317   2.755   0.779   4.537
 2140SOL     OW 7318   2.374   5.980   3.540
 2140SOL    HW1 7319   2.453   5.999   3.598
 2140SOL    HW2 7320   2.309   6.056   3.546
 2141SOL     OW 7321   6.320   2.662   1.353
 2141SOL    HW1 7322   6.387   2.619   1.293
 2141SOL    HW2 7323   6.357   2.667   1.446
 2142SOL     OW 7324   1.179   1.760   3.474
 2142SOL    HW1 7325   1.149   1.707   3.553
 2142SOL    HW2 7326   1.115   1.835   3.457
 2143SOL     OW 7327   3.965   6.866   1.753
 2143SOL    HW1 7328   4.009   6.877   1.842
 2143SOL    HW2 7329   3.981   6.948   1.698
 2144SOL     OW 7330   1.468   0.400   3.032
 2144SOL    HW1 7331   1.456   0.338   2.955
 2144SOL    HW2 7332   1.497   0.348   3.112
 2145SOL     OW 7333   3.398   5.685   4.025
 2145SOL    HW1 7334   3.306   5.717   4.047
 2145SOL    HW2 7335   3.465   5.755   4.049
 2146SOL     OW 7336   2.863   3.318   2.109
 2146SOL    HW1 7337   2.898   3.252   2.043
 2146SOL    HW2 7338   2.763   3.313   2.112
 2147SOL     OW 7339   0.782   1.704   6.577
 2147SOL    HW1 7340   0.747   1.793   6.549
 2147SOL    HW2 7341   0.710   1.653   6.625
 2148SOL     OW 7342   4.882   3.647   3.805
 2148SOL    HW1 7343   4.915   3.719   3.744
 2148SOL    HW2 7344   4.959   3.589   3.832
 2149SOL     OW 7345   3.987   0.691   2.280
 2149SOL    HW1 7346   3.934   0.611   2.253
 2149SOL    HW2 7347   4.069   0.698   2.223
 2150SOL     OW 7348   3.865   1.774   3.002
 2150SOL    HW1 7349   3.777   1.762   2.956
 2150SOL    HW2 7350   3.897   1.685   3.035
 2151SOL     OW 7351   3.917   2.433   6.129
 2151SOL    HW1 7352   3.878   2.501   6.190
 2151SOL    HW2 7353   3.922   2.470   6.036
 2152SOL     OW 7354   5.902   6.491   1.893
 2152SOL    HW1 7355   5.862   6.534   1.812
 2152SOL    HW2 7356   5.921   6.394   1.873
 2153SOL     OW 7357   4.465   1.853   3.790
 2153SOL    HW1 7358   4.371   1.819   3.791
 2153SOL    HW2 7359   4.517   1.806   3.719
 2154SOL     OW 7360   3.147   5.415   4.706
 2154SOL    HW1 7361   3.114   5.387   4.796
 2154SOL    HW2 7362   3.199   5.339   4.665
 2155SOL     OW 7363   2.049   4.523   0.200
 2155SOL    HW1 7364   1.964   4.529   0.252
 2155SOL    HW2 7365   2.126   4.516   0.263
 2156SOL     OW 7366   1.568   0.534   1.862
 2156SOL    HW1 7367   1.538   0.610   1.920
 2156SOL    HW2 7368   1.629   0.474   1.914
 2157SOL     OW 7369   7.013   1.555   5.444
 2157SOL    HW1 7370   7.013   1.551   5.544
 2157SOL    HW2 7371   6.920   1.565   5.411
 2158SOL     OW 7372   3.902   0.233   1.261
 2158SOL    HW1 7373   3.831   0.174   1.224
 2158SOL    HW2 7374   3.928   0.302   1.192
 2159SOL     OW 7375   1.657   6.881   4.614
 2159SOL    HW1 7376   1.649   6.835   4.702
 2159SOL    HW2 7377   1.704   6.821   4.549
 2160SOL     OW 7378   3.514   4.144   1.227
 2160SOL    HW1 7379   3.434   4.085   1.219
 2160SOL    HW2 7380   3.512   4.213   1.154
 2161SOL     OW 7381   4.867   3.763   3.453
 2161SOL    HW1 7382   4.898   3.855   3.478
 2161SOL    HW2 7383   4.775   3.768   3.416
 2162SOL     OW 7384   2.156   0.649   6.683
 2162SOL    HW1 7385   2.121   0.740   6.661
 2162SOL    HW2 7386   2.254   0.646   6.666
 2163SOL     OW 7387   1.792   0.086   0.110
 2163SOL    HW1 7388   1.859   0.019   0.141
 2163SOL    HW2 7389   1.711   0.082   0.168
 2164SOL     OW 7390   1.942   0.584   6.498
 2164SOL    HW1 7391   1.917   0.679   6.483
 2164SOL    HW2 7392   2.031   0.580   6.545
 2165SOL     OW 7393   1.042   0.703   2.590
 2165SOL    HW1 7394   0.958   0.650   2.576
 2165SOL    HW2 7395   1.096   0.703   2.506
 2166SOL     OW 7396   1.428   2.347   5.119
 2166SOL    HW1 7397   1.421   2.331   5.020
 2166SOL    HW2 7398   1.338   2.336   5.161
 2167SOL     OW 7399   2.603   0.550   2.315
 2167SOL    HW1 7400   2.676   0.619   2.313
 2167SOL    HW2 7401   2.514   0.596   2.324
 2168SOL     OW 7402   5.812   3.520   4.527
 2168SOL    HW1 7403   5.910   3.532   4.539
 2168SOL    HW2 7404   5.783   3.566   4.443
 2169SOL     OW 7405   5.620   2.906   5.632
 2169SOL    HW1 7406   5.667   2.936   5.549
 2169SOL    HW2 7407   5.534   2.862   5.607
 2170SOL     OW 7408   4.472   4.965   5.345
 2170SOL    HW1 7409   4.510   4.908   5.418
 2170SOL    HW2 7410   4.504   4.931   5.257
 2171SOL     OW 7411   6.373   3.669   0.017
 2171SOL    HW1 7412   6.407   3.750   6.989
 2171SOL    HW2 7413   6.297   3.694   0.077
 2172SOL     OW 7414   3.213   1.457   0.358
 2172SOL    HW1 7415   3.129   1.447   0.411
 2172SOL    HW2 7416   3.192   1.494   0.268
 2173SOL     OW 7417   4.130   0.601   5.682
 2173SOL    HW1 7418   4.098   0.525   5.739
 2173SOL    HW2 7419   4.209   0.571   5.629
 2174SOL     OW 7420   6.585   4.776   4.473
 2174SOL    HW1 7421   6.501   4.815   4.512
 2174SOL    HW2 7422   6.578   4.676   4.472
 2175SOL     OW 7423   2.504   0.201   3.371
 2175SOL    HW1 7424   2.523   0.160   3.282
 2175SOL    HW2 7425   2.589   0.211   3.422
 2176SOL     OW 7426   2.240   2.373   2.639
 2176SOL    HW1 7427   2.223   2.394   2.543
 2176SOL    HW2 7428   2.277   2.280   2.647
 2177SOL     OW 7429   6.920   2.136   1.146
 2177SOL    HW1 7430   6.875   2.154   1.060
 2177SOL    HW2 7431   6.854   2.101   1.213
 2178SOL     OW 7432   0.806   5.040   0.307
 2178SOL    HW1 7433   0.777   5.080   0.394
 2178SOL    HW2 7434   0.726   5.005   0.258
 2179SOL     OW 7435   1.329   5.414   4.267
 2179SOL    HW1 7436   1.293   5.470   4.193
 2179SOL    HW2 7437   1.413   5.368   4.237
 2180SOL     OW 7438   3.194   3.525   2.616
 2180SOL    HW1 7439   3.264   3.529   2.687
 2180SOL    HW2 7440   3.156   3.433   2.611
 2181SOL     OW 7441   4.847   5.651   5.807
 2181SOL    HW1 7442   4.844   5.641   5.708
 2181SOL    HW2 7443   4.941   5.671   5.836
 2182SOL     OW 7444   6.750   4.127   6.377
 2182SOL    HW1 7445   6.847   4.148   6.388
 2182SOL    HW2 7446   6.703   4.209   6.343
 2183SOL     OW 7447   3.242   2.814   0.513
 2183SOL    HW1 7448   3.190   2.814   0.599
 2183SOL    HW2 7449   3.209   2.740   0.454
 2184SOL     OW 7450   3.676   1.673   6.307
 2184SOL    HW1 7451   3.698   1.647   6.213
 2184SOL    HW2 7452   3.660   1.771   6.310
 2185SOL     OW 7453   1.424   0.527   0.460
 2185SOL    HW1 7454   1.470   0.447   0.422
 2185SOL    HW2 7455   1.410   0.514   0.559
 2186SOL     OW 7456   0.044   5.050   2.894
 2186SOL    HW1 7457   6.991   5.118   2.880
 2186SOL    HW2 7458   0.051   4.992   2.813
 2187SOL     OW 7459   6.180   1.916   0.694
 2187SOL    HW1 7460   6.086   1.914   0.728
 2187SOL    HW2 7461   6.181   1.944   0.598
 2188SOL     OW 7462   5.485   6.410   3.348
 2188SOL    HW1 7463   5.566   6.428   3.292
 2188SOL    HW2 7464   5.405   6.397   3.289
 2189SOL     OW 7465   2.204   0.217   5.874
 2189SOL    HW1 7466   2.127   0.157   5.858
 2189SOL    HW2 7467   2.186   0.274   5.955
 2190SOL     OW 7468   6.849   2.372   1.312
 2190SOL    HW1 7469   6.866   2.288   1.260
 2190SOL    HW2 7470   6.922   2.438   1.294
 2191SOL     OW 7471   3.399   2.933   6.280
 2191SOL    HW1 7472   3.353   2.876   6.212
 2191SOL    HW2 7473   3.426   2.878   6.359
 2192SOL     OW 7474   4.211   5.867   5.229
 2192SOL    HW1 7475   4.295   5.814   5.214
 2192SOL    HW2 7476   4.131   5.807   5.219
 2193SOL     OW 7477   0.977   5.192   5.745
 2193SOL    HW1 7478   0.910   5.189   5.672
 2193SOL    HW2 7479   0.964   5.114   5.807
 2194SOL     OW 7480   2.419   6.188   0.987
 2194SOL    HW1 7481   2.331   6.164   1.028
 2194SOL    HW2 7482   2.410   6.272   0.934
 2195SOL     OW 7483   1.310   5.641   2.642
 2195SOL    HW1 7484   1.306   5.541   2.641
 2195SOL    HW2 7485   1.392   5.671   2.593
 2196SOL     OW 7486   3.466   1.784   6.025
 2196SOL    HW1 7487   3.462   1.819   6.118
 2196SOL    HW2 7488   3.429   1.851   5.962
 2197SOL     OW 7489   4.804   4.933   1.607
 2197SOL    HW1 7490   4.762   4.955   1.695
 2197SOL    HW2 7491   4.830   4.837   1.605
 2198SOL     OW 7492   6.981   4.486   0.343
 2198SOL    HW1 7493   6.939   4.492   0.253
 2198SOL    HW2 7494   6.983   4.577   0.385
 2199SOL     OW 7495   4.799   6.870   0.676
 2199SOL    HW1 7496   4.799   6.807   0.598
 2199SOL    HW2 7497   4.888   6.865   0.722
 2200SOL     OW 7498   4.106   0.679   4.650
 2200SOL    HW1 7499   4.141   0.770   4.669
 2200SOL    HW2 7500   4.159   0.637   4.576
 2201SOL     OW 7501   6.104   3.223   2.387
 2201SOL    HW1 7502   6.026   3.236   2.326
 2201SOL    HW2 7503   6.071   3.198   2.478
 2202SOL     OW 7504   3.884   5.658   3.980
 2202SOL    HW1 7505   3.927   5.692   4.064
 2202SOL    HW2 7506   3.812   5.593   4.003
 2203SOL     OW 7507   3.561   2.098   3.104
 2203SOL    HW1 7508   3.485   2.129   3.046
 2203SOL    HW2 7509   3.571   1.999   3.094
 2204SOL     OW 7510   2.737   2.112   0.357
 2204SOL    HW1 7511   2.827   2.071   0.373
 2204SOL    HW2 7512   2.745   2.211   0.352
 2205SOL     OW 7513   2.325   6.653   0.414
 2205SOL    HW1 7514   2.254   6.591   0.444
 2205SOL    HW2 7515   2.291   6.747   0.417
 2206SOL     OW 7516   2.887   3.198   6.891
 2206SOL    HW1 7517   2.882   3.252   6.806
 2206SOL    HW2 7518   2.841   3.110   6.878
 2207SOL     OW 7519   1.828   4.785   6.273
 2207SOL    HW1 7520   1.791   4.718   6.337
 2207SOL    HW2 7521   1.868   4.862   6.324
 2208SOL     OW 7522   0.388   3.636   2.065
 2208SOL    HW1 7523   0.382   3.576   2.145
 2208SOL    HW2 7524   0.395   3.731   2.095
 2209SOL     OW 7525   1.202   5.568   6.564
 2209SOL    HW1 7526   1.229   5.530   6.653
 2209SOL    HW2 7527   1.282   5.574   6.505
 2210SOL     OW 7528   1.426   5.723   3.596
 2210SOL    HW1 7529   1.354   5.690   3.535
 2210SOL    HW2 7530   1.459   5.811   3.564
 2211SOL     OW 7531   5.942   1.578   5.524
 2211SOL    HW1 7532   5.886   1.497   5.506
 2211SOL    HW2 7533   5.904   1.656   5.474
 2212SOL     OW 7534   1.068   0.252   5.836
 2212SOL    HW1 7535   1.004   0.319   5.799
 2212SOL    HW2 7536   1.027   0.161   5.830
 2213SOL     OW 7537   4.010   2.221   3.432
 2213SOL    HW1 7538   4.033   2.220   3.335
 2213SOL    HW2 7539   3.929   2.164   3.447
 2214SOL     OW 7540   5.824   6.982   4.855
 2214SOL    HW1 7541   5.734   6.996   4.813
 2214SOL    HW2 7542   5.848   0.042   4.911
 2215SOL     OW 7543   6.696   1.928   5.357
 2215SOL    HW1 7544   6.732   1.966   5.272
 2215SOL    HW2 7545   6.609   1.973   5.379
 2216SOL     OW 7546   1.079   6.822   1.038
 2216SOL    HW1 7547   1.128   6.776   0.965
 2216SOL    HW2 7548   1.051   6.913   1.008
 2217SOL     OW 7549   4.653   0.140   1.303
 2217SOL    HW1 7550   4.561   0.178   1.307
 2217SOL    HW2 7551   4.684   0.137   1.208
 2218SOL     OW 7552   0.891   5.897   6.604
 2218SOL    HW1 7553   0.823   5.947   6.551
 2218SOL    HW2 7554   0.960   5.961   6.639
 2219SOL     OW 7555   1.826   4.012   3.074
 2219SOL    HW1 7556   1.855   3.948   3.002
 2219SOL    HW2 7557   1.833   3.967   3.163
 2220SOL     OW 7558   0.196   1.693   5.324
 2220SOL    HW1 7559   0.132   1.652   5.388
 2220SOL    HW2 7560   0.152   1.771   5.279
 2221SOL     OW 7561   6.896   2.176   1.656
 2221SOL    HW1 7562   6.904   2.266   1.613
 2221SOL    HW2 7563   6.927   2.106   1.591
 2222SOL     OW 7564   4.528   6.415   2.326
 2222SOL    HW1 7565   4.534   6.486   2.257
 2222SOL    HW2 7566   4.559   6.328   2.287
 2223SOL     OW 7567   5.800   5.144   4.021
 2223SOL    HW1 7568   5.727   5.171   4.084
 2223SOL    HW2 7569   5.815   5.045   4.027
 2224SOL     OW 7570   2.239   4.674   1.643
 2224SOL    HW1 7571   2.164   4.733   1.614
 2224SOL    HW2 7572   2.296   4.651   1.564
 2225SOL     OW 7573   6.453   5.089   2.334
 2225SOL    HW1 7574   6.447   5.176   2.285
 2225SOL    HW2 7575   6.483   5.017   2.272
 2226SOL     OW 7576   3.730   3.206   1.125
 2226SOL    HW1 7577   3.728   3.234   1.220
 2226SOL    HW2 7578   3.805   3.253   1.078
 2227SOL     OW 7579   6.899   3.713   5.598
 2227SOL    HW1 7580   6.875   3.738   5.505
 2227SOL    HW2 7581   6.922   3.616   5.603
 2228SOL     OW 7582   3.070   4.801   5.976
 2228SOL    HW1 7583   3.168   4.798   5.995
 2228SOL    HW2 7584   3.056   4.829   5.880
 2229SOL     OW 7585   4.274   0.997   3.197
 2229SOL    HW1 7586   4.207   1.027   3.265
 2229SOL    HW2 7587   4.226   0.961   3.117
 2230SOL     OW 7588   0.818   6.349   5.150
 2230SOL    HW1 7589   0.796   6.254   5.172
 2230SOL    HW2 7590   0.741   6.390   5.102
 2231SOL     OW 7591   1.750   6.936   1.928
 2231SOL    HW1 7592   1.818   6.885   1.875
 2231SOL    HW2 7593   1.705   7.003   1.868
 2232SOL     OW 7594   6.453   2.625   2.563
 2232SOL    HW1 7595   6.433   2.692   2.635
 2232SOL    HW2 7596   6.551   2.627   2.542
 2233SOL     OW 7597   3.489   6.400   0.369
 2233SOL    HW1 7598   3.447   6.323   0.416
 2233SOL    HW2 7599   3.419   6.462   0.335
 2234SOL     OW 7600   3.511   1.253   0.864
 2234SOL    HW1 7601   3.413   1.268   0.850
 2234SOL    HW2 7602   3.563   1.309   0.799
 2235SOL     OW 7603   0.714   6.951   0.952
 2235SOL    HW1 7604   0.631   6.956   1.007
 2235SOL    HW2 7605   0.698   6.893   0.872
 2236SOL     OW 7606   1.041   4.592   1.457
 2236SOL    HW1 7607   0.981   4.659   1.501
 2236SOL    HW2 7608   1.069   4.626   1.367
 2237SOL     OW 7609   6.381   3.158   4.696
 2237SOL    HW1 7610   6.354   3.249   4.664
 2237SOL    HW2 7611   6.309   3.121   4.754
 2238SOL     OW 7612   0.756   5.779   1.963
 2238SOL    HW1 7613   0.816   5.850   2.000
 2238SOL    HW2 7614   0.660   5.805   1.978
 2239SOL     OW 7615   4.168   5.064   3.416
 2239SOL    HW1 7616   4.139   4.982   3.366
 2239SOL    HW2 7617   4.095   5.132   3.413
 2240SOL     OW 7618   6.494   4.819   2.978
 2240SOL    HW1 7619   6.478   4.918   2.972
 2240SOL    HW2 7620   6.449   4.774   2.900
 2241SOL     OW 7621   0.106   6.887   1.861
 2241SOL    HW1 7622   0.136   6.852   1.949
 2241SOL    HW2 7623   0.008   6.907   1.864
 2242SOL     OW 7624   4.725   1.863   3.064
 2242SOL    HW1 7625   4.813   1.886   3.104
 2242SOL    HW2 7626   4.738   1.820   2.975
 2243SOL     OW 7627   2.751   6.086   4.972
 2243SOL    HW1 7628   2.755   6.156   4.900
 2243SOL    HW2 7629   2.711   6.125   5.054
 2244SOL     OW 7630   2.645   0.304   4.531
 2244SOL    HW1 7631   2.618   0.213   4.563
 2244SOL    HW2 7632   2.611   0.317   4.438
 2245SOL     OW 7633   0.806   1.338   2.505
 2245SOL    HW1 7634   0.738   1.380   2.445
 2245SOL    HW2 7635   0.764   1.264   2.557
 2246SOL     OW 7636   0.897   3.801   6.117
 2246SOL    HW1 7637   0.957   3.876   6.091
 2246SOL    HW2 7638   0.880   3.742   6.037
 2247SOL     OW 7639   2.244   2.900   6.345
 2247SOL    HW1 7640   2.263   2.867   6.253
 2247SOL    HW2 7641   2.232   2.999   6.344
 2248SOL     OW 7642   4.663   3.872   5.921
 2248SOL    HW1 7643   4.635   3.881   6.017
 2248SOL    HW2 7644   4.713   3.786   5.909
 2249SOL     OW 7645   5.370   5.781   3.143
 2249SOL    HW1 7646   5.361   5.847   3.218
 2249SOL    HW2 7647   5.280   5.749   3.116
 2250SOL     OW 7648   6.607   4.234   1.155
 2250SOL    HW1 7649   6.568   4.143   1.164
 2250SOL    HW2 7650   6.604   4.263   1.059
 2251SOL     OW 7651   6.018   0.907   0.233
 2251SOL    HW1 7652   5.948   0.928   0.165
 2251SOL    HW2 7653   6.013   0.810   0.258
 2252SOL     OW 7654   5.552   2.671   5.285
 2252SOL    HW1 7655   5.609   2.609   5.339
 2252SOL    HW2 7656   5.455   2.649   5.298
 2253SOL     OW 7657   2.822   2.974   0.170
 2253SOL    HW1 7658   2.797   2.879   0.188
 2253SOL    HW2 7659   2.858   2.983   0.077
 2254SOL     OW 7660   2.322   3.774   6.403
 2254SOL    HW1 7661   2.260   3.775   6.324
 2254SOL    HW2 7662   2.349   3.868   6.425
 2255SOL     OW 7663   6.004   2.817   1.893
 2255SOL    HW1 7664   6.056   2.749   1.841
 2255SOL    HW2 7665   5.919   2.838   1.845
 2256SOL     OW 7666   4.162   4.740   2.028
 2256SOL    HW1 7667   4.072   4.733   1.986
 2256SOL    HW2 7668   4.194   4.648   2.053
 2257SOL     OW 7669   1.868   3.971   3.644
 2257SOL    HW1 7670   1.888   4.000   3.738
 2257SOL    HW2 7671   1.800   4.033   3.604
 2258SOL     OW 7672   1.930   5.739   5.166
 2258SOL    HW1 7673   1.988   5.723   5.086
 2258SOL    HW2 7674   1.972   5.807   5.226
 2259SOL     OW 7675   5.482   3.774   0.016
 2259SOL    HW1 7676   5.507   3.747   6.943
 2259SOL    HW2 7677   5.401   3.833   0.013
 2260SOL     OW 7678   5.281   4.679   1.517
 2260SOL    HW1 7679   5.263   4.715   1.426
 2260SOL    HW2 7680   5.226   4.730   1.584
 2261SOL     OW 7681   5.448   7.006   0.352
 2261SOL    HW1 7682   5.521   0.031   0.403
 2261SOL    HW2 7683   5.403   6.939   0.410
 2262SOL     OW 7684   4.972   2.404   4.133
 2262SOL    HW1 7685   4.881   2.417   4.091
 2262SOL    HW2 7686   5.040   2.391   4.061
 2263SOL     OW 7687   1.313   5.324   5.560
 2263SOL    HW1 7688   1.399   5.336   5.509
 2263SOL    HW2 7689   1.298   5.402   5.620
 2264SOL     OW 7690   3.163   3.229   3.565
 2264SOL    HW1 7691   3.252   3.184   3.576
 2264SOL    HW2 7692   3.176   3.327   3.551
 2265SOL     OW 7693   0.235   0.101   2.009
 2265SOL    HW1 7694   0.226   0.032   2.081
 2265SOL    HW2 7695   0.222   0.192   2.048
 2266SOL     OW 7696   5.745   0.577   0.433
 2266SOL    HW1 7697   5.776   0.511   0.501
 2266SOL    HW2 7698   5.656   0.613   0.460
 2267SOL     OW 7699   6.246   2.391   5.082
 2267SOL    HW1 7700   6.186   2.471   5.091
 2267SOL    HW2 7701   6.194   2.309   5.105
 2268SOL     OW 7702   0.030   6.247   0.132
 2268SOL    HW1 7703   6.974   6.313   0.131
 2268SOL    HW2 7704   0.104   6.281   0.074
 2269SOL     OW 7705   6.369   5.426   6.122
 2269SOL    HW1 7706   6.457   5.379   6.118
 2269SOL    HW2 7707   6.346   5.463   6.032
 2270SOL     OW 7708   3.291   3.479   2.117
 2270SOL    HW1 7709   3.218   3.449   2.178
 2270SOL    HW2 7710   3.303   3.411   2.044
 2271SOL     OW 7711   6.263   4.537   2.226
 2271SOL    HW1 7712   6.243   4.462   2.162
 2271SOL    HW2 7713   6.240   4.509   2.319
 2272SOL     OW 7714   5.437   2.056   5.869
 2272SOL    HW1 7715   5.443   2.112   5.786
 2272SOL    HW2 7716   5.374   1.980   5.854
 2273SOL     OW 7717   0.372   1.485   3.514
 2273SOL    HW1 7718   0.390   1.517   3.607
 2273SOL    HW2 7719   0.274   1.466   3.503
 2274SOL     OW 7720   1.489   3.417   4.709
 2274SOL    HW1 7721   1.442   3.330   4.725
 2274SOL    HW2 7722   1.470   3.480   4.784
 2275SOL     OW 7723   5.656   6.251   3.918
 2275SOL    HW1 7724   5.661   6.276   3.821
 2275SOL    HW2 7725   5.596   6.172   3.929
 2276SOL     OW 7726   4.172   4.336   1.555
 2276SOL    HW1 7727   4.087   4.326   1.503
 2276SOL    HW2 7728   4.180   4.260   1.621
 2277SOL     OW 7729   3.320   3.240   6.999
 2277SOL    HW1 7730   3.418   3.258   6.988
 2277SOL    HW2 7731   3.302   3.204   0.071
 2278SOL     OW 7732   5.024   6.011   1.140
 2278SOL    HW1 7733   4.993   5.982   1.049
 2278SOL    HW2 7734   5.118   5.981   1.154
 2279SOL     OW 7735   6.016   2.879   5.282
 2279SOL    HW1 7736   5.946   2.830   5.335
 2279SOL    HW2 7737   5.976   2.912   5.197
 2280SOL     OW 7738   6.239   6.062   5.818
 2280SOL    HW1 7739   6.279   5.980   5.777
 2280SOL    HW2 7740   6.142   6.046   5.837
 2281SOL     OW 7741   3.565   2.235   1.333
 2281SOL    HW1 7742   3.635   2.231   1.262
 2281SOL    HW2 7743   3.607   2.229   1.423
 2282SOL     OW 7744   4.743   5.798   3.243
 2282SOL    HW1 7745   4.658   5.784   3.192
 2282SOL    HW2 7746   4.787   5.710   3.258
 2283SOL     OW 7747   0.521   3.305   3.880
 2283SOL    HW1 7748   0.483   3.332   3.968
 2283SOL    HW2 7749   0.601   3.362   3.860
 2284SOL     OW 7750   2.247   2.168   1.773
 2284SOL    HW1 7751   2.186   2.211   1.839
 2284SOL    HW2 7752   2.201   2.158   1.685
 2285SOL     OW 7753   1.714   3.537   1.195
 2285SOL    HW1 7754   1.750   3.610   1.137
 2285SOL    HW2 7755   1.694   3.457   1.138
 2286SOL     OW 7756   6.464   6.286   4.797
 2286SOL    HW1 7757   6.499   6.216   4.736
 2286SOL    HW2 7758   6.417   6.243   4.874
 2287SOL     OW 7759   2.262   2.496   1.895
 2287SOL    HW1 7760   2.329   2.497   1.821
 2287SOL    HW2 7761   2.276   2.575   1.954
 2288SOL     OW 7762   6.976   6.299   2.699
 2288SOL    HW1 7763   0.053   6.285   2.724
 2288SOL    HW2 7764   6.954   6.396   2.709
 2289SOL     OW 7765   5.435   1.987   2.579
 2289SOL    HW1 7766   5.365   2.053   2.551
 2289SOL    HW2 7767   5.423   1.965   2.676
 2290SOL     OW 7768   2.952   3.715   2.849
 2290SOL    HW1 7769   2.913   3.624   2.836
 2290SOL    HW2 7770   3.003   3.741   2.767
 2291SOL     OW 7771   2.205   2.323   0.977
 2291SOL    HW1 7772   2.142   2.401   0.980
 2291SOL    HW2 7773   2.297   2.355   1.005
 2292SOL     OW 7774   4.099   1.699   2.825
 2292SOL    HW1 7775   4.191   1.735   2.836
 2292SOL    HW2 7776   4.035   1.754   2.879
 2293SOL     OW 7777   5.725   1.403   0.204
 2293SOL    HW1 7778   5.683   1.458   0.277
 2293SOL    HW2 7779   5.822   1.392   0.222
 2294SOL     OW 7780   0.616   2.490   6.204
 2294SOL    HW1 7781   0.659   2.430   6.136
 2294SOL    HW2 7782   0.671   2.492   6.287
 2295SOL     OW 7783   6.616   6.933   1.928
 2295SOL    HW1 7784   6.571   6.926   1.838
 2295SOL    HW2 7785   6.628   6.841   1.966
 2296SOL     OW 7786   2.612   5.475   3.600
 2296SOL    HW1 7787   2.652   5.400   3.652
 2296SOL    HW2 7788   2.621   5.457   3.502
 2297SOL     OW 7789   4.277   4.766   5.770
 2297SOL    HW1 7790   4.324   4.726   5.691
 2297SOL    HW2 7791   4.302   4.716   5.853
 2298SOL     OW 7792   3.674   3.505   4.822
 2298SOL    HW1 7793   3.583   3.498   4.782
 2298SOL    HW2 7794   3.700   3.417   4.863
 2299SOL     OW 7795   5.286   3.053   5.017
 2299SOL    HW1 7796   5.351   2.979   5.034
 2299SOL    HW2 7797   5.285   3.075   4.920
 2300SOL     OW 7798   4.485   6.280   2.901
 2300SOL    HW1 7799   4.410   6.251   2.959
 2300SOL    HW2 7800   4.449   6.335   2.825
 2301SOL     OW 7801   3.519   3.378   4.484
 2301SOL    HW1 7802   3.497   3.448   4.552
 2301SOL    HW2 7803   3.618   3.379   4.466
 2302SOL     OW 7804   5.118   1.882   0.474
 2302SOL    HW1 7805   5.122   1.974   0.435
 2302SOL    HW2 7806   5.024   1.860   0.496
 2303SOL     OW 7807   2.424   2.018   0.710
 2303SOL    HW1 7808   2.503   1.977   0.665
 2303SOL    HW2 7809   2.455   2.078   0.784
 2304SOL     OW 7810   6.412   5.954   2.349
 2304SOL    HW1 7811   6.456   5.917   2.267
 2304SOL    HW2 7812   6.368   6.040   2.326
 2305SOL     OW 7813   1.518   1.105   5.181
 2305SOL    HW1 7814   1.536   1.026   5.240
 2305SOL    HW2 7815   1.593   1.117   5.116
 2306SOL     OW 7816   2.773   4.958   3.717
 2306SOL    HW1 7817   2.750   4.937   3.813
 2306SOL    HW2 7818   2.864   4.920   3.696
 2307SOL     OW 7819   0.918   2.667   5.530
 2307SOL    HW1 7820   0.909   2.766   5.520
 2307SOL    HW2 7821   1.014   2.643   5.542
 2308SOL     OW 7822   2.655   4.404   1.715
 2308SOL    HW1 7823   2.618   4.492   1.747
 2308SOL    HW2 7824   2.750   4.396   1.745
 2309SOL     OW 7825   1.502   6.953   4.277
 2309SOL    HW1 7826   1.527   6.889   4.349
 2309SOL    HW2 7827   1.528   0.026   4.303
 2310SOL     OW 7828   4.608   6.896   1.210
 2310SOL    HW1 7829   4.607   6.980   1.263
 2310SOL    HW2 7830   4.576   6.915   1.117
 2311SOL     OW 7831   2.527   5.930   1.290
 2311SOL    HW1 7832   2.571   5.843   1.270
 2311SOL    HW2 7833   2.551   5.997   1.220
 2312SOL     OW 7834   3.516   5.279   2.670
 2312SOL    HW1 7835   3.577   5.266   2.592
 2312SOL    HW2 7836   3.438   5.216   2.662
 2313SOL     OW 7837   5.581   4.814   1.976
 2313SOL    HW1 7838   5.533   4.901   1.984
 2313SOL    HW2 7839   5.645   4.818   1.899
 2314SOL     OW 7840   2.980   6.108   3.715
 2314SOL    HW1 7841   2.967   6.062   3.627
 2314SOL    HW2 7842   3.066   6.159   3.713
 2315SOL     OW 7843   4.363   3.337   6.295
 2315SOL    HW1 7844   4.457   3.317   6.322
 2315SOL    HW2 7845   4.352   3.316   6.197
 2316SOL     OW 7846   5.727   2.907   3.279
 2316SOL    HW1 7847   5.733   2.898   3.180
 2316SOL    HW2 7848   5.631   2.900   3.308
 2317SOL     OW 7849   1.796   4.569   3.235
 2317SOL    HW1 7850   1.742   4.557   3.319
 2317SOL    HW2 7851   1.853   4.489   3.221
 2318SOL     OW 7852   6.966   0.782   3.524
 2318SOL    HW1 7853   0.037   0.747   3.501
 2318SOL    HW2 7854   6.933   0.738   3.608
 2319SOL     OW 7855   1.556   4.479   4.281
 2319SOL    HW1 7856   1.503   4.517   4.356
 2319SOL    HW2 7857   1.505   4.487   4.195
 2320SOL     OW 7858   6.956   3.014   3.958
 2320SOL    HW1 7859   7.018   2.988   3.885
 2320SOL    HW2 7860   6.994   2.988   4.046
 2321SOL     OW 7861   2.925   6.853   5.442
 2321SOL    HW1 7862   2.965   6.945   5.438
 2321SOL    HW2 7863   2.902   6.823   5.349
 2322SOL     OW 7864   1.377   0.694   4.995
 2322SOL    HW1 7865   1.340   0.676   5.086
 2322SOL    HW2 7866   1.476   0.677   4.995
 2323SOL     OW 7867   4.352   5.899   2.098
 2323SOL    HW1 7868   4.318   5.993   2.093
 2323SOL    HW2 7869   4.436   5.891   2.045
 2324SOL     OW 7870   0.268   5.286   2.928
 2324SOL    HW1 7871   0.296   5.211   2.989
 2324SOL    HW2 7872   0.216   5.248   2.851
 2325SOL     OW 7873   0.923   3.482   0.999
 2325SOL    HW1 7874   0.861   3.435   0.935
 2325SOL    HW2 7875   0.876   3.560   1.040
 2326SOL     OW 7876   0.758   5.203   0.019
 2326SOL    HW1 7877   0.845   5.165   0.049
 2326SOL    HW2 7878   0.767   5.237   6.945
 2327SOL     OW 7879   5.098   2.876   3.795
 2327SOL    HW1 7880   5.023   2.884   3.860
 2327SOL    HW2 7881   5.066   2.831   3.712
 2328SOL     OW 7882   4.129   0.919   2.995
 2328SOL    HW1 7883   4.075   0.835   2.994
 2328SOL    HW2 7884   4.135   0.956   2.902
 2329SOL     OW 7885   1.132   5.749   3.748
 2329SOL    HW1 7886   1.226   5.714   3.751
 2329SOL    HW2 7887   1.101   5.767   3.841
 2330SOL     OW 7888   1.032   4.317   2.738
 2330SOL    HW1 7889   1.041   4.287   2.833
 2330SOL    HW2 7890   1.117   4.361   2.710
 2331SOL     OW 7891   0.418   4.653   5.493
 2331SOL    HW1 7892   0.448   4.694   5.407
 2331SOL    HW2 7893   0.400   4.726   5.560
 2332SOL     OW 7894   5.350   2.574   6.149
 2332SOL    HW1 7895   5.429   2.635   6.140
 2332SOL    HW2 7896   5.349   2.510   6.073
 2333SOL     OW 7897   1.198   5.598   3.449
 2333SOL    HW1 7898   1.184   5.516   3.394
 2333SOL    HW2 7899   1.114   5.651   3.452
 2334SOL     OW 7900   3.436   6.910   6.853
 2334SOL    HW1 7901   3.441   6.936   6.950
 2334SOL    HW2 7902   3.351   6.945   6.814
 2335SOL     OW 7903   5.029   0.066   3.591
 2335SOL    HW1 7904   5.031   7.004   3.534
 2335SOL    HW2 7905   5.117   0.114   3.585
 2336SOL     OW 7906   4.998   1.291   6.123
 2336SOL    HW1 7907   5.000   1.227   6.046
 2336SOL    HW2 7908   5.061   1.367   6.104
 2337SOL     OW 7909   5.401   6.999   2.917
 2337SOL    HW1 7910   5.380   0.051   2.984
 2337SOL    HW2 7911   5.431   6.917   2.966
 2338SOL     OW 7912   0.800   6.718   6.481
 2338SOL    HW1 7913   0.866   6.709   6.407
 2338SOL    HW2 7914   0.765   6.812   6.483
 2339SOL     OW 7915   3.335   4.432   6.840
 2339SOL    HW1 7916   3.430   4.416   6.816
 2339SOL    HW2 7917   3.301   4.513   6.792
 2340SOL     OW 7918   3.828   5.628   4.933
 2340SOL    HW1 7919   3.870   5.542   4.906
 2340SOL    HW2 7920   3.895   5.702   4.925
 2341SOL     OW 7921   5.452   5.451   0.957
 2341SOL    HW1 7922   5.381   5.522   0.951
 2341SOL    HW2 7923   5.541   5.493   0.974
 2342SOL     OW 7924   6.227   0.348   5.237
 2342SOL    HW1 7925   6.229   0.419   5.308
 2342SOL    HW2 7926   6.299   0.281   5.256
 2343SOL     OW 7927   1.326   5.887   1.045
 2343SOL    HW1 7928   1.394   5.947   1.002
 2343SOL    HW2 7929   1.246   5.942   1.070
 2344SOL     OW 7930   1.586   2.121   2.114
 2344SOL    HW1 7931   1.499   2.072   2.124
 2344SOL    HW2 7932   1.573   2.217   2.139
 2345SOL     OW 7933   2.107   0.753   4.596
 2345SOL    HW1 7934   2.039   0.681   4.605
 2345SOL    HW2 7935   2.086   0.808   4.515
 2346SOL     OW 7936   5.292   3.853   5.816
 2346SOL    HW1 7937   5.329   3.843   5.908
 2346SOL    HW2 7938   5.221   3.923   5.815
 2347SOL     OW 7939   1.287   2.613   1.498
 2347SOL    HW1 7940   1.316   2.572   1.411
 2347SOL    HW2 7941   1.271   2.542   1.566
 2348SOL     OW 7942   2.592   6.762   2.178
 2348SOL    HW1 7943   2.568   6.788   2.272
 2348SOL    HW2 7944   2.516   6.783   2.118
 2349SOL     OW 7945   5.999   6.646   5.677
 2349SOL    HW1 7946   6.034   6.658   5.584
 2349SOL    HW2 7947   6.058   6.583   5.727
 2350SOL     OW 7948   2.727   0.345   5.576
 2350SOL    HW1 7949   2.650   0.385   5.526
 2350SOL    HW2 7950   2.694   0.269   5.632
 2351SOL     OW 7951   2.503   5.548   4.187
 2351SOL    HW1 7952   2.546   5.485   4.252
 2351SOL    HW2 7953   2.548   5.540   4.098
 2352SOL     OW 7954   0.820   3.952   2.953
 2352SOL    HW1 7955   0.824   3.916   2.860
 2352SOL    HW2 7956   0.909   3.941   2.997
 2353SOL     OW 7957   2.960   4.530   5.702
 2353SOL    HW1 7958   2.862   4.514   5.718
 2353SOL    HW2 7959   2.981   4.513   5.605
 2354SOL     OW 7960   3.058   2.236   0.726
 2354SOL    HW1 7961   3.091   2.214   0.817
 2354SOL    HW2 7962   3.091   2.327   0.699
 2355SOL     OW 7963   0.591   6.504   0.804
 2355SOL    HW1 7964   0.625   6.467   0.718
 2355SOL    HW2 7965   0.495   6.531   0.794
 2356SOL     OW 7966   2.804   5.189   3.299
 2356SOL    HW1 7967   2.893   5.227   3.321
 2356SOL    HW2 7968   2.760   5.156   3.382
 2357SOL     OW 7969   6.543   4.142   2.072
 2357SOL    HW1 7970   6.549   4.221   2.012
 2357SOL    HW2 7971   6.521   4.060   2.019
 2358SOL     OW 7972   3.763   1.285   5.716
 2358SOL    HW1 7973   3.783   1.222   5.641
 2358SOL    HW2 7974   3.707   1.239   5.785
 2359SOL     OW 7975   1.541   1.580   5.030
 2359SOL    HW1 7976   1.480   1.508   4.996
 2359SOL    HW2 7977   1.486   1.655   5.066
 2360SOL     OW 7978   4.188   4.767   0.783
 2360SOL    HW1 7979   4.237   4.832   0.842
 2360SOL    HW2 7980   4.243   4.684   0.773
 2361SOL     OW 7981   2.956   6.649   1.852
 2361SOL    HW1 7982   2.876   6.703   1.879
 2361SOL    HW2 7983   3.024   6.709   1.812
 2362SOL     OW 7984   4.200   5.785   4.382
 2362SOL    HW1 7985   4.136   5.817   4.452
 2362SOL    HW2 7986   4.208   5.685   4.389
 2363SOL     OW 7987   3.260   3.344   0.685
 2363SOL    HW1 7988   3.175   3.338   0.632
 2363SOL    HW2 7989   3.266   3.266   0.747
 2364SOL     OW 7990   4.086   1.781   2.223
 2364SOL    HW1 7991   4.080   1.802   2.125
 2364SOL    HW2 7992   4.079   1.682   2.236
 2365SOL     OW 7993   5.750   3.610   4.268
 2365SOL    HW1 7994   5.657   3.643   4.286
 2365SOL    HW2 7995   5.745   3.526   4.214
 2366SOL     OW 7996   2.439   4.118   5.346
 2366SOL    HW1 7997   2.531   4.109   5.383
 2366SOL    HW2 7998   2.425   4.051   5.274
 2367SOL     OW 7999   0.883   4.192   5.874
 2367SOL    HW1 8000   0.906   4.199   5.777
 2367SOL    HW2 8001   0.786   4.169   5.884
 2368SOL     OW 8002   5.734   6.971   4.418
 2368SOL    HW1 8003   5.740   0.035   4.363
 2368SOL    HW2 8004   5.751   6.994   4.514
 2369SOL     OW 8005   3.195   1.206   3.385
 2369SOL    HW1 8006   3.142   1.126   3.416
 2369SOL    HW2 8007   3.159   1.288   3.430
 2370SOL     OW 8008   5.603   2.711   1.239
 2370SOL    HW1 8009   5.546   2.653   1.180
 2370SOL    HW2 8010   5.644   2.784   1.184
 2371SOL     OW 8011   0.853   6.681   2.781
 2371SOL    HW1 8012   0.798   6.666   2.699
 2371SOL    HW2 8013   0.917   6.756   2.765
 2372SOL     OW 8014   6.689   1.557   5.910
 2372SOL    HW1 8015   6.591   1.551   5.889
 2372SOL    HW2 8016   6.732   1.468   5.894
 2373SOL     OW 8017   6.315   6.558   6.190
 2373SOL    HW1 8018   6.383   6.494   6.156
 2373SOL    HW2 8019   6.353   6.608   6.268
 2374SOL     OW 8020   6.406   5.926   2.850
 2374SOL    HW1 8021   6.490   5.877   2.872
 2374SOL    HW2 8022   6.402   5.943   2.752
 2375SOL     OW 8023   1.293   0.756   4.068
 2375SOL    HW1 8024   1.298   0.695   3.989
 2375SOL    HW2 8025   1.275   0.702   4.150
 2376SOL     OW 8026   5.755   1.931   2.694
 2376SOL    HW1 8027   5.827   1.949   2.762
 2376SOL    HW2 8028   5.797   1.904   2.607
 2377SOL     OW 8029   4.566   4.879   6.000
 2377SOL    HW1 8030   4.655   4.840   6.025
 2377SOL    HW2 8031   4.539   4.946   6.069
 2378SOL     OW 8032   6.987   1.395   0.489
 2378SOL    HW1 8033   6.916   1.424   0.553
 2378SOL    HW2 8034   0.054   1.438   0.513
 2379SOL     OW 8035   6.685   5.426   0.855
 2379SOL    HW1 8036   6.637   5.476   0.783
 2379SOL    HW2 8037   6.751   5.364   0.814
 2380SOL     OW 8038   4.884   4.564   4.815
 2380SOL    HW1 8039   4.955   4.508   4.773
 2380SOL    HW2 8040   4.925   4.627   4.882
 2381SOL     OW 8041   2.956   5.144   5.261
 2381SOL    HW1 8042   2.876   5.114   5.208
 2381SOL    HW2 8043   3.034   5.157   5.200
 2382SOL     OW 8044   1.454   6.229   2.202
 2382SOL    HW1 8045   1.437   6.161   2.131
 2382SOL    HW2 8046   1.498   6.309   2.162
 2383SOL     OW 8047   5.194   5.802   4.973
 2383SOL    HW1 8048   5.135   5.811   5.053
 2383SOL    HW2 8049   5.278   5.754   4.999
 2384SOL     OW 8050   0.975   1.608   1.504
 2384SOL    HW1 8051   0.997   1.570   1.593
 2384SOL    HW2 8052   0.975   1.708   1.509
 2385SOL     OW 8053   0.361   2.100   0.432
 2385SOL    HW1 8054   0.445   2.151   0.415
 2385SOL    HW2 8055   0.367   2.054   0.521
 2386SOL     OW 8056   4.484   5.651   4.139
 2386SOL    HW1 8057   4.573   5.631   4.097
 2386SOL    HW2 8058   4.473   5.750   4.148
 2387SOL     OW 8059   1.185   1.540   3.017
 2387SOL    HW1 8060   1.186   1.637   2.993
 2387SOL    HW2 8061   1.264   1.520   3.076
 2388SOL     OW 8062   6.631   2.172   6.180
 2388SOL    HW1 8063   6.666   2.147   6.270
 2388SOL    HW2 8064   6.608   2.088   6.130
 2389SOL     OW 8065   5.036   4.809   3.643
 2389SOL    HW1 8066   4.995   4.718   3.635
 2389SOL    HW2 8067   4.985   4.873   3.587
 2390SOL     OW 8068   4.959   4.011   6.049
 2390SOL    HW1 8069   4.920   3.997   5.958
 2390SOL    HW2 8070   4.886   4.027   6.115
 2391SOL     OW 8071   3.325   3.309   6.084
 2391SOL    HW1 8072   3.274   3.317   6.170
 2391SOL    HW2 8073   3.423   3.317   6.102
 2392SOL     OW 8074   3.563   5.796   5.000
 2392SOL    HW1 8075   3.506   5.853   4.941
 2392SOL    HW2 8076   3.615   5.731   4.944
 2393SOL     OW 8077   3.609   5.267   0.862
 2393SOL    HW1 8078   3.647   5.176   0.878
 2393SOL    HW2 8079   3.678   5.336   0.882
 2394SOL     OW 8080   0.632   3.460   3.467
 2394SOL    HW1 8081   0.629   3.524   3.544
 2394SOL    HW2 8082   0.697   3.387   3.486
 2395SOL     OW 8083   0.479   2.857   5.839
 2395SOL    HW1 8084   0.484   2.930   5.907
 2395SOL    HW2 8085   0.494   2.768   5.883
 2396SOL     OW 8086   5.951   1.298   5.421
 2396SOL    HW1 8087   5.967   1.200   5.434
 2396SOL    HW2 8088   5.858   1.312   5.387
 2397SOL     OW 8089   0.634   4.878   5.296
 2397SOL    HW1 8090   0.702   4.913   5.232
 2397SOL    HW2 8091   0.681   4.829   5.371
 2398SOL     OW 8092   2.847   5.495   4.134
 2398SOL    HW1 8093   2.810   5.587   4.143
 2398SOL    HW2 8094   2.850   5.450   4.223
 2399SOL     OW 8095   2.730   2.358   3.442
 2399SOL    HW1 8096   2.639   2.396   3.424
 2399SOL    HW2 8097   2.727   2.301   3.524
 2400SOL     OW 8098   1.154   3.913   0.110
 2400SOL    HW1 8099   1.140   4.002   0.066
 2400SOL    HW2 8100   1.070   3.886   0.156
 2401SOL     OW 8101   4.110   6.844   5.320
 2401SOL    HW1 8102   4.104   6.936   5.360
 2401SOL    HW2 8103   4.140   6.853   5.225
 2402SOL     OW 8104   1.059   1.994   2.025
 2402SOL    HW1 8105   1.035   1.908   1.981
 2402SOL    HW2 8106   1.067   2.066   1.955
 2403SOL     OW 8107   3.434   3.630   2.339
 2403SOL    HW1 8108   3.415   3.688   2.260
 2403SOL    HW2 8109   3.365   3.645   2.409
 2404SOL     OW 8110   6.791   1.383   0.919
 2404SOL    HW1 8111   6.693   1.367   0.905
 2404SOL    HW2 8112   6.809   1.481   0.917
 2405SOL     OW 8113   2.835   4.087   0.416
 2405SOL    HW1 8114   2.837   4.144   0.334
 2405SOL    HW2 8115   2.919   4.033   0.422
 2406SOL     OW 8116   2.098   0.420   4.783
 2406SOL    HW1 8117   2.182   0.435   4.836
 2406SOL    HW2 8118   2.101   0.327   4.744
 2407SOL     OW 8119   3.886   1.565   3.395
 2407SOL    HW1 8120   3.878   1.502   3.472
 2407SOL    HW2 8121   3.803   1.621   3.389
 2408SOL     OW 8122   2.191   6.588   4.064
 2408SOL    HW1 8123   2.265   6.627   4.010
 2408SOL    HW2 8124   2.123   6.658   4.084
 2409SOL     OW 8125   2.254   2.591   0.753
 2409SOL    HW1 8126   2.194   2.666   0.781
 2409SOL    HW2 8127   2.214   2.503   0.781
 2410SOL     OW 8128   6.677   3.199   5.959
 2410SOL    HW1 8129   6.675   3.121   5.897
 2410SOL    HW2 8130   6.741   3.268   5.923
 2411SOL     OW 8131   2.609   3.408   0.381
 2411SOL    HW1 8132   2.535   3.350   0.416
 2411SOL    HW2 8133   2.663   3.356   0.315
 2412SOL     OW 8134   2.610   1.905   6.566
 2412SOL    HW1 8135   2.675   1.838   6.529
 2412SOL    HW2 8136   2.577   1.964   6.493
 2413SOL     OW 8137   0.152   2.506   6.366
 2413SOL    HW1 8138   0.052   2.509   6.373
 2413SOL    HW2 8139   0.192   2.560   6.441
 2414SOL     OW 8140   6.113   2.520   4.232
 2414SOL    HW1 8141   6.139   2.436   4.278
 2414SOL    HW2 8142   6.145   2.517   4.137
 2415SOL     OW 8143   2.874   6.026   1.245
 2415SOL    HW1 8144   2.912   6.118   1.252
 2415SOL    HW2 8145   2.792   6.028   1.188
 2416SOL     OW 8146   6.880   3.180   3.000
 2416SOL    HW1 8147   6.935   3.106   2.960
 2416SOL    HW2 8148   6.787   3.147   3.015
 2417SOL     OW 8149   3.887   2.527   0.543
 2417SOL    HW1 8150   3.830   2.549   0.464
 2417SOL    HW2 8151   3.869   2.433   0.572
 2418SOL     OW 8152   4.947   4.200   5.643
 2418SOL    HW1 8153   4.862   4.170   5.687
 2418SOL    HW2 8154   4.943   4.181   5.545
 2419SOL     OW 8155   1.985   6.304   4.339
 2419SOL    HW1 8156   1.899   6.259   4.315
 2419SOL    HW2 8157   2.046   6.238   4.383
 2420SOL     OW 8158   3.262   5.149   2.569
 2420SOL    HW1 8159   3.230   5.055   2.557
 2420SOL    HW2 8160   3.185   5.207   2.595
 2421SOL     OW 8161   3.267   6.903   4.546
 2421SOL    HW1 8162   3.259   6.808   4.576
 2421SOL    HW2 8163   3.179   6.934   4.509
 2422SOL     OW 8164   4.113   6.671   2.320
 2422SOL    HW1 8165   4.045   6.631   2.258
 2422SOL    HW2 8166   4.142   6.760   2.284
 2423SOL     OW 8167   1.667   5.447   2.430
 2423SOL    HW1 8168   1.689   5.388   2.352
 2423SOL    HW2 8169   1.747   5.501   2.455
 2424SOL     OW 8170   5.319   0.977   6.681
 2424SOL    HW1 8171   5.319   0.906   6.611
 2424SOL    HW2 8172   5.376   0.949   6.758
 2425SOL     OW 8173   4.598   5.390   5.811
 2425SOL    HW1 8174   4.576   5.404   5.715
 2425SOL    HW2 8175   4.616   5.479   5.855
 2426SOL     OW 8176   1.238   5.147   5.369
 2426SOL    HW1 8177   1.244   5.059   5.415
 2426SOL    HW2 8178   1.256   5.221   5.434
 2427SOL     OW 8179   5.399   0.306   6.359
 2427SOL    HW1 8180   5.436   0.242   6.426
 2427SOL    HW2 8181   5.330   0.260   6.304
 2428SOL     OW 8182   0.172   1.208   3.495
 2428SOL    HW1 8183   0.119   1.151   3.559
 2428SOL    HW2 8184   0.160   1.304   3.519
 2429SOL     OW 8185   5.621   5.401   1.950
 2429SOL    HW1 8186   5.584   5.468   1.885
 2429SOL    HW2 8187   5.546   5.354   1.996
 2430SOL     OW 8188   6.012   2.987   0.398
 2430SOL    HW1 8189   6.060   3.074   0.385
 2430SOL    HW2 8190   5.956   2.992   0.481
 2431SOL     OW 8191   6.307   2.187   1.443
 2431SOL    HW1 8192   6.403   2.162   1.425
 2431SOL    HW2 8193   6.254   2.104   1.458
 2432SOL     OW 8194   3.626   5.859   2.373
 2432SOL    HW1 8195   3.642   5.853   2.274
 2432SOL    HW2 8196   3.699   5.913   2.415
 2433SOL     OW 8197   6.749   5.777   0.143
 2433SOL    HW1 8198   6.743   5.766   0.043
 2433SOL    HW2 8199   6.657   5.792   0.180
 2434SOL     OW 8200   4.061   2.219   2.724
 2434SOL    HW1 8201   4.115   2.198   2.642
 2434SOL    HW2 8202   3.965   2.192   2.708
 2435SOL     OW 8203   5.765   0.233   6.627
 2435SOL    HW1 8204   5.674   0.207   6.659
 2435SOL    HW2 8205   5.773   0.215   6.529
 2436SOL     OW 8206   0.753   1.290   1.104
 2436SOL    HW1 8207   0.810   1.328   1.032
 2436SOL    HW2 8208   0.764   1.343   1.188
 2437SOL     OW 8209   6.988   5.863   2.203
 2437SOL    HW1 8210   6.896   5.900   2.194
 2437SOL    HW2 8211   7.005   5.836   2.298
 2438SOL     OW 8212   3.075   1.709   4.561
 2438SOL    HW1 8213   3.079   1.727   4.463
 2438SOL    HW2 8214   3.065   1.796   4.610
 2439SOL     OW 8215   0.378   4.799   6.755
 2439SOL    HW1 8216   0.424   4.711   6.747
 2439SOL    HW2 8217   0.351   4.815   6.850
 2440SOL     OW 8218   4.235   1.304   4.725
 2440SOL    HW1 8219   4.290   1.224   4.699
 2440SOL    HW2 8220   4.138   1.280   4.725
 2441SOL     OW 8221   6.090   6.929   6.809
 2441SOL    HW1 8222   6.138   6.992   6.749
 2441SOL    HW2 8223   5.995   6.959   6.820
 2442SOL     OW 8224   5.063   3.439   1.963
 2442SOL    HW1 8225   5.035   3.363   1.904
 2442SOL    HW2 8226   4.983   3.494   1.985
 2443SOL     OW 8227   2.224   1.099   6.952
 2443SOL    HW1 8228   2.228   1.128   6.856
 2443SOL    HW2 8229   2.211   1.180   7.010
 2444SOL     OW 8230   3.760   5.418   0.508
 2444SOL    HW1 8231   3.662   5.406   0.522
 2444SOL    HW2 8232   3.804   5.328   0.502
 2445SOL     OW 8233   0.252   2.116   1.091
 2445SOL    HW1 8234   0.196   2.073   1.162
 2445SOL    HW2 8235   0.320   2.175   1.134
 2446SOL     OW 8236   1.344   3.563   2.190
 2446SOL    HW1 8237   1.246   3.580   2.195
 2446SOL    HW2 8238   1.369   3.540   2.096
 2447SOL     OW 8239   2.054   0.761   0.594
 2447SOL    HW1 8240   2.081   0.734   0.502
 2447SOL    HW2 8241   2.014   0.682   0.641
 2448SOL     OW 8242   6.001   2.071   4.185
 2448SOL    HW1 8243   6.042   2.148   4.233
 2448SOL    HW2 8244   6.053   1.988   4.204
 2449SOL     OW 8245   2.189   4.487   1.875
 2449SOL    HW1 8246   2.096   4.453   1.866
 2449SOL    HW2 8247   2.213   4.540   1.793
 2450SOL     OW 8248   2.298   5.853   6.370
 2450SOL    HW1 8249   2.295   5.908   6.286
 2450SOL    HW2 8250   2.288   5.756   6.346
 2451SOL     OW 8251   0.789   0.395   3.982
 2451SOL    HW1 8252   0.835   0.382   3.894
 2451SOL    HW2 8253   0.693   0.368   3.975
 2452SOL     OW 8254   2.450   2.527   3.573
 2452SOL    HW1 8255   2.440   2.601   3.506
 2452SOL    HW2 8256   2.405   2.445   3.539
 2453SOL     OW 8257   6.923   2.123   0.592
 2453SOL    HW1 8258   6.969   2.116   0.504
 2453SOL    HW2 8259   6.967   2.062   0.658
 2454SOL     OW 8260   3.259   5.612   0.773
 2454SOL    HW1 8261   3.340   5.655   0.732
 2454SOL    HW2 8262   3.225   5.670   0.847
 2455SOL     OW 8263   3.317   1.217   0.198
 2455SOL    HW1 8264   3.314   1.246   0.294
 2455SOL    HW2 8265   3.234   1.167   0.175
 2456SOL     OW 8266   1.124   4.073   6.715
 2456SOL    HW1 8267   1.062   4.140   6.757
 2456SOL    HW2 8268   1.215   4.081   6.756
 2457SOL     OW 8269   5.406   1.498   5.625
 2457SOL    HW1 8270   5.478   1.525   5.689
 2457SOL    HW2 8271   5.338   1.442   5.673
 2458SOL     OW 8272   0.817   0.764   3.133
 2458SOL    HW1 8273   0.718   0.772   3.118
 2458SOL    HW2 8274   0.853   0.852   3.165
 2459SOL     OW 8275   3.065   5.576   6.850
 2459SOL    HW1 8276   3.122   5.497   6.826
 2459SOL    HW2 8277   3.088   5.607   6.942
 2460SOL     OW 8278   0.638   1.152   6.730
 2460SOL    HW1 8279   0.691   1.223   6.684
 2460SOL    HW2 8280   0.623   1.075   6.668
 2461SOL     OW 8281   4.259   0.331   4.656
 2461SOL    HW1 8282   4.191   0.315   4.728
 2461SOL    HW2 8283   4.213   0.336   4.567
 2462SOL     OW 8284   0.739   4.804   0.632
 2462SOL    HW1 8285   0.708   4.762   0.717
 2462SOL    HW2 8286   0.790   4.736   0.578
 2463SOL     OW 8287   6.845   1.295   0.264
 2463SOL    HW1 8288   6.917   1.348   0.309
 2463SOL    HW2 8289   6.763   1.352   0.255
 2464SOL     OW 8290   0.619   2.860   2.862
 2464SOL    HW1 8291   0.548   2.913   2.908
 2464SOL    HW2 8292   0.678   2.922   2.810
 2465SOL     OW 8293   6.748   5.434   6.527
 2465SOL    HW1 8294   6.719   5.476   6.441
 2465SOL    HW2 8295   6.830   5.379   6.511
 2466SOL     OW 8296   1.430   1.919   1.895
 2466SOL    HW1 8297   1.416   1.823   1.919
 2466SOL    HW2 8298   1.403   1.977   1.973
 2467SOL     OW 8299   4.297   1.792   6.117
 2467SOL    HW1 8300   4.378   1.765   6.170
 2467SOL    HW2 8301   4.256   1.712   6.075
 2468SOL     OW 8302   3.693   0.392   6.711
 2468SOL    HW1 8303   3.775   0.368   6.762
 2468SOL    HW2 8304   3.642   0.309   6.688
 2469SOL     OW 8305   4.547   2.847   5.850
 2469SOL    HW1 8306   4.554   2.760   5.801
 2469SOL    HW2 8307   4.541   2.830   5.949
 2470SOL     OW 8308   3.909   4.366   6.094
 2470SOL    HW1 8309   3.894   4.465   6.100
 2470SOL    HW2 8310   3.855   4.320   6.165
 2471SOL     OW 8311   3.851   6.954   1.004
 2471SOL    HW1 8312   3.925   6.954   1.072
 2471SOL    HW2 8313   3.865   6.878   0.940
 2472SOL     OW 8314   4.641   2.682   4.068
 2472SOL    HW1 8315   4.667   2.666   3.973
 2472SOL    HW2 8316   4.581   2.609   4.100
 2473SOL     OW 8317   1.254   4.374   4.684
 2473SOL    HW1 8318   1.260   4.275   4.698
 2473SOL    HW2 8319   1.158   4.402   4.686
 2474SOL     OW 8320   1.352   5.541   0.529
 2474SOL    HW1 8321   1.335   5.488   0.613
 2474SOL    HW2 8322   1.450   5.541   0.509
 2475SOL     OW 8323   4.378   0.867   0.750
 2475SOL    HW1 8324   4.393   0.956   0.793
 2475SOL    HW2 8325   4.345   0.879   0.656
 2476SOL     OW 8326   5.389   0.365   2.708
 2476SOL    HW1 8327   5.422   0.370   2.803
 2476SOL    HW2 8328   5.389   0.456   2.668
 2477SOL     OW 8329   4.034   0.562   3.563
 2477SOL    HW1 8330   4.062   0.645   3.610
 2477SOL    HW2 8331   4.111   0.498   3.558
 2478SOL     OW 8332   4.269   0.884   2.468
 2478SOL    HW1 8333   4.271   0.794   2.425
 2478SOL    HW2 8334   4.363   0.914   2.487
 2479SOL     OW 8335   1.031   2.520   1.118
 2479SOL    HW1 8336   0.938   2.541   1.088
 2479SOL    HW2 8337   1.091   2.516   1.038
 2480SOL     OW 8338   3.980   2.774   1.229
 2480SOL    HW1 8339   3.934   2.729   1.305
 2480SOL    HW2 8340   3.913   2.811   1.165
 2481SOL     OW 8341   2.494   0.407   1.382
 2481SOL    HW1 8342   2.585   0.400   1.341
 2481SOL    HW2 8343   2.443   0.323   1.364
 2482SOL     OW 8344   5.307   3.294   0.024
 2482SOL    HW1 8345   5.386   3.327   6.992
 2482SOL    HW2 8346   5.254   3.230   6.987
 2483SOL     OW 8347   1.276   1.853   0.155
 2483SOL    HW1 8348   1.281   1.762   0.112
 2483SOL    HW2 8349   1.340   1.856   0.232
 2484SOL     OW 8350   3.204   0.571   0.942
 2484SOL    HW1 8351   3.215   0.592   0.845
 2484SOL    HW2 8352   3.120   0.517   0.955
 2485SOL     OW 8353   4.992   3.200   0.324
 2485SOL    HW1 8354   4.968   3.212   0.420
 2485SOL    HW2 8355   5.037   3.283   0.290
 2486SOL     OW 8356   0.591   5.416   5.596
 2486SOL    HW1 8357   0.520   5.451   5.534
 2486SOL    HW2 8358   0.581   5.460   5.686
 2487SOL     OW 8359   3.712   6.060   0.469
 2487SOL    HW1 8360   3.676   6.129   0.407
 2487SOL    HW2 8361   3.666   5.973   0.451
 2488SOL     OW 8362   0.276   3.289   1.878
 2488SOL    HW1 8363   0.324   3.222   1.821
 2488SOL    HW2 8364   0.285   3.264   1.974
 2489SOL     OW 8365   0.799   5.826   3.367
 2489SOL    HW1 8366   0.842   5.736   3.372
 2489SOL    HW2 8367   0.746   5.833   3.282
 2490SOL     OW 8368   0.531   5.978   1.167
 2490SOL    HW1 8369   0.587   5.912   1.217
 2490SOL    HW2 8370   0.586   6.021   1.095
 2491SOL     OW 8371   3.906   4.560   1.160
 2491SOL    HW1 8372   3.952   4.631   1.108
 2491SOL    HW2 8373   3.880   4.485   1.099
 2492SOL     OW 8374   4.454   3.483   1.147
 2492SOL    HW1 8375   4.446   3.563   1.206
 2492SOL    HW2 8376   4.450   3.511   1.051
 2493SOL     OW 8377   6.727   0.171   1.501
 2493SOL    HW1 8378   6.793   0.239   1.531
 2493SOL    HW2 8379   6.648   0.171   1.563
 2494SOL     OW 8380   6.040   3.979   2.266
 2494SOL    HW1 8381   6.056   3.888   2.303
 2494SOL    HW2 8382   6.117   4.006   2.208
 2495SOL     OW 8383   5.653   5.728   3.532
 2495SOL    HW1 8384   5.744   5.688   3.546
 2495SOL    HW2 8385   5.640   5.750   3.435
 2496SOL     OW 8386   0.631   3.336   6.770
 2496SOL    HW1 8387   0.722   3.375   6.758
 2496SOL    HW2 8388   0.567   3.383   6.709
 2497SOL     OW 8389   0.474   0.011   1.140
 2497SOL    HW1 8390   0.527   6.953   1.174
 2497SOL    HW2 8391   0.460   0.076   1.215
 2498SOL     OW 8392   3.514   2.174   5.753
 2498SOL    HW1 8393   3.600   2.202   5.709
 2498SOL    HW2 8394   3.442   2.165   5.684
 2499SOL     OW 8395   5.842   3.429   2.399
 2499SOL    HW1 8396   5.897   3.496   2.349
 2499SOL    HW2 8397   5.832   3.459   2.494
 2500SOL     OW 8398   4.033   3.923   6.421
 2500SOL    HW1 8399   4.047   3.828   6.392
 2500SOL    HW2 8400   3.950   3.960   6.379
 2501SOL     OW 8401   5.321   5.604   0.305
 2501SOL    HW1 8402   5.245   5.646   0.355
 2501SOL    HW2 8403   5.311   5.505   0.304
 2502SOL     OW 8404   1.963   0.703   5.205
 2502SOL    HW1 8405   1.974   0.793   5.164
 2502SOL    HW2 8406   2.050   0.672   5.243
 2503SOL     OW 8407   3.092   6.878   5.007
 2503SOL    HW1 8408   3.040   6.961   4.990
 2503SOL    HW2 8409   3.035   6.798   4.988
 2504SOL     OW 8410   3.714   5.920   3.203
 2504SOL    HW1 8411   3.743   5.916   3.107
 2504SOL    HW2 8412   3.794   5.938   3.260
 2505SOL     OW 8413   0.329   5.892   2.705
 2505SOL    HW1 8414   0.417   5.880   2.659
 2505SOL    HW2 8415   0.281   5.970   2.664
 2506SOL     OW 8416   6.708   2.817   6.322
 2506SOL    HW1 8417   6.699   2.903   6.271
 2506SOL    HW2 8418   6.681   2.833   6.417
 2507SOL     OW 8419   6.983   3.524   0.139
 2507SOL    HW1 8420   6.983   3.624   0.132
 2507SOL    HW2 8421   0.051   3.489   0.107
 2508SOL     OW 8422   2.776   1.599   3.818
 2508SOL    HW1 8423   2.815   1.688   3.839
 2508SOL    HW2 8424   2.730   1.602   3.730
 2509SOL     OW 8425   6.998   4.674   1.292
 2509SOL    HW1 8426   0.022   4.718   1.370
 2509SOL    HW2 8427   6.920   4.620   1.324
 2510SOL     OW 8428   3.015   4.805   1.028
 2510SOL    HW1 8429   3.015   4.814   0.929
 2510SOL    HW2 8430   2.973   4.717   1.053
 2511SOL     OW 8431   2.719   1.342   3.874
 2511SOL    HW1 8432   2.648   1.352   3.943
 2511SOL    HW2 8433   2.780   1.421   3.876
 2512SOL     OW 8434   4.245   4.104   5.341
 2512SOL    HW1 8435   4.271   4.201   5.336
 2512SOL    HW2 8436   4.191   4.089   5.423
 2513SOL     OW 8437   1.834   5.690   4.697
 2513SOL    HW1 8438   1.887   5.771   4.719
 2513SOL    HW2 8439   1.810   5.690   4.600
 2514SOL     OW 8440   0.497   3.974   4.522
 2514SOL    HW1 8441   0.483   4.018   4.611
 2514SOL    HW2 8442   0.471   4.038   4.450
 2515SOL     OW 8443   1.630   6.270   0.700
 2515SOL    HW1 8444   1.664   6.364   0.708
 2515SOL    HW2 8445   1.546   6.261   0.752
 2516SOL     OW 8446   5.140   1.361   2.330
 2516SOL    HW1 8447   5.041   1.349   2.321
 2516SOL    HW2 8448   5.162   1.459   2.333
 2517SOL     OW 8449   1.328   0.600   5.906
 2517SOL    HW1 8450   1.400   0.562   5.965
 2517SOL    HW2 8451   1.252   0.633   5.963
 2518SOL     OW 8452   1.061   5.383   1.056
 2518SOL    HW1 8453   1.119   5.303   1.071
 2518SOL    HW2 8454   0.965   5.353   1.050
 2519SOL     OW 8455   3.227   0.426   1.852
 2519SOL    HW1 8456   3.156   0.399   1.788
 2519SOL    HW2 8457   3.265   0.515   1.824
 2520SOL     OW 8458   3.178   1.766   0.685
 2520SOL    HW1 8459   3.238   1.710   0.742
 2520SOL    HW2 8460   3.223   1.784   0.597
 2521SOL     OW 8461   3.105   0.978   5.497
 2521SOL    HW1 8462   3.135   0.935   5.412
 2521SOL    HW2 8463   3.013   0.946   5.520
 2522SOL     OW 8464   1.439   1.230   5.437
 2522SOL    HW1 8465   1.459   1.209   5.341
 2522SOL    HW2 8466   1.349   1.193   5.461
 2523SOL     OW 8467   0.992   2.926   0.891
 2523SOL    HW1 8468   0.961   3.019   0.873
 2523SOL    HW2 8469   1.029   2.921   0.983
 2524SOL     OW 8470   6.827   6.582   4.809
 2524SOL    HW1 8471   6.867   6.672   4.792
 2524SOL    HW2 8472   6.812   6.570   4.907
 2525SOL     OW 8473   0.798   2.639   5.164
 2525SOL    HW1 8474   0.860   2.709   5.201
 2525SOL    HW2 8475   0.707   2.651   5.204
 2526SOL     OW 8476   1.684   4.496   6.976
 2526SOL    HW1 8477   1.728   4.408   6.960
 2526SOL    HW2 8478   1.599   4.500   6.924
 2527SOL     OW 8479   5.741   6.765   5.701
 2527SOL    HW1 8480   5.833   6.726   5.702
 2527SOL    HW2 8481   5.709   6.770   5.606
 2528SOL     OW 8482   5.436   4.910   6.264
 2528SOL    HW1 8483   5.461   4.865   6.350
 2528SOL    HW2 8484   5.484   4.997   6.256
 2529SOL     OW 8485   6.905   6.382   6.871
 2529SOL    HW1 8486   6.815   6.365   6.830
 2529SOL    HW2 8487   6.893   6.436   6.955
 2530SOL     OW 8488   2.747   6.260   4.780
 2530SOL    HW1 8489   2.661   6.274   4.730
 2530SOL    HW2 8490   2.799   6.345   4.781
 2531SOL     OW 8491   6.129   6.210   5.146
 2531SOL    HW1 8492   6.195   6.156   5.095
 2531SOL    HW2 8493   6.102   6.161   5.229
 2532SOL     OW 8494   0.141   6.388   0.669
 2532SOL    HW1 8495   0.061   6.433   0.710
 2532SOL    HW2 8496   0.109   6.314   0.609
 2533SOL     OW 8497   4.325   0.099   3.287
 2533SOL    HW1 8498   4.307   0.012   3.241
 2533SOL    HW2 8499   4.276   0.172   3.240
 2534SOL     OW 8500   3.721   1.534   1.831
 2534SOL    HW1 8501   3.770   1.598   1.890
 2534SOL    HW2 8502   3.652   1.584   1.779
 2535SOL     OW 8503   3.577   3.494   6.480
 2535SOL    HW1 8504   3.589   3.537   6.391
 2535SOL    HW2 8505   3.488   3.521   6.518
 2536SOL     OW 8506   1.053   1.353   6.370
 2536SOL    HW1 8507   0.973   1.407   6.344
 2536SOL    HW2 8508   1.132   1.413   6.379
 2537SOL     OW 8509   3.179   0.063   6.455
 2537SOL    HW1 8510   3.147   0.092   6.364
 2537SOL    HW2 8511   3.233   7.000   6.446
 2538SOL     OW 8512   0.222   3.929   3.401
 2538SOL    HW1 8513   0.231   3.840   3.356
 2538SOL    HW2 8514   0.238   3.918   3.499
 2539SOL     OW 8515   5.658   0.937   4.231
 2539SOL    HW1 8516   5.587   0.885   4.279
 2539SOL    HW2 8517   5.633   1.034   4.231
 2540SOL     OW 8518   4.218   2.160   2.484
 2540SOL    HW1 8519   4.172   2.139   2.398
 2540SOL    HW2 8520   4.292   2.095   2.499
 2541SOL     OW 8521   3.319   0.540   5.002
 2541SOL    HW1 8522   3.275   0.626   4.977
 2541SOL    HW2 8523   3.393   0.557   5.067
 2542SOL     OW 8524   3.827   3.235   6.372
 2542SOL    HW1 8525   3.793   3.257   6.464
 2542SOL    HW2 8526   3.794   3.144   6.345
 2543SOL     OW 8527   0.353   0.897   3.546
 2543SOL    HW1 8528   0.324   0.904   3.450
 2543SOL    HW2 8529   0.289   0.838   3.595
 2544SOL     OW 8530   0.428   5.968   0.497
 2544SOL    HW1 8531   0.361   5.935   0.430
 2544SOL    HW2 8532   0.394   6.053   0.538
 2545SOL     OW 8533   1.711   6.707   2.098
 2545SOL    HW1 8534   1.689   6.740   2.189
 2545SOL    HW2 8535   1.751   6.782   2.044
 2546SOL     OW 8536   0.136   1.281   1.835
 2546SOL    HW1 8537   0.104   1.289   1.930
 2546SOL    HW2 8538   0.086   1.208   1.789
 2547SOL     OW 8539   0.742   3.950   6.996
 2547SOL    HW1 8540   0.661   3.892   6.987
 2547SOL    HW2 8541   0.803   3.936   6.918
 2548SOL     OW 8542   1.066   6.665   4.579
 2548SOL    HW1 8543   1.164   6.647   4.570
 2548SOL    HW2 8544   1.053   6.762   4.602
 2549SOL     OW 8545   0.731   0.303   1.126
 2549SOL    HW1 8546   0.676   0.233   1.172
 2549SOL    HW2 8547   0.828   0.280   1.135
 2550SOL     OW 8548   6.730   0.155   0.021
 2550SOL    HW1 8549   6.682   0.087   0.077
 2550SOL    HW2 8550   6.781   0.217   0.080
 2551SOL     OW 8551   3.289   4.540   0.084
 2551SOL    HW1 8552   3.314   4.511   7.011
 2551SOL    HW2 8553   3.199   4.503   0.108
 2552SOL     OW 8554   1.678   5.945   4.478
 2552SOL    HW1 8555   1.749   5.915   4.414
 2552SOL    HW2 8556   1.628   5.865   4.513
 2553SOL     OW 8557   3.952   3.524   5.936
 2553SOL    HW1 8558   4.040   3.558   5.903
 2553SOL    HW2 8559   3.910   3.594   5.994
 2554SOL     OW 8560   2.875   0.497   0.567
 2554SOL    HW1 8561   2.805   0.496   0.496
 2554SOL    HW2 8562   2.866   0.417   0.625
 2555SOL     OW 8563   6.282   1.007   4.819
 2555SOL    HW1 8564   6.367   1.060   4.807
 2555SOL    HW2 8565   6.304   0.918   4.858
 2556SOL     OW 8566   4.351   6.522   0.362
 2556SOL    HW1 8567   4.433   6.479   0.399
 2556SOL    HW2 8568   4.284   6.452   0.339
 2557SOL     OW 8569   1.561   3.793   0.549
 2557SOL    HW1 8570   1.517   3.819   0.463
 2557SOL    HW2 8571   1.502   3.731   0.600
 2558SOL     OW 8572   4.906   1.267   4.792
 2558SOL    HW1 8573   4.989   1.213   4.776
 2558SOL    HW2 8574   4.922   1.333   4.865
 2559SOL     OW 8575   0.773   4.552   5.185
 2559SOL    HW1 8576   0.772   4.458   5.218
 2559SOL    HW2 8577   0.785   4.614   5.262
 2560SOL     OW 8578   5.460   2.330   5.984
 2560SOL    HW1 8579   5.494   2.297   5.896
 2560SOL    HW2 8580   5.521   2.299   6.057
 2561SOL     OW 8581   2.407   5.200   5.210
 2561SOL    HW1 8582   2.507   5.208   5.200
 2561SOL    HW2 8583   2.377   5.112   5.173
 2562SOL     OW 8584   2.968   4.961   1.652
 2562SOL    HW1 8585   2.910   4.883   1.673
 2562SOL    HW2 8586   3.039   4.933   1.587
 2563SOL     OW 8587   3.467   1.588   0.334
 2563SOL    HW1 8588   3.431   1.636   0.414
 2563SOL    HW2 8589   3.421   1.499   0.325
 2564SOL     OW 8590   1.957   5.909   6.995
 2564SOL    HW1 8591   2.026   5.928   6.925
 2564SOL    HW2 8592   1.986   5.950   0.062
 2565SOL     OW 8593   1.216   6.867   6.556
 2565SOL    HW1 8594   1.310   6.894   6.537
 2565SOL    HW2 8595   1.165   6.944   6.594
 2566SOL     OW 8596   2.099   0.117   0.911
 2566SOL    HW1 8597   2.164   0.184   0.947
 2566SOL    HW2 8598   2.010   0.129   0.956
 2567SOL     OW 8599   0.861   0.414   0.808
 2567SOL    HW1 8600   0.920   0.454   0.738
 2567SOL    HW2 8601   0.877   0.461   0.895
 2568SOL     OW 8602   4.543   1.860   6.384
 2568SOL    HW1 8603   4.516   1.861   6.480
 2568SOL    HW2 8604   4.553   1.765   6.353
 2569SOL     OW 8605   2.817   0.359   2.871
 2569SOL    HW1 8606   2.864   0.431   2.922
 2569SOL    HW2 8607   2.804   0.280   2.931
 2570SOL     OW 8608   5.747   0.308   5.930
 2570SOL    HW1 8609   5.729   0.378   5.861
 2570SOL    HW2 8610   5.806   0.346   6.001
 2571SOL     OW 8611   2.275   5.147   4.872
 2571SOL    HW1 8612   2.219   5.199   4.936
 2571SOL    HW2 8613   2.337   5.210   4.825
 2572SOL     OW 8614   2.922   5.720   1.539
 2572SOL    HW1 8615   2.869   5.742   1.621
 2572SOL    HW2 8616   2.983   5.797   1.517
 2573SOL     OW 8617   0.435   1.933   0.964
 2573SOL    HW1 8618   0.409   1.848   1.010
 2573SOL    HW2 8619   0.389   2.010   1.007
 2574SOL     OW 8620   5.762   4.071   1.086
 2574SOL    HW1 8621   5.777   4.169   1.088
 2574SOL    HW2 8622   5.732   4.043   0.994
 2575SOL     OW 8623   5.241   6.157   0.245
 2575SOL    HW1 8624   5.208   6.064   0.264
 2575SOL    HW2 8625   5.316   6.179   0.307
 2576SOL     OW 8626   4.502   6.538   4.331
 2576SOL    HW1 8627   4.482   6.496   4.419
 2576SOL    HW2 8628   4.597   6.519   4.306
 2577SOL     OW 8629   4.005   6.234   2.196
 2577SOL    HW1 8630   3.929   6.176   2.168
 2577SOL    HW2 8631   4.047   6.276   2.116
 2578SOL     OW 8632   4.053   1.626   4.170
 2578SOL    HW1 8633   4.061   1.603   4.267
 2578SOL    HW2 8634   3.992   1.704   4.159
 2579SOL     OW 8635   1.357   6.634   3.626
 2579SOL    HW1 8636   1.293   6.562   3.654
 2579SOL    HW2 8637   1.332   6.720   3.670
 2580SOL     OW 8638   2.523   4.238   6.651
 2580SOL    HW1 8639   2.575   4.290   6.719
 2580SOL    HW2 8640   2.490   4.153   6.692
 2581SOL     OW 8641   2.595   5.158   1.689
 2581SOL    HW1 8642   2.650   5.184   1.609
 2581SOL    HW2 8643   2.656   5.125   1.761
 2582SOL     OW 8644   0.317   4.725   1.555
 2582SOL    HW1 8645   0.309   4.715   1.655
 2582SOL    HW2 8646   0.241   4.780   1.521
 2583SOL     OW 8647   0.612   1.422   6.529
 2583SOL    HW1 8648   0.564   1.386   6.609
 2583SOL    HW2 8649   0.553   1.488   6.482
 2584SOL     OW 8650   4.337   5.584   5.886
 2584SOL    HW1 8651   4.245   5.620   5.875
 2584SOL    HW2 8652   4.333   5.485   5.901
 2585SOL     OW 8653   3.329   3.569   0.543
 2585SOL    HW1 8654   3.423   3.599   0.559
 2585SOL    HW2 8655   3.308   3.491   0.602
 2586SOL     OW 8656   3.257   0.651   5.433
 2586SOL    HW1 8657   3.170   0.698   5.418
 2586SOL    HW2 8658   3.268   0.578   5.366
 2587SOL     OW 8659   5.770   1.000   3.384
 2587SOL    HW1 8660   5.841   1.069   3.401
 2587SOL    HW2 8661   5.680   1.043   3.387
 2588SOL     OW 8662   4.082   2.009   5.820
 2588SOL    HW1 8663   4.092   2.106   5.799
 2588SOL    HW2 8664   4.170   1.973   5.852
 2589SOL     OW 8665   1.604   6.919   5.476
 2589SOL    HW1 8666   1.702   6.902   5.473
 2589SOL    HW2 8667   1.554   6.832   5.476
 2590SOL     OW 8668   3.493   4.946   0.069
 2590SOL    HW1 8669   3.511   4.974   0.164
 2590SOL    HW2 8670   3.568   4.977   0.011
 2591SOL     OW 8671   6.835   4.747   3.336
 2591SOL    HW1 8672   6.876   4.656   3.332
 2591SOL    HW2 8673   6.907   4.816   3.333
 2592SOL     OW 8674   3.005   4.438   6.720
 2592SOL    HW1 8675   2.939   4.455   6.646
 2592SOL    HW2 8676   3.057   4.355   6.700
 2593SOL     OW 8677   3.517   5.857   0.419
 2593SOL    HW1 8678   3.567   5.770   0.424
 2593SOL    HW2 8679   3.437   5.846   0.361
 2594SOL     OW 8680   2.313   3.789   5.729
 2594SOL    HW1 8681   2.374   3.758   5.802
 2594SOL    HW2 8682   2.218   3.785   5.760
 2595SOL     OW 8683   0.075   0.972   4.000
 2595SOL    HW1 8684   0.051   0.964   4.097
 2595SOL    HW2 8685   7.016   1.007   3.949
 2596SOL     OW 8686   2.486   2.319   1.518
 2596SOL    HW1 8687   2.428   2.321   1.436
 2596SOL    HW2 8688   2.429   2.334   1.599
 2597SOL     OW 8689   0.811   5.113   6.408
 2597SOL    HW1 8690   0.823   5.199   6.359
 2597SOL    HW2 8691   0.731   5.118   6.467
 2598SOL     OW 8692   6.885   1.566   2.089
 2598SOL    HW1 8693   6.932   1.481   2.066
 2598SOL    HW2 8694   6.881   1.575   2.189
 2599SOL     OW 8695   1.661   5.885   0.702
 2599SOL    HW1 8696   1.650   5.891   0.603
 2599SOL    HW2 8697   1.751   5.919   0.728
 2600SOL     OW 8698   5.938   2.410   4.494
 2600SOL    HW1 8699   5.927   2.443   4.401
 2600SOL    HW2 8700   5.856   2.434   4.548
 2601SOL     OW 8701   1.532   1.556   0.911
 2601SOL    HW1 8702   1.540   1.482   0.977
 2601SOL    HW2 8703   1.437   1.566   0.883
 2602SOL     OW 8704   1.636   4.871   4.504
 2602SOL    HW1 8705   1.550   4.823   4.520
 2602SOL    HW2 8706   1.621   4.945   4.438
 2603SOL     OW 8707   3.236   1.229   2.874
 2603SOL    HW1 8708   3.179   1.295   2.824
 2603SOL    HW2 8709   3.185   1.195   2.953
 2604SOL     OW 8710   4.769   1.755   2.786
 2604SOL    HW1 8711   4.736   1.837   2.739
 2604SOL    HW2 8712   4.696   1.687   2.791
 2605SOL     OW 8713   1.493   3.078   2.556
 2605SOL    HW1 8714   1.402   3.118   2.545
 2605SOL    HW2 8715   1.486   2.996   2.612
 2606SOL     OW 8716   5.877   5.276   1.651
 2606SOL    HW1 8717   5.933   5.353   1.623
 2606SOL    HW2 8718   5.910   5.193   1.606
 2607SOL     OW 8719   0.288   1.555   1.147
 2607SOL    HW1 8720   0.296   1.511   1.237
 2607SOL    HW2 8721   0.288   1.654   1.159
 2608SOL     OW 8722   3.410   5.614   6.767
 2608SOL    HW1 8723   3.322   5.567   6.760
 2608SOL    HW2 8724   3.463   5.575   6.842
 2609SOL     OW 8725   6.472   1.354   1.791
 2609SOL    HW1 8726   6.512   1.334   1.880
 2609SOL    HW2 8727   6.373   1.362   1.799
 2610SOL     OW 8728   0.935   4.642   3.955
 2610SOL    HW1 8729   0.836   4.647   3.962
 2610SOL    HW2 8730   0.960   4.571   3.889
 2611SOL     OW 8731   4.531   6.432   6.995
 2611SOL    HW1 8732   4.558   6.523   0.006
 2611SOL    HW2 8733   4.496   6.379   0.053
 2612SOL     OW 8734   5.703   6.488   4.046
 2612SOL    HW1 8735   5.715   6.398   4.004
 2612SOL    HW2 8736   5.639   6.481   4.122
 2613SOL     OW 8737   2.357   5.328   6.451
 2613SOL    HW1 8738   2.377   5.261   6.380
 2613SOL    HW2 8739   2.325   5.281   6.533
 2614SOL     OW 8740   5.763   1.310   6.255
 2614SOL    HW1 8741   5.823   1.241   6.215
 2614SOL    HW2 8742   5.702   1.267   6.321
 2615SOL     OW 8743   0.207   2.944   1.529
 2615SOL    HW1 8744   0.147   2.887   1.585
 2615SOL    HW2 8745   0.182   3.040   1.539
 2616SOL     OW 8746   0.996   1.980   5.828
 2616SOL    HW1 8747   0.999   2.031   5.742
 2616SOL    HW2 8748   1.089   1.959   5.857
 2617SOL     OW 8749   4.933   0.803   0.573
 2617SOL    HW1 8750   4.868   0.865   0.617
 2617SOL    HW2 8751   5.021   0.808   0.622
 2618SOL     OW 8752   1.269   6.070   4.641
 2618SOL    HW1 8753   1.229   6.158   4.665
 2618SOL    HW2 8754   1.364   6.083   4.613
 2619SOL     OW 8755   4.033   1.948   1.937
 2619SOL    HW1 8756   3.988   2.022   1.887
 2619SOL    HW2 8757   4.130   1.945   1.913
 2620SOL     OW 8758   6.566   6.673   1.947
 2620SOL    HW1 8759   6.536   6.650   2.039
 2620SOL    HW2 8760   6.516   6.618   1.880
 2621SOL     OW 8761   1.032   4.715   2.421
 2621SOL    HW1 8762   1.005   4.642   2.483
 2621SOL    HW2 8763   1.130   4.734   2.431
 2622SOL     OW 8764   3.545   3.187   5.776
 2622SOL    HW1 8765   3.452   3.158   5.798
 2622SOL    HW2 8766   3.572   3.151   5.687
 2623SOL     OW 8767   0.511   0.313   3.998
 2623SOL    HW1 8768   0.421   0.356   3.998
 2623SOL    HW2 8769   0.517   0.247   4.073
 2624SOL     OW 8770   6.564   2.018   4.566
 2624SOL    HW1 8771   6.658   2.014   4.597
 2624SOL    HW2 8772   6.548   2.106   4.521
 2625SOL     OW 8773   1.768   5.220   5.510
 2625SOL    HW1 8774   1.709   5.139   5.514
 2625SOL    HW2 8775   1.858   5.198   5.547
 2626SOL     OW 8776   6.820   6.896   5.789
 2626SOL    HW1 8777   6.800   6.991   5.764
 2626SOL    HW2 8778   6.788   6.835   5.716
 2627SOL     OW 8779   1.046   0.417   6.487
 2627SOL    HW1 8780   0.947   0.410   6.504
 2627SOL    HW2 8781   1.093   0.343   6.534
 2628SOL     OW 8782   1.883   3.466   4.665
 2628SOL    HW1 8783   1.959   3.467   4.601
 2628SOL    HW2 8784   1.797   3.475   4.615
 2629SOL     OW 8785   3.820   3.644   3.600
 2629SOL    HW1 8786   3.745   3.648   3.534
 2629SOL    HW2 8787   3.815   3.558   3.651
 2630SOL     OW 8788   3.754   1.007   3.952
 2630SOL    HW1 8789   3.837   1.030   3.902
 2630SOL    HW2 8790   3.739   0.909   3.949
 2631SOL     OW 8791   5.925   0.783   6.723
 2631SOL    HW1 8792   5.876   0.696   6.728
 2631SOL    HW2 8793   5.862   0.858   6.744
 2632SOL     OW 8794   5.841   3.950   1.548
 2632SOL    HW1 8795   5.783   3.928   1.626
 2632SOL    HW2 8796   5.806   4.032   1.502
 2633SOL     OW 8797   6.560   2.209   5.191
 2633SOL    HW1 8798   6.556   2.256   5.279
 2633SOL    HW2 8799   6.655   2.195   5.165
 2634SOL     OW 8800   0.688   6.124   4.019
 2634SOL    HW1 8801   0.785   6.126   4.044
 2634SOL    HW2 8802   0.636   6.179   4.084
 2635SOL     OW 8803   6.341   5.280   4.212
 2635SOL    HW1 8804   6.301   5.371   4.224
 2635SOL    HW2 8805   6.273   5.210   4.234
 2636SOL     OW 8806   3.346   1.136   6.616
 2636SOL    HW1 8807   3.439   1.122   6.651
 2636SOL    HW2 8808   3.349   1.191   6.533
 2637SOL     OW 8809   6.819   1.335   3.886
 2637SOL    HW1 8810   6.844   1.427   3.914
 2637SOL    HW2 8811   6.757   1.339   3.808
 2638SOL     OW 8812   0.554   0.302   4.346
 2638SOL    HW1 8813   0.562   0.364   4.424
 2638SOL    HW2 8814   0.473   0.326   4.293
 2639SOL     OW 8815   4.729   5.006   5.520
 2639SOL    HW1 8816   4.791   4.966   5.587
 2639SOL    HW2 8817   4.636   5.009   5.557
 2640SOL     OW 8818   0.076   0.066   5.166
 2640SOL    HW1 8819   0.148   0.049   5.098
 2640SOL    HW2 8820   0.039   6.998   5.197
 2641SOL     OW 8821   4.838   2.272   1.109
 2641SOL    HW1 8822   4.834   2.259   1.208
 2641SOL    HW2 8823   4.921   2.228   1.074
 2642SOL     OW 8824   6.640   0.741   3.535
 2642SOL    HW1 8825   6.676   0.833   3.526
 2642SOL    HW2 8826   6.658   0.690   3.451
 2643SOL     OW 8827   0.761   3.530   4.099
 2643SOL    HW1 8828   0.719   3.481   4.175
 2643SOL    HW2 8829   0.737   3.627   4.103
 2644SOL     OW 8830   4.449   5.439   5.088
 2644SOL    HW1 8831   4.532   5.389   5.062
 2644SOL    HW2 8832   4.379   5.375   5.118
 2645SOL     OW 8833   5.270   4.949   3.846
 2645SOL    HW1 8834   5.191   4.924   3.901
 2645SOL    HW2 8835   5.271   4.896   3.761
 2646SOL     OW 8836   0.766   3.757   6.640
 2646SOL    HW1 8837   0.792   3.805   6.556
 2646SOL    HW2 8838   0.668   3.765   6.654
 2647SOL     OW 8839   5.079   0.084   1.871
 2647SOL    HW1 8840   5.164   0.055   1.913
 2647SOL    HW2 8841   5.015   0.007   1.867
 2648SOL     OW 8842   0.494   6.665   3.517
 2648SOL    HW1 8843   0.549   6.744   3.542
 2648SOL    HW2 8844   0.399   6.693   3.500
 2649SOL     OW 8845   5.070   3.018   2.039
 2649SOL    HW1 8846   5.134   2.944   2.055
 2649SOL    HW2 8847   4.980   2.981   2.018
 2650SOL     OW 8848   2.931   5.596   4.668
 2650SOL    HW1 8849   2.995   5.519   4.658
 2650SOL    HW2 8850   2.861   5.591   4.596
 2651SOL     OW 8851   3.665   1.436   6.575
 2651SOL    HW1 8852   3.764   1.451   6.578
 2651SOL    HW2 8853   3.646   1.344   6.541
 2652SOL     OW 8854   4.791   3.672   5.586
 2652SOL    HW1 8855   4.781   3.750   5.647
 2652SOL    HW2 8856   4.721   3.604   5.607
 2653SOL     OW 8857   3.758   6.137   5.831
 2653SOL    HW1 8858   3.762   6.037   5.831
 2653SOL    HW2 8859   3.667   6.167   5.805
 2654SOL     OW 8860   5.057   6.692   0.648
 2654SOL    HW1 8861   4.975   6.635   0.658
 2654SOL    HW2 8862   5.136   6.633   0.629
 2655SOL     OW 8863   4.729   6.048   3.341
 2655SOL    HW1 8864   4.745   5.955   3.310
 2655SOL    HW2 8865   4.817   6.095   3.353
 2656SOL     OW 8866   3.602   5.615   3.804
 2656SOL    HW1 8867   3.602   5.561   3.720
 2656SOL    HW2 8868   3.582   5.556   3.882
 2657SOL     OW 8869   1.852   3.191   0.338
 2657SOL    HW1 8870   1.775   3.222   0.394
 2657SOL    HW2 8871   1.863   3.092   0.349
 2658SOL     OW 8872   4.999   3.896   6.766
 2658SOL    HW1 8873   4.910   3.852   6.765
 2658SOL    HW2 8874   4.988   3.994   6.782
 2659SOL     OW 8875   5.444   2.837   4.983
 2659SOL    HW1 8876   5.497   2.892   4.919
 2659SOL    HW2 8877   5.505   2.782   5.039
 2660SOL     OW 8878   0.300   1.013   0.917
 2660SOL    HW1 8879   0.310   0.922   0.875
 2660SOL    HW2 8880   0.288   1.003   1.016
 2661SOL     OW 8881   1.147   0.632   2.076
 2661SOL    HW1 8882   1.189   0.685   2.003
 2661SOL    HW2 8883   1.173   0.536   2.068
 2662SOL     OW 8884   3.018   0.359   3.543
 2662SOL    HW1 8885   3.031   0.425   3.617
 2662SOL    HW2 8886   3.086   0.286   3.551
 2663SOL     OW 8887   3.652   6.694   5.851
 2663SOL    HW1 8888   3.634   6.621   5.785
 2663SOL    HW2 8889   3.594   6.682   5.931
 2664SOL     OW 8890   4.534   2.587   5.752
 2664SOL    HW1 8891   4.442   2.605   5.718
 2664SOL    HW2 8892   4.530   2.534   5.836
 2665SOL     OW 8893   2.459   3.425   5.350
 2665SOL    HW1 8894   2.414   3.337   5.365
 2665SOL    HW2 8895   2.541   3.431   5.406
 2666SOL     OW 8896   1.762   3.078   1.863
 2666SOL    HW1 8897   1.828   3.040   1.798
 2666SOL    HW2 8898   1.770   3.030   1.951
 2667SOL     OW 8899   0.198   4.845   3.945
 2667SOL    HW1 8900   0.185   4.894   4.031
 2667SOL    HW2 8901   0.145   4.890   3.873
 2668SOL     OW 8902   5.612   2.834   4.259
 2668SOL    HW1 8903   5.677   2.824   4.335
 2668SOL    HW2 8904   5.560   2.749   4.249
 2669SOL     OW 8905   2.962   5.665   6.580
 2669SOL    HW1 8906   2.986   5.666   6.677
 2669SOL    HW2 8907   2.991   5.751   6.538
 2670SOL     OW 8908   6.162   1.881   5.670
 2670SOL    HW1 8909   6.130   1.962   5.719
 2670SOL    HW2 8910   6.144   1.893   5.572
 2671SOL     OW 8911   4.176   6.227   6.437
 2671SOL    HW1 8912   4.191   6.189   6.346
 2671SOL    HW2 8913   4.163   6.326   6.430
 2672SOL     OW 8914   3.398   0.929   1.741
 2672SOL    HW1 8915   3.343   0.847   1.728
 2672SOL    HW2 8916   3.445   0.924   1.830
 2673SOL     OW 8917   4.909   0.320   2.694
 2673SOL    HW1 8918   4.924   0.419   2.699
 2673SOL    HW2 8919   4.865   0.288   2.778
 2674SOL     OW 8920   1.846   5.262   3.658
 2674SOL    HW1 8921   1.855   5.184   3.597
 2674SOL    HW2 8922   1.924   5.265   3.720
 2675SOL     OW 8923   0.487   0.134   3.551
 2675SOL    HW1 8924   0.417   0.119   3.621
 2675SOL    HW2 8925   0.546   0.210   3.578
 2676SOL     OW 8926   3.034   3.550   2.306
 2676SOL    HW1 8927   2.990   3.474   2.259
 2676SOL    HW2 8928   3.069   3.518   2.395
 2677SOL     OW 8929   2.802   4.460   0.968
 2677SOL    HW1 8930   2.895   4.422   0.977
 2677SOL    HW2 8931   2.782   4.517   1.048
 2678SOL     OW 8932   0.163   2.637   2.564
 2678SOL    HW1 8933   0.250   2.685   2.572
 2678SOL    HW2 8934   0.142   2.623   2.467
 2679SOL     OW 8935   2.261   5.552   2.643
 2679SOL    HW1 8936   2.325   5.627   2.660
 2679SOL    HW2 8937   2.294   5.470   2.691
 2680SOL     OW 8938   0.865   2.403   0.466
 2680SOL    HW1 8939   0.794   2.415   0.536
 2680SOL    HW2 8940   0.867   2.484   0.407
 2681SOL     OW 8941   1.393   2.704   5.080
 2681SOL    HW1 8942   1.488   2.699   5.052
 2681SOL    HW2 8943   1.334   2.674   5.005
 2682SOL     OW 8944   4.777   4.213   2.452
 2682SOL    HW1 8945   4.749   4.121   2.477
 2682SOL    HW2 8946   4.790   4.218   2.353
 2683SOL     OW 8947   2.221   4.417   2.727
 2683SOL    HW1 8948   2.210   4.409   2.628
 2683SOL    HW2 8949   2.151   4.479   2.763
 2684SOL     OW 8950   5.542   6.619   1.864
 2684SOL    HW1 8951   5.497   6.531   1.880
 2684SOL    HW2 8952   5.474   6.693   1.867
 2685SOL     OW 8953   6.715   4.763   4.841
 2685SOL    HW1 8954   6.764   4.837   4.888
 2685SOL    HW2 8955   6.774   4.724   4.770
 2686SOL     OW 8956   1.002   1.475   4.977
 2686SOL    HW1 8957   0.903   1.466   4.974
 2686SOL    HW2 8958   1.037   1.430   5.059
 2687SOL     OW 8959   3.865   0.118   1.604
 2687SOL    HW1 8960   3.882   0.039   1.545
 2687SOL    HW2 8961   3.934   0.188   1.586
 2688SOL     OW 8962   3.208   2.022   0.946
 2688SOL    HW1 8963   3.233   2.072   1.028
 2688SOL    HW2 8964   3.291   1.992   0.899
 2689SOL     OW 8965   0.611   4.176   2.709
 2689SOL    HW1 8966   0.684   4.110   2.730
 2689SOL    HW2 8967   0.651   4.259   2.670
 2690SOL     OW 8968   3.073   2.845   6.613
 2690SOL    HW1 8969   3.114   2.922   6.662
 2690SOL    HW2 8970   2.994   2.876   6.561
 2691SOL     OW 8971   0.679   4.642   4.038
 2691SOL    HW1 8972   0.661   4.556   3.990
 2691SOL    HW2 8973   0.630   4.717   3.993
 2692SOL     OW 8974   2.606   6.128   3.293
 2692SOL    HW1 8975   2.667   6.053   3.321
 2692SOL    HW2 8976   2.514   6.091   3.276
 2693SOL     OW 8977   2.035   4.838   4.138
 2693SOL    HW1 8978   2.065   4.744   4.124
 2693SOL    HW2 8979   1.993   4.846   4.229
 2694SOL     OW 8980   4.125   6.074   3.539
 2694SOL    HW1 8981   4.067   6.150   3.507
 2694SOL    HW2 8982   4.220   6.104   3.541
 2695SOL     OW 8983   6.359   0.139   2.777
 2695SOL    HW1 8984   6.323   0.227   2.806
 2695SOL    HW2 8985   6.341   0.070   2.848
 2696SOL     OW 8986   4.775   3.762   6.769
 2696SOL    HW1 8987   4.752   3.740   6.674
 2696SOL    HW2 8988   4.703   3.819   6.808
 2697SOL     OW 8989   4.316   1.283   1.349
 2697SOL    HW1 8990   4.295   1.322   1.438
 2697SOL    HW2 8991   4.371   1.348   1.296
 2698SOL     OW 8992   1.745   5.183   6.469
 2698SOL    HW1 8993   1.748   5.271   6.423
 2698SOL    HW2 8994   1.656   5.170   6.511
 2699SOL     OW 8995   2.987   5.564   1.916
 2699SOL    HW1 8996   2.962   5.490   1.853
 2699SOL    HW2 8997   3.064   5.615   1.878
 2700SOL     OW 8998   2.290   1.764   0.647
 2700SOL    HW1 8999   2.217   1.771   0.715
 2700SOL    HW2 9000   2.359   1.834   0.665
 2701SOL     OW 9001   5.280   2.602   5.294
 2701SOL    HW1 9002   5.199   2.585   5.350
 2701SOL    HW2 9003   5.253   2.615   5.199
 2702SOL     OW 9004   1.452   1.541   3.708
 2702SOL    HW1 9005   1.478   1.486   3.788
 2702SOL    HW2 9006   1.352   1.547   3.704
 2703SOL     OW 9007   1.321   5.688   1.390
 2703SOL    HW1 9008   1.253   5.688   1.317
 2703SOL    HW2 9009   1.373   5.603   1.387
 2704SOL     OW 9010   6.890   5.441   2.623
 2704SOL    HW1 9011   6.885   5.487   2.712
 2704SOL    HW2 9012   6.981   5.401   2.612
 2705SOL     OW 9013   6.799   1.314   5.916
 2705SOL    HW1 9014   6.857   1.265   5.850
 2705SOL    HW2 9015   6.817   1.279   6.008
 2706SOL     OW 9016   5.966   4.336   4.453
 2706SOL    HW1 9017   6.040   4.311   4.391
 2706SOL    HW2 9018   5.933   4.254   4.500
 2707SOL     OW 9019   3.916   6.515   3.672
 2707SOL    HW1 9020   3.894   6.494   3.767
 2707SOL    HW2 9021   4.015   6.520   3.660
 2708SOL     OW 9022   6.042   2.775   7.011
 2708SOL    HW1 9023   6.096   2.694   6.989
 2708SOL    HW2 9024   6.076   2.816   0.076
 2709SOL     OW 9025   4.974   6.608   6.099
 2709SOL    HW1 9026   5.069   6.639   6.101
 2709SOL    HW2 9027   4.921   6.666   6.038
 2710SOL     OW 9028   2.009   2.854   3.891
 2710SOL    HW1 9029   1.941   2.881   3.823
 2710SOL    HW2 9030   2.059   2.935   3.921
 2711SOL     OW 9031   3.113   1.860   3.552
 2711SOL    HW1 9032   3.046   1.834   3.482
 2711SOL    HW2 9033   3.153   1.948   3.528
 2712SOL     OW 9034   3.559   5.593   1.868
 2712SOL    HW1 9035   3.551   5.543   1.782
 2712SOL    HW2 9036   3.469   5.605   1.909
 2713SOL     OW 9037   4.642   4.332   6.665
 2713SOL    HW1 9038   4.624   4.430   6.672
 2713SOL    HW2 9039   4.707   4.315   6.592
 2714SOL     OW 9040   3.990   3.823   6.730
 2714SOL    HW1 9041   3.982   3.729   6.696
 2714SOL    HW2 9042   3.941   3.832   6.817
 2715SOL     OW 9043   5.488   1.799   1.035
 2715SOL    HW1 9044   5.545   1.753   0.967
 2715SOL    HW2 9045   5.546   1.857   1.093
 2716SOL     OW 9046   4.502   2.495   2.887
 2716SOL    HW1 9047   4.470   2.404   2.861
 2716SOL    HW2 9048   4.580   2.521   2.830
 2717SOL     OW 9049   0.217   0.356   2.185
 2717SOL    HW1 9050   0.288   0.326   2.249
 2717SOL    HW2 9051   0.134   0.378   2.235
 2718SOL     OW 9052   0.065   1.375   5.214
 2718SOL    HW1 9053   0.033   1.447   5.275
 2718SOL    HW2 9054   0.150   1.336   5.250
 2719SOL     OW 9055   1.904   4.156   2.269
 2719SOL    HW1 9056   1.840   4.092   2.227
 2719SOL    HW2 9057   1.861   4.246   2.279
 2720SOL     OW 9058   1.050   6.947   4.660
 2720SOL    HW1 9059   1.037   6.953   4.759
 2720SOL    HW2 9060   1.131   7.000   4.634
 2721SOL     OW 9061   3.235   6.357   1.635
 2721SOL    HW1 9062   3.266   6.355   1.730
 2721SOL    HW2 9063   3.163   6.427   1.626
 2722SOL     OW 9064   4.655   5.981   6.383
 2722SOL    HW1 9065   4.753   5.962   6.388
 2722SOL    HW2 9066   4.641   6.074   6.348
 2723SOL     OW 9067   3.348   6.596   6.854
 2723SOL    HW1 9068   3.361   6.585   6.756
 2723SOL    HW2 9069   3.354   6.693   6.878
 2724SOL     OW 9070   1.076   5.787   6.441
 2724SOL    HW1 9071   1.113   5.700   6.473
 2724SOL    HW2 9072   1.006   5.819   6.506
 2725SOL     OW 9073   5.090   4.097   4.193
 2725SOL    HW1 9074   5.092   4.102   4.293
 2725SOL    HW2 9075   5.119   4.006   4.164
 2726SOL     OW 9076   0.940   2.150   1.303
 2726SOL    HW1 9077   0.965   2.136   1.207
 2726SOL    HW2 9078   0.841   2.162   1.311
 2727SOL     OW 9079   1.894   4.064   3.912
 2727SOL    HW1 9080   1.818   4.080   3.975
 2727SOL    HW2 9081   1.972   4.025   3.962
 2728SOL     OW 9082   5.180   5.897   6.595
 2728SOL    HW1 9083   5.239   5.978   6.598
 2728SOL    HW2 9084   5.209   5.837   6.521
 2729SOL     OW 9085   6.233   6.261   6.915
 2729SOL    HW1 9086   6.226   6.165   6.943
 2729SOL    HW2 9087   6.160   6.281   6.849
 2730SOL     OW 9088   0.848   5.650   1.058
 2730SOL    HW1 9089   0.927   5.591   1.078
 2730SOL    HW2 9090   0.787   5.604   0.995
 2731SOL     OW 9091   3.013   3.513   3.252
 2731SOL    HW1 9092   3.107   3.539   3.272
 2731SOL    HW2 9093   3.005   3.413   3.252
 2732SOL     OW 9094   5.116   1.650   1.379
 2732SOL    HW1 9095   5.107   1.672   1.476
 2732SOL    HW2 9096   5.108   1.735   1.326
 2733SOL     OW 9097   6.678   1.221   5.346
 2733SOL    HW1 9098   6.650   1.230   5.442
 2733SOL    HW2 9099   6.638   1.294   5.292
 2734SOL     OW 9100   3.613   6.013   1.594
 2734SOL    HW1 9101   3.692   6.051   1.545
 2734SOL    HW2 9102   3.529   6.045   1.552
 2735SOL     OW 9103   1.297   2.230   0.622
 2735SOL    HW1 9104   1.310   2.159   0.691
 2735SOL    HW2 9105   1.303   2.190   0.531
 2736SOL     OW 9106   5.686   6.087   4.285
 2736SOL    HW1 9107   5.683   6.061   4.188
 2736SOL    HW2 9108   5.746   6.166   4.296
 2737SOL     OW 9109   2.850   2.243   5.968
 2737SOL    HW1 9110   2.848   2.321   6.030
 2737SOL    HW2 9111   2.851   2.275   5.873
 2738SOL     OW 9112   6.192   6.911   2.163
 2738SOL    HW1 9113   6.118   6.900   2.229
 2738SOL    HW2 9114   6.153   6.928   2.072
 2739SOL     OW 9115   0.828   5.210   1.023
 2739SOL    HW1 9116   0.896   5.161   1.077
 2739SOL    HW2 9117   0.741   5.161   1.027
 2740SOL     OW 9118   0.603   5.475   2.466
 2740SOL    HW1 9119   0.693   5.516   2.452
 2740SOL    HW2 9120   0.570   5.498   2.557
 2741SOL     OW 9121   0.934   1.784   4.644
 2741SOL    HW1 9122   1.026   1.767   4.680
 2741SOL    HW2 9123   0.940   1.848   4.567
 2742SOL     OW 9124   3.034   5.027   2.044
 2742SOL    HW1 9125   3.116   5.057   2.093
 2742SOL    HW2 9126   3.040   4.928   2.027
 2743SOL     OW 9127   6.936   4.553   1.875
 2743SOL    HW1 9128   0.009   4.587   1.889
 2743SOL    HW2 9129   6.892   4.538   1.964
 2744SOL     OW 9130   3.772   3.537   2.089
 2744SOL    HW1 9131   3.760   3.603   2.014
 2744SOL    HW2 9132   3.870   3.529   2.111
 2745SOL     OW 9133   6.465   1.139   5.556
 2745SOL    HW1 9134   6.461   1.238   5.540
 2745SOL    HW2 9135   6.409   1.116   5.636
 2746SOL     OW 9136   0.665   1.589   4.354
 2746SOL    HW1 9137   0.685   1.569   4.450
 2746SOL    HW2 9138   0.750   1.612   4.307
 2747SOL     OW 9139   4.327   5.776   6.570
 2747SOL    HW1 9140   4.389   5.801   6.495
 2747SOL    HW2 9141   4.234   5.766   6.534
 2748SOL     OW 9142   4.865   0.288   1.394
 2748SOL    HW1 9143   4.818   0.365   1.437
 2748SOL    HW2 9144   4.800   0.231   1.345
 2749SOL     OW 9145   1.309   3.556   0.478
 2749SOL    HW1 9146   1.283   3.460   0.491
 2749SOL    HW2 9147   1.234   3.605   0.433
 2750SOL     OW 9148   2.639   4.738   1.514
 2750SOL    HW1 9149   2.653   4.750   1.612
 2750SOL    HW2 9150   2.725   4.714   1.469
 2751SOL     OW 9151   1.737   1.734   1.507
 2751SOL    HW1 9152   1.677   1.717   1.429
 2751SOL    HW2 9153   1.692   1.796   1.571
 2752SOL     OW 9154   4.402   4.343   6.301
 2752SOL    HW1 9155   4.335   4.359   6.373
 2752SOL    HW2 9156   4.433   4.248   6.304
 2753SOL     OW 9157   6.123   5.951   5.006
 2753SOL    HW1 9158   6.043   5.978   5.060
 2753SOL    HW2 9159   6.138   5.852   5.015
 2754SOL     OW 9160   1.031   6.839   0.080
 2754SOL    HW1 9161   1.050   6.758   0.134
 2754SOL    HW2 9162   1.030   6.920   0.139
 2755SOL     OW 9163   3.017   7.001   2.887
 2755SOL    HW1 9164   3.059   6.915   2.915
 2755SOL    HW2 9165   2.996   6.999   2.789
 2756SOL     OW 9166   4.378   6.308   0.601
 2756SOL    HW1 9167   4.398   6.328   0.697
 2756SOL    HW2 9168   4.286   6.341   0.578
 2757SOL     OW 9169   1.882   5.772   0.476
 2757SOL    HW1 9170   1.958   5.711   0.453
 2757SOL    HW2 9171   1.810   5.720   0.522
 2758SOL     OW 9172   5.011   0.434   4.712
 2758SOL    HW1 9173   5.052   0.344   4.725
 2758SOL    HW2 9174   5.052   0.499   4.776
 2759SOL     OW 9175   5.164   6.299   4.214
 2759SOL    HW1 9176   5.082   6.261   4.171
 2759SOL    HW2 9177   5.243   6.282   4.154
 2760SOL     OW 9178   1.360   5.555   2.191
 2760SOL    HW1 9179   1.390   5.629   2.252
 2760SOL    HW2 9180   1.426   5.546   2.116
 2761SOL     OW 9181   1.775   4.574   4.043
 2761SOL    HW1 9182   1.783   4.673   4.053
 2761SOL    HW2 9183   1.679   4.547   4.047
 2762SOL     OW 9184   0.963   0.955   5.275
 2762SOL    HW1 9185   0.912   0.900   5.209
 2762SOL    HW2 9186   0.900   1.013   5.326
 2763SOL     OW 9187   5.630   1.939   3.919
 2763SOL    HW1 9188   5.724   1.928   3.888
 2763SOL    HW2 9189   5.588   1.849   3.931
 2764SOL     OW 9190   5.930   0.259   1.061
 2764SOL    HW1 9191   5.832   0.244   1.075
 2764SOL    HW2 9192   5.945   0.348   1.018
 2765SOL     OW 9193   5.386   0.129   1.088
 2765SOL    HW1 9194   5.316   0.182   1.040
 2765SOL    HW2 9195   5.347   0.091   1.173
 2766SOL     OW 9196   5.656   1.631   0.352
 2766SOL    HW1 9197   5.619   1.652   0.442
 2766SOL    HW2 9198   5.738   1.686   0.336
 2767SOL     OW 9199   0.079   5.131   6.927
 2767SOL    HW1 9200   0.081   5.222   6.968
 2767SOL    HW2 9201   0.172   5.096   6.917
 2768SOL     OW 9202   5.185   1.237   0.018
 2768SOL    HW1 9203   5.264   1.287   7.002
 2768SOL    HW2 9204   5.212   1.144   0.042
 2769SOL     OW 9205   6.698   4.428   4.139
 2769SOL    HW1 9206   6.620   4.477   4.101
 2769SOL    HW2 9207   6.773   4.430   4.073
 2770SOL     OW 9208   1.795   5.883   6.506
 2770SOL    HW1 9209   1.756   5.803   6.551
 2770SOL    HW2 9210   1.820   5.860   6.412
 2771SOL     OW 9211   5.543   1.224   1.434
 2771SOL    HW1 9212   5.589   1.135   1.426
 2771SOL    HW2 9213   5.497   1.245   1.347
 2772SOL     OW 9214   4.505   1.828   0.458
 2772SOL    HW1 9215   4.420   1.825   0.405
 2772SOL    HW2 9216   4.577   1.869   0.402
 2773SOL     OW 9217   4.737   3.335   6.037
 2773SOL    HW1 9218   4.751   3.236   6.034
 2773SOL    HW2 9219   4.649   3.357   5.994
 2774SOL     OW 9220   6.636   3.064   3.034
 2774SOL    HW1 9221   6.613   3.139   2.972
 2774SOL    HW2 9222   6.622   2.976   2.987
 2775SOL     OW 9223   0.097   5.379   0.009
 2775SOL    HW1 9224   0.169   5.380   0.078
 2775SOL    HW2 9225   0.016   5.426   0.044
 2776SOL     OW 9226   4.422   5.813   5.621
 2776SOL    HW1 9227   4.516   5.849   5.617
 2776SOL    HW2 9228   4.360   5.886   5.647
 2777SOL     OW 9229   2.973   1.221   2.132
 2777SOL    HW1 9230   2.940   1.170   2.211
 2777SOL    HW2 9231   2.936   1.314   2.133
 2778SOL     OW 9232   1.768   1.127   5.060
 2778SOL    HW1 9233   1.818   1.049   5.022
 2778SOL    HW2 9234   1.832   1.188   5.107
 2779SOL     OW 9235   4.555   0.236   0.361
 2779SOL    HW1 9236   4.531   0.144   0.392
 2779SOL    HW2 9237   4.531   0.302   0.432
 2780SOL     OW 9238   6.183   5.689   5.548
 2780SOL    HW1 9239   6.109   5.720   5.488
 2780SOL    HW2 9240   6.245   5.630   5.497
 2781SOL     OW 9241   6.229   5.656   2.243
 2781SOL    HW1 9242   6.208   5.632   2.338
 2781SOL    HW2 9243   6.191   5.746   2.222
 2782SOL     OW 9244   3.130   2.663   6.364
 2782SOL    HW1 9245   3.075   2.580   6.361
 2782SOL    HW2 9246   3.109   2.714   6.447
 2783SOL     OW 9247   5.790   3.320   5.183
 2783SOL    HW1 9248   5.754   3.228   5.170
 2783SOL    HW2 9249   5.810   3.335   5.280
 2784SOL     OW 9250   2.452   1.977   1.628
 2784SOL    HW1 9251   2.515   2.055   1.629
 2784SOL    HW2 9252   2.369   2.001   1.677
 2785SOL     OW 9253   6.382   1.267   0.078
 2785SOL    HW1 9254   6.319   1.201   0.119
 2785SOL    HW2 9255   6.453   1.218   0.028
 2786SOL     OW 9256   3.911   6.957   1.414
 2786SOL    HW1 9257   4.005   6.952   1.380
 2786SOL    HW2 9258   3.848   6.936   1.340
 2787SOL     OW 9259   2.501   3.131   6.319
 2787SOL    HW1 9260   2.567   3.204   6.339
 2787SOL    HW2 9261   2.427   3.134   6.386
 2788SOL     OW 9262   1.966   3.855   0.585
 2788SOL    HW1 9263   1.987   3.947   0.554
 2788SOL    HW2 9264   1.930   3.802   0.508
 2789SOL     OW 9265   1.482   2.070   3.636
 2789SOL    HW1 9266   1.475   1.973   3.612
 2789SOL    HW2 9267   1.573   2.103   3.611
 2790SOL     OW 9268   3.176   5.407   3.117
 2790SOL    HW1 9269   3.258   5.463   3.127
 2790SOL    HW2 9270   3.199   5.311   3.130
 2791SOL     OW 9271   1.796   4.551   4.620
 2791SOL    HW1 9272   1.814   4.601   4.535
 2791SOL    HW2 9273   1.764   4.459   4.598
 2792SOL     OW 9274   1.286   0.068   4.885
 2792SOL    HW1 9275   1.264   0.135   4.814
 2792SOL    HW2 9276   1.279   0.112   4.975
 2793SOL     OW 9277   4.809   2.424   2.701
 2793SOL    HW1 9278   4.773   2.353   2.762
 2793SOL    HW2 9279   4.733   2.470   2.655
 2794SOL     OW 9280   6.638   3.009   0.417
 2794SOL    HW1 9281   6.549   3.000   0.373
 2794SOL    HW2 9282   6.653   3.106   0.441
 2795SOL     OW 9283   2.978   3.612   1.423
 2795SOL    HW1 9284   2.920   3.534   1.399
 2795SOL    HW2 9285   2.921   3.695   1.429
 2796SOL     OW 9286   6.910   4.221   2.689
 2796SOL    HW1 9287   7.000   4.193   2.721
 2796SOL    HW2 9288   6.844   4.210   2.763
 2797SOL     OW 9289   5.056   5.405   4.953
 2797SOL    HW1 9290   5.060   5.479   4.886
 2797SOL    HW2 9291   5.146   5.390   4.991
 2798SOL     OW 9292   1.273   4.130   2.178
 2798SOL    HW1 9293   1.371   4.132   2.160
 2798SOL    HW2 9294   1.257   4.091   2.269
 2799SOL     OW 9295   0.364   5.978   6.959
 2799SOL    HW1 9296   0.274   5.989   7.000
 2799SOL    HW2 9297   0.358   5.993   6.860
 2800SOL     OW 9298   4.554   4.391   6.973
 2800SOL    HW1 9299   4.552   4.293   6.956
 2800SOL    HW2 9300   4.595   4.409   0.043
 2801SOL     OW 9301   4.428   5.524   4.363
 2801SOL    HW1 9302   4.507   5.528   4.424
 2801SOL    HW2 9303   4.447   5.578   4.281
 2802SOL     OW 9304   4.594   3.308   6.795
 2802SOL    HW1 9305   4.611   3.389   6.850
 2802SOL    HW2 9306   4.504   3.315   6.752
 2803SOL     OW 9307   2.616   5.790   6.348
 2803SOL    HW1 9308   2.532   5.826   6.388
 2803SOL    HW2 9309   2.664   5.734   6.415
 2804SOL     OW 9310   0.057   4.447   4.164
 2804SOL    HW1 9311   0.138   4.504   4.172
 2804SOL    HW2 9312   0.008   4.470   4.079
 2805SOL     OW 9313   4.545   3.304   1.320
 2805SOL    HW1 9314   4.601   3.345   1.392
 2805SOL    HW2 9315   4.516   3.375   1.256
 2806SOL     OW 9316   6.045   4.981   3.632
 2806SOL    HW1 9317   6.054   5.080   3.644
 2806SOL    HW2 9318   5.985   4.944   3.703
 2807SOL     OW 9319   5.387   5.108   3.637
 2807SOL    HW1 9320   5.299   5.128   3.595
 2807SOL    HW2 9321   5.373   5.067   3.726
 2808SOL     OW 9322   4.600   1.770   2.379
 2808SOL    HW1 9323   4.617   1.731   2.289
 2808SOL    HW2 9324   4.642   1.712   2.449
 2809SOL     OW 9325   6.421   3.145   1.655
 2809SOL    HW1 9326   6.364   3.129   1.575
 2809SOL    HW2 9327   6.476   3.228   1.640
 2810SOL     OW 9328   3.518   6.448   4.880
 2810SOL    HW1 9329   3.514   6.372   4.815
 2810SOL    HW2 9330   3.427   6.463   4.919
 2811SOL     OW 9331   0.630   0.797   3.786
 2811SOL    HW1 9332   0.708   0.768   3.730
 2811SOL    HW2 9333   0.546   0.754   3.752
 2812SOL     OW 9334   5.184   3.531   1.300
 2812SOL    HW1 9335   5.267   3.476   1.297
 2812SOL    HW2 9336   5.171   3.576   1.211
 2813SOL     OW 9337   6.238   6.969   5.717
 2813SOL    HW1 9338   6.170   6.942   5.785
 2813SOL    HW2 9339   6.299   0.019   5.756
 2814SOL     OW 9340   4.387   2.993   7.007
 2814SOL    HW1 9341   4.378   2.905   0.033
 2814SOL    HW2 9342   4.352   2.987   6.913
 2815SOL     OW 9343   6.985   1.546   5.024
 2815SOL    HW1 9344   6.889   1.561   5.002
 2815SOL    HW2 9345   6.991   1.486   5.104
 2816SOL     OW 9346   6.649   6.353   3.851
 2816SOL    HW1 9347   6.722   6.394   3.904
 2816SOL    HW2 9348   6.565   6.348   3.906
 2817SOL     OW 9349   1.934   0.238   1.130
 2817SOL    HW1 9350   1.942   0.158   1.190
 2817SOL    HW2 9351   2.005   0.304   1.154
 2818SOL     OW 9352   0.003   5.769   6.976
 2818SOL    HW1 9353   0.027   5.777   6.879
 2818SOL    HW2 9354   6.936   5.815   6.993
 2819SOL     OW 9355   0.112   2.196   0.867
 2819SOL    HW1 9356   0.195   2.216   0.814
 2819SOL    HW2 9357   0.138   2.167   0.959
 2820SOL     OW 9358   0.899   2.115   2.250
 2820SOL    HW1 9359   0.963   2.180   2.291
 2820SOL    HW2 9360   0.945   2.060   2.181
 2821SOL     OW 9361   3.829   3.717   6.946
 2821SOL    HW1 9362   3.837   3.698   0.024
 2821SOL    HW2 9363   3.757   3.785   6.931
 2822SOL     OW 9364   3.847   2.359   0.206
 2822SOL    HW1 9365   3.850   2.274   0.259
 2822SOL    HW2 9366   3.796   2.429   0.257
 2823SOL     OW 9367   2.347   6.498   1.375
 2823SOL    HW1 9368   2.315   6.487   1.280
 2823SOL    HW2 9369   2.268   6.518   1.433
 2824SOL     OW 9370   2.501   1.342   4.039
 2824SOL    HW1 9371   2.421   1.283   4.034
 2824SOL    HW2 9372   2.523   1.361   4.134
 2825SOL     OW 9373   6.601   6.954   0.150
 2825SOL    HW1 9374   6.660   6.901   0.210
 2825SOL    HW2 9375   6.559   6.894   0.082
 2826SOL     OW 9376   5.505   2.327   6.478
 2826SOL    HW1 9377   5.593   2.350   6.519
 2826SOL    HW2 9378   5.453   2.411   6.461
 2827SOL     OW 9379   6.428   0.823   5.678
 2827SOL    HW1 9380   6.488   0.889   5.722
 2827SOL    HW2 9381   6.403   0.855   5.587
 2828SOL     OW 9382   3.111   1.157   6.765
 2828SOL    HW1 9383   3.071   1.069   6.791
 2828SOL    HW2 9384   3.206   1.144   6.739
 2829SOL     OW 9385   3.383   4.129   6.281
 2829SOL    HW1 9386   3.307   4.068   6.302
 2829SOL    HW2 9387   3.353   4.198   6.215
 2830SOL     OW 9388   0.374   3.725   6.514
 2830SOL    HW1 9389   0.421   3.653   6.463
 2830SOL    HW2 9390   0.287   3.690   6.549
 2831SOL     OW 9391   7.015   6.079   3.629
 2831SOL    HW1 9392   0.077   6.033   3.665
 2831SOL    HW2 9393   6.937   6.017   3.633
 2832SOL     OW 9394   0.348   0.951   1.584
 2832SOL    HW1 9395   0.353   0.913   1.492
 2832SOL    HW2 9396   0.262   0.922   1.627
 2833SOL     OW 9397   5.310   2.406   2.033
 2833SOL    HW1 9398   5.242   2.453   1.977
 2833SOL    HW2 9399   5.269   2.326   2.077
 2834SOL     OW 9400   2.887   0.291   6.012
 2834SOL    HW1 9401   2.883   0.354   5.935
 2834SOL    HW2 9402   2.966   0.313   6.070
 2835SOL     OW 9403   0.371   0.265   1.583
 2835SOL    HW1 9404   0.396   0.168   1.588
 2835SOL    HW2 9405   0.286   0.274   1.531
 2836SOL     OW 9406   6.502   0.640   1.307
 2836SOL    HW1 9407   6.490   0.575   1.383
 2836SOL    HW2 9408   6.520   0.731   1.344
 2837SOL     OW 9409   5.943   3.087   3.384
 2837SOL    HW1 9410   6.033   3.045   3.380
 2837SOL    HW2 9411   5.879   3.035   3.327
 2838SOL     OW 9412   1.739   4.037   1.907
 2838SOL    HW1 9413   1.788   3.962   1.952
 2838SOL    HW2 9414   1.805   4.094   1.858
 2839SOL     OW 9415   6.225   1.314   1.891
 2839SOL    HW1 9416   6.173   1.279   1.812
 2839SOL    HW2 9417   6.232   1.242   1.960
 2840SOL     OW 9418   0.441   0.695   4.000
 2840SOL    HW1 9419   0.497   0.657   3.927
 2840SOL    HW2 9420   0.499   0.747   4.063
 2841SOL     OW 9421   0.142   0.747   5.734
 2841SOL    HW1 9422   0.074   0.719   5.667
 2841SOL    HW2 9423   0.096   0.795   5.810
 2842SOL     OW 9424   0.263   1.690   4.028
 2842SOL    HW1 9425   0.216   1.625   4.089
 2842SOL    HW2 9426   0.362   1.682   4.040
 2843SOL     OW 9427   3.358   1.810   3.692
 2843SOL    HW1 9428   3.263   1.816   3.661
 2843SOL    HW2 9429   3.407   1.892   3.662
 2844SOL     OW 9430   1.327   4.616   0.497
 2844SOL    HW1 9431   1.414   4.568   0.484
 2844SOL    HW2 9432   1.345   4.714   0.503
 2845SOL     OW 9433   1.281   3.194   0.506
 2845SOL    HW1 9434   1.204   3.245   0.542
 2845SOL    HW2 9435   1.361   3.208   0.564
 2846SOL     OW 9436   5.036   1.551   6.752
 2846SOL    HW1 9437   4.986   1.528   6.836
 2846SOL    HW2 9438   4.994   1.631   6.709
 2847SOL     OW 9439   5.269   3.828   3.091
 2847SOL    HW1 9440   5.329   3.841   3.170
 2847SOL    HW2 9441   5.174   3.824   3.122
 2848SOL     OW 9442   0.350   4.331   6.249
 2848SOL    HW1 9443   0.262   4.377   6.246
 2848SOL    HW2 9444   0.417   4.389   6.296
 2849SOL     OW 9445   3.396   0.349   1.599
 2849SOL    HW1 9446   3.493   0.332   1.620
 2849SOL    HW2 9447   3.345   0.363   1.683
 2850SOL     OW 9448   3.079   0.177   2.481
 2850SOL    HW1 9449   3.007   0.243   2.504
 2850SOL    HW2 9450   3.068   0.146   2.387
 2851SOL     OW 9451   0.474   3.668   5.284
 2851SOL    HW1 9452   0.391   3.709   5.320
 2851SOL    HW2 9453   0.540   3.740   5.261
 2852SOL     OW 9454   5.592   4.665   0.328
 2852SOL    HW1 9455   5.493   4.673   0.342
 2852SOL    HW2 9456   5.636   4.650   0.416
 2853SOL     OW 9457   2.509   2.060   6.955
 2853SOL    HW1 9458   2.605   2.046   6.978
 2853SOL    HW2 9459   2.460   1.972   6.961
 2854SOL     OW 9460   3.231   1.851   4.107
 2854SOL    HW1 9461   3.183   1.880   4.024
 2854SOL    HW2 9462   3.185   1.890   4.187
 2855SOL     OW 9463   1.689   0.852   6.106
 2855SOL    HW1 9464   1.767   0.844   6.043
 2855SOL    HW2 9465   1.607   0.875   6.054
 2856SOL     OW 9466   2.525   2.747   6.005
 2856SOL    HW1 9467   2.585   2.796   5.942
 2856SOL    HW2 9468   2.560   2.757   6.098
 2857SOL     OW 9469   3.041   1.754   1.787
 2857SOL    HW1 9470   3.033   1.655   1.786
 2857SOL    HW2 9471   3.133   1.780   1.817
 2858SOL     OW 9472   6.094   3.437   1.854
 2858SOL    HW1 9473   6.093   3.384   1.939
 2858SOL    HW2 9474   6.136   3.526   1.870
 2859SOL     OW 9475   5.333   2.181   0.702
 2859SOL    HW1 9476   5.290   2.162   0.614
 2859SOL    HW2 9477   5.334   2.097   0.757
 2860SOL     OW 9478   3.534   1.708   0.989
 2860SOL    HW1 9479   3.496   1.798   0.968
 2860SOL    HW2 9480   3.627   1.702   0.953
 2861SOL     OW 9481   4.872   5.246   5.493
 2861SOL    HW1 9482   4.799   5.193   5.538
 2861SOL    HW2 9483   4.833   5.329   5.454
 2862SOL     OW 9484   5.191   1.543   2.779
 2862SOL    HW1 9485   5.276   1.562   2.830
 2862SOL    HW2 9486   5.201   1.458   2.728
 2863SOL     OW 9487   5.924   1.487   6.907
 2863SOL    HW1 9488   5.960   1.515   6.818
 2863SOL    HW2 9489   5.925   1.565   6.970
 2864SOL     OW 9490   3.798   0.509   1.403
 2864SOL    HW1 9491   3.833   0.603   1.404
 2864SOL    HW2 9492   3.826   0.463   1.319
 2865SOL     OW 9493   5.151   4.082   5.755
 2865SOL    HW1 9494   5.080   4.106   5.689
 2865SOL    HW2 9495   5.165   4.159   5.818
 2866SOL     OW 9496   6.367   6.336   0.151
 2866SOL    HW1 9497   6.311   6.270   0.200
 2866SOL    HW2 9498   6.378   6.307   0.056
 2867SOL     OW 9499   5.525   3.998   2.332
 2867SOL    HW1 9500   5.573   3.915   2.362
 2867SOL    HW2 9501   5.447   3.971   2.275
 2868SOL     OW 9502   0.496   3.094   5.167
 2868SOL    HW1 9503   0.500   3.081   5.266
 2868SOL    HW2 9504   0.401   3.112   5.140
 2869SOL     OW 9505   5.486   1.285   3.601
 2869SOL    HW1 9506   5.514   1.211   3.662
 2869SOL    HW2 9507   5.386   1.293   3.603
 2870SOL     OW 9508   6.845   1.419   4.636
 2870SOL    HW1 9509   6.822   1.516   4.641
 2870SOL    HW2 9510   6.940   1.406   4.664
 2871SOL     OW 9511   1.860   1.294   6.767
 2871SOL    HW1 9512   1.916   1.361   6.817
 2871SOL    HW2 9513   1.799   1.248   6.831
 2872SOL     OW 9514   2.640   1.617   3.591
 2872SOL    HW1 9515   2.678   1.548   3.530
 2872SOL    HW2 9516   2.541   1.605   3.597
 2873SOL     OW 9517   1.542   4.985   3.611
 2873SOL    HW1 9518   1.469   5.053   3.615
 2873SOL    HW2 9519   1.597   5.000   3.529
 2874SOL     OW 9520   4.389   5.145   2.775
 2874SOL    HW1 9521   4.345   5.056   2.766
 2874SOL    HW2 9522   4.484   5.138   2.745
 2875SOL     OW 9523   4.332   6.397   6.688
 2875SOL    HW1 9524   4.310   6.373   6.594
 2875SOL    HW2 9525   4.379   6.319   6.731
 2876SOL     OW 9526   0.710   6.941   1.656
 2876SOL    HW1 9527   0.784   6.883   1.625
 2876SOL    HW2 9528   0.736   6.986   1.742
 2877SOL     OW 9529   3.553   2.801   5.273
 2877SOL    HW1 9530   3.617   2.726   5.289
 2877SOL    HW2 9531   3.462   2.765   5.255
 2878SOL     OW 9532   3.770   5.166   4.532
 2878SOL    HW1 9533   3.868   5.145   4.533
 2878SOL    HW2 9534   3.754   5.250   4.584
 2879SOL     OW 9535   4.961   5.376   6.901
 2879SOL    HW1 9536   5.053   5.382   6.862
 2879SOL    HW2 9537   4.963   5.409   6.995
 2880SOL     OW 9538   6.100   6.499   0.732
 2880SOL    HW1 9539   6.099   6.433   0.807
 2880SOL    HW2 9540   6.193   6.530   0.716
 2881SOL     OW 9541   5.699   6.198   1.196
 2881SOL    HW1 9542   5.720   6.296   1.193
 2881SOL    HW2 9543   5.768   6.149   1.142
 2882SOL     OW 9544   0.853   3.593   2.352
 2882SOL    HW1 9545   0.795   3.514   2.331
 2882SOL    HW2 9546   0.863   3.602   2.451
 2883SOL     OW 9547   5.320   6.391   3.856
 2883SOL    HW1 9548   5.327   6.439   3.943
 2883SOL    HW2 9549   5.285   6.298   3.872
 2884SOL     OW 9550   0.787   5.409   2.794
 2884SOL    HW1 9551   0.780   5.325   2.849
 2884SOL    HW2 9552   0.853   5.471   2.837
 2885SOL     OW 9553   0.147   2.896   2.736
 2885SOL    HW1 9554   0.231   2.842   2.739
 2885SOL    HW2 9555   0.124   2.918   2.641
 2886SOL     OW 9556   2.118   3.638   6.915
 2886SOL    HW1 9557   2.185   3.568   6.891
 2886SOL    HW2 9558   2.030   3.595   6.934
 2887SOL     OW 9559   1.997   0.027   4.969
 2887SOL    HW1 9560   2.043   0.079   5.041
 2887SOL    HW2 9561   1.913   7.007   5.005
 2888SOL     OW 9562   0.351   4.516   6.630
 2888SOL    HW1 9563   0.410   4.506   6.710
 2888SOL    HW2 9564   0.267   4.463   6.644
 2889SOL     OW 9565   1.475   1.044   2.568
 2889SOL    HW1 9566   1.466   0.998   2.480
 2889SOL    HW2 9567   1.493   0.976   2.639
 2890SOL     OW 9568   2.593   0.665   1.153
 2890SOL    HW1 9569   2.590   0.765   1.157
 2890SOL    HW2 9570   2.502   0.630   1.132
 2891SOL     OW 9571   2.416   4.413   3.352
 2891SOL    HW1 9572   2.472   4.479   3.402
 2891SOL    HW2 9573   2.446   4.408   3.257
 2892SOL     OW 9574   5.203   4.113   0.636
 2892SOL    HW1 9575   5.257   4.112   0.720
 2892SOL    HW2 9576   5.156   4.026   0.625
 2893SOL     OW 9577   1.048   6.921   4.922
 2893SOL    HW1 9578   1.122   6.988   4.924
 2893SOL    HW2 9579   1.069   6.845   4.983
 2894SOL     OW 9580   3.217   2.812   6.893
 2894SOL    HW1 9581   3.229   2.911   6.885
 2894SOL    HW2 9582   3.266   2.767   6.819
 2895SOL     OW 9583   4.191   2.920   6.416
 2895SOL    HW1 9584   4.278   2.870   6.422
 2895SOL    HW2 9585   4.200   3.008   6.462
 2896SOL     OW 9586   2.705   4.984   6.276
 2896SOL    HW1 9587   2.687   5.054   6.345
 2896SOL    HW2 9588   2.799   4.994   6.242
 2897SOL     OW 9589   2.716   6.341   3.503
 2897SOL    HW1 9590   2.795   6.399   3.482
 2897SOL    HW2 9591   2.720   6.258   3.449
 2898SOL     OW 9592   4.655   4.985   3.128
 2898SOL    HW1 9593   4.636   4.890   3.151
 2898SOL    HW2 9594   4.577   5.042   3.153
 2899SOL     OW 9595   0.278   1.671   6.674
 2899SOL    HW1 9596   0.325   1.584   6.658
 2899SOL    HW2 9597   0.235   1.670   6.764
 2900SOL     OW 9598   1.123   5.054   5.142
 2900SOL    HW1 9599   1.167   5.095   5.063
 2900SOL    HW2 9600   1.179   5.069   5.223
 2901SOL     OW 9601   1.317   0.157   2.867
 2901SOL    HW1 9602   1.337   0.135   2.772
 2901SOL    HW2 9603   1.224   0.129   2.889
 2902SOL     OW 9604   5.694   6.147   0.705
 2902SOL    HW1 9605   5.735   6.234   0.680
 2902SOL    HW2 9606   5.611   6.163   0.759
 2903SOL     OW 9607   3.185   0.120   1.734
 2903SOL    HW1 9608   3.158   0.198   1.679
 2903SOL    HW2 9609   3.114   0.100   1.802
 2904SOL     OW 9610   2.363   3.159   5.447
 2904SOL    HW1 9611   2.266   3.183   5.450
 2904SOL    HW2 9612   2.374   3.066   5.412
 2905SOL     OW 9613   1.036   2.186   2.787
 2905SOL    HW1 9614   0.986   2.150   2.708
 2905SOL    HW2 9615   1.037   2.118   2.860
 2906SOL     OW 9616   5.439   4.987   2.670
 2906SOL    HW1 9617   5.471   5.072   2.628
 2906SOL    HW2 9618   5.500   4.912   2.643
 2907SOL     OW 9619   6.724   0.715   4.500
 2907SOL    HW1 9620   6.652   0.746   4.438
 2907SOL    HW2 9621   6.738   0.617   4.487
 2908SOL     OW 9622   4.203   6.678   4.036
 2908SOL    HW1 9623   4.226   6.694   4.132
 2908SOL    HW2 9624   4.279   6.633   3.990
 2909SOL     OW 9625   0.510   5.896   4.067
 2909SOL    HW1 9626   0.539   5.822   4.006
 2909SOL    HW2 9627   0.590   5.939   4.108
 2910SOL     OW 9628   4.345   6.764   4.285
 2910SOL    HW1 9629   4.365   6.862   4.285
 2910SOL    HW2 9630   4.427   6.713   4.309
 2911SOL     OW 9631   2.245   5.204   3.812
 2911SOL    HW1 9632   2.227   5.111   3.780
 2911SOL    HW2 9633   2.344   5.221   3.809
 2912SOL     OW 9634   3.588   6.073   0.098
 2912SOL    HW1 9635   3.530   6.133   0.152
 2912SOL    HW2 9636   3.547   6.057   0.008
 2913SOL     OW 9637   2.217   5.024   2.370
 2913SOL    HW1 9638   2.158   5.077   2.431
 2913SOL    HW2 9639   2.163   4.950   2.329
 2914SOL     OW 9640   6.064   5.320   6.628
 2914SOL    HW1 9641   6.037   5.402   6.578
 2914SOL    HW2 9642   6.048   5.240   6.571
 2915SOL     OW 9643   4.698   1.771   4.733
 2915SOL    HW1 9644   4.651   1.847   4.688
 2915SOL    HW2 9645   4.771   1.807   4.792
 2916SOL     OW 9646   6.310   5.127   5.850
 2916SOL    HW1 9647   6.235   5.102   5.789
 2916SOL    HW2 9648   6.325   5.226   5.845
 2917SOL     OW 9649   4.459   0.855   1.486
 2917SOL    HW1 9650   4.397   0.818   1.555
 2917SOL    HW2 9651   4.539   0.894   1.530
 2918SOL     OW 9652   0.207   3.236   3.293
 2918SOL    HW1 9653   0.147   3.272   3.364
 2918SOL    HW2 9654   0.292   3.203   3.334
 2919SOL     OW 9655   6.455   0.878   0.185
 2919SOL    HW1 9656   6.368   0.869   0.136
 2919SOL    HW2 9657   6.529   0.845   0.128
 2920SOL     OW 9658   3.694   1.946   2.377
 2920SOL    HW1 9659   3.606   1.954   2.425
 2920SOL    HW2 9660   3.764   1.916   2.442
 2921SOL     OW 9661   0.172   0.735   2.965
 2921SOL    HW1 9662   0.194   0.689   2.878
 2921SOL    HW2 9663   0.165   0.667   3.037
 2922SOL     OW 9664   5.840   6.459   6.859
 2922SOL    HW1 9665   5.868   6.554   6.873
 2922SOL    HW2 9666   5.841   6.411   6.947
 2923SOL     OW 9667   6.964   5.333   1.716
 2923SOL    HW1 9668   6.896   5.390   1.763
 2923SOL    HW2 9669   0.016   5.392   1.678
 2924SOL     OW 9670   6.930   2.028   6.149
 2924SOL    HW1 9671   6.965   2.094   6.216
 2924SOL    HW2 9672   6.836   2.054   6.124
 2925SOL     OW 9673   5.245   0.720   3.311
 2925SOL    HW1 9674   5.329   0.718   3.366
 2925SOL    HW2 9675   5.241   0.805   3.259
 2926SOL     OW 9676   6.683   1.323   5.623
 2926SOL    HW1 9677   6.611   1.391   5.615
 2926SOL    HW2 9678   6.761   1.363   5.672
 2927SOL     OW 9679   2.075   2.009   2.324
 2927SOL    HW1 9680   2.094   2.088   2.266
 2927SOL    HW2 9681   1.987   1.969   2.298
 2928SOL     OW 9682   6.570   2.604   6.084
 2928SOL    HW1 9683   6.543   2.677   6.147
 2928SOL    HW2 9684   6.627   2.642   6.012
 2929SOL     OW 9685   0.886   1.474   5.595
 2929SOL    HW1 9686   0.861   1.434   5.507
 2929SOL    HW2 9687   0.826   1.437   5.666
 2930SOL     OW 9688   5.084   6.439   4.831
 2930SOL    HW1 9689   5.075   6.418   4.928
 2930SOL    HW2 9690   5.000   6.482   4.798
 2931SOL     OW 9691   5.396   6.314   6.528
 2931SOL    HW1 9692   5.473   6.337   6.588
 2931SOL    HW2 9693   5.369   6.220   6.544
 2932SOL     OW 9694   1.770   4.906   1.986
 2932SOL    HW1 9695   1.689   4.954   2.021
 2932SOL    HW2 9696   1.758   4.808   1.999
 2933SOL     OW 9697   5.456   2.805   3.605
 2933SOL    HW1 9698   5.547   2.842   3.588
 2933SOL    HW2 9699   5.436   2.807   3.703
 2934SOL     OW 9700   3.666   1.181   0.412
 2934SOL    HW1 9701   3.683   1.188   0.511
 2934SOL    HW2 9702   3.577   1.220   0.391
 2935SOL     OW 9703   6.070   3.069   1.814
 2935SOL    HW1 9704   6.040   2.986   1.861
 2935SOL    HW2 9705   5.991   3.129   1.799
 2936SOL     OW 9706   5.028   5.653   1.586
 2936SOL    HW1 9707   4.955   5.611   1.533
 2936SOL    HW2 9708   5.101   5.683   1.525
 2937SOL     OW 9709   3.482   5.049   0.540
 2937SOL    HW1 9710   3.545   5.050   0.462
 2937SOL    HW2 9711   3.429   5.134   0.540
 2938SOL     OW 9712   4.916   4.874   5.688
 2938SOL    HW1 9713   4.929   4.922   5.775
 2938SOL    HW2 9714   4.847   4.803   5.700
 2939SOL     OW 9715   0.395   6.855   4.060
 2939SOL    HW1 9716   0.487   6.819   4.076
 2939SOL    HW2 9717   0.378   6.860   3.962
 2940SOL     OW 9718   5.951   0.033   5.557
 2940SOL    HW1 9719   6.038   0.082   5.569
 2940SOL    HW2 9720   5.968   6.962   5.520
 2941SOL     OW 9721   2.181   2.431   5.405
 2941SOL    HW1 9722   2.276   2.448   5.379
 2941SOL    HW2 9723   2.174   2.429   5.505
 2942SOL     OW 9724   2.366   0.678   2.320
 2942SOL    HW1 9725   2.313   0.640   2.244
 2942SOL    HW2 9726   2.309   0.680   2.402
 2943SOL     OW 9727   5.469   3.460   3.476
 2943SOL    HW1 9728   5.500   3.404   3.399
 2943SOL    HW2 9729   5.371   3.448   3.488
 2944SOL     OW 9730   2.614   5.459   5.519
 2944SOL    HW1 9731   2.644   5.377   5.471
 2944SOL    HW2 9732   2.667   5.471   5.603
 2945SOL     OW 9733   3.990   3.314   3.401
 2945SOL    HW1 9734   4.032   3.393   3.445
 2945SOL    HW2 9735   3.938   3.344   3.322
 2946SOL     OW 9736   6.937   5.280   5.963
 2946SOL    HW1 9737   6.991   5.256   6.044
 2946SOL    HW2 9738   6.932   5.380   5.956
 2947SOL     OW 9739   1.030   4.359   0.549
 2947SOL    HW1 9740   1.083   4.408   0.618
 2947SOL    HW2 9741   0.993   4.275   0.588
 2948SOL     OW 9742   6.481   3.548   5.501
 2948SOL    HW1 9743   6.495   3.628   5.558
 2948SOL    HW2 9744   6.522   3.468   5.545
 2949SOL     OW 9745   1.957   6.062   1.056
 2949SOL    HW1 9746   1.982   5.974   1.015
 2949SOL    HW2 9747   1.930   6.126   0.983
 2950SOL     OW 9748   5.503   3.267   4.619
 2950SOL    HW1 9749   5.599   3.271   4.593
 2950SOL    HW2 9750   5.494   3.291   4.716
 2951SOL     OW 9751   6.804   2.491   0.112
 2951SOL    HW1 9752   6.834   2.565   0.173
 2951SOL    HW2 9753   6.835   2.404   0.149
 2952SOL     OW 9754   1.317   5.525   4.856
 2952SOL    HW1 9755   1.287   5.616   4.884
 2952SOL    HW2 9756   1.412   5.529   4.826
 2953SOL     OW 9757   4.679   2.568   2.300
 2953SOL    HW1 9758   4.717   2.653   2.263
 2953SOL    HW2 9759   4.674   2.499   2.227
 2954SOL     OW 9760   1.121   5.568   1.232
 2954SOL    HW1 9761   1.122   5.492   1.167
 2954SOL    HW2 9762   1.033   5.571   1.279
 2955SOL     OW 9763   0.813   3.456   0.645
 2955SOL    HW1 9764   0.852   3.540   0.682
 2955SOL    HW2 9765   0.717   3.471   0.621
 2956SOL     OW 9766   6.144   5.837   3.006
 2956SOL    HW1 9767   6.152   5.745   2.968
 2956SOL    HW2 9768   6.184   5.903   2.941
 2957SOL     OW 9769   6.380   3.156   1.384
 2957SOL    HW1 9770   6.320   3.233   1.362
 2957SOL    HW2 9771   6.375   3.088   1.311
 2958SOL     OW 9772   2.552   4.647   4.795
 2958SOL    HW1 9773   2.590   4.618   4.707
 2958SOL    HW2 9774   2.621   4.639   4.866
 2959SOL     OW 9775   4.878   4.714   0.508
 2959SOL    HW1 9776   4.903   4.617   0.498
 2959SOL    HW2 9777   4.852   4.732   0.603
 2960SOL     OW 9778   2.875   0.933   6.632
 2960SOL    HW1 9779   2.823   0.848   6.627
 2960SOL    HW2 9780   2.828   1.004   6.580
 2961SOL     OW 9781   5.323   2.485   4.546
 2961SOL    HW1 9782   5.243   2.476   4.486
 2961SOL    HW2 9783   5.294   2.475   4.641
 2962SOL     OW 9784   4.413   0.772   3.884
 2962SOL    HW1 9785   4.398   0.694   3.823
 2962SOL    HW2 9786   4.422   0.739   3.978
 2963SOL     OW 9787   1.464   1.836   5.562
 2963SOL    HW1 9788   1.512   1.844   5.650
 2963SOL    HW2 9789   1.367   1.816   5.579
 2964SOL     OW 9790   1.242   0.044   1.611
 2964SOL    HW1 9791   1.294   0.103   1.673
 2964SOL    HW2 9792   1.181   7.005   1.664
 2965SOL     OW 9793   6.925   1.238   4.975
 2965SOL    HW1 9794   6.964   1.316   5.023
 2965SOL    HW2 9795   6.956   1.153   5.017
 2966SOL     OW 9796   6.167   4.799   4.087
 2966SOL    HW1 9797   6.156   4.846   3.999
 2966SOL    HW2 9798   6.260   4.813   4.121
 2967SOL     OW 9799   6.141   2.555   3.597
 2967SOL    HW1 9800   6.164   2.467   3.555
 2967SOL    HW2 9801   6.051   2.550   3.638
 2968SOL     OW 9802   0.849   4.216   5.601
 2968SOL    HW1 9803   0.892   4.249   5.517
 2968SOL    HW2 9804   0.770   4.160   5.577
 2969SOL     OW 9805   5.816   1.117   4.924
 2969SOL    HW1 9806   5.755   1.159   4.991
 2969SOL    HW2 9807   5.910   1.147   4.943
 2970SOL     OW 9808   1.424   4.255   0.047
 2970SOL    HW1 9809   1.468   4.331   7.017
 2970SOL    HW2 9810   1.345   4.289   0.097
 2971SOL     OW 9811   5.225   2.694   5.017
 2971SOL    HW1 9812   5.152   2.749   4.976
 2971SOL    HW2 9813   5.311   2.746   5.016
 2972SOL     OW 9814   6.492   5.091   6.285
 2972SOL    HW1 9815   6.446   5.175   6.315
 2972SOL    HW2 9816   6.463   5.070   6.191
 2973SOL     OW 9817   5.342   1.109   4.281
 2973SOL    HW1 9818   5.279   1.159   4.340
 2973SOL    HW2 9819   5.385   1.172   4.218
 2974SOL     OW 9820   0.147   3.545   3.135
 2974SOL    HW1 9821   0.118   3.609   3.064
 2974SOL    HW2 9822   0.145   3.452   3.099
 2975SOL     OW 9823   0.299   2.036   5.198
 2975SOL    HW1 9824   0.223   2.013   5.136
 2975SOL    HW2 9825   0.300   2.135   5.214
 2976SOL     OW 9826   3.584   1.374   2.491
 2976SOL    HW1 9827   3.566   1.276   2.481
 2976SOL    HW2 9828   3.658   1.387   2.557
 2977SOL     OW 9829   2.031   0.442   4.498
 2977SOL    HW1 9830   2.091   0.377   4.451
 2977SOL    HW2 9831   1.961   0.392   4.549
 2978SOL     OW 9832   4.123   4.681   6.491
 2978SOL    HW1 9833   4.207   4.736   6.489
 2978SOL    HW2 9834   4.076   4.696   6.578
 2979SOL     OW 9835   4.465   6.577   3.986
 2979SOL    HW1 9836   4.441   6.524   4.068
 2979SOL    HW2 9837   4.523   6.653   4.012
 2980SOL     OW 9838   1.764   5.606   3.829
 2980SOL    HW1 9839   1.806   5.568   3.746
 2980SOL    HW2 9840   1.738   5.701   3.813
 2981SOL     OW 9841   0.698   6.981   5.886
 2981SOL    HW1 9842   0.733   0.014   5.963
 2981SOL    HW2 9843   0.754   6.999   5.805
 2982SOL     OW 9844   5.129   6.017   3.077
 2982SOL    HW1 9845   5.151   5.923   3.050
 2982SOL    HW2 9846   5.060   6.054   3.015
 2983SOL     OW 9847   0.978   1.155   4.422
 2983SOL    HW1 9848   1.077   1.163   4.432
 2983SOL    HW2 9849   0.951   1.184   4.330
 2984SOL     OW 9850   4.748   5.700   1.241
 2984SOL    HW1 9851   4.707   5.766   1.305
 2984SOL    HW2 9852   4.847   5.711   1.241
 2985SOL     OW 9853   0.850   2.550   4.856
 2985SOL    HW1 9854   0.813   2.568   4.948
 2985SOL    HW2 9855   0.917   2.621   4.833
 2986SOL     OW 9856   1.954   4.050   6.546
 2986SOL    HW1 9857   1.969   3.973   6.608
 2986SOL    HW2 9858   2.036   4.064   6.489
 2987SOL     OW 9859   4.891   0.829   3.921
 2987SOL    HW1 9860   4.960   0.774   3.967
 2987SOL    HW2 9861   4.828   0.769   3.871
 2988SOL     OW 9862   0.263   6.895   2.975
 2988SOL    HW1 9863   0.266   6.968   2.907
 2988SOL    HW2 9864   0.273   6.934   3.067
 2989SOL     OW 9865   6.287   6.147   0.984
 2989SOL    HW1 9866   6.316   6.101   0.900
 2989SOL    HW2 9867   6.361   6.144   1.051
 2990SOL     OW 9868   4.373   1.200   3.699
 2990SOL    HW1 9869   4.379   1.130   3.770
 2990SOL    HW2 9870   4.432   1.175   3.622
 2991SOL     OW 9871   6.779   3.781   0.526
 2991SOL    HW1 9872   6.778   3.832   0.439
 2991SOL    HW2 9873   6.709   3.710   0.523
 2992SOL     OW 9874   1.965   5.176   5.712
 2992SOL    HW1 9875   2.044   5.117   5.700
 2992SOL    HW2 9876   1.996   5.271   5.724
 2993SOL     OW 9877   1.152   4.876   2.002
 2993SOL    HW1 9878   1.236   4.852   1.954
 2993SOL    HW2 9879   1.120   4.797   2.054
 2994SOL     OW 9880   3.844   0.949   0.477
 2994SOL    HW1 9881   3.868   1.024   0.416
 2994SOL    HW2 9882   3.744   0.940   0.480
 2995SOL     OW 9883   1.058   3.121   6.987
 2995SOL    HW1 9884   1.126   3.089   0.033
 2995SOL    HW2 9885   1.056   3.059   6.909
 2996SOL     OW 9886   2.993   6.067   4.221
 2996SOL    HW1 9887   3.034   6.070   4.312
 2996SOL    HW2 9888   3.041   5.999   4.166
 2997SOL     OW 9889   4.675   6.580   2.064
 2997SOL    HW1 9890   4.768   6.594   2.096
 2997SOL    HW2 9891   4.662   6.628   1.977
 2998SOL     OW 9892   5.110   6.411   5.141
 2998SOL    HW1 9893   5.169   6.476   5.190
 2998SOL    HW2 9894   5.031   6.388   5.199
 2999SOL     OW 9895   3.702   5.872   3.812
 2999SOL    HW1 9896   3.785   5.860   3.867
 2999SOL    HW2 9897   3.649   5.787   3.812
 3000SOL     OW 9898   1.535   3.773   6.442
 3000SOL    HW1 9899   1.582   3.854   6.477
 3000SOL    HW2 9900   1.454   3.755   6.498
 3001SOL     OW 9901   5.619   0.282   0.002
 3001SOL    HW1 9902   5.655   0.373   0.017
 3001SOL    HW2 9903   5.522   0.279   0.027
 3002SOL     OW 9904   4.415   0.641   5.353
 3002SOL    HW1 9905   4.344   0.692   5.303
 3002SOL    HW2 9906   4.377   0.608   5.440
 3003SOL     OW 9907   2.438   6.532   6.878
 3003SOL    HW1 9908   2.498   6.504   6.804
 3003SOL    HW2 9909   2.412   6.628   6.866
 3004SOL     OW 9910   0.197   4.983   4.199
 3004SOL    HW1 9911   0.164   5.024   4.284
 3004SOL    HW2 9912   0.292   5.012   4.184
 3005SOL     OW 9913   3.293   2.604   0.856
 3005SOL    HW1 9914   3.370   2.652   0.898
 3005SOL    HW2 9915   3.288   2.511   0.891
 3006SOL     OW 9916   6.384   2.295   0.188
 3006SOL    HW1 9917   6.424   2.349   0.262
 3006SOL    HW2 9918   6.404   2.339   0.100
 3007SOL     OW 9919   6.210   5.029   2.538
 3007SOL    HW1 9920   6.132   5.033   2.600
 3007SOL    HW2 9921   6.178   5.018   2.444
 3008SOL     OW 9922   3.789   0.406   6.380
 3008SOL    HW1 9923   3.714   0.409   6.315
 3008SOL    HW2 9924   3.755   0.423   6.472
 3009SOL     OW 9925   0.785   6.356   2.599
 3009SOL    HW1 9926   0.743   6.443   2.623
 3009SOL    HW2 9927   0.772   6.338   2.501
 3010SOL     OW 9928   3.797   5.839   3.492
 3010SOL    HW1 9929   3.702   5.850   3.523
 3010SOL    HW2 9930   3.824   5.919   3.440
 3011SOL     OW 9931   5.684   1.107   0.198
 3011SOL    HW1 9932   5.728   1.054   0.126
 3011SOL    HW2 9933   5.677   1.203   0.170
 3012SOL     OW 9934   1.179   3.929   5.048
 3012SOL    HW1 9935   1.248   3.877   5.098
 3012SOL    HW2 9936   1.187   4.026   5.069
 3013SOL     OW 9937   5.588   5.597   3.950
 3013SOL    HW1 9938   5.554   5.508   3.919
 3013SOL    HW2 9939   5.635   5.585   4.038
 3014SOL     OW 9940   5.208   2.404   3.978
 3014SOL    HW1 9941   5.291   2.357   3.947
 3014SOL    HW2 9942   5.225   2.502   3.982
 3015SOL     OW 9943   3.605   2.317   0.686
 3015SOL    HW1 9944   3.557   2.403   0.662
 3015SOL    HW2 9945   3.693   2.314   0.639
 3016SOL     OW 9946   3.311   5.939   4.507
 3016SOL    HW1 9947   3.237   5.985   4.556
 3016SOL    HW2 9948   3.358   6.004   4.448
 3017SOL     OW 9949   1.043   5.116   1.555
 3017SOL    HW1 9950   0.994   5.030   1.568
 3017SOL    HW2 9951   1.102   5.132   1.634
 3018SOL     OW 9952   3.112   6.952   6.210
 3018SOL    HW1 9953   3.033   6.953   6.148
 3018SOL    HW2 9954   3.118   6.863   6.255
 3019SOL     OW 9955   2.345   6.674   0.799
 3019SOL    HW1 9956   2.405   6.753   0.782
 3019SOL    HW2 9957   2.293   6.690   0.883
 3020SOL     OW 9958   3.552   3.924   1.554
 3020SOL    HW1 9959   3.623   3.992   1.540
 3020SOL    HW2 9960   3.510   3.936   1.645
 3021SOL     OW 9961   2.154   1.444   0.692
 3021SOL    HW1 9962   2.182   1.472   0.601
 3021SOL    HW2 9963   2.110   1.521   0.738
 3022SOL     OW 9964   4.277   5.979   2.835
 3022SOL    HW1 9965   4.334   6.058   2.855
 3022SOL    HW2 9966   4.184   6.008   2.814
 3023SOL     OW 9967   3.641   6.535   2.789
 3023SOL    HW1 9968   3.572   6.529   2.861
 3023SOL    HW2 9969   3.600   6.517   2.700
 3024SOL     OW 9970   3.549   0.349   6.271
 3024SOL    HW1 9971   3.579   0.292   6.347
 3024SOL    HW2 9972   3.528   0.291   6.193
 3025SOL     OW 9973   3.483   2.470   0.341
 3025SOL    HW1 9974   3.533   2.483   0.427
 3025SOL    HW2 9975   3.512   2.385   0.298
 3026SOL     OW 9976   1.738   2.587   0.731
 3026SOL    HW1 9977   1.672   2.512   0.731
 3026SOL    HW2 9978   1.712   2.654   0.801
 3027SOL     OW 9979   3.978   0.984   1.834
 3027SOL    HW1 9980   4.066   0.962   1.876
 3027SOL    HW2 9981   3.989   1.065   1.776
 3028SOL     OW 9982   1.185   4.607   6.661
 3028SOL    HW1 9983   1.212   4.625   6.756
 3028SOL    HW2 9984   1.259   4.561   6.613
 3029SOL     OW 9985   0.095   4.902   4.810
 3029SOL    HW1 9986   0.187   4.941   4.815
 3029SOL    HW2 9987   0.101   4.806   4.783
 3030SOL     OW 9988   0.575   2.347   5.758
 3030SOL    HW1 9989   0.583   2.281   5.833
 3030SOL    HW2 9990   0.643   2.419   5.770
 3031SOL     OW 9991   0.189   3.724   0.965
 3031SOL    HW1 9992   0.245   3.761   0.891
 3031SOL    HW2 9993   0.244   3.717   1.048
 3032SOL     OW 9994   5.206   0.449   0.590
 3032SOL    HW1 9995   5.276   0.441   0.518
 3032SOL    HW2 9996   5.119   0.476   0.549
 3033SOL     OW 9997   1.160   2.744   0.778
 3033SOL    HW1 9998   1.092   2.791   0.834
 3033SOL    HW2 9999   1.167   2.789   0.689
 3034SOL     OW10000   2.097   6.124   3.907
 3034SOL    HW110001   2.168   6.065   3.869
 3034SOL    HW210002   2.092   6.113   4.006
 3035SOL     OW10003   6.863   3.126   0.161
 3035SOL    HW110004   6.793   3.168   0.219
 3035SOL    HW210005   6.822   3.103   0.072
 3036SOL     OW10006   1.605   3.361   6.902
 3036SOL    HW110007   1.652   3.391   6.818
 3036SOL    HW210008   1.671   3.315   6.962
 3037SOL     OW10009   6.083   5.634   5.146
 3037SOL    HW110010   6.038   5.692   5.213
 3037SOL    HW210011   6.039   5.645   5.056
 3038SOL     OW10012   5.788   6.519   6.400
 3038SOL    HW110013   5.742   6.607   6.386
 3038SOL    HW210014   5.881   6.535   6.434
 3039SOL     OW10015   6.317   3.830   2.238
 3039SOL    HW110016   6.352   3.792   2.152
 3039SOL    HW210017   6.274   3.758   2.292
 3040SOL     OW10018   5.257   4.008   6.128
 3040SOL    HW110019   5.206   4.093   6.115
 3040SOL    HW210020   5.226   3.963   6.211
 3041SOL     OW10021   2.141   2.619   5.608
 3041SOL    HW110022   2.171   2.693   5.668
 3041SOL    HW210023   2.135   2.653   5.514
 3042SOL     OW10024   5.194   6.661   1.714
 3042SOL    HW110025   5.230   6.728   1.779
 3042SOL    HW210026   5.261   6.646   1.641
 3043SOL     OW10027   0.600   5.541   0.859
 3043SOL    HW110028   0.515   5.502   0.893
 3043SOL    HW210029   0.587   5.639   0.842
 3044SOL     OW10030   2.918   4.747   6.186
 3044SOL    HW110031   2.833   4.697   6.167
 3044SOL    HW210032   2.976   4.746   6.104
 3045SOL     OW10033   5.017   0.480   2.354
 3045SOL    HW110034   5.049   0.415   2.423
 3045SOL    HW210035   4.942   0.535   2.392
 3046SOL     OW10036   1.598   2.437   5.790
 3046SOL    HW110037   1.685   2.401   5.825
 3046SOL    HW210038   1.568   2.513   5.848
 3047SOL     OW10039   4.869   6.009   2.452
 3047SOL    HW110040   4.857   5.917   2.416
 3047SOL    HW210041   4.780   6.051   2.467
 3048SOL     OW10042   3.433   3.184   1.790
 3048SOL    HW110043   3.482   3.247   1.730
 3048SOL    HW210044   3.407   3.103   1.738
 3049SOL     OW10045   1.309   6.176   1.321
 3049SOL    HW110046   1.307   6.109   1.396
 3049SOL    HW210047   1.395   6.167   1.271
 3050SOL     OW10048   3.427   0.406   3.697
 3050SOL    HW110049   3.482   0.489   3.685
 3050SOL    HW210050   3.372   0.415   3.780
 3051SOL     OW10051   2.725   3.620   0.217
 3051SOL    HW110052   2.678   3.564   0.285
 3051SOL    HW210053   2.660   3.650   0.147
 3052SOL     OW10054   4.409   0.900   2.107
 3052SOL    HW110055   4.381   0.924   2.014
 3052SOL    HW210056   4.433   0.982   2.157
 3053SOL     OW10057   6.472   0.503   6.425
 3053SOL    HW110058   6.495   0.490   6.521
 3053SOL    HW210059   6.411   0.431   6.394
 3054SOL     OW10060   0.878   2.603   0.727
 3054SOL    HW110061   0.976   2.590   0.740
 3054SOL    HW210062   0.859   2.617   0.629
 3055SOL     OW10063   4.605   6.988   3.720
 3055SOL    HW110064   4.527   6.931   3.746
 3055SOL    HW210065   4.599   7.011   3.623
 3056SOL     OW10066   0.149   0.432   6.593
 3056SOL    HW110067   0.233   0.475   6.560
 3056SOL    HW210068   0.074   0.452   6.530
 3057SOL     OW10069   4.085   5.614   2.769
 3057SOL    HW110070   4.156   5.631   2.701
 3057SOL    HW210071   4.070   5.515   2.777
 3058SOL     OW10072   6.811   5.597   1.562
 3058SOL    HW110073   6.714   5.591   1.539
 3058SOL    HW210074   6.831   5.537   1.639
 3059SOL     OW10075   1.988   2.410   5.213
 3059SOL    HW110076   1.931   2.492   5.225
 3059SOL    HW210077   2.066   2.415   5.275
 3060SOL     OW10078   0.458   6.330   0.334
 3060SOL    HW110079   0.511   6.267   0.279
 3060SOL    HW210080   0.455   6.419   0.290
 3061SOL     OW10081   6.646   1.189   5.018
 3061SOL    HW110082   6.574   1.254   4.995
 3061SOL    HW210083   6.735   1.225   4.989
 3062SOL     OW10084   1.515   0.063   0.248
 3062SOL    HW110085   1.435   0.105   0.290
 3062SOL    HW210086   1.488   6.998   0.202
 3063SOL     OW10087   2.748   5.483   1.692
 3063SOL    HW110088   2.845   5.459   1.686
 3063SOL    HW210089   2.722   5.491   1.788
 3064SOL     OW10090   6.126   3.483   3.603
 3064SOL    HW110091   6.140   3.420   3.527
 3064SOL    HW210092   6.194   3.466   3.674
 3065SOL     OW10093   1.662   0.896   6.513
 3065SOL    HW110094   1.720   0.903   6.594
 3065SOL    HW210095   1.567   0.915   6.538
 3066SOL     OW10096   5.662   4.752   0.624
 3066SOL    HW110097   5.694   4.713   0.711
 3066SOL    HW210098   5.740   4.788   0.574
 3067SOL     OW10099   3.331   1.535   4.450
 3067SOL    HW110100   3.400   1.530   4.523
 3067SOL    HW210101   3.243   1.506   4.486
 3068SOL     OW10102   5.340   6.016   0.544
 3068SOL    HW110103   5.394   5.937   0.517
 3068SOL    HW210104   5.248   5.987   0.569
 3069SOL     OW10105   6.625   6.195   1.595
 3069SOL    HW110106   6.652   6.267   1.531
 3069SOL    HW210107   6.552   6.140   1.554
 3070SOL     OW10108   1.855   1.170   2.025
 3070SOL    HW110109   1.839   1.268   2.015
 3070SOL    HW210110   1.799   1.136   2.101
 3071SOL     OW10111   5.886   6.427   3.608
 3071SOL    HW110112   5.819   6.501   3.619
 3071SOL    HW210113   5.907   6.415   3.512
 3072SOL     OW10114   0.779   6.673   0.506
 3072SOL    HW110115   0.799   6.592   0.561
 3072SOL    HW210116   0.790   6.650   0.409
 3073SOL     OW10117   1.060   3.436   4.906
 3073SOL    HW110118   1.006   3.357   4.878
 3073SOL    HW210119   1.057   3.505   4.834
 3074SOL     OW10120   5.717   3.107   0.542
 3074SOL    HW110121   5.620   3.084   0.526
 3074SOL    HW210122   5.748   3.063   0.626
 3075SOL     OW10123   1.871   6.231   1.331
 3075SOL    HW110124   1.923   6.190   1.256
 3075SOL    HW210125   1.853   6.327   1.310
 3076SOL     OW10126   6.489   0.685   4.181
 3076SOL    HW110127   6.462   0.773   4.144
 3076SOL    HW210128   6.585   0.667   4.159
 3077SOL     OW10129   5.276   4.987   2.901
 3077SOL    HW110130   5.332   4.993   2.819
 3077SOL    HW210131   5.300   4.904   2.952
 3078SOL     OW10132   2.080   3.057   1.251
 3078SOL    HW110133   2.149   3.085   1.319
 3078SOL    HW210134   2.034   3.138   1.215
 3079SOL     OW10135   1.946   2.752   4.341
 3079SOL    HW110136   1.944   2.700   4.256
 3079SOL    HW210137   2.022   2.719   4.398
 3080SOL     OW10138   5.488   4.686   2.812
 3080SOL    HW110139   5.414   4.693   2.879
 3080SOL    HW210140   5.555   4.758   2.828
 3081SOL     OW10141   0.616   4.027   6.431
 3081SOL    HW110142   0.537   4.036   6.491
 3081SOL    HW210143   0.593   3.970   6.352
 3082SOL     OW10144   3.700   6.656   3.581
 3082SOL    HW110145   3.772   6.602   3.624
 3082SOL    HW210146   3.618   6.600   3.571
 3083SOL     OW10147   4.053   6.323   3.419
 3083SOL    HW110148   4.079   6.385   3.493
 3083SOL    HW210149   3.976   6.362   3.368
 3084SOL     OW10150   4.696   4.724   4.441
 3084SOL    HW110151   4.699   4.758   4.346
 3084SOL    HW210152   4.647   4.790   4.498
 3085SOL     OW10153   0.483   4.567   2.554
 3085SOL    HW110154   0.454   4.573   2.649
 3085SOL    HW210155   0.576   4.532   2.550
 3086SOL     OW10156   4.210   1.653   1.313
 3086SOL    HW110157   4.244   1.628   1.404
 3086SOL    HW210158   4.111   1.637   1.309
 3087SOL     OW10159   0.698   4.627   3.739
 3087SOL    HW110160   0.775   4.691   3.733
 3087SOL    HW210161   0.652   4.622   3.651
 3088SOL     OW10162   2.268   4.891   5.275
 3088SOL    HW110163   2.181   4.939   5.280
 3088SOL    HW210164   2.263   4.821   5.203
 3089SOL     OW10165   0.874   2.635   0.269
 3089SOL    HW110166   0.927   2.690   0.334
 3089SOL    HW210167   0.884   2.673   0.177
 3090SOL     OW10168   1.623   2.185   1.837
 3090SOL    HW110169   1.535   2.222   1.865
 3090SOL    HW210170   1.662   2.130   1.911
 3091SOL     OW10171   2.682   6.257   0.176
 3091SOL    HW110172   2.699   6.183   0.111
 3091SOL    HW210173   2.664   6.342   0.126
 3092SOL     OW10174   5.109   0.249   6.560
 3092SOL    HW110175   5.123   0.205   6.471
 3092SOL    HW210176   5.012   0.267   6.574
 3093SOL     OW10177   5.551   4.947   5.985
 3093SOL    HW110178   5.510   4.919   6.072
 3093SOL    HW210179   5.556   4.868   5.924
 3094SOL     OW10180   3.357   6.862   4.904
 3094SOL    HW110181   3.352   6.802   4.823
 3094SOL    HW210182   3.268   6.904   4.920
 3095SOL     OW10183   2.687   5.106   4.370
 3095SOL    HW110184   2.628   5.055   4.432
 3095SOL    HW210185   2.781   5.104   4.403
 3096SOL     OW10186   0.974   0.374   4.210
 3096SOL    HW110187   0.899   0.406   4.152
 3096SOL    HW210188   0.978   0.428   4.293
 3097SOL     OW10189   0.565   2.628   0.786
 3097SOL    HW110190   0.513   2.706   0.749
 3097SOL    HW210191   0.570   2.556   0.717
 3098SOL     OW10192   2.518   3.375   1.289
 3098SOL    HW110193   2.431   3.419   1.267
 3098SOL    HW210194   2.541   3.308   1.218
 3099SOL     OW10195   0.029   5.831   5.130
 3099SOL    HW110196   0.105   5.814   5.067
 3099SOL    HW210197   6.966   5.788   5.094
 3100SOL     OW10198   6.720   0.435   4.571
 3100SOL    HW110199   6.733   0.437   4.670
 3100SOL    HW210200   6.804   0.402   4.527
 3101SOL     OW10201   4.606   6.195   5.267
 3101SOL    HW110202   4.689   6.241   5.236
 3101SOL    HW210203   4.622   6.097   5.274
 3102SOL     OW10204   1.110   5.301   2.271
 3102SOL    HW110205   1.098   5.202   2.257
 3102SOL    HW210206   1.119   5.320   2.368
 3103SOL     OW10207   3.102   1.581   1.458
 3103SOL    HW110208   3.126   1.621   1.370
 3103SOL    HW210209   3.027   1.633   1.499
 3104SOL     OW10210   6.215   0.061   4.465
 3104SOL    HW110211   6.228   0.154   4.432
 3104SOL    HW210212   6.206   7.019   4.387
 3105SOL     OW10213   6.738   5.060   3.225
 3105SOL    HW110214   6.717   5.124   3.299
 3105SOL    HW210215   6.662   5.058   3.160
 3106SOL     OW10216   6.891   1.309   2.865
 3106SOL    HW110217   6.894   1.215   2.898
 3106SOL    HW210218   6.951   1.366   2.921
 3107SOL     OW10219   3.515   0.328   4.072
 3107SOL    HW110220   3.482   0.367   4.158
 3107SOL    HW210221   3.535   0.231   4.085
 3108SOL     OW10222   1.842   0.647   4.614
 3108SOL    HW110223   1.860   0.550   4.632
 3108SOL    HW210224   1.811   0.658   4.519
 3109SOL     OW10225   5.918   6.093   2.984
 3109SOL    HW110226   5.980   6.142   3.046
 3109SOL    HW210227   5.966   6.074   2.898
 3110SOL     OW10228   1.178   1.566   3.702
 3110SOL    HW110229   1.097   1.513   3.675
 3110SOL    HW210230   1.161   1.609   3.791
 3111SOL     OW10231   6.475   5.726   4.002
 3111SOL    HW110232   6.522   5.646   4.039
 3111SOL    HW210233   6.412   5.762   4.071
 3112SOL     OW10234   5.005   2.480   6.498
 3112SOL    HW110235   4.989   2.577   6.516
 3112SOL    HW210236   5.042   2.437   6.580
 3113SOL     OW10237   1.808   0.023   4.336
 3113SOL    HW110238   1.838   6.971   4.273
 3113SOL    HW210239   1.841   0.004   4.428
 3114SOL     OW10240   4.831   3.080   0.142
 3114SOL    HW110241   4.894   3.146   0.184
 3114SOL    HW210242   4.754   3.129   0.101
 3115SOL     OW10243   4.907   3.558   0.361
 3115SOL    HW110244   4.874   3.511   0.279
 3115SOL    HW210245   5.007   3.555   0.363
 3116SOL     OW10246   0.502   3.700   6.949
 3116SOL    HW110247   0.531   3.606   6.930
 3116SOL    HW210248   0.513   3.756   6.867
 3117SOL     OW10249   4.494   3.601   5.371
 3117SOL    HW110250   4.481   3.694   5.405
 3117SOL    HW210251   4.555   3.602   5.293
 3118SOL     OW10252   6.912   4.473   6.794
 3118SOL    HW110253   6.852   4.470   6.714
 3118SOL    HW210254   6.959   4.561   6.798
 3119SOL     OW10255   1.985   3.634   5.711
 3119SOL    HW110256   2.032   3.578   5.778
 3119SOL    HW210257   1.892   3.599   5.698
 3120SOL     OW10258   2.394   6.562   4.488
 3120SOL    HW110259   2.457   6.629   4.529
 3120SOL    HW210260   2.304   6.570   4.531
 3121SOL     OW10261   0.616   1.441   2.316
 3121SOL    HW110262   0.534   1.477   2.359
 3121SOL    HW210263   0.640   1.497   2.236
 3122SOL     OW10264   3.152   5.651   6.178
 3122SOL    HW110265   3.173   5.675   6.273
 3122SOL    HW210266   3.064   5.604   6.174
 3123SOL     OW10267   3.500   6.298   3.750
 3123SOL    HW110268   3.558   6.218   3.734
 3123SOL    HW210269   3.554   6.372   3.789
 3124SOL     OW10270   4.054   0.277   4.806
 3124SOL    HW110271   3.983   0.294   4.875
 3124SOL    HW210272   4.090   0.185   4.817
 3125SOL     OW10273   6.063   2.130   6.352
 3125SOL    HW110274   6.120   2.187   6.292
 3125SOL    HW210275   6.009   2.189   6.412
 3126SOL     OW10276   5.198   4.456   6.534
 3126SOL    HW110277   5.228   4.386   6.469
 3126SOL    HW210278   5.138   4.521   6.488
 3127SOL     OW10279   0.460   2.391   3.133
 3127SOL    HW110280   0.525   2.466   3.143
 3127SOL    HW210281   0.452   2.366   3.036
 3128SOL     OW10282   2.011   6.971   0.063
 3128SOL    HW110283   2.052   6.935   6.999
 3128SOL    HW210284   2.062   0.031   0.094
 3129SOL     OW10285   0.796   4.055   6.688
 3129SOL    HW110286   0.762   4.141   6.727
 3129SOL    HW210287   0.790   4.059   6.588
 3130SOL     OW10288   2.504   4.483   2.724
 3130SOL    HW110289   2.540   4.475   2.631
 3130SOL    HW210290   2.412   4.444   2.728
 3131SOL     OW10291   0.831   3.141   2.114
 3131SOL    HW110292   0.889   3.134   2.032
 3131SOL    HW210293   0.736   3.122   2.090
 3132SOL     OW10294   5.218   5.825   5.604
 3132SOL    HW110295   5.279   5.854   5.678
 3132SOL    HW210296   5.134   5.879   5.608
 3133SOL     OW10297   2.700   2.220   3.692
 3133SOL    HW110298   2.648   2.140   3.720
 3133SOL    HW210299   2.713   2.281   3.770
 3134SOL     OW10300   5.401   3.734   1.916
 3134SOL    HW110301   5.346   3.753   1.997
 3134SOL    HW210302   5.402   3.815   1.857
 3135SOL     OW10303   4.325   1.947   4.775
 3135SOL    HW110304   4.352   1.856   4.746
 3135SOL    HW210305   4.255   1.940   4.846
 3136SOL     OW10306   6.109   6.279   5.544
 3136SOL    HW110307   6.144   6.215   5.475
 3136SOL    HW210308   6.045   6.343   5.500
 3137SOL     OW10309   5.179   0.930   3.908
 3137SOL    HW110310   5.167   0.881   3.994
 3137SOL    HW210311   5.211   0.867   3.838
 3138SOL     OW10312   6.635   1.499   4.258
 3138SOL    HW110313   6.690   1.416   4.247
 3138SOL    HW210314   6.694   1.573   4.291
 3139SOL     OW10315   4.904   0.008   6.297
 3139SOL    HW110316   4.814   7.005   6.258
 3139SOL    HW210317   4.907   7.000   6.393
 3140SOL     OW10318   6.283   5.860   6.190
 3140SOL    HW110319   6.229   5.939   6.219
 3140SOL    HW210320   6.228   5.777   6.199
 3141SOL     OW10321   0.730   6.730   6.024
 3141SOL    HW110322   0.742   6.811   5.967
 3141SOL    HW210323   0.635   6.726   6.057
 3142SOL     OW10324   4.830   6.479   0.118
 3142SOL    HW110325   4.921   6.440   0.136
 3142SOL    HW210326   4.761   6.407   0.125
 3143SOL     OW10327   6.769   2.653   6.890
 3143SOL    HW110328   6.834   2.726   6.909
 3143SOL    HW210329   6.770   2.586   6.964
 3144SOL     OW10330   2.708   3.579   0.916
 3144SOL    HW110331   2.697   3.487   0.879
 3144SOL    HW210332   2.623   3.609   0.959
 3145SOL     OW10333   2.344   5.574   3.015
 3145SOL    HW110334   2.312   5.614   3.101
 3145SOL    HW210335   2.439   5.601   2.998
 3146SOL     OW10336   1.152   6.284   3.400
 3146SOL    HW110337   1.113   6.238   3.479
 3146SOL    HW210338   1.204   6.364   3.429
 3147SOL     OW10339   4.065   5.231   6.666
 3147SOL    HW110340   4.082   5.226   6.764
 3147SOL    HW210341   4.011   5.152   6.638
 3148SOL     OW10342   4.211   5.536   4.503
 3148SOL    HW110343   4.303   5.501   4.483
 3148SOL    HW210344   4.144   5.462   4.490
 3149SOL     OW10345   3.201   0.181   5.383
 3149SOL    HW110346   3.199   0.090   5.424
 3149SOL    HW210347   3.135   0.240   5.430
 3150SOL     OW10348   5.236   5.929   4.657
 3150SOL    HW110349   5.321   5.982   4.655
 3150SOL    HW210350   5.206   5.918   4.751
 3151SOL     OW10351   4.666   1.563   6.586
 3151SOL    HW110352   4.686   1.530   6.678
 3151SOL    HW210353   4.602   1.640   6.591
 3152SOL     OW10354   1.210   5.189   1.746
 3152SOL    HW110355   1.279   5.152   1.809
 3152SOL    HW210356   1.158   5.260   1.793
 3153SOL     OW10357   6.508   4.361   1.909
 3153SOL    HW110358   6.564   4.308   1.846
 3153SOL    HW210359   6.426   4.393   1.862
 3154SOL     OW10360   6.380   1.847   0.342
 3154SOL    HW110361   6.377   1.929   0.399
 3154SOL    HW210362   6.307   1.785   0.370
 3155SOL     OW10363   0.088   5.555   1.615
 3155SOL    HW110364   0.004   5.601   1.643
 3155SOL    HW210365   0.093   5.552   1.516
 3156SOL     OW10366   4.045   3.285   3.930
 3156SOL    HW110367   3.989   3.210   3.966
 3156SOL    HW210368   4.073   3.264   3.836
 3157SOL     OW10369   1.884   2.992   4.873
 3157SOL    HW110370   1.903   2.897   4.847
 3157SOL    HW210371   1.967   3.034   4.909
 3158SOL     OW10372   4.416   0.147   0.933
 3158SOL    HW110373   4.389   0.173   1.025
 3158SOL    HW210374   4.503   0.098   0.936
 3159SOL     OW10375   4.883   6.329   6.837
 3159SOL    HW110376   4.821   6.399   6.801
 3159SOL    HW210377   4.975   6.367   6.847
 3160SOL     OW10378   6.357   4.804   6.043
 3160SOL    HW110379   6.400   4.885   6.004
 3160SOL    HW210380   6.293   4.832   6.115
 3161SOL     OW10381   1.367   1.492   2.733
 3161SOL    HW110382   1.390   1.551   2.810
 3161SOL    HW210383   1.430   1.414   2.731
 3162SOL     OW10384   0.511   5.217   0.098
 3162SOL    HW110385   0.609   5.226   0.082
 3162SOL    HW210386   0.478   5.295   0.151
 3163SOL     OW10387   3.651   2.579   6.110
 3163SOL    HW110388   3.574   2.609   6.166
 3163SOL    HW210389   3.618   2.515   6.040
 3164SOL     OW10390   5.227   4.432   1.609
 3164SOL    HW110391   5.243   4.526   1.579
 3164SOL    HW210392   5.301   4.404   1.670
 3165SOL     OW10393   1.602   6.636   1.750
 3165SOL    HW110394   1.578   6.679   1.837
 3165SOL    HW210395   1.520   6.620   1.696
 3166SOL     OW10396   5.136   2.725   6.303
 3166SOL    HW110397   5.126   2.626   6.312
 3166SOL    HW210398   5.192   2.745   6.222
 3167SOL     OW10399   6.457   4.612   2.030
 3167SOL    HW110400   6.393   4.586   2.103
 3167SOL    HW210401   6.487   4.530   1.981
 3168SOL     OW10402   5.154   2.890   0.841
 3168SOL    HW110403   5.121   2.841   0.760
 3168SOL    HW210404   5.177   2.823   0.913
 3169SOL     OW10405   0.818   3.320   5.980
 3169SOL    HW110406   0.764   3.347   6.059
 3169SOL    HW210407   0.758   3.299   5.903
 3170SOL     OW10408   3.804   0.057   0.306
 3170SOL    HW110409   3.876   0.029   0.243
 3170SOL    HW210410   3.787   7.005   0.373
 3171SOL     OW10411   6.519   6.768   1.234
 3171SOL    HW110412   6.431   6.802   1.269
 3171SOL    HW210413   6.592   6.794   1.297
 3172SOL     OW10414   6.761   6.127   4.752
 3172SOL    HW110415   6.827   6.126   4.677
 3172SOL    HW210416   6.669   6.108   4.716
 3173SOL     OW10417   2.575   0.775   1.731
 3173SOL    HW110418   2.634   0.856   1.735
 3173SOL    HW210419   2.588   0.729   1.644
 3174SOL     OW10420   2.433   3.402   6.533
 3174SOL    HW110421   2.459   3.434   6.442
 3174SOL    HW210422   2.390   3.476   6.584
 3175SOL     OW10423   1.079   6.633   6.614
 3175SOL    HW110424   1.074   6.585   6.526
 3175SOL    HW210425   1.093   6.730   6.597
 3176SOL     OW10426   1.797   4.626   6.044
 3176SOL    HW110427   1.766   4.696   5.980
 3176SOL    HW210428   1.814   4.667   6.134
 3177SOL     OW10429   5.579   5.357   5.812
 3177SOL    HW110430   5.521   5.295   5.865
 3177SOL    HW210431   5.623   5.422   5.874
 3178SOL     OW10432   7.018   3.937   1.617
 3178SOL    HW110433   6.969   3.956   1.531
 3178SOL    HW210434   0.026   4.023   1.659
 3179SOL     OW10435   1.614   2.374   2.197
 3179SOL    HW110436   1.705   2.408   2.177
 3179SOL    HW210437   1.569   2.435   2.262
 3180SOL     OW10438   4.447   0.959   5.836
 3180SOL    HW110439   4.486   1.010   5.914
 3180SOL    HW210440   4.517   0.899   5.797
 3181SOL     OW10441   0.625   1.018   3.924
 3181SOL    HW110442   0.533   1.052   3.902
 3181SOL    HW210443   0.647   0.941   3.864
 3182SOL     OW10444   0.524   0.479   5.719
 3182SOL    HW110445   0.575   0.431   5.790
 3182SOL    HW210446   0.579   0.483   5.635
 3183SOL     OW10447   3.818   4.477   1.686
 3183SOL    HW110448   3.787   4.473   1.591
 3183SOL    HW210449   3.741   4.503   1.744
 3184SOL     OW10450   2.586   1.869   2.169
 3184SOL    HW110451   2.614   1.934   2.238
 3184SOL    HW210452   2.664   1.846   2.111
 3185SOL     OW10453   0.042   0.564   5.432
 3185SOL    HW110454   7.009   0.546   5.515
 3185SOL    HW210455   0.073   0.659   5.431
 3186SOL     OW10456   3.563   1.090   3.139
 3186SOL    HW110457   3.557   1.135   3.228
 3186SOL    HW210458   3.491   1.022   3.131
 3187SOL     OW10459   4.071   4.187   0.001
 3187SOL    HW110460   4.101   4.096   6.993
 3187SOL    HW210461   4.013   4.180   0.083
 3188SOL     OW10462   3.357   6.268   2.593
 3188SOL    HW110463   3.355   6.363   2.623
 3188SOL    HW210464   3.330   6.208   2.669
 3189SOL     OW10465   2.024   1.024   2.847
 3189SOL    HW110466   2.084   1.058   2.920
 3189SOL    HW210467   1.929   1.051   2.867
 3190SOL     OW10468   1.154   6.559   1.206
 3190SOL    HW110469   1.106   6.497   1.143
 3190SOL    HW210470   1.151   6.652   1.170
 3191SOL     OW10471   3.471   0.662   1.249
 3191SOL    HW110472   3.458   0.647   1.347
 3191SOL    HW210473   3.407   0.733   1.218
 3192SOL     OW10474   0.451   1.681   0.507
 3192SOL    HW110475   0.404   1.768   0.524
 3192SOL    HW210476   0.466   1.634   0.593
 3193SOL     OW10477   4.483   2.155   5.987
 3193SOL    HW110478   4.451   2.072   5.942
 3193SOL    HW210479   4.436   2.234   5.950
 3194SOL     OW10480   1.662   3.202   6.527
 3194SOL    HW110481   1.587   3.261   6.555
 3194SOL    HW210482   1.734   3.204   6.595
 3195SOL     OW10483   1.691   2.603   3.394
 3195SOL    HW110484   1.732   2.604   3.485
 3195SOL    HW210485   1.712   2.689   3.347
 3196SOL     OW10486   6.874   0.135   4.786
 3196SOL    HW110487   6.958   0.160   4.738
 3196SOL    HW210488   6.897   0.088   4.871
 3197SOL     OW10489   1.294   5.399   2.753
 3197SOL    HW110490   1.277   5.310   2.795
 3197SOL    HW210491   1.356   5.452   2.811
 3198SOL     OW10492   0.016   2.193   6.351
 3198SOL    HW110493   6.997   2.285   6.351
 3198SOL    HW210494   0.048   2.170   6.443
 3199SOL     OW10495   4.747   2.032   1.595
 3199SOL    HW110496   4.805   2.048   1.675
 3199SOL    HW210497   4.664   1.984   1.622
 3200SOL     OW10498   6.999   2.856   0.837
 3200SOL    HW110499   7.018   2.842   0.934
 3200SOL    HW210500   0.030   2.936   0.804
 3201SOL     OW10501   5.225   3.684   3.852
 3201SOL    HW110502   5.313   3.657   3.812
 3201SOL    HW210503   5.161   3.608   3.847
 3202SOL     OW10504   2.147   4.433   2.460
 3202SOL    HW110505   2.155   4.342   2.419
 3202SOL    HW210506   2.059   4.442   2.505
 3203SOL     OW10507   6.530   0.931   1.405
 3203SOL    HW110508   6.553   0.953   1.310
 3203SOL    HW210509   6.525   1.015   1.459
 3204SOL     OW10510   6.149   5.393   1.811
 3204SOL    HW110511   6.089   5.429   1.740
 3204SOL    HW210512   6.192   5.308   1.779
 3205SOL     OW10513   6.459   4.468   6.390
 3205SOL    HW110514   6.434   4.393   6.329
 3205SOL    HW210515   6.512   4.536   6.340
 3206SOL     OW10516   0.171   6.668   5.817
 3206SOL    HW110517   0.118   6.603   5.871
 3206SOL    HW210518   0.137   6.761   5.833
 3207SOL     OW10519   0.781   1.443   5.338
 3207SOL    HW110520   0.733   1.531   5.330
 3207SOL    HW210521   0.719   1.369   5.309
 3208SOL     OW10522   4.404   5.669   5.180
 3208SOL    HW110523   4.418   5.582   5.132
 3208SOL    HW210524   4.397   5.651   5.278
 3209SOL     OW10525   2.727   6.725   4.044
 3209SOL    HW110526   2.716   6.646   4.103
 3209SOL    HW210527   2.812   6.717   3.992
 3210SOL     OW10528   0.306   3.707   2.436
 3210SOL    HW110529   0.215   3.675   2.462
 3210SOL    HW210530   0.349   3.753   2.514
 3211SOL     OW10531   2.429   3.996   0.744
 3211SOL    HW110532   2.413   4.077   0.687
 3211SOL    HW210533   2.406   3.914   0.692
 3212SOL     OW10534   4.486   2.123   6.833
 3212SOL    HW110535   4.460   2.181   6.911
 3212SOL    HW210536   4.411   2.119   6.768
 3213SOL     OW10537   5.761   5.527   3.187
 3213SOL    HW110538   5.734   5.611   3.235
 3213SOL    HW210539   5.695   5.455   3.207
 3214SOL     OW10540   4.336   6.100   6.912
 3214SOL    HW110541   4.306   6.057   6.827
 3214SOL    HW210542   4.411   6.163   6.893
 3215SOL     OW10543   6.467   3.156   1.045
 3215SOL    HW110544   6.559   3.165   1.006
 3215SOL    HW210545   6.473   3.113   1.135
 3216SOL     OW10546   5.584   6.090   3.330
 3216SOL    HW110547   5.525   6.140   3.267
 3216SOL    HW210548   5.571   5.991   3.316
 3217SOL     OW10549   1.131   4.559   3.045
 3217SOL    HW110550   1.051   4.554   2.986
 3217SOL    HW210551   1.107   4.528   3.137
 3218SOL     OW10552   3.892   6.808   3.280
 3218SOL    HW110553   3.847   6.719   3.289
 3218SOL    HW210554   3.949   6.809   3.198
 3219SOL     OW10555   6.803   0.345   3.154
 3219SOL    HW110556   6.870   0.372   3.085
 3219SOL    HW210557   6.723   0.304   3.109
 3220SOL     OW10558   0.091   4.508   4.924
 3220SOL    HW110559   0.114   4.411   4.927
 3220SOL    HW210560   0.105   4.543   4.832
 3221SOL     OW10561   2.605   6.587   2.842
 3221SOL    HW110562   2.690   6.546   2.874
 3221SOL    HW210563   2.528   6.552   2.895
 3222SOL     OW10564   4.974   1.998   3.199
 3222SOL    HW110565   5.020   2.054   3.130
 3222SOL    HW210566   4.893   2.046   3.232
 3223SOL     OW10567   2.796   5.377   6.520
 3223SOL    HW110568   2.748   5.465   6.519
 3223SOL    HW210569   2.813   5.350   6.615
 3224SOL     OW10570   4.350   5.524   6.804
 3224SOL    HW110571   4.327   5.495   6.897
 3224SOL    HW210572   4.384   5.618   6.806
 3225SOL     OW10573   4.354   3.416   6.698
 3225SOL    HW110574   4.324   3.468   6.777
 3225SOL    HW210575   4.366   3.478   6.620
 3226SOL     OW10576   2.332   0.647   4.186
 3226SOL    HW110577   2.389   0.625   4.266
 3226SOL    HW210578   2.236   0.630   4.209
 3227SOL     OW10579   3.598   1.935   6.303
 3227SOL    HW110580   3.686   1.974   6.330
 3227SOL    HW210581   3.538   2.007   6.270
 3228SOL     OW10582   6.091   3.704   4.308
 3228SOL    HW110583   6.184   3.717   4.274
 3228SOL    HW210584   6.058   3.614   4.280
 3229SOL     OW10585   3.601   2.444   5.875
 3229SOL    HW110586   3.587   2.350   5.844
 3229SOL    HW210587   3.691   2.477   5.844
 3230SOL     OW10588   0.495   1.101   3.079
 3230SOL    HW110589   0.426   1.059   3.020
 3230SOL    HW210590   0.465   1.191   3.107
 3231SOL     OW10591   4.534   5.412   1.334
 3231SOL    HW110592   4.552   5.510   1.327
 3231SOL    HW210593   4.618   5.360   1.318
 3232SOL     OW10594   3.811   5.019   5.026
 3232SOL    HW110595   3.849   4.942   5.078
 3232SOL    HW210596   3.886   5.078   4.995
 3233SOL     OW10597   1.260   4.024   1.824
 3233SOL    HW110598   1.336   4.015   1.761
 3233SOL    HW210599   1.276   4.101   1.886
 3234SOL     OW10600   0.082   2.132   0.379
 3234SOL    HW110601   0.102   2.063   0.310
 3234SOL    HW210602   0.165   2.150   0.433
 3235SOL     OW10603   6.008   6.733   2.615
 3235SOL    HW110604   5.941   6.675   2.660
 3235SOL    HW210605   6.007   6.824   2.656
 3236SOL     OW10606   1.335   2.630   1.838
 3236SOL    HW110607   1.299   2.652   1.929
 3236SOL    HW210608   1.428   2.594   1.847
 3237SOL     OW10609   4.723   6.497   4.637
 3237SOL    HW110610   4.667   6.565   4.590
 3237SOL    HW210611   4.750   6.426   4.572
 3238SOL     OW10612   0.715   5.604   6.539
 3238SOL    HW110613   0.745   5.606   6.635
 3238SOL    HW210614   0.648   5.677   6.525
 3239SOL     OW10615   6.274   0.385   6.283
 3239SOL    HW110616   6.199   0.335   6.239
 3239SOL    HW210617   6.254   0.482   6.285
 3240SOL     OW10618   0.530   6.990   4.451
 3240SOL    HW110619   0.508   0.049   4.394
 3240SOL    HW210620   0.619   6.953   4.423
 3241SOL     OW10621   5.092   1.500   4.065
 3241SOL    HW110622   5.049   1.589   4.050
 3241SOL    HW210623   5.057   1.461   4.150
 3242SOL     OW10624   3.593   5.670   6.238
 3242SOL    HW110625   3.692   5.655   6.244
 3242SOL    HW210626   3.552   5.656   6.328
 3243SOL     OW10627   4.554   5.342   0.003
 3243SOL    HW110628   4.636   5.357   0.057
 3243SOL    HW210629   4.492   5.420   0.012
 3244SOL     OW10630   4.676   5.971   5.649
 3244SOL    HW110631   4.610   5.987   5.722
 3244SOL    HW210632   4.711   6.059   5.616
 3245SOL     OW10633   4.089   3.002   6.150
 3245SOL    HW110634   4.187   3.012   6.130
 3245SOL    HW210635   4.078   2.967   6.243
 3246SOL     OW10636   6.024   6.825   2.341
 3246SOL    HW110637   6.045   6.792   2.432
 3246SOL    HW210638   5.932   6.865   2.340
 3247SOL     OW10639   0.175   3.376   3.977
 3247SOL    HW110640   0.120   3.427   3.911
 3247SOL    HW210641   0.129   3.291   4.001
 3248SOL     OW10642   6.181   3.381   2.128
 3248SOL    HW110643   6.097   3.363   2.180
 3248SOL    HW210644   6.260   3.366   2.186
 3249SOL     OW10645   3.353   4.847   5.169
 3249SOL    HW110646   3.396   4.936   5.156
 3249SOL    HW210647   3.304   4.820   5.086
 3250SOL     OW10648   4.925   6.949   2.695
 3250SOL    HW110649   4.965   6.920   2.782
 3250SOL    HW210650   4.952   6.885   2.623
 3251SOL     OW10651   3.648   1.650   2.676
 3251SOL    HW110652   3.711   1.697   2.613
 3251SOL    HW210653   3.680   1.556   2.691
 3252SOL     OW10654   3.428   1.085   2.793
 3252SOL    HW110655   3.427   1.103   2.694
 3252SOL    HW210656   3.364   1.146   2.839
 3253SOL     OW10657   4.597   2.598   1.389
 3253SOL    HW110658   4.517   2.656   1.405
 3253SOL    HW210659   4.629   2.610   1.295
 3254SOL     OW10660   4.004   4.836   3.671
 3254SOL    HW110661   4.075   4.818   3.603
 3254SOL    HW210662   4.023   4.784   3.754
 3255SOL     OW10663   4.391   5.716   0.178
 3255SOL    HW110664   4.395   5.738   0.276
 3255SOL    HW210665   4.476   5.670   0.151
 3256SOL     OW10666   5.467   6.619   5.988
 3256SOL    HW110667   5.495   6.524   5.971
 3256SOL    HW210668   5.545   6.680   5.973
 3257SOL     OW10669   1.621   1.799   0.992
 3257SOL    HW110670   1.587   1.712   0.958
 3257SOL    HW210671   1.694   1.832   0.933
 3258SOL     OW10672   4.965   6.677   1.417
 3258SOL    HW110673   4.937   6.581   1.423
 3258SOL    HW210674   4.997   6.708   1.506
 3259SOL     OW10675   4.524   6.210   4.279
 3259SOL    HW110676   4.434   6.235   4.242
 3259SOL    HW210677   4.570   6.292   4.312
 3260SOL     OW10678   1.515   1.427   0.217
 3260SOL    HW110679   1.443   1.395   0.156
 3260SOL    HW210680   1.508   1.380   0.305
 3261SOL     OW10681   4.131   0.087   1.313
 3261SOL    HW110682   4.175   0.098   1.402
 3261SOL    HW210683   4.064   0.160   1.299
 3262SOL     OW10684   3.580   1.546   3.607
 3262SOL    HW110685   3.630   1.601   3.673
 3262SOL    HW210686   3.572   1.597   3.521
 3263SOL     OW10687   4.269   6.791   2.821
 3263SOL    HW110688   4.217   6.782   2.736
 3263SOL    HW210689   4.244   6.877   2.866
 3264SOL     OW10690   0.428   5.699   6.901
 3264SOL    HW110691   0.483   5.647   6.966
 3264SOL    HW210692   0.417   5.793   6.936
 3265SOL     OW10693   4.171   1.730   6.475
 3265SOL    HW110694   4.101   1.673   6.432
 3265SOL    HW210695   4.147   1.826   6.465
 3266SOL     OW10696   6.990   2.813   6.885
 3266SOL    HW110697   6.998   2.738   6.820
 3266SOL    HW210698   7.001   2.778   6.978
 3267SOL     OW10699   3.172   1.890   1.277
 3267SOL    HW110700   3.156   1.799   1.241
 3267SOL    HW210701   3.155   1.890   1.376
 3268SOL     OW10702   1.343   3.901   0.364
 3268SOL    HW110703   1.265   3.876   0.307
 3268SOL    HW210704   1.310   3.932   0.453
 3269SOL     OW10705   4.215   4.599   1.561
 3269SOL    HW110706   4.223   4.499   1.560
 3269SOL    HW210707   4.299   4.639   1.599
 3270SOL     OW10708   0.457   5.419   3.606
 3270SOL    HW110709   0.431   5.408   3.702
 3270SOL    HW210710   0.405   5.355   3.549
 3271SOL     OW10711   6.033   2.467   1.991
 3271SOL    HW110712   6.119   2.469   2.044
 3271SOL    HW210713   6.048   2.418   1.905
 3272SOL     OW10714   3.484   0.362   0.284
 3272SOL    HW110715   3.433   0.443   0.312
 3272SOL    HW210716   3.455   0.283   0.339
 3273SOL     OW10717   1.192   6.231   2.286
 3273SOL    HW110718   1.288   6.232   2.257
 3273SOL    HW210719   1.157   6.138   2.282
 3274SOL     OW10720   2.839   2.005   5.467
 3274SOL    HW110721   2.935   2.031   5.471
 3274SOL    HW210722   2.789   2.047   5.543
 3275SOL     OW10723   2.020   0.428   6.756
 3275SOL    HW110724   2.059   0.513   6.720
 3275SOL    HW210725   1.924   0.420   6.730
 3276SOL     OW10726   3.354   5.302   6.569
 3276SOL    HW110727   3.438   5.324   6.619
 3276SOL    HW210728   3.375   5.289   6.472
 3277SOL     OW10729   0.096   6.234   5.853
 3277SOL    HW110730   0.161   6.242   5.929
 3277SOL    HW210731   0.059   6.142   5.850
 3278SOL     OW10732   1.168   1.168   5.384
 3278SOL    HW110733   1.111   1.186   5.464
 3278SOL    HW210734   1.130   1.091   5.332
 3279SOL     OW10735   6.939   6.809   1.253
 3279SOL    HW110736   6.916   6.713   1.241
 3279SOL    HW210737   0.014   6.818   1.282
 3280SOL     OW10738   2.622   5.330   6.208
 3280SOL    HW110739   2.556   5.256   6.219
 3280SOL    HW210740   2.672   5.342   6.294
 3281SOL     OW10741   2.336   5.069   0.261
 3281SOL    HW110742   2.365   5.024   0.345
 3281SOL    HW210743   2.411   5.066   0.194
 3282SOL     OW10744   2.597   5.521   3.911
 3282SOL    HW110745   2.686   5.566   3.903
 3282SOL    HW210746   2.550   5.524   3.822
 3283SOL     OW10747   3.409   0.726   3.526
 3283SOL    HW110748   3.485   0.682   3.574
 3283SOL    HW210749   3.356   0.657   3.477
 3284SOL     OW10750   0.327   5.944   6.682
 3284SOL    HW110751   0.290   6.031   6.649
 3284SOL    HW210752   0.256   5.874   6.676
 3285SOL     OW10753   0.347   2.516   2.740
 3285SOL    HW110754   0.264   2.491   2.690
 3285SOL    HW210755   0.397   2.433   2.767
 3286SOL     OW10756   3.477   3.593   4.636
 3286SOL    HW110757   3.559   3.618   4.584
 3286SOL    HW210758   3.426   3.676   4.658
 3287SOL     OW10759   1.975   5.298   0.000
 3287SOL    HW110760   1.928   5.253   6.944
 3287SOL    HW210761   2.006   5.389   6.991
 3288SOL     OW10762   0.738   6.043   6.436
 3288SOL    HW110763   0.731   5.989   6.352
 3288SOL    HW210764   0.647   6.071   6.465
 3289SOL     OW10765   0.873   5.547   5.627
 3289SOL    HW110766   0.907   5.593   5.545
 3289SOL    HW210767   0.822   5.465   5.600
 3290SOL     OW10768   0.342   5.722   1.231
 3290SOL    HW110769   0.402   5.772   1.168
 3290SOL    HW210770   0.268   5.679   1.180
 3291SOL     OW10771   1.776   6.388   6.808
 3291SOL    HW110772   1.803   6.302   6.849
 3291SOL    HW210773   1.769   6.377   6.709
 3292SOL     OW10774   7.010   6.880   6.325
 3292SOL    HW110775   7.005   6.882   6.225
 3292SOL    HW210776   0.071   6.930   6.356
 3293SOL     OW10777   0.075   1.141   3.050
 3293SOL    HW110778   0.112   1.117   2.960
 3293SOL    HW210779   0.014   1.069   3.082
 3294SOL     OW10780   6.726   0.183   6.242
 3294SOL    HW110781   6.727   0.099   6.187
 3294SOL    HW210782   6.631   0.209   6.260
 3295SOL     OW10783   2.497   2.216   0.905
 3295SOL    HW110784   2.500   2.316   0.906
 3295SOL    HW210785   2.536   2.181   0.990
 3296SOL     OW10786   1.983   0.583   2.570
 3296SOL    HW110787   1.891   0.576   2.610
 3296SOL    HW210788   1.976   0.592   2.471
 3297SOL     OW10789   3.130   2.469   5.426
 3297SOL    HW110790   3.159   2.431   5.338
 3297SOL    HW210791   3.211   2.494   5.480
 3298SOL     OW10792   6.550   3.326   2.892
 3298SOL    HW110793   6.476   3.365   2.836
 3298SOL    HW210794   6.637   3.368   2.865
 3299SOL     OW10795   1.314   0.251   5.092
 3299SOL    HW110796   1.343   0.279   5.184
 3299SOL    HW210797   1.374   0.293   5.024
 3300SOL     OW10798   6.072   6.874   4.987
 3300SOL    HW110799   6.170   6.882   4.968
 3300SOL    HW210800   6.021   6.919   4.915
 3301SOL     OW10801   0.583   3.765   3.405
 3301SOL    HW110802   0.502   3.770   3.347
 3301SOL    HW210803   0.571   3.692   3.473
 3302SOL     OW10804   1.369   5.000   3.896
 3302SOL    HW110805   1.424   5.021   3.977
 3302SOL    HW210806   1.341   5.085   3.852
 3303SOL     OW10807   3.711   3.059   3.335
 3303SOL    HW110808   3.743   3.133   3.276
 3303SOL    HW210809   3.770   3.053   3.415
 3304SOL     OW10810   1.298   5.980   3.782
 3304SOL    HW110811   1.361   5.945   3.852
 3304SOL    HW210812   1.208   5.938   3.795
 3305SOL     OW10813   1.646   1.219   1.640
 3305SOL    HW110814   1.675   1.300   1.590
 3305SOL    HW210815   1.727   1.172   1.677
 3306SOL     OW10816   2.212   3.940   3.288
 3306SOL    HW110817   2.245   4.034   3.279
 3306SOL    HW210818   2.218   3.912   3.384
 3307SOL     OW10819   0.088   6.243   0.445
 3307SOL    HW110820   0.066   6.283   0.356
 3307SOL    HW210821   0.050   6.150   0.450
 3308SOL     OW10822   4.471   6.109   0.461
 3308SOL    HW110823   4.531   6.149   0.392
 3308SOL    HW210824   4.443   6.180   0.525
 3309SOL     OW10825   1.297   5.100   3.526
 3309SOL    HW110826   1.330   5.144   3.443
 3309SOL    HW210827   1.225   5.156   3.568
 3310SOL     OW10828   0.900   4.518   2.866
 3310SOL    HW110829   0.833   4.487   2.933
 3310SOL    HW210830   0.874   4.487   2.775
 3311SOL     OW10831   3.815   6.698   1.556
 3311SOL    HW110832   3.864   6.616   1.527
 3311SOL    HW210833   3.873   6.778   1.543
 3312SOL     OW10834   3.080   3.985   6.165
 3312SOL    HW110835   3.040   4.070   6.131
 3312SOL    HW210836   3.167   3.968   6.119
 3313SOL     OW10837   1.106   5.486   3.697
 3313SOL    HW110838   1.102   5.567   3.755
 3313SOL    HW210839   1.131   5.512   3.603
 3314SOL     OW10840   1.676   3.354   5.235
 3314SOL    HW110841   1.682   3.377   5.332
 3314SOL    HW210842   1.706   3.432   5.180
 3315SOL     OW10843   6.538   2.042   3.423
 3315SOL    HW110844   6.628   2.001   3.440
 3315SOL    HW210845   6.477   2.022   3.499
 3316SOL     OW10846   4.940   1.849   5.990
 3316SOL    HW110847   4.903   1.764   5.952
 3316SOL    HW210848   4.957   1.837   6.088
 3317SOL     OW10849   4.556   2.832   1.688
 3317SOL    HW110850   4.548   2.900   1.761
 3317SOL    HW210851   4.480   2.842   1.624
 3318SOL     OW10852   2.842   6.051   5.713
 3318SOL    HW110853   2.844   6.034   5.812
 3318SOL    HW210854   2.913   5.997   5.668
 3319SOL     OW10855   0.625   6.701   4.079
 3319SOL    HW110856   0.676   6.696   3.993
 3319SOL    HW210857   0.685   6.732   4.152
 3320SOL     OW10858   5.973   1.040   5.471
 3320SOL    HW110859   5.952   0.967   5.406
 3320SOL    HW210860   5.906   1.040   5.545
 3321SOL     OW10861   3.894   2.937   2.726
 3321SOL    HW110862   3.941   3.014   2.684
 3321SOL    HW210863   3.864   2.873   2.656
 3322SOL     OW10864   3.594   2.188   0.916
 3322SOL    HW110865   3.663   2.228   0.976
 3322SOL    HW210866   3.610   2.219   0.822
 3323SOL     OW10867   2.163   4.320   6.767
 3323SOL    HW110868   2.215   4.250   6.717
 3323SOL    HW210869   2.120   4.278   6.847
 3324SOL     OW10870   0.958   3.680   0.709
 3324SOL    HW110871   0.948   3.753   0.641
 3324SOL    HW210872   1.045   3.691   0.757
 3325SOL     OW10873   1.538   2.395   0.609
 3325SOL    HW110874   1.579   2.312   0.570
 3325SOL    HW210875   1.454   2.371   0.658
 3326SOL     OW10876   6.688   1.723   1.163
 3326SOL    HW110877   6.666   1.784   1.239
 3326SOL    HW210878   6.604   1.678   1.131
 3327SOL     OW10879   2.795   6.931   2.126
 3327SOL    HW110880   2.725   6.861   2.137
 3327SOL    HW210881   2.827   6.932   2.031
 3328SOL     OW10882   4.973   0.900   2.374
 3328SOL    HW110883   4.924   0.987   2.372
 3328SOL    HW210884   4.907   0.824   2.378
 3329SOL     OW10885   3.935   0.947   5.251
 3329SOL    HW110886   3.992   0.875   5.291
 3329SOL    HW210887   3.905   0.919   5.160
 3330SOL     OW10888   5.949   6.759   2.038
 3330SOL    HW110889   6.023   6.747   2.104
 3330SOL    HW210890   5.942   6.677   1.981
 3331SOL     OW10891   2.040   3.556   2.942
 3331SOL    HW110892   1.956   3.511   2.912
 3331SOL    HW210893   2.096   3.491   2.994
 3332SOL     OW10894   4.233   5.347   0.303
 3332SOL    HW110895   4.248   5.430   0.357
 3332SOL    HW210896   4.170   5.286   0.352
 3333SOL     OW10897   3.143   3.462   1.650
 3333SOL    HW110898   3.048   3.485   1.627
 3333SOL    HW210899   3.148   3.431   1.744
 3334SOL     OW10900   2.076   2.412   2.383
 3334SOL    HW110901   1.990   2.362   2.376
 3334SOL    HW210902   2.059   2.509   2.366
 3335SOL     OW10903   3.535   4.431   5.449
 3335SOL    HW110904   3.496   4.521   5.467
 3335SOL    HW210905   3.558   4.423   5.352
 3336SOL     OW10906   3.806   6.725   3.974
 3336SOL    HW110907   3.891   6.760   3.935
 3336SOL    HW210908   3.822   6.696   4.068
 3337SOL     OW10909   3.639   3.648   2.711
 3337SOL    HW110910   3.626   3.576   2.643
 3337SOL    HW210911   3.632   3.610   2.803
 3338SOL     OW10912   1.755   1.574   1.200
 3338SOL    HW110913   1.776   1.672   1.193
 3338SOL    HW210914   1.813   1.524   1.135
 3339SOL     OW10915   2.295   0.634   5.515
 3339SOL    HW110916   2.216   0.612   5.573
 3339SOL    HW210917   2.365   0.681   5.569
 3340SOL     OW10918   4.286   1.073   4.180
 3340SOL    HW110919   4.336   1.148   4.223
 3340SOL    HW210920   4.258   1.007   4.250
 3341SOL     OW10921   2.758   4.961   2.285
 3341SOL    HW110922   2.828   4.988   2.351
 3341SOL    HW210923   2.668   4.974   2.326
 3342SOL     OW10924   6.247   0.402   2.829
 3342SOL    HW110925   6.189   0.481   2.806
 3342SOL    HW210926   6.213   0.359   2.913
 3343SOL     OW10927   4.506   5.341   6.661
 3343SOL    HW110928   4.593   5.307   6.695
 3343SOL    HW210929   4.461   5.394   6.733
 3344SOL     OW10930   0.430   2.751   1.476
 3344SOL    HW110931   0.520   2.786   1.452
 3344SOL    HW210932   0.369   2.828   1.496
 3345SOL     OW10933   0.686   4.710   0.891
 3345SOL    HW110934   0.764   4.758   0.929
 3345SOL    HW210935   0.604   4.731   0.944
 3346SOL     OW10936   2.618   0.853   6.787
 3346SOL    HW110937   2.547   0.793   6.751
 3346SOL    HW210938   2.699   0.799   6.811
 3347SOL     OW10939   0.846   3.405   6.464
 3347SOL    HW110940   0.887   3.455   6.387
 3347SOL    HW210941   0.866   3.455   6.549
 3348SOL     OW10942   3.771   3.476   6.219
 3348SOL    HW110943   3.778   3.393   6.275
 3348SOL    HW210944   3.847   3.538   6.241
 3349SOL     OW10945   2.613   4.584   3.453
 3349SOL    HW110946   2.612   4.606   3.550
 3349SOL    HW210947   2.666   4.654   3.404
 3350SOL     OW10948   0.209   4.033   5.503
 3350SOL    HW110949   0.197   4.047   5.602
 3350SOL    HW210950   0.184   4.116   5.454
 3351SOL     OW10951   5.162   0.713   0.727
 3351SOL    HW110952   5.155   0.723   0.826
 3351SOL    HW210953   5.179   0.617   0.704
 3352SOL     OW10954   5.295   2.428   6.919
 3352SOL    HW110955   5.304   2.339   6.964
 3352SOL    HW210956   5.383   2.476   6.921
 3353SOL     OW10957   2.221   0.896   1.747
 3353SOL    HW110958   2.283   0.971   1.772
 3353SOL    HW210959   2.240   0.817   1.804
 3354SOL     OW10960   4.125   2.957   5.742
 3354SOL    HW110961   4.172   3.028   5.688
 3354SOL    HW210962   4.027   2.960   5.722
 3355SOL     OW10963   1.992   1.109   4.787
 3355SOL    HW110964   2.016   1.205   4.803
 3355SOL    HW210965   2.066   1.063   4.738
 3356SOL     OW10966   1.456   6.743   5.711
 3356SOL    HW110967   1.384   6.793   5.661
 3356SOL    HW210968   1.451   6.646   5.687
 3357SOL     OW10969   3.032   3.227   2.332
 3357SOL    HW110970   2.980   3.199   2.252
 3357SOL    HW210971   3.130   3.222   2.313
 3358SOL     OW10972   6.184   0.959   2.509
 3358SOL    HW110973   6.199   0.870   2.467
 3358SOL    HW210974   6.270   0.995   2.545
 3359SOL     OW10975   0.031   5.670   4.282
 3359SOL    HW110976   0.111   5.686   4.224
 3359SOL    HW210977   0.058   5.679   4.378
 3360SOL     OW10978   0.043   2.742   5.752
 3360SOL    HW110979   6.997   2.678   5.712
 3360SOL    HW210980   7.014   2.818   5.795
 3361SOL     OW10981   0.499   0.506   4.543
 3361SOL    HW110982   0.482   0.543   4.451
 3361SOL    HW210983   0.477   0.575   4.611
 3362SOL     OW10984   3.684   2.155   3.781
 3362SOL    HW110985   3.594   2.138   3.821
 3362SOL    HW210986   3.751   2.162   3.855
 3363SOL     OW10987   5.905   3.039   1.075
 3363SOL    HW110988   5.861   3.099   1.142
 3363SOL    HW210989   5.959   2.969   1.122
 3364SOL     OW10990   2.459   4.347   3.043
 3364SOL    HW110991   2.553   4.378   3.026
 3364SOL    HW210992   2.449   4.254   3.007
 3365SOL     OW10993   2.058   3.222   4.712
 3365SOL    HW110994   1.975   3.277   4.704
 3365SOL    HW210995   2.109   3.250   4.793
 3366SOL     OW10996   6.691   3.367   4.360
 3366SOL    HW110997   6.637   3.286   4.381
 3366SOL    HW210998   6.769   3.340   4.303
 3367SOL     OW10999   3.333   3.582   4.286
 3367SOL    HW111000   3.407   3.650   4.293
 3367SOL    HW211001   3.288   3.573   4.375
 3368SOL     OW11002   1.523   6.018   6.670
 3368SOL    HW111003   1.612   6.021   6.625
 3368SOL    HW211004   1.516   6.092   6.737
 3369SOL     OW11005   4.177   2.068   1.311
 3369SOL    HW111006   4.113   2.031   1.244
 3369SOL    HW211007   4.256   2.107   1.263
 3370SOL     OW11008   0.266   5.547   1.819
 3370SOL    HW111009   0.203   5.575   1.746
 3370SOL    HW211010   0.324   5.472   1.786
 3371SOL     OW11011   2.098   3.281   3.133
 3371SOL    HW111012   2.118   3.203   3.193
 3371SOL    HW211013   2.036   3.344   3.180
 3372SOL     OW11014   6.519   2.769   1.107
 3372SOL    HW111015   6.502   2.675   1.137
 3372SOL    HW211016   6.609   2.798   1.141
 3373SOL     OW11017   0.330   1.881   1.522
 3373SOL    HW111018   0.422   1.917   1.538
 3373SOL    HW211019   0.307   1.817   1.595
 3374SOL     OW11020   0.974   0.022   3.391
 3374SOL    HW111021   0.909   0.015   3.315
 3374SOL    HW211022   1.051   0.080   3.366
 3375SOL     OW11023   6.930   5.079   6.725
 3375SOL    HW111024   6.968   5.000   6.677
 3375SOL    HW211025   6.989   5.103   6.802
 3376SOL     OW11026   2.302   3.607   5.518
 3376SOL    HW111027   2.338   3.517   5.497
 3376SOL    HW211028   2.314   3.626   5.616
 3377SOL     OW11029   6.221   4.848   3.786
 3377SOL    HW111030   6.228   4.759   3.741
 3377SOL    HW211031   6.168   4.910   3.728
 3378SOL     OW11032   1.522   6.472   6.931
 3378SOL    HW111033   1.464   6.541   6.888
 3378SOL    HW211034   1.615   6.478   6.895
 3379SOL     OW11035   0.837   3.615   4.533
 3379SOL    HW111036   0.883   3.580   4.451
 3379SOL    HW211037   0.902   3.664   4.590
 3380SOL     OW11038   4.018   4.071   5.751
 3380SOL    HW111039   3.971   4.156   5.728
 3380SOL    HW211040   4.028   4.064   5.850
 3381SOL     OW11041   1.166   2.959   1.104
 3381SOL    HW111042   1.256   2.915   1.097
 3381SOL    HW211043   1.178   3.057   1.119
 3382SOL     OW11044   6.832   2.493   0.870
 3382SOL    HW111045   6.884   2.522   0.950
 3382SOL    HW211046   6.815   2.572   0.811
 3383SOL     OW11047   3.981   4.775   6.717
 3383SOL    HW111048   3.969   4.873   6.730
 3383SOL    HW211049   3.896   4.735   6.684
 3384SOL     OW11050   3.371   4.137   0.915
 3384SOL    HW111051   3.355   4.064   0.849
 3384SOL    HW211052   3.297   4.138   0.983
 3385SOL     OW11053   0.427   2.298   3.403
 3385SOL    HW111054   0.463   2.310   3.310
 3385SOL    HW211055   0.502   2.300   3.468
 3386SOL     OW11056   6.741   4.774   6.791
 3386SOL    HW111057   6.650   4.786   6.752
 3386SOL    HW211058   6.743   4.689   6.844
 3387SOL     OW11059   6.184   0.466   3.203
 3387SOL    HW111060   6.152   0.395   3.141
 3387SOL    HW211061   6.156   0.443   3.297
 3388SOL     OW11062   5.409   3.374   1.650
 3388SOL    HW111063   5.345   3.416   1.714
 3388SOL    HW211064   5.453   3.295   1.693
 3389SOL     OW11065   6.039   6.276   0.382
 3389SOL    HW111066   6.069   6.365   0.418
 3389SOL    HW211067   6.117   6.227   0.344
 3390SOL     OW11068   3.859   6.757   6.014
 3390SOL    HW111069   3.780   6.725   5.961
 3390SOL    HW211070   3.850   6.856   6.030
 3391SOL     OW11071   5.878   3.358   3.411
 3391SOL    HW111072   5.899   3.260   3.406
 3391SOL    HW211073   5.957   3.411   3.382
 3392SOL     OW11074   4.281   0.259   5.382
 3392SOL    HW111075   4.352   0.202   5.341
 3392SOL    HW211076   4.209   0.277   5.315
 3393SOL     OW11077   5.243   6.776   1.234
 3393SOL    HW111078   5.254   6.771   1.334
 3393SOL    HW211079   5.156   6.733   1.208
 3394SOL     OW11080   3.325   5.547   1.062
 3394SOL    HW111081   3.285   5.628   1.019
 3394SOL    HW211082   3.306   5.548   1.160
 3395SOL     OW11083   3.926   0.310   3.207
 3395SOL    HW111084   3.846   0.364   3.184
 3395SOL    HW211085   3.944   0.318   3.305
 3396SOL     OW11086   4.755   2.393   3.990
 3396SOL    HW111087   4.673   2.411   4.045
 3396SOL    HW211088   4.758   2.457   3.914
 3397SOL     OW11089   2.180   6.093   6.404
 3397SOL    HW111090   2.185   5.996   6.426
 3397SOL    HW211091   2.205   6.106   6.308
 3398SOL     OW11092   6.856   2.210   5.398
 3398SOL    HW111093   6.904   2.278   5.343
 3398SOL    HW211094   6.883   2.218   5.494
 3399SOL     OW11095   0.491   4.651   3.570
 3399SOL    HW111096   0.464   4.556   3.556
 3399SOL    HW211097   0.419   4.712   3.536
 3400SOL     OW11098   5.621   2.289   5.245
 3400SOL    HW111099   5.532   2.315   5.210
 3400SOL    HW211100   5.642   2.195   5.217
 3401SOL     OW11101   6.688   3.845   5.991
 3401SOL    HW111102   6.631   3.800   6.060
 3401SOL    HW211103   6.630   3.903   5.933
 3402SOL     OW11104   6.846   5.053   1.315
 3402SOL    HW111105   6.808   4.981   1.373
 3402SOL    HW211106   6.791   5.136   1.325
 3403SOL     OW11107   4.641   6.400   6.465
 3403SOL    HW111108   4.667   6.493   6.441
 3403SOL    HW211109   4.602   6.399   6.557
 3404SOL     OW11110   5.097   3.387   5.500
 3404SOL    HW111111   5.154   3.306   5.487
 3404SOL    HW211112   5.087   3.406   5.598
 3405SOL     OW11113   5.079   6.346   5.648
 3405SOL    HW111114   5.090   6.433   5.600
 3405SOL    HW211115   5.093   6.270   5.585
 3406SOL     OW11116   2.163   3.917   2.130
 3406SOL    HW111117   2.218   3.899   2.048
 3406SOL    HW211118   2.074   3.954   2.104
 3407SOL     OW11119   1.761   3.735   0.747
 3407SOL    HW111120   1.686   3.801   0.739
 3407SOL    HW211121   1.836   3.764   0.688
 3408SOL     OW11122   4.875   2.090   3.579
 3408SOL    HW111123   4.853   2.112   3.674
 3408SOL    HW211124   4.817   2.015   3.547
 3409SOL     OW11125   4.292   0.875   0.435
 3409SOL    HW111126   4.284   0.972   0.415
 3409SOL    HW211127   4.202   0.833   0.435
 3410SOL     OW11128   5.665   6.818   2.038
 3410SOL    HW111129   5.765   6.821   2.033
 3410SOL    HW211130   5.629   6.768   1.960
 3411SOL     OW11131   6.751   1.665   0.878
 3411SOL    HW111132   6.847   1.689   0.868
 3411SOL    HW211133   6.718   1.698   0.967
 3412SOL     OW11134   5.268   2.882   1.313
 3412SOL    HW111135   5.328   2.962   1.310
 3412SOL    HW211136   5.213   2.885   1.396
 3413SOL     OW11137   0.293   2.257   6.347
 3413SOL    HW111138   0.198   2.235   6.325
 3413SOL    HW211139   0.299   2.352   6.376
 3414SOL     OW11140   3.871   3.014   0.795
 3414SOL    HW111141   3.791   3.074   0.800
 3414SOL    HW211142   3.849   2.933   0.741
 3415SOL     OW11143   2.515   2.470   4.503
 3415SOL    HW111144   2.575   2.436   4.575
 3415SOL    HW211145   2.470   2.554   4.533
 3416SOL     OW11146   6.357   6.673   0.066
 3416SOL    HW111147   6.370   6.611   7.009
 3416SOL    HW211148   6.270   6.652   0.112
 3417SOL     OW11149   6.623   0.182   3.045
 3417SOL    HW111150   6.586   0.106   3.098
 3417SOL    HW211151   6.646   0.151   2.952
 3418SOL     OW11152   4.457   4.882   2.195
 3418SOL    HW111153   4.440   4.872   2.293
 3418SOL    HW211154   4.533   4.945   2.180
 3419SOL     OW11155   2.932   5.528   6.308
 3419SOL    HW111156   2.884   5.442   6.325
 3419SOL    HW211157   2.937   5.580   6.393
 3420SOL     OW11158   4.716   2.613   3.806
 3420SOL    HW111159   4.742   2.706   3.782
 3420SOL    HW211160   4.642   2.582   3.745
 3421SOL     OW11161   5.570   2.068   3.219
 3421SOL    HW111162   5.521   2.080   3.306
 3421SOL    HW211163   5.655   2.120   3.221
 3422SOL     OW11164   2.110   6.814   1.080
 3422SOL    HW111165   2.054   6.760   1.142
 3422SOL    HW211166   2.200   6.770   1.070
 3423SOL     OW11167   0.902   4.514   5.697
 3423SOL    HW111168   0.909   4.475   5.789
 3423SOL    HW211169   0.822   4.475   5.652
 3424SOL     OW11170   4.776   0.020   1.536
 3424SOL    HW111171   4.741   0.086   1.470
 3424SOL    HW211172   4.828   0.068   1.607
 3425SOL     OW11173   5.633   4.435   1.478
 3425SOL    HW111174   5.581   4.500   1.534
 3425SOL    HW211175   5.569   4.381   1.423
 3426SOL     OW11176   5.530   3.806   0.446
 3426SOL    HW111177   5.613   3.806   0.503
 3426SOL    HW211178   5.487   3.896   0.450
 3427SOL     OW11179   1.299   1.998   0.784
 3427SOL    HW111180   1.309   1.960   0.876
 3427SOL    HW211181   1.234   1.943   0.732
 3428SOL     OW11182   4.928   6.147   5.395
 3428SOL    HW111183   5.028   6.144   5.405
 3428SOL    HW211184   4.899   6.241   5.379
 3429SOL     OW11185   0.213   0.294   1.373
 3429SOL    HW111186   0.181   0.215   1.321
 3429SOL    HW211187   0.212   0.375   1.314
 3430SOL     OW11188   2.211   4.530   5.404
 3430SOL    HW111189   2.278   4.470   5.361
 3430SOL    HW211190   2.260   4.602   5.455
 3431SOL     OW11191   2.486   6.033   2.988
 3431SOL    HW111192   2.415   5.983   3.038
 3431SOL    HW211193   2.453   6.125   2.967
 3432SOL     OW11194   2.560   4.038   0.458
 3432SOL    HW111195   2.660   4.047   0.464
 3432SOL    HW211196   2.533   3.945   0.483
 3433SOL     OW11197   2.295   1.330   6.221
 3433SOL    HW111198   2.282   1.394   6.297
 3433SOL    HW211199   2.289   1.236   6.254
 3434SOL     OW11200   3.117   1.932   1.545
 3434SOL    HW111201   3.174   2.004   1.583
 3434SOL    HW211202   3.092   1.867   1.617
 3435SOL     OW11203   2.143   0.403   0.534
 3435SOL    HW111204   2.085   0.447   0.602
 3435SOL    HW211205   2.194   0.474   0.484
 3436SOL     OW11206   3.843   5.689   0.978
 3436SOL    HW111207   3.861   5.649   0.888
 3436SOL    HW211208   3.881   5.781   0.982
 3437SOL     OW11209   1.458   6.616   6.298
 3437SOL    HW111210   1.489   6.575   6.384
 3437SOL    HW211211   1.384   6.682   6.317
 3438SOL     OW11212   0.999   4.333   1.236
 3438SOL    HW111213   0.973   4.243   1.200
 3438SOL    HW211214   0.929   4.363   1.301
 3439SOL     OW11215   2.106   5.678   2.883
 3439SOL    HW111216   2.178   5.615   2.912
 3439SOL    HW211217   2.146   5.766   2.859
 3440SOL     OW11218   3.704   3.706   4.200
 3440SOL    HW111219   3.747   3.778   4.145
 3440SOL    HW211220   3.702   3.735   4.296
 3441SOL     OW11221   5.113   5.700   5.844
 3441SOL    HW111222   5.132   5.709   5.746
 3441SOL    HW211223   5.159   5.773   5.894
 3442SOL     OW11224   3.292   3.039   1.584
 3442SOL    HW111225   3.305   3.124   1.533
 3442SOL    HW211226   3.200   3.004   1.567
 3443SOL     OW11227   2.486   5.723   2.661
 3443SOL    HW111228   2.535   5.660   2.600
 3443SOL    HW211229   2.495   5.816   2.626
 3444SOL     OW11230   5.642   4.539   1.837
 3444SOL    HW111231   5.565   4.477   1.823
 3444SOL    HW211232   5.607   4.631   1.855
 3445SOL     OW11233   6.478   4.861   3.914
 3445SOL    HW111234   6.547   4.931   3.895
 3445SOL    HW211235   6.389   4.892   3.879
 3446SOL     OW11236   4.999   0.883   1.510
 3446SOL    HW111237   5.023   0.978   1.494
 3446SOL    HW211238   4.991   0.867   1.609
 3447SOL     OW11239   4.964   0.649   0.059
 3447SOL    HW111240   5.061   0.638   0.084
 3447SOL    HW211241   4.946   0.745   0.040
 3448SOL     OW11242   1.672   6.514   4.893
 3448SOL    HW111243   1.598   6.513   4.961
 3448SOL    HW211244   1.635   6.488   4.804
 3449SOL     OW11245   6.363   4.586   5.108
 3449SOL    HW111246   6.367   4.606   5.206
 3449SOL    HW211247   6.302   4.508   5.092
 3450SOL     OW11248   1.509   6.894   6.972
 3450SOL    HW111249   1.537   6.906   6.877
 3450SOL    HW211250   1.589   6.867   0.007
 3451SOL     OW11251   1.766   6.188   0.480
 3451SOL    HW111252   1.722   6.234   0.557
 3451SOL    HW211253   1.864   6.206   0.482
 3452SOL     OW11254   4.982   0.685   5.551
 3452SOL    HW111255   5.054   0.753   5.568
 3452SOL    HW211256   4.963   0.635   5.636
 3453SOL     OW11257   5.047   6.599   5.531
 3453SOL    HW111258   5.073   6.675   5.591
 3453SOL    HW211259   5.121   6.581   5.466
 3454SOL     OW11260   1.182   2.043   2.490
 3454SOL    HW111261   1.255   2.032   2.558
 3454SOL    HW211262   1.142   1.953   2.469
 3455SOL     OW11263   1.739   2.921   5.252
 3455SOL    HW111264   1.654   2.970   5.271
 3455SOL    HW211265   1.815   2.986   5.250
 3456SOL     OW11266   4.922   4.613   2.279
 3456SOL    HW111267   4.940   4.710   2.263
 3456SOL    HW211268   4.833   4.589   2.240
 3457SOL     OW11269   4.097   5.498   5.461
 3457SOL    HW111270   4.012   5.543   5.490
 3457SOL    HW211271   4.175   5.547   5.500
 3458SOL     OW11272   4.031   1.436   2.743
 3458SOL    HW111273   4.072   1.363   2.797
 3458SOL    HW211274   4.072   1.524   2.767
 3459SOL     OW11275   4.035   0.599   3.278
 3459SOL    HW111276   4.059   0.533   3.349
 3459SOL    HW211277   4.036   0.691   3.317
 3460SOL     OW11278   3.864   1.840   5.849
 3460SOL    HW111279   3.776   1.875   5.880
 3460SOL    HW211280   3.927   1.916   5.833
 3461SOL     OW11281   5.292   4.445   7.002
 3461SOL    HW111282   5.368   4.380   6.995
 3461SOL    HW211283   5.280   4.473   0.077
 3462SOL     OW11284   2.618   3.310   6.747
 3462SOL    HW111285   2.537   3.343   6.700
 3462SOL    HW211286   2.618   3.344   6.841
 3463SOL     OW11287   6.627   4.130   1.403
 3463SOL    HW111288   6.636   4.191   1.324
 3463SOL    HW211289   6.573   4.050   1.375
 3464SOL     OW11290   0.270   4.931   6.068
 3464SOL    HW111291   0.367   4.908   6.064
 3464SOL    HW211292   0.218   4.854   6.105
 3465SOL     OW11293   1.992   0.687   1.879
 3465SOL    HW111294   2.045   0.749   1.938
 3465SOL    HW211295   1.984   0.726   1.788
 3466SOL     OW11296   6.499   4.008   5.307
 3466SOL    HW111297   6.552   4.049   5.382
 3466SOL    HW211298   6.405   3.989   5.339
 3467SOL     OW11299   1.678   2.389   6.269
 3467SOL    HW111300   1.619   2.316   6.235
 3467SOL    HW211301   1.654   2.409   6.364
 3468SOL     OW11302   3.572   6.899   4.074
 3468SOL    HW111303   3.527   6.902   3.984
 3468SOL    HW211304   3.666   6.932   4.065
 3469SOL     OW11305   5.954   2.392   3.095
 3469SOL    HW111306   5.879   2.355   3.040
 3469SOL    HW211307   6.035   2.403   3.037
 3470SOL     OW11308   0.610   5.813   0.828
 3470SOL    HW111309   0.585   5.910   0.829
 3470SOL    HW211310   0.710   5.804   0.836
 3471SOL     OW11311   3.992   5.821   4.890
 3471SOL    HW111312   4.088   5.839   4.870
 3471SOL    HW211313   3.941   5.907   4.889
 3472SOL     OW11314   3.119   0.592   4.463
 3472SOL    HW111315   3.123   0.684   4.426
 3472SOL    HW211316   3.051   0.539   4.412
 3473SOL     OW11317   5.958   1.180   6.047
 3473SOL    HW111318   5.902   1.130   5.980
 3473SOL    HW211319   5.959   1.277   6.022
 3474SOL     OW11320   3.908   5.059   1.811
 3474SOL    HW111321   3.897   4.968   1.850
 3474SOL    HW211322   3.972   5.056   1.734
 3475SOL     OW11323   1.245   5.590   4.059
 3475SOL    HW111324   1.233   5.679   4.102
 3475SOL    HW211325   1.304   5.599   3.979
 3476SOL     OW11326   4.375   0.519   4.175
 3476SOL    HW111327   4.295   0.500   4.118
 3476SOL    HW211328   4.409   0.433   4.213
 3477SOL     OW11329   3.955   6.468   1.507
 3477SOL    HW111330   3.962   6.420   1.419
 3477SOL    HW211331   4.038   6.454   1.560
 3478SOL     OW11332   3.443   5.206   5.940
 3478SOL    HW111333   3.371   5.174   6.001
 3478SOL    HW211334   3.477   5.295   5.971
 3479SOL     OW11335   0.700   0.292   1.797
 3479SOL    HW111336   0.601   0.296   1.781
 3479SOL    HW211337   0.727   0.198   1.816
 3480SOL     OW11338   0.071   1.479   3.584
 3480SOL    HW111339   6.994   1.489   3.561
 3480SOL    HW211340   0.103   1.560   3.632
 3481SOL     OW11341   2.650   6.817   6.762
 3481SOL    HW111342   2.556   6.849   6.772
 3481SOL    HW211343   2.656   6.751   6.686
 3482SOL     OW11344   6.719   2.233   0.943
 3482SOL    HW111345   6.659   2.198   0.872
 3482SOL    HW211346   6.760   2.319   0.913
 3483SOL     OW11347   2.070   0.461   1.211
 3483SOL    HW111348   2.007   0.534   1.183
 3483SOL    HW211349   2.096   0.475   1.307
 3484SOL     OW11350   3.364   3.057   3.599
 3484SOL    HW111351   3.435   3.099   3.656
 3484SOL    HW211352   3.394   2.966   3.570
 3485SOL     OW11353   1.456   3.043   5.230
 3485SOL    HW111354   1.423   2.955   5.197
 3485SOL    HW211355   1.382   3.090   5.279
 3486SOL     OW11356   4.510   1.909   1.665
 3486SOL    HW111357   4.427   1.934   1.715
 3486SOL    HW211358   4.491   1.909   1.566
 3487SOL     OW11359   5.666   1.813   6.175
 3487SOL    HW111360   5.575   1.804   6.214
 3487SOL    HW211361   5.728   1.746   6.216
 3488SOL     OW11362   5.941   3.700   3.591
 3488SOL    HW111363   5.858   3.645   3.599
 3488SOL    HW211364   6.021   3.641   3.589
 3489SOL     OW11365   3.700   0.345   1.607
 3489SOL    HW111366   3.751   0.260   1.620
 3489SOL    HW211367   3.740   0.396   1.531
 3490SOL     OW11368   4.994   3.849   0.397
 3490SOL    HW111369   4.929   3.774   0.396
 3490SOL    HW211370   5.041   3.853   0.308
 3491SOL     OW11371   0.120   2.932   5.544
 3491SOL    HW111372   0.218   2.934   5.565
 3491SOL    HW211373   0.070   2.892   5.621
 3492SOL     OW11374   0.089   4.882   6.633
 3492SOL    HW111375   0.074   4.876   6.535
 3492SOL    HW211376   0.187   4.881   6.652
 3493SOL     OW11377   6.525   4.822   0.882
 3493SOL    HW111378   6.531   4.806   0.981
 3493SOL    HW211379   6.507   4.736   0.835
 3494SOL     OW11380   3.378   6.956   1.648
 3494SOL    HW111381   3.392   6.895   1.726
 3494SOL    HW211382   3.321   0.014   1.676
 3495SOL     OW11383   4.545   5.130   1.595
 3495SOL    HW111384   4.574   5.039   1.566
 3495SOL    HW211385   4.474   5.164   1.533
 3496SOL     OW11386   1.865   2.857   0.185
 3496SOL    HW111387   1.863   2.772   0.131
 3496SOL    HW211388   1.937   2.917   0.150
 3497SOL     OW11389   4.127   0.809   3.695
 3497SOL    HW111390   4.109   0.772   3.786
 3497SOL    HW211391   4.226   0.816   3.680
 3498SOL     OW11392   2.488   1.479   1.451
 3498SOL    HW111393   2.522   1.566   1.416
 3498SOL    HW211394   2.402   1.456   1.406
 3499SOL     OW11395   6.709   2.952   4.445
 3499SOL    HW111396   6.731   2.896   4.525
 3499SOL    HW211397   6.784   2.946   4.379
 3500SOL     OW11398   6.418   4.426   6.666
 3500SOL    HW111399   6.390   4.337   6.704
 3500SOL    HW211400   6.423   4.419   6.567
 3501SOL     OW11401   1.652   4.627   4.861
 3501SOL    HW111402   1.697   4.614   4.773
 3501SOL    HW211403   1.710   4.591   4.934
 3502SOL     OW11404   0.619   1.804   0.812
 3502SOL    HW111405   0.577   1.872   0.872
 3502SOL    HW211406   0.684   1.849   0.751
 3503SOL     OW11407   4.718   5.786   5.443
 3503SOL    HW111408   4.626   5.792   5.404
 3503SOL    HW211409   4.720   5.836   5.529
 3504SOL     OW11410   2.781   3.444   1.378
 3504SOL    HW111411   2.789   3.367   1.314
 3504SOL    HW211412   2.684   3.459   1.398
 3505SOL     OW11413   5.054   5.626   5.503
 3505SOL    HW111414   5.131   5.687   5.519
 3505SOL    HW211415   5.080   5.557   5.435
 3506SOL     OW11416   4.268   5.175   3.652
 3506SOL    HW111417   4.197   5.236   3.686
 3506SOL    HW211418   4.236   5.130   3.568
 3507SOL     OW11419   1.107   0.261   6.757
 3507SOL    HW111420   1.196   0.292   6.722
 3507SOL    HW211421   1.105   0.272   6.856
 3508SOL     OW11422   5.517   3.608   0.263
 3508SOL    HW111423   5.496   3.671   0.188
 3508SOL    HW211424   5.518   3.659   0.350
 3509SOL     OW11425   6.672   6.117   6.763
 3509SOL    HW111426   6.647   6.191   6.825
 3509SOL    HW211427   6.610   6.116   6.685
 3510SOL     OW11428   2.052   2.288   1.918
 3510SOL    HW111429   2.084   2.231   1.994
 3510SOL    HW211430   2.113   2.366   1.906
 3511SOL     OW11431   0.324   2.727   6.993
 3511SOL    HW111432   0.421   2.749   6.980
 3511SOL    HW211433   0.269   2.809   6.979
 3512SOL     OW11434   2.557   2.763   0.233
 3512SOL    HW111435   2.596   2.687   0.285
 3512SOL    HW211436   2.538   2.840   0.296
 3513SOL     OW11437   6.623   3.812   1.404
 3513SOL    HW111438   6.666   3.780   1.489
 3513SOL    HW211439   6.529   3.778   1.400
 3514SOL     OW11440   0.767   6.686   1.141
 3514SOL    HW111441   0.825   6.752   1.093
 3514SOL    HW211442   0.713   6.733   1.210
 3515SOL     OW11443   2.912   6.154   3.145
 3515SOL    HW111444   2.892   6.083   3.213
 3515SOL    HW211445   2.838   6.220   3.143
 3516SOL     OW11446   2.903   1.414   0.399
 3516SOL    HW111447   2.911   1.427   0.497
 3516SOL    HW211448   2.832   1.346   0.380
 3517SOL     OW11449   0.911   1.348   6.685
 3517SOL    HW111450   0.836   1.408   6.659
 3517SOL    HW211451   0.995   1.402   6.696
 3518SOL     OW11452   4.609   3.281   6.382
 3518SOL    HW111453   4.678   3.353   6.380
 3518SOL    HW211454   4.652   3.193   6.402
 3519SOL     OW11455   2.121   6.735   6.334
 3519SOL    HW111456   2.125   6.725   6.234
 3519SOL    HW211457   2.091   6.827   6.357
 3520SOL     OW11458   3.882   5.565   0.731
 3520SOL    HW111459   3.897   5.482   0.784
 3520SOL    HW211460   3.830   5.542   0.648
 3521SOL     OW11461   5.802   2.242   1.771
 3521SOL    HW111462   5.901   2.258   1.775
 3521SOL    HW211463   5.784   2.162   1.714
 3522SOL     OW11464   3.431   5.657   2.283
 3522SOL    HW111465   3.491   5.727   2.321
 3522SOL    HW211466   3.452   5.568   2.325
 3523SOL     OW11467   2.919   4.813   4.920
 3523SOL    HW111468   2.873   4.724   4.913
 3523SOL    HW211469   2.886   4.861   5.001
 3524SOL     OW11470   2.850   0.155   0.785
 3524SOL    HW111471   2.907   0.073   0.782
 3524SOL    HW211472   2.827   0.178   0.879
 3525SOL     OW11473   0.423   3.119   2.252
 3525SOL    HW111474   0.423   3.107   2.351
 3525SOL    HW211475   0.507   3.082   2.214
 3526SOL     OW11476   1.224   0.654   2.801
 3526SOL    HW111477   1.162   0.647   2.879
 3526SOL    HW211478   1.173   0.690   2.722
 3527SOL     OW11479   5.311   3.048   6.297
 3527SOL    HW111480   5.214   3.072   6.288
 3527SOL    HW211481   5.345   3.010   6.211
 3528SOL     OW11482   0.277   6.516   3.368
 3528SOL    HW111483   0.237   6.427   3.392
 3528SOL    HW211484   0.376   6.514   3.384
 3529SOL     OW11485   4.518   6.872   5.428
 3529SOL    HW111486   4.452   6.799   5.412
 3529SOL    HW211487   4.485   6.957   5.388
 3530SOL     OW11488   2.775   5.706   2.578
 3530SOL    HW111489   2.863   5.705   2.531
 3530SOL    HW211490   2.788   5.732   2.674
 3531SOL     OW11491   6.016   4.503   0.672
 3531SOL    HW111492   6.050   4.569   0.605
 3531SOL    HW211493   6.092   4.471   0.729
 3532SOL     OW11494   2.723   0.418   6.737
 3532SOL    HW111495   2.680   0.415   6.647
 3532SOL    HW211496   2.767   0.331   6.757
 3533SOL     OW11497   1.038   1.496   3.248
 3533SOL    HW111498   1.061   1.415   3.301
 3533SOL    HW211499   1.093   1.499   3.164
 3534SOL     OW11500   5.558   1.290   4.944
 3534SOL    HW111501   5.479   1.251   4.992
 3534SOL    HW211502   5.550   1.271   4.847
 3535SOL     OW11503   5.946   5.352   6.202
 3535SOL    HW111504   5.886   5.272   6.203
 3535SOL    HW211505   5.972   5.372   6.107
 3536SOL     OW11506   1.677   3.490   3.320
 3536SOL    HW111507   1.592   3.437   3.319
 3536SOL    HW211508   1.687   3.538   3.233
 3537SOL     OW11509   2.114   5.834   0.870
 3537SOL    HW111510   2.152   5.783   0.793
 3537SOL    HW211511   2.181   5.838   0.944
 3538SOL     OW11512   2.930   0.540   3.364
 3538SOL    HW111513   2.833   0.539   3.338
 3538SOL    HW211514   2.947   0.469   3.432
 3539SOL     OW11515   5.194   4.822   6.604
 3539SOL    HW111516   5.150   4.901   6.646
 3539SOL    HW211517   5.205   4.750   6.673
 3540SOL     OW11518   3.146   3.348   6.613
 3540SOL    HW111519   3.046   3.348   6.612
 3540SOL    HW211520   3.180   3.279   6.550
 3541SOL     OW11521   3.000   2.225   1.022
 3541SOL    HW111522   3.026   2.317   1.049
 3541SOL    HW211523   3.011   2.162   1.099
 3542SOL     OW11524   5.449   2.069   6.212
 3542SOL    HW111525   5.521   2.139   6.213
 3542SOL    HW211526   5.410   2.063   6.120
 3543SOL     OW11527   2.080   2.793   3.188
 3543SOL    HW111528   2.146   2.744   3.131
 3543SOL    HW211529   2.083   2.755   3.281
 3544SOL     OW11530   2.735   4.570   6.034
 3544SOL    HW111531   2.667   4.643   6.038
 3544SOL    HW211532   2.740   4.533   5.941
 3545SOL     OW11533   3.493   6.957   1.400
 3545SOL    HW111534   3.504   0.033   1.374
 3545SOL    HW211535   3.440   6.951   1.484
 3546SOL     OW11536   6.581   3.639   3.180
 3546SOL    HW111537   6.630   3.631   3.093
 3546SOL    HW211538   6.606   3.563   3.239
 3547SOL     OW11539   6.896   3.308   5.194
 3547SOL    HW111540   6.825   3.362   5.149
 3547SOL    HW211541   6.986   3.345   5.171
 3548SOL     OW11542   5.463   1.282   5.470
 3548SOL    HW111543   5.442   1.374   5.502
 3548SOL    HW211544   5.509   1.230   5.542
 3549SOL     OW11545   2.971   5.182   6.780
 3549SOL    HW111546   2.959   5.196   6.879
 3549SOL    HW211547   2.940   5.263   6.730
 3550SOL     OW11548   5.147   1.378   5.163
 3550SOL    HW111549   5.099   1.463   5.185
 3550SOL    HW211550   5.119   1.306   5.226
 3551SOL     OW11551   3.813   2.010   4.881
 3551SOL    HW111552   3.819   1.965   4.792
 3551SOL    HW211553   3.864   2.096   4.880
 3552SOL     OW11554   6.980   6.109   2.450
 3552SOL    HW111555   0.058   6.088   2.451
 3552SOL    HW211556   6.960   6.179   2.519
 3553SOL     OW11557   3.791   5.011   6.171
 3553SOL    HW111558   3.733   4.930   6.177
 3553SOL    HW211559   3.823   5.022   6.077
 3554SOL     OW11560   4.339   3.543   1.575
 3554SOL    HW111561   4.294   3.456   1.558
 3554SOL    HW211562   4.275   3.606   1.620
 3555SOL     OW11563   2.233   2.030   3.975
 3555SOL    HW111564   2.307   1.964   3.989
 3555SOL    HW211565   2.158   2.008   4.037
 3556SOL     OW11566   4.180   0.905   5.673
 3556SOL    HW111567   4.273   0.909   5.708
 3556SOL    HW211568   4.124   0.847   5.731
 3557SOL     OW11569   6.901   1.745   1.870
 3557SOL    HW111570   6.897   1.679   1.945
 3557SOL    HW211571   6.963   1.820   1.896
 3558SOL     OW11572   3.499   0.198   1.360
 3558SOL    HW111573   3.527   0.259   1.286
 3558SOL    HW211574   3.461   0.252   1.435
 3559SOL     OW11575   4.251   6.385   4.454
 3559SOL    HW111576   4.266   6.317   4.383
 3559SOL    HW211577   4.172   6.442   4.430
 3560SOL     OW11578   1.750   5.933   5.159
 3560SOL    HW111579   1.824   5.867   5.145
 3560SOL    HW211580   1.733   5.983   5.075
 3561SOL     OW11581   5.187   4.399   5.501
 3561SOL    HW111582   5.216   4.306   5.523
 3561SOL    HW211583   5.208   4.419   5.406
 3562SOL     OW11584   2.365   1.473   5.198
 3562SOL    HW111585   2.415   1.444   5.279
 3562SOL    HW211586   2.316   1.558   5.218
 3563SOL     OW11587   5.549   2.253   5.696
 3563SOL    HW111588   5.481   2.236   5.625
 3563SOL    HW211589   5.640   2.236   5.660
 3564SOL     OW11590   0.080   4.520   2.454
 3564SOL    HW111591   0.116   4.612   2.464
 3564SOL    HW211592   7.014   4.512   2.506
 3565SOL     OW11593   3.540   5.805   3.556
 3565SOL    HW111594   3.556   5.717   3.511
 3565SOL    HW211595   3.447   5.807   3.592
 3566SOL     OW11596   6.635   1.077   5.802
 3566SOL    HW111597   6.663   1.042   5.713
 3566SOL    HW211598   6.637   1.177   5.801
 3567SOL     OW11599   0.532   4.583   6.829
 3567SOL    HW111600   0.504   4.572   6.924
 3567SOL    HW211601   0.619   4.632   6.825
 3568SOL     OW11602   6.282   3.780   6.135
 3568SOL    HW111603   6.382   3.781   6.135
 3568SOL    HW211604   6.248   3.715   6.203
 3569SOL     OW11605   2.820   2.341   5.409
 3569SOL    HW111606   2.859   2.391   5.486
 3569SOL    HW211607   2.891   2.285   5.366
 3570SOL     OW11608   6.505   1.166   4.167
 3570SOL    HW111609   6.578   1.223   4.204
 3570SOL    HW211610   6.435   1.153   4.237
 3571SOL     OW11611   6.007   5.669   6.647
 3571SOL    HW111612   5.942   5.640   6.576
 3571SOL    HW211613   6.095   5.690   6.604
 3572SOL     OW11614   5.429   3.680   4.314
 3572SOL    HW111615   5.435   3.596   4.369
 3572SOL    HW211616   5.339   3.721   4.326
 3573SOL     OW11617   1.471   3.884   3.297
 3573SOL    HW111618   1.515   3.832   3.370
 3573SOL    HW211619   1.480   3.982   3.316
 3574SOL     OW11620   0.235   4.334   0.422
 3574SOL    HW111621   0.157   4.354   0.362
 3574SOL    HW211622   0.279   4.420   0.448
 3575SOL     OW11623   6.455   5.084   2.992
 3575SOL    HW111624   6.356   5.096   2.981
 3575SOL    HW211625   6.503   5.136   2.922
 3576SOL     OW11626   0.485   1.613   6.378
 3576SOL    HW111627   0.475   1.704   6.417
 3576SOL    HW211628   0.395   1.576   6.356
 3577SOL     OW11629   0.807   2.498   6.420
 3577SOL    HW111630   0.893   2.488   6.369
 3577SOL    HW211631   0.786   2.413   6.468
 3578SOL     OW11632   3.158   4.232   6.840
 3578SOL    HW111633   3.199   4.179   6.914
 3578SOL    HW211634   3.217   4.311   6.820
 3579SOL     OW11635   6.963   3.439   4.841
 3579SOL    HW111636   6.994   3.374   4.771
 3579SOL    HW211637   0.022   3.478   4.888
 3580SOL     OW11638   5.958   1.930   1.780
 3580SOL    HW111639   5.966   1.869   1.859
 3580SOL    HW211640   6.038   1.921   1.722
 3581SOL     OW11641   6.961   0.582   2.567
 3581SOL    HW111642   6.970   0.636   2.651
 3581SOL    HW211643   6.865   0.560   2.552
 3582SOL     OW11644   0.639   0.670   5.935
 3582SOL    HW111645   0.618   0.765   5.957
 3582SOL    HW211646   0.576   0.637   5.865
 3583SOL     OW11647   1.204   4.693   0.155
 3583SOL    HW111648   1.128   4.746   0.194
 3583SOL    HW211649   1.291   4.738   0.178
 3584SOL     OW11650   5.505   6.184   6.173
 3584SOL    HW111651   5.407   6.208   6.174
 3584SOL    HW211652   5.514   6.085   6.178
 3585SOL     OW11653   3.508   4.979   4.478
 3585SOL    HW111654   3.483   5.072   4.451
 3585SOL    HW211655   3.594   4.982   4.530
 3586SOL     OW11656   6.526   2.846   5.568
 3586SOL    HW111657   6.596   2.906   5.606
 3586SOL    HW211658   6.475   2.895   5.497
 3587SOL     OW11659   3.354   6.728   0.470
 3587SOL    HW111660   3.393   6.677   0.547
 3587SOL    HW211661   3.369   6.677   0.385
 3588SOL     OW11662   1.939   2.191   5.615
 3588SOL    HW111663   1.924   2.109   5.670
 3588SOL    HW211664   2.029   2.186   5.571
 3589SOL     OW11665   2.990   0.988   4.857
 3589SOL    HW111666   2.920   0.942   4.911
 3589SOL    HW211667   2.951   1.020   4.771
 3590SOL     OW11668   1.490   5.383   6.417
 3590SOL    HW111669   1.561   5.375   6.348
 3590SOL    HW211670   1.404   5.347   6.381
 3591SOL     OW11671   5.437   3.163   5.728
 3591SOL    HW111672   5.511   3.122   5.675
 3591SOL    HW211673   5.475   3.235   5.787
 3592SOL     OW11674   5.187   3.247   2.767
 3592SOL    HW111675   5.245   3.175   2.804
 3592SOL    HW211676   5.215   3.268   2.674
 3593SOL     OW11677   2.004   6.770   4.140
 3593SOL    HW111678   1.995   6.855   4.088
 3593SOL    HW211679   1.915   6.743   4.177
 3594SOL     OW11680   2.198   1.256   3.513
 3594SOL    HW111681   2.232   1.204   3.435
 3594SOL    HW211682   2.105   1.288   3.494
 3595SOL     OW11683   2.379   6.324   5.835
 3595SOL    HW111684   2.388   6.329   5.934
 3595SOL    HW211685   2.446   6.260   5.798
 3596SOL     OW11686   6.419   0.645   2.501
 3596SOL    HW111687   6.341   0.649   2.437
 3596SOL    HW211688   6.431   0.552   2.534
 3597SOL     OW11689   4.060   6.439   4.704
 3597SOL    HW111690   4.031   6.346   4.728
 3597SOL    HW211691   4.111   6.436   4.618
 3598SOL     OW11692   0.703   0.215   5.573
 3598SOL    HW111693   0.648   0.245   5.494
 3598SOL    HW211694   0.659   0.245   5.657
 3599SOL     OW11695   6.924   2.365   5.185
 3599SOL    HW111696   6.851   2.418   5.141
 3599SOL    HW211697   6.989   2.428   5.227
 3600SOL     OW11698   6.040   3.447   1.431
 3600SOL    HW111699   6.094   3.385   1.488
 3600SOL    HW211700   5.945   3.414   1.426
 3601SOL     OW11701   0.217   3.927   0.365
 3601SOL    HW111702   0.287   3.995   0.344
 3601SOL    HW211703   0.254   3.835   0.346
 3602SOL     OW11704   1.826   0.756   0.325
 3602SOL    HW111705   1.869   0.800   0.247
 3602SOL    HW211706   1.732   0.731   0.301
 3603SOL     OW11707   3.920   4.844   4.306
 3603SOL    HW111708   3.934   4.848   4.405
 3603SOL    HW211709   4.006   4.867   4.259
 3604SOL     OW11710   6.937   2.589   2.696
 3604SOL    HW111711   6.942   2.499   2.738
 3604SOL    HW211712   0.009   2.625   2.680
 3605SOL     OW11713   5.842   4.468   6.308
 3605SOL    HW111714   5.858   4.446   6.404
 3605SOL    HW211715   5.774   4.405   6.270
 3606SOL     OW11716   6.570   4.473   5.643
 3606SOL    HW111717   6.660   4.468   5.601
 3606SOL    HW211718   6.560   4.562   5.688
 3607SOL     OW11719   5.249   0.766   0.472
 3607SOL    HW111720   5.203   0.825   0.405
 3607SOL    HW211721   5.206   0.779   0.562
 3608SOL     OW11722   0.438   1.602   1.447
 3608SOL    HW111723   0.483   1.522   1.486
 3608SOL    HW211724   0.407   1.662   1.521
 3609SOL     OW11725   6.490   0.439   4.439
 3609SOL    HW111726   6.578   0.427   4.486
 3609SOL    HW211727   6.438   0.511   4.484
 3610SOL     OW11728   0.847   6.719   4.830
 3610SOL    HW111729   0.929   6.764   4.795
 3610SOL    HW211730   0.856   6.706   4.929
 3611SOL     OW11731   3.162   5.165   5.670
 3611SOL    HW111732   3.105   5.104   5.724
 3611SOL    HW211733   3.207   5.113   5.597
 3612SOL     OW11734   1.265   6.291   6.522
 3612SOL    HW111735   1.223   6.260   6.607
 3612SOL    HW211736   1.207   6.361   6.480
 3613SOL     OW11737   4.888   5.381   0.550
 3613SOL    HW111738   4.890   5.301   0.490
 3613SOL    HW211739   4.981   5.403   0.581
 3614SOL     OW11740   3.700   3.325   3.208
 3614SOL    HW111741   3.743   3.409   3.174
 3614SOL    HW211742   3.607   3.345   3.238
 3615SOL     OW11743   5.815   5.279   5.724
 3615SOL    HW111744   5.802   5.185   5.691
 3615SOL    HW211745   5.730   5.311   5.766
 3616SOL     OW11746   6.721   2.183   6.442
 3616SOL    HW111747   6.623   2.199   6.435
 3616SOL    HW211748   6.770   2.267   6.421
 3617SOL     OW11749   6.234   2.047   6.654
 3617SOL    HW111750   6.248   2.113   6.728
 3617SOL    HW211751   6.136   2.031   6.643
 3618SOL     OW11752   1.261   1.971   5.787
 3618SOL    HW111753   1.288   2.039   5.718
 3618SOL    HW211754   1.288   2.003   5.878
 3619SOL     OW11755   5.850   2.440   3.950
 3619SOL    HW111756   5.839   2.468   3.854
 3619SOL    HW211757   5.860   2.341   3.954
 3620SOL     OW11758   5.593   0.124   6.100
 3620SOL    HW111759   5.511   0.067   6.106
 3620SOL    HW211760   5.602   0.160   6.007
 3621SOL     OW11761   3.286   2.860   6.033
 3621SOL    HW111762   3.279   2.956   6.007
 3621SOL    HW211763   3.351   2.814   5.972
 3622SOL     OW11764   0.766   1.167   3.053
 3622SOL    HW111765   0.677   1.124   3.042
 3622SOL    HW211766   0.809   1.177   2.963
 3623SOL     OW11767   6.111   5.098   4.230
 3623SOL    HW111768   6.062   5.117   4.145
 3623SOL    HW211769   6.060   5.136   4.307
 3624SOL     OW11770   2.314   6.536   3.324
 3624SOL    HW111771   2.315   6.486   3.237
 3624SOL    HW211772   2.350   6.478   3.396
 3625SOL     OW11773   6.488   3.371   6.093
 3625SOL    HW111774   6.417   3.304   6.116
 3625SOL    HW211775   6.550   3.332   6.025
 3626SOL     OW11776   2.015   3.584   5.057
 3626SOL    HW111777   2.039   3.539   5.143
 3626SOL    HW211778   2.052   3.677   5.056
 3627SOL     OW11779   4.080   3.524   3.565
 3627SOL    HW111780   4.019   3.593   3.604
 3627SOL    HW211781   4.106   3.552   3.472
 3628SOL     OW11782   2.363   5.948   2.159
 3628SOL    HW111783   2.338   5.906   2.072
 3628SOL    HW211784   2.436   5.896   2.202
 3629SOL     OW11785   6.390   2.340   4.837
 3629SOL    HW111786   6.333   2.345   4.919
 3629SOL    HW211787   6.443   2.256   4.838
 3630SOL     OW11788   5.752   2.492   4.267
 3630SOL    HW111789   5.806   2.470   4.186
 3630SOL    HW211790   5.660   2.454   4.257
 3631SOL     OW11791   2.388   0.123   4.808
 3631SOL    HW111792   2.395   0.024   4.796
 3631SOL    HW211793   2.311   0.158   4.754
 3632SOL     OW11794   5.304   0.925   0.916
 3632SOL    HW111795   5.320   1.003   0.976
 3632SOL    HW211796   5.303   0.957   0.821
 3633SOL     OW11797   3.053   2.253   5.655
 3633SOL    HW111798   2.973   2.311   5.670
 3633SOL    HW211799   3.108   2.291   5.581
 3634SOL     OW11800   0.643   6.750   4.632
 3634SOL    HW111801   0.692   6.826   4.588
 3634SOL    HW211802   0.688   6.726   4.718
 3635SOL     OW11803   3.203   1.238   5.474
 3635SOL    HW111804   3.298   1.235   5.505
 3635SOL    HW211805   3.159   1.150   5.491
 3636SOL     OW11806   6.912   6.048   5.971
 3636SOL    HW111807   6.883   5.958   6.005
 3636SOL    HW211808   6.918   6.112   6.047
 3637SOL     OW11809   6.141   2.151   0.978
 3637SOL    HW111810   6.045   2.123   0.984
 3637SOL    HW211811   6.147   2.237   0.927
 3638SOL     OW11812   6.885   4.820   3.719
 3638SOL    HW111813   6.852   4.772   3.800
 3638SOL    HW211814   6.810   4.830   3.653
 3639SOL     OW11815   3.661   3.610   1.086
 3639SOL    HW111816   3.735   3.594   1.152
 3639SOL    HW211817   3.574   3.619   1.135
 3640SOL     OW11818   3.436   6.087   6.885
 3640SOL    HW111819   3.492   6.141   6.821
 3640SOL    HW211820   3.369   6.147   6.929
 3641SOL     OW11821   3.642   1.752   4.633
 3641SOL    HW111822   3.578   1.684   4.599
 3641SOL    HW211823   3.639   1.754   4.733
 3642SOL     OW11824   4.947   1.090   5.931
 3642SOL    HW111825   4.989   1.107   5.842
 3642SOL    HW211826   4.910   0.997   5.933
 3643SOL     OW11827   3.337   5.797   4.784
 3643SOL    HW111828   3.247   5.825   4.752
 3643SOL    HW211829   3.344   5.697   4.782
 3644SOL     OW11830   0.019   1.086   1.405
 3644SOL    HW111831   6.973   1.153   1.369
 3644SOL    HW211832   0.032   1.102   1.503
 3645SOL     OW11833   5.356   1.585   4.168
 3645SOL    HW111834   5.273   1.541   4.132
 3645SOL    HW211835   5.423   1.515   4.192
 3646SOL     OW11836   6.419   4.567   5.394
 3646SOL    HW111837   6.428   4.594   5.489
 3646SOL    HW211838   6.502   4.518   5.365
 3647SOL     OW11839   1.993   3.364   0.183
 3647SOL    HW111840   1.931   3.317   0.246
 3647SOL    HW211841   2.087   3.341   0.206
 3648SOL     OW11842   3.801   5.634   3.161
 3648SOL    HW111843   3.748   5.694   3.222
 3648SOL    HW211844   3.817   5.547   3.207
 3649SOL     OW11845   4.260   3.356   0.702
 3649SOL    HW111846   4.241   3.355   0.604
 3649SOL    HW211847   4.229   3.271   0.744
 3650SOL     OW11848   6.888   6.194   0.758
 3650SOL    HW111849   6.974   6.152   0.788
 3650SOL    HW211850   6.817   6.175   0.826
 3651SOL     OW11851   0.886   5.973   2.083
 3651SOL    HW111852   0.882   6.070   2.062
 3651SOL    HW211853   0.968   5.953   2.136
 3652SOL     OW11854   4.893   6.772   3.292
 3652SOL    HW111855   4.815   6.745   3.348
 3652SOL    HW211856   4.861   6.819   3.210
 3653SOL     OW11857   6.258   1.092   3.007
 3653SOL    HW111858   6.210   1.006   2.992
 3653SOL    HW211859   6.335   1.098   2.943
 3654SOL     OW11860   2.093   6.485   0.433
 3654SOL    HW111861   2.065   6.391   0.419
 3654SOL    HW211862   2.013   6.544   0.434
 3655SOL     OW11863   1.554   0.036   3.551
 3655SOL    HW111864   1.582   0.131   3.541
 3655SOL    HW211865   1.485   0.014   3.482
 3656SOL     OW11866   1.402   2.823   1.232
 3656SOL    HW111867   1.363   2.874   1.308
 3656SOL    HW211868   1.396   2.725   1.250
 3657SOL     OW11869   4.422   5.867   6.314
 3657SOL    HW111870   4.506   5.919   6.329
 3657SOL    HW211871   4.423   5.829   6.222
 3658SOL     OW11872   1.269   5.801   4.652
 3658SOL    HW111873   1.216   5.792   4.736
 3658SOL    HW211874   1.308   5.893   4.647
 3659SOL     OW11875   2.489   4.311   6.388
 3659SOL    HW111876   2.392   4.331   6.374
 3659SOL    HW211877   2.506   4.294   6.485
 3660SOL     OW11878   4.951   6.496   2.112
 3660SOL    HW111879   4.974   6.401   2.130
 3660SOL    HW211880   5.026   6.539   2.060
 3661SOL     OW11881   4.907   2.180   6.692
 3661SOL    HW111882   4.852   2.188   6.609
 3661SOL    HW211883   4.994   2.227   6.678
 3662SOL     OW11884   3.552   0.458   4.773
 3662SOL    HW111885   3.478   0.486   4.712
 3662SOL    HW211886   3.515   0.431   4.862
 3663SOL     OW11887   1.354   1.539   0.585
 3663SOL    HW111888   1.312   1.496   0.664
 3663SOL    HW211889   1.396   1.469   0.527
 3664SOL     OW11890   5.424   1.350   1.198
 3664SOL    HW111891   5.372   1.432   1.176
 3664SOL    HW211892   5.519   1.363   1.170
 3665SOL     OW11893   0.325   5.751   5.478
 3665SOL    HW111894   0.406   5.795   5.515
 3665SOL    HW211895   0.327   5.653   5.499
 3666SOL     OW11896   1.675   4.273   3.775
 3666SOL    HW111897   1.688   4.200   3.708
 3666SOL    HW211898   1.759   4.326   3.783
 3667SOL     OW11899   6.156   0.309   0.365
 3667SOL    HW111900   6.057   0.297   0.356
 3667SOL    HW211901   6.193   0.348   0.281
 3668SOL     OW11902   1.608   0.588   2.242
 3668SOL    HW111903   1.662   0.584   2.326
 3668SOL    HW211904   1.669   0.607   2.164
 3669SOL     OW11905   5.874   1.583   4.380
 3669SOL    HW111906   5.831   1.626   4.300
 3669SOL    HW211907   5.964   1.548   4.355
 3670SOL     OW11908   2.525   5.539   0.609
 3670SOL    HW111909   2.479   5.452   0.623
 3670SOL    HW211910   2.613   5.523   0.564
 3671SOL     OW11911   6.199   0.392   3.457
 3671SOL    HW111912   6.137   0.362   3.530
 3671SOL    HW211913   6.293   0.391   3.492
 3672SOL     OW11914   5.872   1.681   1.067
 3672SOL    HW111915   5.844   1.693   1.162
 3672SOL    HW211916   5.791   1.685   1.008
 3673SOL     OW11917   3.851   0.614   6.103
 3673SOL    HW111918   3.912   0.670   6.046
 3673SOL    HW211919   3.904   0.544   6.149
 3674SOL     OW11920   0.421   6.890   5.860
 3674SOL    HW111921   0.361   6.813   5.883
 3674SOL    HW211922   0.516   6.863   5.872
 3675SOL     OW11923   1.769   2.364   5.477
 3675SOL    HW111924   1.791   2.459   5.498
 3675SOL    HW211925   1.839   2.304   5.515
 3676SOL     OW11926   3.958   5.126   4.285
 3676SOL    HW111927   3.892   5.060   4.322
 3676SOL    HW211928   3.918   5.174   4.207
 3677SOL     OW11929   1.108   5.964   2.929
 3677SOL    HW111930   1.176   6.032   2.956
 3677SOL    HW211931   1.130   5.930   2.837
 3678SOL     OW11932   0.796   2.747   3.830
 3678SOL    HW111933   0.863   2.674   3.817
 3678SOL    HW211934   0.811   2.791   3.918
 3679SOL     OW11935   0.264   1.084   2.630
 3679SOL    HW111936   0.237   1.022   2.557
 3679SOL    HW211937   0.188   1.146   2.651
 3680SOL     OW11938   6.510   3.042   3.837
 3680SOL    HW111939   6.425   3.000   3.867
 3680SOL    HW211940   6.533   3.118   3.898
 3681SOL     OW11941   0.563   0.927   5.991
 3681SOL    HW111942   0.515   0.942   6.078
 3681SOL    HW211943   0.659   0.953   6.001
 3682SOL     OW11944   5.791   2.327   5.914
 3682SOL    HW111945   5.751   2.417   5.900
 3682SOL    HW211946   5.763   2.266   5.839
 3683SOL     OW11947   6.779   0.498   5.089
 3683SOL    HW111948   6.782   0.493   5.189
 3683SOL    HW211949   6.853   0.443   5.050
 3684SOL     OW11950   1.650   2.761   1.228
 3684SOL    HW111951   1.556   2.793   1.243
 3684SOL    HW211952   1.710   2.840   1.215
 3685SOL     OW11953   6.220   6.496   5.721
 3685SOL    HW111954   6.215   6.426   5.649
 3685SOL    HW211955   6.208   6.452   5.810
 3686SOL     OW11956   6.218   4.934   3.428
 3686SOL    HW111957   6.156   4.921   3.505
 3686SOL    HW211958   6.200   4.864   3.358
 3687SOL     OW11959   3.147   5.995   5.530
 3687SOL    HW111960   3.110   5.903   5.539
 3687SOL    HW211961   3.139   6.025   5.434
 3688SOL     OW11962   1.097   4.214   0.253
 3688SOL    HW111963   1.138   4.125   0.270
 3688SOL    HW211964   1.166   4.286   0.267
 3689SOL     OW11965   0.775   0.598   5.561
 3689SOL    HW111966   0.781   0.687   5.607
 3689SOL    HW211967   0.768   0.612   5.462
 3690SOL     OW11968   4.363   0.357   6.486
 3690SOL    HW111969   4.368   0.304   6.570
 3690SOL    HW211970   4.455   0.380   6.454
 3691SOL     OW11971   2.649   3.053   6.636
 3691SOL    HW111972   2.570   2.992   6.628
 3691SOL    HW211973   2.624   3.133   6.691
 3692SOL     OW11974   1.215   5.786   4.258
 3692SOL    HW111975   1.296   5.774   4.315
 3692SOL    HW211976   1.154   5.853   4.301
 3693SOL     OW11977   1.636   2.893   2.933
 3693SOL    HW111978   1.694   2.963   2.892
 3693SOL    HW211979   1.677   2.860   3.017
 3694SOL     OW11980   0.981   5.213   3.402
 3694SOL    HW111981   1.011   5.226   3.497
 3694SOL    HW211982   0.888   5.247   3.392
 3695SOL     OW11983   0.841   2.121   2.609
 3695SOL    HW111984   0.814   2.210   2.572
 3695SOL    HW211985   0.828   2.050   2.540
 3696SOL     OW11986   4.422   6.356   5.722
 3696SOL    HW111987   4.488   6.367   5.647
 3696SOL    HW211988   4.351   6.426   5.714
 3697SOL     OW11989   6.837   6.303   3.642
 3697SOL    HW111990   6.752   6.304   3.695
 3697SOL    HW211991   6.878   6.211   3.647
 3698SOL     OW11992   3.750   6.842   5.606
 3698SOL    HW111993   3.720   6.933   5.578
 3698SOL    HW211994   3.683   6.802   5.669
 3699SOL     OW11995   6.743   3.658   2.932
 3699SOL    HW111996   6.785   3.747   2.949
 3699SOL    HW211997   6.797   3.608   2.865
 3700SOL     OW11998   5.857   0.435   3.400
 3700SOL    HW111999   5.886   0.530   3.399
 3700SOL    HW212000   5.854   0.399   3.307
 3701SOL     OW12001   0.248   0.831   3.849
 3701SOL    HW112002   0.177   0.886   3.892
 3701SOL    HW212003   0.312   0.798   3.918
 3702SOL     OW12004   4.696   0.404   1.695
 3702SOL    HW112005   4.782   0.363   1.726
 3702SOL    HW212006   4.641   0.432   1.774
 3703SOL     OW12007   4.175   3.880   5.674
 3703SOL    HW112008   4.266   3.900   5.711
 3703SOL    HW212009   4.110   3.948   5.707
 3704SOL     OW12010   3.033   1.136   1.873
 3704SOL    HW112011   3.010   1.178   1.961
 3704SOL    HW212012   3.022   1.037   1.880
 3705SOL     OW12013   4.873   6.538   3.838
 3705SOL    HW112014   4.817   6.604   3.787
 3705SOL    HW212015   4.956   6.584   3.872
 3706SOL     OW12016   1.324   2.380   4.451
 3706SOL    HW112017   1.226   2.379   4.470
 3706SOL    HW212018   1.349   2.464   4.405
 3707SOL     OW12019   5.601   3.137   5.110
 3707SOL    HW112020   5.613   3.105   5.016
 3707SOL    HW212021   5.557   3.066   5.165
 3708SOL     OW12022   5.852   6.950   6.482
 3708SOL    HW112023   5.875   6.950   6.579
 3708SOL    HW212024   5.796   6.869   6.461
 3709SOL     OW12025   3.633   1.179   6.431
 3709SOL    HW112026   3.563   1.139   6.372
 3709SOL    HW212027   3.686   1.105   6.474
 3710SOL     OW12028   6.990   5.991   0.471
 3710SOL    HW112029   6.919   5.999   0.401
 3710SOL    HW212030   6.975   5.907   0.524
 3711SOL     OW12031   0.540   5.742   2.280
 3711SOL    HW112032   0.528   5.682   2.202
 3711SOL    HW212033   0.615   5.805   2.262
 3712SOL     OW12034   7.015   6.152   6.803
 3712SOL    HW112035   0.007   6.082   6.873
 3712SOL    HW212036   6.976   6.235   6.845
 3713SOL     OW12037   2.401   6.364   4.875
 3713SOL    HW112038   2.329   6.410   4.927
 3713SOL    HW212039   2.486   6.366   4.927
 3714SOL     OW12040   5.318   6.275   4.824
 3714SOL    HW112041   5.227   6.312   4.843
 3714SOL    HW212042   5.386   6.347   4.837
 3715SOL     OW12043   5.822   4.062   5.084
 3715SOL    HW112044   5.765   3.982   5.065
 3715SOL    HW212045   5.889   4.039   5.154
 3716SOL     OW12046   0.388   6.490   4.343
 3716SOL    HW112047   0.394   6.392   4.360
 3716SOL    HW212048   0.292   6.516   4.330
 3717SOL     OW12049   6.141   5.659   0.657
 3717SOL    HW112050   6.217   5.684   0.597
 3717SOL    HW212051   6.109   5.741   0.706
 3718SOL     OW12052   1.794   6.395   6.132
 3718SOL    HW112053   1.744   6.418   6.048
 3718SOL    HW212054   1.847   6.312   6.116
 3719SOL     OW12055   4.741   4.336   1.211
 3719SOL    HW112056   4.835   4.370   1.216
 3719SOL    HW212057   4.725   4.269   1.283
 3720SOL     OW12058   6.161   2.414   6.870
 3720SOL    HW112059   6.078   2.397   6.817
 3720SOL    HW212060   6.195   2.327   6.907
 3721SOL     OW12061   5.326   4.670   0.434
 3721SOL    HW112062   5.297   4.764   0.417
 3721SOL    HW212063   5.328   4.653   0.533
 3722SOL     OW12064   6.731   6.299   2.426
 3722SOL    HW112065   6.751   6.208   2.391
 3722SOL    HW212066   6.672   6.291   2.507
 3723SOL     OW12067   5.773   6.605   1.702
 3723SOL    HW112068   5.743   6.603   1.607
 3723SOL    HW212069   5.695   6.620   1.762
 3724SOL     OW12070   1.920   5.344   6.671
 3724SOL    HW112071   1.894   5.259   6.717
 3724SOL    HW212072   1.864   5.355   6.588
 3725SOL     OW12073   5.332   6.135   6.936
 3725SOL    HW112074   5.411   6.162   6.881
 3725SOL    HW212075   5.363   6.081   7.014
 3726SOL     OW12076   6.870   4.003   1.391
 3726SOL    HW112077   6.782   4.041   1.417
 3726SOL    HW212078   6.862   3.955   1.304
 3727SOL     OW12079   0.324   3.470   6.123
 3727SOL    HW112080   0.330   3.375   6.091
 3727SOL    HW212081   0.296   3.529   6.047
 3728SOL     OW12082   1.635   3.298   0.437
 3728SOL    HW112083   1.612   3.298   0.340
 3728SOL    HW212084   1.669   3.388   0.464
 3729SOL     OW12085   0.873   2.390   3.239
 3729SOL    HW112086   0.880   2.406   3.337
 3729SOL    HW212087   0.925   2.460   3.190
 3730SOL     OW12088   2.715   6.071   6.970
 3730SOL    HW112089   2.646   6.054   6.900
 3730SOL    HW212090   2.772   5.990   6.980
 3731SOL     OW12091   4.811   1.497   0.347
 3731SOL    HW112092   4.864   1.463   0.269
 3731SOL    HW212093   4.714   1.477   0.333
 3732SOL     OW12094   2.253   2.884   6.080
 3732SOL    HW112095   2.232   2.951   6.009
 3732SOL    HW212096   2.339   2.837   6.057
 3733SOL     OW12097   2.173   3.922   1.403
 3733SOL    HW112098   2.206   3.974   1.324
 3733SOL    HW212099   2.099   3.972   1.447
 3734SOL     OW12100   4.355   1.521   1.553
 3734SOL    HW112101   4.431   1.585   1.552
 3734SOL    HW212102   4.290   1.547   1.624
 3735SOL     OW12103   0.858   1.824   2.653
 3735SOL    HW112104   0.896   1.826   2.746
 3735SOL    HW212105   0.933   1.829   2.587
 3736SOL     OW12106   0.077   3.091   0.726
 3736SOL    HW112107   0.174   3.114   0.713
 3736SOL    HW212108   0.021   3.150   0.669
 3737SOL     OW12109   4.754   0.229   3.500
 3737SOL    HW112110   4.847   0.195   3.512
 3737SOL    HW212111   4.691   0.153   3.486
 3738SOL     OW12112   6.375   5.929   3.361
 3738SOL    HW112113   6.372   5.915   3.460
 3738SOL    HW212114   6.282   5.925   3.324
 3739SOL     OW12115   1.703   4.138   2.729
 3739SOL    HW112116   1.640   4.063   2.706
 3739SOL    HW212117   1.778   4.140   2.662
 3740SOL     OW12118   4.579   0.763   6.831
 3740SOL    HW112119   4.667   0.805   6.810
 3740SOL    HW212120   4.547   0.712   6.751
 3741SOL     OW12121   4.488   4.132   1.203
 3741SOL    HW112122   4.426   4.210   1.198
 3741SOL    HW212123   4.484   4.082   1.116
 3742SOL     OW12124   2.124   1.888   5.464
 3742SOL    HW112125   2.132   1.967   5.525
 3742SOL    HW212126   2.136   1.918   5.370
 3743SOL     OW12127   6.197   5.114   0.796
 3743SOL    HW112128   6.264   5.063   0.851
 3743SOL    HW212129   6.229   5.119   0.701
 3744SOL     OW12130   0.705   5.770   3.879
 3744SOL    HW112131   0.701   5.866   3.854
 3744SOL    HW212132   0.800   5.738   3.877
 3745SOL     OW12133   3.081   5.723   3.012
 3745SOL    HW112134   3.028   5.683   3.087
 3745SOL    HW212135   3.135   5.800   3.047
 3746SOL     OW12136   4.347   1.193   1.801
 3746SOL    HW112137   4.446   1.184   1.787
 3746SOL    HW212138   4.326   1.289   1.821
 3747SOL     OW12139   3.093   6.667   6.324
 3747SOL    HW112140   3.182   6.623   6.335
 3747SOL    HW212141   3.033   6.608   6.270
 3748SOL     OW12142   5.411   0.956   2.087
 3748SOL    HW112143   5.434   0.958   2.185
 3748SOL    HW212144   5.338   0.890   2.071
 3749SOL     OW12145   1.612   6.810   4.056
 3749SOL    HW112146   1.583   6.886   4.115
 3749SOL    HW212147   1.533   6.775   4.006
 3750SOL     OW12148   1.548   4.031   0.190
 3750SOL    HW112149   1.507   4.103   0.133
 3750SOL    HW212150   1.477   3.968   0.220
 3751SOL     OW12151   0.091   3.950   2.632
 3751SOL    HW112152   7.015   3.921   2.624
 3751SOL    HW212153   0.096   4.028   2.695
 3752SOL     OW12154   5.024   1.109   5.670
 3752SOL    HW112155   5.096   1.070   5.614
 3752SOL    HW212156   4.973   1.177   5.617
 3753SOL     OW12157   6.056   0.451   4.453
 3753SOL    HW112158   6.110   0.369   4.471
 3753SOL    HW212159   6.114   0.532   4.460
 3754SOL     OW12160   1.797   0.918   2.217
 3754SOL    HW112161   1.699   0.919   2.233
 3754SOL    HW212162   1.844   0.960   2.296
 3755SOL     OW12163   3.300   5.169   4.660
 3755SOL    HW112164   3.350   5.175   4.574
 3755SOL    HW212165   3.318   5.081   4.703
 3756SOL     OW12166   2.926   5.897   6.995
 3756SOL    HW112167   2.989   5.846   0.033
 3756SOL    HW212168   2.976   5.934   6.916
 3757SOL     OW12169   6.357   5.097   2.058
 3757SOL    HW112170   6.283   5.030   2.048
 3757SOL    HW212171   6.436   5.054   2.101
 3758SOL     OW12172   2.002   0.887   4.375
 3758SOL    HW112173   1.926   0.948   4.398
 3758SOL    HW212174   2.055   0.926   4.301
 3759SOL     OW12175   4.821   0.840   4.538
 3759SOL    HW112176   4.882   0.900   4.590
 3759SOL    HW212177   4.859   0.748   4.534
 3760SOL     OW12178   7.010   0.243   3.570
 3760SOL    HW112179   0.023   0.149   3.580
 3760SOL    HW212180   0.018   0.297   3.649
 3761SOL     OW12181   6.237   1.496   4.817
 3761SOL    HW112182   6.148   1.451   4.830
 3761SOL    HW212183   6.224   1.594   4.805
 3762SOL     OW12184   1.402   3.715   2.465
 3762SOL    HW112185   1.498   3.713   2.495
 3762SOL    HW212186   1.398   3.740   2.368
 3763SOL     OW12187   6.996   3.847   0.200
 3763SOL    HW112188   6.918   3.876   0.255
 3763SOL    HW212189   0.054   3.830   0.259
 3764SOL     OW12190   1.841   0.187   2.836
 3764SOL    HW112191   1.766   0.174   2.900
 3764SOL    HW212192   1.921   0.135   2.867
 3765SOL     OW12193   6.249   1.601   1.570
 3765SOL    HW112194   6.182   1.622   1.498
 3765SOL    HW212195   6.274   1.685   1.618
 3766SOL     OW12196   1.948   2.642   4.095
 3766SOL    HW112197   1.987   2.718   4.042
 3766SOL    HW212198   1.973   2.555   4.053
 3767SOL     OW12199   2.969   4.215   5.993
 3767SOL    HW112200   2.871   4.197   5.983
 3767SOL    HW212201   2.982   4.313   6.012
 3768SOL     OW12202   1.531   0.524   4.495
 3768SOL    HW112203   1.622   0.486   4.478
 3768SOL    HW212204   1.538   0.623   4.503
 3769SOL     OW12205   5.746   5.519   5.070
 3769SOL    HW112206   5.808   5.442   5.058
 3769SOL    HW212207   5.728   5.562   4.982
 3770SOL     OW12208   1.020   1.250   0.279
 3770SOL    HW112209   0.998   1.319   0.348
 3770SOL    HW212210   1.075   1.293   0.207
 3771SOL     OW12211   6.612   4.596   0.581
 3771SOL    HW112212   6.574   4.660   0.514
 3771SOL    HW212213   6.537   4.543   0.622
 3772SOL     OW12214   1.089   6.463   0.025
 3772SOL    HW112215   1.056   6.485   6.953
 3772SOL    HW212216   1.173   6.514   0.042
 3773SOL     OW12217   5.609   4.144   5.556
 3773SOL    HW112218   5.634   4.159   5.460
 3773SOL    HW212219   5.636   4.052   5.584
 3774SOL     OW12220   5.665   5.127   1.888
 3774SOL    HW112221   5.669   5.227   1.890
 3774SOL    HW212222   5.570   5.097   1.893
 3775SOL     OW12223   3.871   4.914   3.251
 3775SOL    HW112224   3.937   4.855   3.297
 3775SOL    HW212225   3.849   4.992   3.310
 3776SOL     OW12226   3.731   2.715   6.457
 3776SOL    HW112227   3.694   2.622   6.453
 3776SOL    HW212228   3.770   2.739   6.368
 3777SOL     OW12229   2.503   6.160   3.783
 3777SOL    HW112230   2.595   6.183   3.816
 3777SOL    HW212231   2.456   6.105   3.852
 3778SOL     OW12232   3.070   5.792   4.353
 3778SOL    HW112233   3.000   5.817   4.419
 3778SOL    HW212234   3.117   5.709   4.383
 3779SOL     OW12235   0.185   5.094   0.852
 3779SOL    HW112236   0.142   5.065   0.937
 3779SOL    HW212237   0.119   5.144   0.796
 3780SOL     OW12238   0.171   2.325   2.268
 3780SOL    HW112239   0.205   2.288   2.354
 3780SOL    HW212240   0.245   2.329   2.202
 3781SOL     OW12241   1.447   6.531   5.081
 3781SOL    HW112242   1.434   6.457   5.147
 3781SOL    HW212243   1.369   6.534   5.018
 3782SOL     OW12244   3.858   6.258   2.451
 3782SOL    HW112245   3.852   6.254   2.351
 3782SOL    HW212246   3.951   6.281   2.479
 3783SOL     OW12247   5.382   4.547   5.665
 3783SOL    HW112248   5.471   4.536   5.621
 3783SOL    HW212249   5.316   4.487   5.621
 3784SOL     OW12250   5.468   2.824   2.294
 3784SOL    HW112251   5.378   2.811   2.335
 3784SOL    HW212252   5.496   2.741   2.247
 3785SOL     OW12253   0.542   3.409   4.932
 3785SOL    HW112254   0.597   3.461   4.867
 3785SOL    HW212255   0.599   3.384   5.011
 3786SOL     OW12256   2.229   2.186   3.456
 3786SOL    HW112257   2.174   2.151   3.532
 3786SOL    HW212258   2.169   2.229   3.389
 3787SOL     OW12259   4.011   0.323   2.875
 3787SOL    HW112260   4.069   0.325   2.956
 3787SOL    HW212261   3.952   0.403   2.873
 3788SOL     OW12262   6.949   4.092   4.829
 3788SOL    HW112263   6.886   4.049   4.764
 3788SOL    HW212264   6.899   4.159   4.884
 3789SOL     OW12265   0.725   3.040   3.358
 3789SOL    HW112266   0.745   2.990   3.273
 3789SOL    HW212267   0.735   2.978   3.436
 3790SOL     OW12268   1.281   5.988   0.071
 3790SOL    HW112269   1.358   6.046   0.043
 3790SOL    HW212270   1.204   6.045   0.097
 3791SOL     OW12271   5.535   1.598   5.834
 3791SOL    HW112272   5.596   1.677   5.846
 3791SOL    HW212273   5.482   1.583   5.917
 3792SOL     OW12274   0.747   0.954   4.252
 3792SOL    HW112275   0.711   0.916   4.167
 3792SOL    HW212276   0.846   0.938   4.256
 3793SOL     OW12277   5.921   5.933   1.098
 3793SOL    HW112278   6.017   5.933   1.128
 3793SOL    HW212279   5.913   5.985   1.014
 3794SOL     OW12280   1.714   3.239   1.110
 3794SOL    HW112281   1.627   3.236   1.160
 3794SOL    HW212282   1.697   3.220   1.014
 3795SOL     OW12283   3.105   5.980   0.744
 3795SOL    HW112284   3.149   5.953   0.658
 3795SOL    HW212285   3.010   5.947   0.745
 3796SOL     OW12286   4.035   2.319   1.274
 3796SOL    HW112287   4.040   2.244   1.340
 3796SOL    HW212288   4.056   2.285   1.183
 3797SOL     OW12289   1.379   4.164   2.523
 3797SOL    HW112290   1.353   4.260   2.534
 3797SOL    HW212291   1.301   4.113   2.487
 3798SOL     OW12292   2.401   6.934   2.913
 3798SOL    HW112293   2.368   7.009   2.855
 3798SOL    HW212294   2.499   6.942   2.926
 3799SOL     OW12295   6.448   2.660   3.113
 3799SOL    HW112296   6.392   2.697   3.186
 3799SOL    HW212297   6.532   2.714   3.104
 3800SOL     OW12298   4.915   1.508   2.851
 3800SOL    HW112299   5.013   1.501   2.834
 3800SOL    HW212300   4.879   1.588   2.803
 3801SOL     OW12301   5.360   6.820   1.939
 3801SOL    HW112302   5.399   6.826   2.031
 3801SOL    HW212303   5.369   6.909   1.893
 3802SOL     OW12304   0.591   1.794   1.868
 3802SOL    HW112305   0.640   1.767   1.785
 3802SOL    HW212306   0.581   1.894   1.870
 3803SOL     OW12307   3.394   3.838   3.743
 3803SOL    HW112308   3.435   3.758   3.787
 3803SOL    HW212309   3.377   3.909   3.813
 3804SOL     OW12310   3.359   1.200   4.462
 3804SOL    HW112311   3.333   1.204   4.558
 3804SOL    HW212312   3.458   1.194   4.454
 3805SOL     OW12313   2.579   2.741   0.952
 3805SOL    HW112314   2.664   2.697   0.981
 3805SOL    HW212315   2.598   2.832   0.916
 3806SOL     OW12316   4.257   4.072   6.462
 3806SOL    HW112317   4.235   4.113   6.550
 3806SOL    HW212318   4.187   4.004   6.438
 3807SOL     OW12319   1.644   5.063   4.284
 3807SOL    HW112320   1.703   5.094   4.358
 3807SOL    HW212321   1.699   5.021   4.212
 3808SOL     OW12322   4.870   0.592   5.773
 3808SOL    HW112323   4.860   0.637   5.862
 3808SOL    HW212324   4.880   0.493   5.787
 3809SOL     OW12325   6.620   1.774   1.468
 3809SOL    HW112326   6.570   1.710   1.526
 3809SOL    HW212327   6.622   1.864   1.513
 3810SOL     OW12328   6.811   2.488   3.148
 3810SOL    HW112329   6.736   2.469   3.084
 3810SOL    HW212330   6.864   2.566   3.115
 3811SOL     OW12331   0.237   5.961   4.501
 3811SOL    HW112332   0.182   6.014   4.565
 3811SOL    HW212333   0.192   5.959   4.412
 3812SOL     OW12334   3.301   5.887   6.749
 3812SOL    HW112335   3.353   5.808   6.718
 3812SOL    HW212336   3.364   5.959   6.778
 3813SOL     OW12337   6.182   3.863   1.348
 3813SOL    HW112338   6.193   3.770   1.312
 3813SOL    HW212339   6.104   3.907   1.303
 3814SOL     OW12340   6.795   0.013   3.880
 3814SOL    HW112341   6.749   6.959   3.929
 3814SOL    HW212342   6.747   0.030   3.794
 3815SOL     OW12343   5.233   3.103   0.656
 3815SOL    HW112344   5.140   3.121   0.623
 3815SOL    HW212345   5.229   3.038   0.733
 3816SOL     OW12346   0.432   6.632   4.845
 3816SOL    HW112347   0.448   6.730   4.852
 3816SOL    HW212348   0.376   6.613   4.764
 3817SOL     OW12349   4.869   3.072   2.700
 3817SOL    HW112350   4.882   3.153   2.757
 3817SOL    HW212351   4.823   3.001   2.754
 3818SOL     OW12352   0.218   0.505   1.182
 3818SOL    HW112353   0.135   0.555   1.208
 3818SOL    HW212354   0.298   0.564   1.197
 3819SOL     OW12355   6.725   4.188   2.879
 3819SOL    HW112356   6.625   4.196   2.873
 3819SOL    HW212357   6.753   4.199   2.974
 3820SOL     OW12358   5.523   6.774   3.474
 3820SOL    HW112359   5.463   6.734   3.405
 3820SOL    HW212360   5.479   6.855   3.514
 3821SOL     OW12361   0.867   0.025   0.446
 3821SOL    HW112362   0.855   0.108   0.500
 3821SOL    HW212363   0.785   6.987   0.455
 3822SOL     OW12364   3.517   7.020   0.107
 3822SOL    HW112365   3.459   0.081   0.101
 3822SOL    HW212366   3.524   6.991   0.203
 3823SOL     OW12367   4.546   4.590   6.646
 3823SOL    HW112368   4.473   4.583   6.714
 3823SOL    HW212369   4.532   4.673   6.591
 3824SOL     OW12370   0.656   2.625   0.456
 3824SOL    HW112371   0.727   2.632   0.387
 3824SOL    HW212372   0.576   2.577   0.418
 3825SOL     OW12373   1.060   4.075   1.204
 3825SOL    HW112374   1.073   4.118   1.293
 3825SOL    HW212375   1.148   4.071   1.156
 3826SOL     OW12376   0.063   3.593   2.456
 3826SOL    HW112377   0.042   3.595   2.554
 3826SOL    HW212378   6.998   3.595   2.403
 3827SOL     OW12379   0.923   0.905   1.383
 3827SOL    HW112380   0.850   0.965   1.416
 3827SOL    HW212381   0.974   0.870   1.461
 3828SOL     OW12382   3.610   3.924   5.020
 3828SOL    HW112383   3.671   3.862   4.970
 3828SOL    HW212384   3.624   3.912   5.119
 3829SOL     OW12385   0.774   4.785   2.048
 3829SOL    HW112386   0.809   4.793   1.955
 3829SOL    HW212387   0.722   4.866   2.072
 3830SOL     OW12388   0.453   0.736   5.404
 3830SOL    HW112389   0.521   0.805   5.382
 3830SOL    HW212390   0.459   0.713   5.501
 3831SOL     OW12391   4.201   2.250   2.947
 3831SOL    HW112392   4.136   2.263   2.872
 3831SOL    HW212393   4.152   2.243   3.034
 3832SOL     OW12394   0.359   0.574   2.032
 3832SOL    HW112395   0.304   0.496   2.059
 3832SOL    HW212396   0.453   0.544   2.016
 3833SOL     OW12397   1.892   6.559   6.387
 3833SOL    HW112398   1.968   6.618   6.359
 3833SOL    HW212399   1.863   6.502   6.309
 3834SOL     OW12400   4.126   4.055   1.063
 3834SOL    HW112401   4.050   4.119   1.055
 3834SOL    HW212402   4.117   4.004   1.149
 3835SOL     OW12403   3.949   5.763   5.563
 3835SOL    HW112404   3.857   5.750   5.526
 3835SOL    HW212405   3.973   5.860   5.561
 3836SOL     OW12406   0.629   4.877   5.961
 3836SOL    HW112407   0.607   4.779   5.958
 3836SOL    HW212408   0.674   4.903   5.876
 3837SOL     OW12409   4.012   5.413   5.198
 3837SOL    HW112410   3.915   5.418   5.224
 3837SOL    HW212411   4.064   5.477   5.254
 3838SOL     OW12412   1.891   1.705   3.312
 3838SOL    HW112413   1.963   1.709   3.243
 3838SOL    HW212414   1.918   1.761   3.391
 3839SOL     OW12415   4.378   0.622   2.686
 3839SOL    HW112416   4.297   0.598   2.634
 3839SOL    HW212417   4.360   0.607   2.784
 3840SOL     OW12418   2.384   1.807   5.602
 3840SOL    HW112419   2.314   1.877   5.608
 3840SOL    HW212420   2.341   1.717   5.594
 3841SOL     OW12421   1.072   4.284   4.013
 3841SOL    HW112422   1.170   4.300   4.020
 3841SOL    HW212423   1.044   4.217   4.082
 3842SOL     OW12424   2.698   2.393   3.999
 3842SOL    HW112425   2.710   2.432   4.091
 3842SOL    HW212426   2.744   2.304   3.995
 3843SOL     OW12427   5.727   3.753   1.004
 3843SOL    HW112428   5.818   3.788   1.025
 3843SOL    HW212429   5.728   3.653   1.011
 3844SOL     OW12430   1.185   4.591   6.934
 3844SOL    HW112431   1.199   4.638   0.001
 3844SOL    HW212432   1.088   4.591   6.911
 3845SOL     OW12433   2.280   5.971   7.002
 3845SOL    HW112434   2.248   6.065   7.009
 3845SOL    HW212435   2.255   5.934   6.913
 3846SOL     OW12436   0.532   3.292   4.560
 3846SOL    HW112437   0.456   3.356   4.575
 3846SOL    HW212438   0.607   3.314   4.621
 3847SOL     OW12439   5.251   2.259   4.226
 3847SOL    HW112440   5.199   2.322   4.167
 3847SOL    HW212441   5.253   2.168   4.184
 3848SOL     OW12442   4.865   3.606   2.894
 3848SOL    HW112443   4.840   3.623   2.799
 3848SOL    HW212444   4.937   3.670   2.921
 3849SOL     OW12445   0.677   6.952   6.498
 3849SOL    HW112446   0.579   6.953   6.480
 3849SOL    HW212447   0.725   6.998   6.424
 3850SOL     OW12448   3.244   2.954   1.300
 3850SOL    HW112449   3.330   3.002   1.283
 3850SOL    HW212450   3.218   2.903   1.218
 3851SOL     OW12451   6.818   5.137   3.625
 3851SOL    HW112452   6.787   5.187   3.707
 3851SOL    HW212453   6.809   5.039   3.641
 3852SOL     OW12454   3.630   6.616   4.549
 3852SOL    HW112455   3.679   6.701   4.570
 3852SOL    HW212456   3.538   6.620   4.588
 3853SOL     OW12457   1.370   2.097   3.175
 3853SOL    HW112458   1.464   2.129   3.162
 3853SOL    HW212459   1.371   1.997   3.181
 3854SOL     OW12460   0.891   2.947   3.069
 3854SOL    HW112461   0.871   3.024   3.008
 3854SOL    HW212462   0.838   2.867   3.041
 3855SOL     OW12463   3.905   6.361   0.107
 3855SOL    HW112464   3.874   6.345   0.014
 3855SOL    HW212465   4.004   6.349   0.111
 3856SOL     OW12466   0.366   1.656   5.768
 3856SOL    HW112467   0.333   1.681   5.677
 3856SOL    HW212468   0.430   1.579   5.760
 3857SOL     OW12469   1.337   6.171   5.667
 3857SOL    HW112470   1.419   6.222   5.693
 3857SOL    HW212471   1.363   6.081   5.633
 3858SOL     OW12472   3.160   1.574   6.032
 3858SOL    HW112473   3.136   1.491   5.981
 3858SOL    HW212474   3.247   1.560   6.080
 3859SOL     OW12475   6.214   0.901   1.784
 3859SOL    HW112476   6.191   0.985   1.735
 3859SOL    HW212477   6.139   0.836   1.775
 3860SOL     OW12478   1.792   1.086   4.362
 3860SOL    HW112479   1.853   1.148   4.314
 3860SOL    HW212480   1.772   1.123   4.453
 3861SOL     OW12481   4.579   6.311   3.172
 3861SOL    HW112482   4.601   6.285   3.078
 3861SOL    HW212483   4.621   6.245   3.235
 3862SOL     OW12484   0.921   0.736   4.815
 3862SOL    HW112485   1.016   0.765   4.805
 3862SOL    HW212486   0.918   0.639   4.837
 3863SOL     OW12487   6.067   1.572   6.285
 3863SOL    HW112488   6.102   1.666   6.283
 3863SOL    HW212489   6.136   1.513   6.327
 3864SOL     OW12490   2.338   0.594   5.242
 3864SOL    HW112491   2.346   0.684   5.199
 3864SOL    HW212492   2.337   0.605   5.341
 3865SOL     OW12493   3.988   1.475   1.072
 3865SOL    HW112494   3.967   1.435   1.162
 3865SOL    HW212495   4.087   1.470   1.056
 3866SOL     OW12496   3.564   1.078   6.820
 3866SOL    HW112497   3.605   1.020   6.890
 3866SOL    HW212498   3.507   1.148   6.864
 3867SOL     OW12499   1.397   4.144   3.344
 3867SOL    HW112500   1.344   4.137   3.429
 3867SOL    HW212501   1.452   4.227   3.346
 3868SOL     OW12502   4.172   0.120   6.949
 3868SOL    HW112503   4.103   0.057   6.912
 3868SOL    HW212504   4.248   0.067   6.987
 3869SOL     OW12505   6.646   3.113   3.538
 3869SOL    HW112506   6.626   3.020   3.567
 3869SOL    HW212507   6.596   3.178   3.596
 3870SOL     OW12508   6.860   6.392   1.451
 3870SOL    HW112509   6.858   6.292   1.455
 3870SOL    HW212510   6.775   6.426   1.410
 3871SOL     OW12511   3.424   0.268   3.236
 3871SOL    HW112512   3.492   0.281   3.308
 3871SOL    HW212513   3.337   0.239   3.275
 3872SOL     OW12514   3.025   3.367   4.443
 3872SOL    HW112515   2.980   3.376   4.354
 3872SOL    HW212516   2.982   3.430   4.508
 3873SOL     OW12517   5.746   4.366   1.129
 3873SOL    HW112518   5.751   4.466   1.129
 3873SOL    HW212519   5.678   4.336   1.195
 3874SOL     OW12520   4.030   0.755   0.370
 3874SOL    HW112521   4.016   0.656   0.366
 3874SOL    HW212522   3.951   0.798   0.414
 3875SOL     OW12523   1.950   2.870   3.555
 3875SOL    HW112524   1.878   2.882   3.486
 3875SOL    HW212525   2.009   2.950   3.556
 3876SOL     OW12526   3.559   5.362   1.141
 3876SOL    HW112527   3.483   5.408   1.094
 3876SOL    HW212528   3.644   5.385   1.094
 3877SOL     OW12529   6.513   2.508   1.193
 3877SOL    HW112530   6.457   2.473   1.118
 3877SOL    HW212531   6.592   2.448   1.206
 3878SOL     OW12532   4.740   6.370   4.350
 3878SOL    HW112533   4.752   6.271   4.345
 3878SOL    HW212534   4.828   6.413   4.369
 3879SOL     OW12535   5.923   5.401   1.217
 3879SOL    HW112536   5.960   5.464   1.285
 3879SOL    HW212537   5.966   5.419   1.128
 3880SOL     OW12538   5.166   3.874   4.730
 3880SOL    HW112539   5.150   3.967   4.763
 3880SOL    HW212540   5.238   3.875   4.661
 3881SOL     OW12541   1.405   3.303   1.723
 3881SOL    HW112542   1.402   3.204   1.716
 3881SOL    HW212543   1.493   3.336   1.687
 3882SOL     OW12544   0.244   1.025   6.128
 3882SOL    HW112545   0.246   0.926   6.145
 3882SOL    HW212546   0.288   1.073   6.204
 3883SOL     OW12547   4.054   1.520   2.129
 3883SOL    HW112548   3.994   1.496   2.205
 3883SOL    HW212549   4.004   1.511   2.043
 3884SOL     OW12550   0.669   5.995   2.254
 3884SOL    HW112551   0.685   6.014   2.351
 3884SOL    HW212552   0.757   5.996   2.205
 3885SOL     OW12553   6.660   5.401   2.861
 3885SOL    HW112554   6.738   5.463   2.867
 3885SOL    HW212555   6.575   5.454   2.867
 3886SOL     OW12556   4.388   5.592   5.470
 3886SOL    HW112557   4.440   5.511   5.496
 3886SOL    HW212558   4.394   5.661   5.542
 3887SOL     OW12559   0.982   0.054   0.213
 3887SOL    HW112560   0.907   0.079   0.152
 3887SOL    HW212561   0.947   0.042   0.306
 3888SOL     OW12562   6.837   6.929   5.026
 3888SOL    HW112563   6.884   6.895   5.107
 3888SOL    HW212564   6.879   6.889   4.944
 3889SOL     OW12565   6.591   3.568   0.509
 3889SOL    HW112566   6.660   3.530   0.448
 3889SOL    HW212567   6.516   3.504   0.520
 3890SOL     OW12568   6.516   4.490   3.594
 3890SOL    HW112569   6.519   4.590   3.592
 3890SOL    HW212570   6.556   4.455   3.509
 3891SOL     OW12571   5.333   3.987   4.370
 3891SOL    HW112572   5.397   3.919   4.406
 3891SOL    HW212573   5.267   4.012   4.441
 3892SOL     OW12574   0.420   2.303   1.221
 3892SOL    HW112575   0.459   2.356   1.146
 3892SOL    HW212576   0.382   2.365   1.290
 3893SOL     OW12577   4.423   3.220   0.390
 3893SOL    HW112578   4.494   3.154   0.414
 3893SOL    HW212579   4.352   3.176   0.336
 3894SOL     OW12580   4.508   1.200   0.072
 3894SOL    HW112581   4.452   1.117   0.071
 3894SOL    HW212582   4.605   1.175   0.072
 3895SOL     OW12583   0.864   0.420   5.762
 3895SOL    HW112584   0.776   0.411   5.808
 3895SOL    HW212585   0.852   0.475   5.679
 3896SOL     OW12586   0.391   1.353   5.998
 3896SOL    HW112587   0.440   1.273   6.033
 3896SOL    HW212588   0.439   1.436   6.024
 3897SOL     OW12589   3.725   5.471   2.783
 3897SOL    HW112590   3.672   5.519   2.853
 3897SOL    HW212591   3.662   5.429   2.717
 3898SOL     OW12592   2.870   2.725   5.958
 3898SOL    HW112593   2.908   2.726   5.865
 3898SOL    HW212594   2.936   2.768   6.021
 3899SOL     OW12595   4.615   6.840   5.159
 3899SOL    HW112596   4.666   6.926   5.155
 3899SOL    HW212597   4.526   6.855   5.202
 3900SOL     OW12598   5.040   3.205   3.690
 3900SOL    HW112599   4.996   3.161   3.611
 3900SOL    HW212600   4.982   3.193   3.771
 3901SOL     OW12601   3.152   0.739   6.025
 3901SOL    HW112602   3.225   0.679   5.991
 3901SOL    HW212603   3.145   0.729   6.124
 3902SOL     OW12604   6.021   2.955   2.129
 3902SOL    HW112605   6.006   2.896   2.049
 3902SOL    HW212606   5.961   3.035   2.123
 3903SOL     OW12607   3.700   5.652   0.389
 3903SOL    HW112608   3.721   5.568   0.439
 3903SOL    HW212609   3.785   5.694   0.357
 3904SOL     OW12610   2.126   1.248   6.025
 3904SOL    HW112611   2.076   1.299   5.956
 3904SOL    HW212612   2.192   1.308   6.071
 3905SOL     OW12613   6.998   0.120   6.813
 3905SOL    HW112614   6.995   0.046   6.881
 3905SOL    HW212615   7.002   0.208   6.860
 3906SOL     OW12616   5.741   6.069   5.327
 3906SOL    HW112617   5.687   6.145   5.363
 3906SOL    HW212618   5.761   6.004   5.401
 3907SOL     OW12619   5.468   0.908   3.545
 3907SOL    HW112620   5.516   0.921   3.458
 3907SOL    HW212621   5.512   0.963   3.616
 3908SOL     OW12622   0.798   2.427   0.078
 3908SOL    HW112623   0.817   2.504   0.139
 3908SOL    HW212624   0.769   2.461   7.008
 3909SOL     OW12625   6.382   5.830   5.762
 3909SOL    HW112626   6.481   5.813   5.758
 3909SOL    HW212627   6.337   5.780   5.688
 3910SOL     OW12628   3.467   3.838   2.967
 3910SOL    HW112629   3.392   3.811   2.907
 3910SOL    HW212630   3.477   3.772   3.041
 3911SOL     OW12631   5.023   1.658   5.142
 3911SOL    HW112632   5.088   1.730   5.166
 3911SOL    HW212633   4.948   1.656   5.208
 3912SOL     OW12634   5.227   0.947   5.316
 3912SOL    HW112635   5.177   0.905   5.241
 3912SOL    HW212636   5.316   0.978   5.284
 3913SOL     OW12637   2.605   6.478   6.639
 3913SOL    HW112638   2.700   6.510   6.641
 3913SOL    HW212639   2.546   6.555   6.614
 3914SOL     OW12640   2.725   0.871   1.342
 3914SOL    HW112641   2.788   0.833   1.274
 3914SOL    HW212642   2.667   0.940   1.298
 3915SOL     OW12643   4.782   5.470   1.572
 3915SOL    HW112644   4.809   5.435   1.483
 3915SOL    HW212645   4.804   5.403   1.643
 3916SOL     OW12646   1.293   0.631   4.314
 3916SOL    HW112647   1.352   0.554   4.340
 3916SOL    HW212648   1.335   0.716   4.346
 3917SOL     OW12649   6.693   6.243   0.196
 3917SOL    HW112650   6.595   6.239   0.215
 3917SOL    HW212651   6.727   6.335   0.213
 3918SOL     OW12652   5.014   6.243   1.561
 3918SOL    HW112653   5.088   6.219   1.623
 3918SOL    HW212654   4.987   6.162   1.508
 3919SOL     OW12655   2.977   6.390   6.546
 3919SOL    HW112656   3.033   6.362   6.625
 3919SOL    HW212657   2.970   6.314   6.482
 3920SOL     OW12658   3.264   3.153   0.888
 3920SOL    HW112659   3.303   3.068   0.854
 3920SOL    HW212660   3.314   3.183   0.969
 3921SOL     OW12661   0.153   3.627   1.655
 3921SOL    HW112662   0.091   3.687   1.706
 3921SOL    HW212663   0.241   3.623   1.702
 3922SOL     OW12664   6.330   3.093   1.932
 3922SOL    HW112665   6.392   3.073   1.857
 3922SOL    HW212666   6.237   3.106   1.896
 3923SOL     OW12667   6.637   0.871   6.936
 3923SOL    HW112668   6.622   0.804   6.864
 3923SOL    HW212669   6.707   0.836   6.999
 3924SOL     OW12670   0.109   4.966   3.693
 3924SOL    HW112671   0.024   4.918   3.669
 3924SOL    HW212672   0.090   5.063   3.703
 3925SOL     OW12673   3.003   5.293   1.035
 3925SOL    HW112674   3.096   5.331   1.041
 3925SOL    HW212675   2.950   5.323   1.114
 3926SOL     OW12676   6.877   5.561   2.857
 3926SOL    HW112677   6.893   5.660   2.855
 3926SOL    HW212678   6.931   5.520   2.932
 3927SOL     OW12679   6.430   2.570   3.848
 3927SOL    HW112680   6.522   2.553   3.811
 3927SOL    HW212681   6.388   2.647   3.799
 3928SOL     OW12682   3.917   5.661   6.058
 3928SOL    HW112683   3.909   5.564   6.081
 3928SOL    HW212684   3.924   5.714   6.142
 3929SOL     OW12685   0.211   0.966   5.126
 3929SOL    HW112686   0.114   0.988   5.112
 3929SOL    HW212687   0.257   1.042   5.171
 3930SOL     OW12688   2.572   1.978   3.788
 3930SOL    HW112689   2.488   2.001   3.739
 3930SOL    HW212690   2.560   1.996   3.885
 3931SOL     OW12691   1.184   0.805   1.857
 3931SOL    HW112692   1.248   0.874   1.822
 3931SOL    HW212693   1.108   0.851   1.903
 3932SOL     OW12694   1.674   4.553   3.474
 3932SOL    HW112695   1.613   4.483   3.436
 3932SOL    HW212696   1.630   4.595   3.554
 3933SOL     OW12697   2.264   6.445   0.084
 3933SOL    HW112698   2.333   6.417   0.150
 3933SOL    HW212699   2.308   6.480   0.001
 3934SOL     OW12700   6.811   1.139   0.019
 3934SOL    HW112701   6.833   1.183   0.106
 3934SOL    HW212702   6.719   1.102   0.022
 3935SOL     OW12703   2.611   6.531   0.049
 3935SOL    HW112704   2.687   6.586   0.014
 3935SOL    HW212705   2.536   6.533   7.003
 3936SOL     OW12706   6.927   5.225   5.651
 3936SOL    HW112707   6.939   5.220   5.750
 3936SOL    HW212708   6.929   5.320   5.622
 3937SOL     OW12709   6.792   1.992   3.518
 3937SOL    HW112710   6.778   1.895   3.497
 3937SOL    HW212711   6.891   2.010   3.525
 3938SOL     OW12712   0.399   1.846   3.683
 3938SOL    HW112713   0.360   1.938   3.673
 3938SOL    HW212714   0.327   1.781   3.705
 3939SOL     OW12715   2.622   2.386   2.496
 3939SOL    HW112716   2.696   2.354   2.437
 3939SOL    HW212717   2.579   2.467   2.455
 3940SOL     OW12718   5.129   5.197   0.997
 3940SOL    HW112719   5.038   5.157   0.988
 3940SOL    HW212720   5.186   5.138   1.055
 3941SOL     OW12721   4.884   3.211   5.790
 3941SOL    HW112722   4.873   3.191   5.887
 3941SOL    HW212723   4.904   3.308   5.778
 3942SOL     OW12724   0.381   6.984   6.620
 3942SOL    HW112725   0.315   0.039   6.629
 3942SOL    HW212726   0.449   6.992   6.693
 3943SOL     OW12727   6.809   3.357   2.785
 3943SOL    HW112728   6.859   3.328   2.867
 3943SOL    HW212729   6.778   3.277   2.734
 3944SOL     OW12730   4.712   2.760   5.004
 3944SOL    HW112731   4.681   2.671   5.039
 3944SOL    HW212732   4.634   2.810   4.966
 3945SOL     OW12733   0.073   1.802   0.557
 3945SOL    HW112734   0.071   1.862   0.637
 3945SOL    HW212735   7.000   1.790   0.522
 3946SOL     OW12736   5.660   5.483   5.560
 3946SOL    HW112737   5.589   5.536   5.607
 3946SOL    HW212738   5.695   5.413   5.622
 3947SOL     OW12739   5.495   6.209   0.851
 3947SOL    HW112740   5.471   6.302   0.824
 3947SOL    HW212741   5.429   6.175   0.918
 3948SOL     OW12742   1.527   5.719   2.481
 3948SOL    HW112743   1.586   5.640   2.468
 3948SOL    HW212744   1.541   5.783   2.406
 3949SOL     OW12745   4.329   0.441   3.254
 3949SOL    HW112746   4.352   0.512   3.320
 3949SOL    HW212747   4.411   0.387   3.233
 3950SOL     OW12748   1.979   3.977   0.918
 3950SOL    HW112749   2.008   4.022   0.834
 3950SOL    HW212750   1.888   4.010   0.944
 3951SOL     OW12751   5.307   6.730   0.952
 3951SOL    HW112752   5.339   6.742   1.046
 3951SOL    HW212753   5.214   6.694   0.953
 3952SOL     OW12754   6.302   2.664   2.841
 3952SOL    HW112755   6.242   2.744   2.831
 3952SOL    HW212756   6.374   2.685   2.907
 3953SOL     OW12757   3.749   4.766   1.591
 3953SOL    HW112758   3.734   4.744   1.495
 3953SOL    HW212759   3.834   4.724   1.623
 3954SOL     OW12760   4.224   5.086   4.922
 3954SOL    HW112761   4.315   5.103   4.884
 3954SOL    HW212762   4.219   4.992   4.957
 3955SOL     OW12763   3.053   6.004   6.759
 3955SOL    HW112764   3.080   6.100   6.756
 3955SOL    HW212765   3.131   5.947   6.732
 3956SOL     OW12766   0.275   1.122   3.263
 3956SOL    HW112767   0.246   1.151   3.354
 3956SOL    HW212768   0.195   1.093   3.210
 3957SOL     OW12769   4.799   6.081   4.398
 3957SOL    HW112770   4.724   6.037   4.349
 3957SOL    HW212771   4.881   6.024   4.392
 3958SOL     OW12772   6.083   1.205   4.928
 3958SOL    HW112773   6.151   1.143   4.889
 3958SOL    HW212774   6.061   1.276   4.862
 3959SOL     OW12775   4.313   6.836   0.728
 3959SOL    HW112776   4.257   6.788   0.796
 3959SOL    HW212777   4.269   6.922   0.704
 3960SOL     OW12778   5.044   1.982   6.444
 3960SOL    HW112779   4.978   2.056   6.452
 3960SOL    HW212780   5.133   2.014   6.477
 3961SOL     OW12781   5.471   1.728   2.497
 3961SOL    HW112782   5.455   1.824   2.520
 3961SOL    HW212783   5.533   1.722   2.419
 3962SOL     OW12784   3.087   3.996   0.311
 3962SOL    HW112785   3.137   4.072   0.268
 3962SOL    HW212786   3.139   3.911   0.299
 3963SOL     OW12787   4.934   4.948   3.858
 3963SOL    HW112788   4.854   4.999   3.824
 3963SOL    HW212789   4.978   4.901   3.782
 3964SOL     OW12790   4.443   4.960   4.078
 3964SOL    HW112791   4.490   5.007   4.153
 3964SOL    HW212792   4.345   4.981   4.081
 3965SOL     OW12793   4.982   2.842   4.966
 3965SOL    HW112794   4.985   2.939   4.992
 3965SOL    HW212795   4.893   2.804   4.993
 3966SOL     OW12796   5.002   6.069   6.419
 3966SOL    HW112797   4.952   6.099   6.500
 3966SOL    HW212798   5.094   6.038   6.445
 3967SOL     OW12799   2.150   3.761   2.449
 3967SOL    HW112800   2.181   3.699   2.521
 3967SOL    HW212801   2.159   3.715   2.360
 3968SOL     OW12802   4.825   0.426   1.024
 3968SOL    HW112803   4.827   0.411   0.925
 3968SOL    HW212804   4.808   0.339   1.070
 3969SOL     OW12805   1.581   4.598   2.268
 3969SOL    HW112806   1.606   4.510   2.307
 3969SOL    HW212807   1.526   4.583   2.185
 3970SOL     OW12808   6.127   6.253   3.364
 3970SOL    HW112809   6.043   6.306   3.363
 3970SOL    HW212810   6.140   6.208   3.276
 3971SOL     OW12811   3.260   5.441   3.453
 3971SOL    HW112812   3.334   5.422   3.388
 3971SOL    HW212813   3.172   5.425   3.409
 3972SOL     OW12814   1.328   4.043   1.077
 3972SOL    HW112815   1.296   4.090   0.995
 3972SOL    HW212816   1.358   3.951   1.053
 3973SOL     OW12817   1.513   5.352   6.686
 3973SOL    HW112818   1.495   5.360   6.588
 3973SOL    HW212819   1.430   5.373   6.737
 3974SOL     OW12820   1.959   0.461   5.078
 3974SOL    HW112821   1.943   0.483   4.982
 3974SOL    HW212822   1.948   0.543   5.134
 3975SOL     OW12823   4.922   1.309   5.532
 3975SOL    HW112824   4.941   1.284   5.437
 3975SOL    HW212825   4.842   1.369   5.536
 3976SOL     OW12826   1.578   5.914   2.012
 3976SOL    HW112827   1.617   5.823   2.006
 3976SOL    HW212828   1.644   5.981   1.978
 3977SOL     OW12829   2.523   3.778   5.542
 3977SOL    HW112830   2.486   3.789   5.634
 3977SOL    HW212831   2.468   3.712   5.491
 3978SOL     OW12832   5.774   5.042   4.875
 3978SOL    HW112833   5.749   5.067   4.969
 3978SOL    HW212834   5.800   4.945   4.872
 3979SOL     OW12835   2.979   0.400   1.011
 3979SOL    HW112836   3.039   0.328   0.975
 3979SOL    HW212837   2.892   0.397   0.963
 3980SOL     OW12838   5.718   5.906   0.239
 3980SOL    HW112839   5.681   5.816   0.260
 3980SOL    HW212840   5.759   5.946   0.321
 3981SOL     OW12841   2.931   0.772   0.563
 3981SOL    HW112842   2.866   0.697   0.571
 3981SOL    HW212843   2.927   0.811   0.471
 3982SOL     OW12844   2.395   0.409   3.198
 3982SOL    HW112845   2.336   0.389   3.120
 3982SOL    HW212846   2.415   0.324   3.247
 3983SOL     OW12847   5.125   4.793   4.061
 3983SOL    HW112848   5.031   4.783   4.027
 3983SOL    HW212849   5.168   4.703   4.064
 3984SOL     OW12850   6.568   1.474   3.085
 3984SOL    HW112851   6.585   1.388   3.037
 3984SOL    HW212852   6.479   1.510   3.058
 3985SOL     OW12853   2.945   4.182   6.368
 3985SOL    HW112854   2.898   4.165   6.282
 3985SOL    HW212855   2.914   4.116   6.436
 3986SOL     OW12856   4.897   1.875   2.472
 3986SOL    HW112857   4.956   1.812   2.523
 3986SOL    HW212858   4.867   1.948   2.533
 3987SOL     OW12859   3.549   5.027   3.626
 3987SOL    HW112860   3.613   4.961   3.665
 3987SOL    HW212861   3.545   5.108   3.685
 3988SOL     OW12862   3.593   4.322   6.778
 3988SOL    HW112863   3.579   4.344   6.681
 3988SOL    HW212864   3.615   4.224   6.787
 3989SOL     OW12865   6.622   3.041   6.866
 3989SOL    HW112866   6.716   3.018   6.840
 3989SOL    HW212867   6.560   2.970   6.833
 3990SOL     OW12868   4.472   2.240   3.050
 3990SOL    HW112869   4.430   2.249   2.960
 3990SOL    HW212870   4.413   2.282   3.119
 3991SOL     OW12871   5.952   1.055   2.677
 3991SOL    HW112872   5.968   0.996   2.598
 3991SOL    HW212873   5.929   1.147   2.645
 3992SOL     OW12874   2.971   1.885   0.123
 3992SOL    HW112875   2.932   1.821   0.190
 3992SOL    HW212876   3.060   1.917   0.157
 3993SOL     OW12877   1.551   2.022   2.417
 3993SOL    HW112878   1.637   2.007   2.368
 3993SOL    HW212879   1.509   2.107   2.385
 3994SOL     OW12880   1.961   0.292   5.677
 3994SOL    HW112881   1.926   0.384   5.658
 3994SOL    HW212882   2.003   0.255   5.594
 3995SOL     OW12883   2.513   3.713   5.892
 3995SOL    HW112884   2.495   3.647   5.965
 3995SOL    HW212885   2.580   3.676   5.829
 3996SOL     OW12886   1.273   0.044   4.562
 3996SOL    HW112887   1.221   0.125   4.535
 3996SOL    HW212888   1.364   0.072   4.593
 3997SOL     OW12889   5.083   1.550   3.485
 3997SOL    HW112890   5.041   1.640   3.476
 3997SOL    HW212891   5.108   1.516   3.394
 3998SOL     OW12892   4.133   1.331   3.631
 3998SOL    HW112893   4.225   1.298   3.651
 3998SOL    HW212894   4.073   1.313   3.709
 3999SOL     OW12895   5.382   3.306   3.936
 3999SOL    HW112896   5.434   3.313   4.021
 3999SOL    HW212897   5.285   3.325   3.954
 4000SOL     OW12898   3.433   6.610   2.986
 4000SOL    HW112899   3.500   6.630   3.058
 4000SOL    HW212900   3.429   6.687   2.922
 4001SOL     OW12901   2.217   1.750   3.368
 4001SOL    HW112902   2.273   1.807   3.308
 4001SOL    HW212903   2.205   1.659   3.327
 4002SOL     OW12904   3.095   4.315   0.095
 4002SOL    HW112905   3.149   4.308   0.178
 4002SOL    HW212906   3.106   4.232   0.040
 4003SOL     OW12907   3.592   6.954   4.368
 4003SOL    HW112908   3.495   6.954   4.394
 4003SOL    HW212909   3.601   6.960   4.269
 4004SOL     OW12910   5.243   1.985   3.794
 4004SOL    HW112911   5.164   2.009   3.737
 4004SOL    HW212912   5.238   2.032   3.882
 4005SOL     OW12913   5.091   5.027   6.725
 4005SOL    HW112914   5.131   5.115   6.698
 4005SOL    HW212915   5.071   5.028   6.823
 4006SOL     OW12916   4.542   5.510   2.708
 4006SOL    HW112917   4.604   5.516   2.786
 4006SOL    HW212918   4.566   5.430   2.652
 4007SOL     OW12919   6.898   2.704   0.206
 4007SOL    HW112920   6.967   2.777   0.204
 4007SOL    HW212921   6.807   2.745   0.211
 4008SOL     OW12922   3.122   1.610   3.932
 4008SOL    HW112923   3.126   1.702   3.893
 4008SOL    HW212924   3.166   1.545   3.870
 4009SOL     OW12925   4.305   3.276   1.505
 4009SOL    HW112926   4.349   3.227   1.580
 4009SOL    HW212927   4.366   3.278   1.426
 4010SOL     OW12928   2.290   3.491   1.182
 4010SOL    HW112929   2.337   3.579   1.194
 4010SOL    HW212930   2.229   3.475   1.260
 4011SOL     OW12931   0.765   1.381   1.692
 4011SOL    HW112932   0.787   1.378   1.790
 4011SOL    HW212933   0.674   1.343   1.677
 4012SOL     OW12934   6.131   4.620   1.970
 4012SOL    HW112935   6.035   4.592   1.968
 4012SOL    HW212936   6.167   4.609   2.063
 4013SOL     OW12937   2.963   1.543   5.395
 4013SOL    HW112938   2.888   1.491   5.436
 4013SOL    HW212939   3.024   1.481   5.346
 4014SOL     OW12940   5.214   6.600   2.591
 4014SOL    HW112941   5.302   6.602   2.543
 4014SOL    HW212942   5.173   6.509   2.582
 4015SOL     OW12943   5.096   4.665   6.387
 4015SOL    HW112944   5.138   4.721   6.458
 4015SOL    HW212945   5.138   4.686   6.298
 4016SOL     OW12946   2.505   5.933   6.110
 4016SOL    HW112947   2.452   5.892   6.035
 4016SOL    HW212948   2.556   5.862   6.157
 4017SOL     OW12949   0.415   6.324   0.591
 4017SOL    HW112950   0.426   6.312   0.492
 4017SOL    HW212951   0.330   6.374   0.609
 4018SOL     OW12952   4.098   6.297   2.602
 4018SOL    HW112953   4.103   6.203   2.638
 4018SOL    HW212954   4.183   6.345   2.623
 4019SOL     OW12955   5.341   4.508   3.458
 4019SOL    HW112956   5.395   4.502   3.542
 4019SOL    HW212957   5.391   4.464   3.383
 4020SOL     OW12958   4.706   1.558   5.039
 4020SOL    HW112959   4.793   1.552   4.989
 4020SOL    HW212960   4.667   1.466   5.049
 4021SOL     OW12961   4.118   4.940   6.063
 4021SOL    HW112962   4.127   4.996   5.980
 4021SOL    HW212963   4.084   4.849   6.038
 4022SOL     OW12964   4.828   1.439   6.951
 4022SOL    HW112965   4.860   1.351   6.918
 4022SOL    HW212966   4.851   1.449   0.028
 4023SOL     OW12967   6.414   1.601   4.387
 4023SOL    HW112968   6.393   1.691   4.350
 4023SOL    HW212969   6.502   1.570   4.351
 4024SOL     OW12970   3.045   6.844   3.402
 4024SOL    HW112971   3.137   6.832   3.441
 4024SOL    HW212972   3.031   6.778   3.329
 4025SOL     OW12973   0.455   4.342   3.104
 4025SOL    HW112974   0.498   4.256   3.075
 4025SOL    HW212975   0.523   4.415   3.102
 4026SOL     OW12976   5.791   5.876   4.001
 4026SOL    HW112977   5.803   5.785   4.042
 4026SOL    HW212978   5.839   5.880   3.914
 4027SOL     OW12979   3.590   4.236   1.836
 4027SOL    HW112980   3.560   4.317   1.786
 4027SOL    HW212981   3.674   4.201   1.794
 4028SOL     OW12982   1.520   2.035   4.261
 4028SOL    HW112983   1.603   1.979   4.257
 4028SOL    HW212984   1.506   2.067   4.355
 4029SOL     OW12985   2.709   4.162   5.989
 4029SOL    HW112986   2.676   4.226   6.058
 4029SOL    HW212987   2.659   4.177   5.904
 4030SOL     OW12988   0.790   2.517   5.757
 4030SOL    HW112989   0.804   2.609   5.795
 4030SOL    HW212990   0.867   2.494   5.697
 4031SOL     OW12991   4.821   5.649   3.768
 4031SOL    HW112992   4.824   5.747   3.747
 4031SOL    HW212993   4.762   5.634   3.847
 4032SOL     OW12994   6.500   6.148   4.139
 4032SOL    HW112995   6.499   6.244   4.108
 4032SOL    HW212996   6.578   6.101   4.098
 4033SOL     OW12997   3.268   3.274   4.569
 4033SOL    HW112998   3.354   3.297   4.523
 4033SOL    HW212999   3.194   3.327   4.529
 4034SOL     OW13000   6.019   1.372   4.712
 4034SOL    HW113001   6.043   1.328   4.625
 4034SOL    HW213002   5.919   1.374   4.721
 4035SOL     OW13003   0.407   4.433   0.095
 4035SOL    HW113004   0.479   4.369   0.070
 4035SOL    HW213005   0.438   4.491   0.170
 4036SOL     OW13006   5.968   6.266   2.601
 4036SOL    HW113007   5.893   6.232   2.544
 4036SOL    HW213008   5.970   6.214   2.687
 4037SOL     OW13009   1.464   3.378   6.188
 4037SOL    HW113010   1.510   3.295   6.218
 4037SOL    HW213011   1.443   3.371   6.090
 4038SOL     OW13012   4.702   4.633   2.724
 4038SOL    HW113013   4.757   4.650   2.806
 4038SOL    HW213014   4.707   4.536   2.700
 4039SOL     OW13015   5.443   5.963   0.142
 4039SOL    HW113016   5.356   5.945   0.189
 4039SOL    HW213017   5.518   5.921   0.193
 4040SOL     OW13018   3.006   0.527   1.262
 4040SOL    HW113019   2.980   0.473   1.182
 4040SOL    HW213020   3.106   0.524   1.273
 4041SOL     OW13021   0.883   6.067   2.786
 4041SOL    HW113022   0.931   6.153   2.771
 4041SOL    HW213023   0.935   6.010   2.850
 4042SOL     OW13024   5.978   5.247   2.447
 4042SOL    HW113025   6.016   5.233   2.355
 4042SOL    HW213026   5.952   5.158   2.485
 4043SOL     OW13027   4.933   2.108   2.253
 4043SOL    HW113028   4.853   2.055   2.224
 4043SOL    HW213029   4.918   2.141   2.347
 4044SOL     OW13030   5.790   0.640   3.128
 4044SOL    HW113031   5.781   0.727   3.081
 4044SOL    HW213032   5.819   0.655   3.222
 4045SOL     OW13033   2.352   4.759   6.710
 4045SOL    HW113034   2.272   4.800   6.665
 4045SOL    HW213035   2.335   4.662   6.725
 4046SOL     OW13036   0.845   1.709   2.165
 4046SOL    HW113037   0.828   1.731   2.261
 4046SOL    HW213038   0.760   1.720   2.113
 4047SOL     OW13039   2.708   3.697   1.628
 4047SOL    HW113040   2.609   3.705   1.640
 4047SOL    HW213041   2.736   3.602   1.644
 4048SOL     OW13042   5.722   0.822   1.303
 4048SOL    HW113043   5.637   0.870   1.324
 4048SOL    HW213044   5.704   0.724   1.295
 4049SOL     OW13045   6.015   6.855   5.852
 4049SOL    HW113046   5.987   6.786   5.786
 4049SOL    HW213047   5.958   6.936   5.842
 4050SOL     OW13048   1.886   6.488   0.157
 4050SOL    HW113049   1.964   6.546   0.135
 4050SOL    HW213050   1.831   6.531   0.229
 4051SOL     OW13051   2.910   4.802   0.474
 4051SOL    HW113052   2.824   4.766   0.436
 4051SOL    HW213053   2.964   4.843   0.401
 4052SOL     OW13054   0.672   0.519   0.076
 4052SOL    HW113055   0.630   0.458   0.008
 4052SOL    HW213056   0.721   0.465   0.144
 4053SOL     OW13057   3.246   5.166   3.961
 4053SOL    HW113058   3.332   5.122   3.934
 4053SOL    HW213059   3.261   5.263   3.979
 4054SOL     OW13060   2.989   2.540   0.503
 4054SOL    HW113061   2.901   2.533   0.550
 4054SOL    HW213062   2.983   2.612   0.433
 4055SOL     OW13063   2.736   2.447   6.375
 4055SOL    HW113064   2.724   2.442   6.276
 4055SOL    HW213065   2.712   2.359   6.416
 4056SOL     OW13066   3.763   3.208   6.842
 4056SOL    HW113067   3.721   3.276   6.903
 4056SOL    HW213068   3.749   3.235   6.747
 4057SOL     OW13069   4.817   3.384   0.164
 4057SOL    HW113070   4.747   3.383   0.093
 4057SOL    HW213071   4.908   3.384   0.122
 4058SOL     OW13072   2.549   1.405   4.755
 4058SOL    HW113073   2.464   1.363   4.723
 4058SOL    HW213074   2.535   1.441   4.847
 4059SOL     OW13075   1.990   2.070   4.705
 4059SOL    HW113076   2.056   2.007   4.666
 4059SOL    HW213077   2.038   2.151   4.739
 4060SOL     OW13078   4.102   4.755   4.112
 4060SOL    HW113079   4.016   4.704   4.110
 4060SOL    HW213080   4.155   4.736   4.029
 4061SOL     OW13081   3.495   4.433   1.712
 4061SOL    HW113082   3.495   4.510   1.776
 4061SOL    HW213083   3.466   4.464   1.622
 4062SOL     OW13084   3.284   1.400   2.493
 4062SOL    HW113085   3.209   1.448   2.539
 4062SOL    HW213086   3.278   1.302   2.512
 4063SOL     OW13087   3.237   6.041   5.803
 4063SOL    HW113088   3.235   5.960   5.862
 4063SOL    HW213089   3.234   6.013   5.707
 4064SOL     OW13090   0.976   0.323   2.812
 4064SOL    HW113091   1.054   0.309   2.873
 4064SOL    HW213092   0.934   0.412   2.832
 4065SOL     OW13093   0.161   6.703   1.000
 4065SOL    HW113094   0.218   6.741   1.073
 4065SOL    HW213095   0.068   6.691   1.034
 4066SOL     OW13096   5.483   3.974   1.804
 4066SOL    HW113097   5.459   4.036   1.730
 4066SOL    HW213098   5.463   4.017   1.892
 4067SOL     OW13099   5.460   1.601   2.834
 4067SOL    HW113100   5.458   1.701   2.832
 4067SOL    HW213101   5.537   1.569   2.779
 4068SOL     OW13102   5.392   0.516   4.732
 4068SOL    HW113103   5.478   0.566   4.744
 4068SOL    HW213104   5.406   0.440   4.669
 4069SOL     OW13105   5.518   4.969   0.636
 4069SOL    HW113106   5.559   4.878   0.637
 4069SOL    HW213107   5.563   5.027   0.704
 4070SOL     OW13108   2.137   4.311   3.040
 4070SOL    HW113109   2.214   4.352   2.992
 4070SOL    HW213110   2.068   4.282   2.974
 4071SOL     OW13111   1.554   0.417   4.964
 4071SOL    HW113112   1.568   0.510   4.999
 4071SOL    HW213113   1.626   0.357   5.000
 4072SOL     OW13114   1.550   0.100   4.538
 4072SOL    HW113115   1.634   0.148   4.511
 4072SOL    HW213116   1.572   0.007   4.564
 4073SOL     OW13117   2.511   5.624   6.078
 4073SOL    HW113118   2.575   5.652   6.149
 4073SOL    HW213119   2.556   5.559   6.017
 4074SOL     OW13120   0.836   2.248   0.987
 4074SOL    HW113121   0.807   2.280   0.897
 4074SOL    HW213122   0.918   2.190   0.977
 4075SOL     OW13123   4.429   1.541   2.982
 4075SOL    HW113124   4.338   1.559   3.019
 4075SOL    HW213125   4.487   1.500   3.053
 4076SOL     OW13126   2.145   3.347   4.970
 4076SOL    HW113127   2.103   3.437   4.965
 4076SOL    HW213128   2.205   3.342   5.050
 4077SOL     OW13129   3.731   0.295   0.173
 4077SOL    HW113130   3.663   0.332   0.236
 4077SOL    HW213131   3.777   0.218   0.215
 4078SOL     OW13132   6.205   4.093   1.496
 4078SOL    HW113133   6.220   4.024   1.426
 4078SOL    HW213134   6.165   4.175   1.454
 4079SOL     OW13135   0.750   1.216   4.046
 4079SOL    HW113136   0.694   1.241   4.125
 4079SOL    HW213137   0.700   1.150   3.990
 4080SOL     OW13138   3.277   3.614   1.460
 4080SOL    HW113139   3.211   3.602   1.386
 4080SOL    HW213140   3.246   3.562   1.540
 4081SOL     OW13141   1.920   1.350   5.021
 4081SOL    HW113142   1.876   1.432   5.057
 4081SOL    HW213143   2.018   1.354   5.041
 4082SOL     OW13144   0.862   2.902   5.111
 4082SOL    HW113145   0.806   2.962   5.055
 4082SOL    HW213146   0.808   2.868   5.188
 4083SOL     OW13147   5.865   4.768   3.443
 4083SOL    HW113148   5.883   4.825   3.523
 4083SOL    HW213149   5.798   4.698   3.467
 4084SOL     OW13150   4.345   1.884   3.445
 4084SOL    HW113151   4.315   1.924   3.358
 4084SOL    HW213152   4.369   1.788   3.431
 4085SOL     OW13153   3.151   5.764   1.806
 4085SOL    HW113154   3.134   5.781   1.709
 4085SOL    HW213155   3.235   5.810   1.833
 4086SOL     OW13156   6.333   5.294   6.343
 4086SOL    HW113157   6.244   5.252   6.357
 4086SOL    HW213158   6.331   5.353   6.262
 4087SOL     OW13159   2.463   6.832   2.390
 4087SOL    HW113160   2.436   6.928   2.380
 4087SOL    HW213161   2.448   6.802   2.484
 4088SOL     OW13162   6.932   1.173   5.333
 4088SOL    HW113163   6.990   1.252   5.311
 4088SOL    HW213164   6.837   1.203   5.340
 4089SOL     OW13165   0.072   6.509   3.658
 4089SOL    HW113166   6.993   6.512   3.673
 4089SOL    HW213167   0.118   6.488   3.745
 4090SOL     OW13168   2.353   6.723   5.180
 4090SOL    HW113169   2.394   6.656   5.242
 4090SOL    HW213170   2.424   6.786   5.148
 4091SOL     OW13171   2.060   5.508   1.155
 4091SOL    HW113172   1.971   5.513   1.201
 4091SOL    HW213173   2.047   5.485   1.059
 4092SOL     OW13174   4.909   3.215   4.353
 4092SOL    HW113175   4.988   3.264   4.316
 4092SOL    HW213176   4.865   3.270   4.423
 4093SOL     OW13177   5.431   5.798   2.857
 4093SOL    HW113178   5.421   5.829   2.952
 4093SOL    HW213179   5.464   5.704   2.856
 4094SOL     OW13180   0.357   5.534   6.691
 4094SOL    HW113181   0.373   5.614   6.748
 4094SOL    HW213182   0.424   5.463   6.712
 4095SOL     OW13183   0.466   4.596   0.290
 4095SOL    HW113184   0.529   4.673   0.299
 4095SOL    HW213185   0.396   4.602   0.361
 4096SOL     OW13186   1.761   1.689   6.860
 4096SOL    HW113187   1.778   1.759   6.790
 4096SOL    HW213188   1.663   1.683   6.878
 4097SOL     OW13189   6.978   4.693   5.413
 4097SOL    HW113190   6.980   4.742   5.326
 4097SOL    HW213191   0.039   4.636   5.422
 4098SOL     OW13192   2.488   4.960   2.689
 4098SOL    HW113193   2.478   4.872   2.736
 4098SOL    HW213194   2.559   5.014   2.733
 4099SOL     OW13195   4.704   4.123   6.142
 4099SOL    HW113196   4.709   4.221   6.157
 4099SOL    HW213197   4.638   4.083   6.206
 4100SOL     OW13198   1.550   0.484   3.901
 4100SOL    HW113199   1.561   0.496   3.999
 4100SOL    HW213200   1.482   0.413   3.883
 4101SOL     OW13201   6.428   0.548   0.145
 4101SOL    HW113202   6.489   0.602   0.204
 4101SOL    HW213203   6.481   0.506   0.072
 4102SOL     OW13204   1.722   0.402   0.068
 4102SOL    HW113205   1.735   0.304   0.053
 4102SOL    HW213206   1.624   0.423   0.071
 4103SOL     OW13207   1.195   6.916   2.026
 4103SOL    HW113208   1.284   6.909   1.982
 4103SOL    HW213209   1.206   6.936   2.123
 4104SOL     OW13210   0.297   5.419   3.216
 4104SOL    HW113211   0.245   5.494   3.258
 4104SOL    HW213212   0.257   5.397   3.127
 4105SOL     OW13213   4.614   1.321   0.798
 4105SOL    HW113214   4.697   1.333   0.743
 4105SOL    HW213215   4.635   1.340   0.894
 4106SOL     OW13216   0.051   1.969   3.574
 4106SOL    HW113217   0.100   2.025   3.641
 4106SOL    HW213218   0.111   1.897   3.540
 4107SOL     OW13219   0.241   6.212   6.148
 4107SOL    HW113220   0.202   6.297   6.184
 4107SOL    HW213221   0.325   6.191   6.198
 4108SOL     OW13222   0.259   5.399   3.827
 4108SOL    HW113223   0.260   5.419   3.925
 4108SOL    HW213224   0.177   5.437   3.785
 4109SOL     OW13225   6.142   5.677   3.432
 4109SOL    HW113226   6.140   5.765   3.385
 4109SOL    HW213227   6.200   5.683   3.513
 4110SOL     OW13228   5.055   3.445   0.002
 4110SOL    HW113229   5.036   3.442   6.924
 4110SOL    HW213230   5.141   3.398   0.021
 4111SOL     OW13231   6.805   3.760   5.354
 4111SOL    HW113232   6.837   3.805   5.271
 4111SOL    HW213233   6.707   3.745   5.349
 4112SOL     OW13234   4.339   0.045   4.933
 4112SOL    HW113235   4.350   0.029   4.836
 4112SOL    HW213236   4.289   6.989   4.975
 4113SOL     OW13237   4.688   4.193   4.591
 4113SOL    HW113238   4.589   4.194   4.602
 4113SOL    HW213239   4.716   4.270   4.533
 4114SOL     OW13240   6.190   1.303   3.371
 4114SOL    HW113241   6.248   1.349   3.438
 4114SOL    HW213242   6.247   1.251   3.308
 4115SOL     OW13243   2.758   5.252   3.715
 4115SOL    HW113244   2.831   5.193   3.681
 4115SOL    HW213245   2.688   5.197   3.761
 4116SOL     OW13246   5.956   2.784   3.361
 4116SOL    HW113247   5.868   2.819   3.331
 4116SOL    HW213248   5.956   2.684   3.355
 4117SOL     OW13249   1.100   2.510   2.097
 4117SOL    HW113250   1.183   2.464   2.130
 4117SOL    HW213251   1.126   2.590   2.044
 4118SOL     OW13252   6.626   6.013   6.421
 4118SOL    HW113253   6.555   6.082   6.408
 4118SOL    HW213254   6.708   6.056   6.459
 4119SOL     OW13255   1.985   1.281   3.045
 4119SOL    HW113256   1.922   1.215   3.085
 4119SOL    HW213257   1.934   1.356   3.005
 4120SOL     OW13258   1.833   1.226   6.375
 4120SOL    HW113259   1.745   1.238   6.419
 4120SOL    HW213260   1.836   1.279   6.290
 4121SOL     OW13261   0.042   0.060   2.702
 4121SOL    HW113262   0.096   0.030   2.624
 4121SOL    HW213263   0.101   0.113   2.764
 4122SOL     OW13264   0.711   5.356   4.314
 4122SOL    HW113265   0.692   5.351   4.412
 4122SOL    HW213266   0.795   5.306   4.293
 4123SOL     OW13267   3.758   4.965   2.529
 4123SOL    HW113268   3.796   5.058   2.529
 4123SOL    HW213269   3.736   4.939   2.623
 4124SOL     OW13270   6.343   6.589   0.699
 4124SOL    HW113271   6.404   6.566   0.775
 4124SOL    HW213272   6.358   6.684   0.672
 4125SOL     OW13273   5.500   2.219   1.926
 4125SOL    HW113274   5.440   2.291   1.962
 4125SOL    HW213275   5.593   2.234   1.958
 4126SOL     OW13276   1.284   2.713   2.086
 4126SOL    HW113277   1.223   2.788   2.109
 4126SOL    HW213278   1.333   2.683   2.168
 4127SOL     OW13279   3.478   2.068   4.269
 4127SOL    HW113280   3.541   2.107   4.336
 4127SOL    HW213281   3.478   1.968   4.278
 4128SOL     OW13282   0.242   3.285   1.402
 4128SOL    HW113283   0.342   3.291   1.406
 4128SOL    HW213284   0.204   3.300   1.493
 4129SOL     OW13285   2.898   2.953   0.944
 4129SOL    HW113286   2.923   3.049   0.961
 4129SOL    HW213287   2.893   2.937   0.846
 4130SOL     OW13288   6.005   3.059   1.442
 4130SOL    HW113289   6.030   2.983   1.502
 4130SOL    HW213290   6.054   3.142   1.469
 4131SOL     OW13291   4.808   0.678   1.907
 4131SOL    HW113292   4.713   0.680   1.937
 4131SOL    HW213293   4.867   0.660   1.985
 4132SOL     OW13294   6.495   3.948   4.635
 4132SOL    HW113295   6.409   3.995   4.656
 4132SOL    HW213296   6.571   4.011   4.649
 4133SOL     OW13297   6.246   6.750   1.733
 4133SOL    HW113298   6.165   6.748   1.674
 4133SOL    HW213299   6.298   6.665   1.720
 4134SOL     OW13300   2.456   2.814   1.481
 4134SOL    HW113301   2.537   2.797   1.425
 4134SOL    HW213302   2.376   2.777   1.435
 4135SOL     OW13303   7.002   1.639   2.816
 4135SOL    HW113304   7.015   1.620   2.913
 4135SOL    HW213305   0.038   1.576   2.762
 4136SOL     OW13306   0.988   4.174   1.802
 4136SOL    HW113307   0.960   4.193   1.708
 4136SOL    HW213308   0.920   4.114   1.845
 4137SOL     OW13309   1.660   2.935   0.673
 4137SOL    HW113310   1.718   2.976   0.743
 4137SOL    HW213311   1.716   2.908   0.594
 4138SOL     OW13312   4.464   6.365   1.498
 4138SOL    HW113313   4.488   6.455   1.537
 4138SOL    HW213314   4.482   6.365   1.400
 4139SOL     OW13315   1.680   1.953   3.131
 4139SOL    HW113316   1.627   1.888   3.186
 4139SOL    HW213317   1.714   2.026   3.191
 4140SOL     OW13318   2.651   2.464   4.259
 4140SOL    HW113319   2.723   2.410   4.303
 4140SOL    HW213320   2.609   2.525   4.326
 4141SOL     OW13321   4.015   6.954   6.823
 4141SOL    HW113322   4.019   6.872   6.880
 4141SOL    HW213323   4.012   6.927   6.727
 4142SOL     OW13324   0.125   4.165   2.802
 4142SOL    HW113325   0.142   4.245   2.859
 4142SOL    HW213326   0.209   4.141   2.753
 4143SOL     OW13327   5.654   3.460   0.754
 4143SOL    HW113328   5.562   3.495   0.733
 4143SOL    HW213329   5.649   3.398   0.832
 4144SOL     OW13330   5.773   2.000   0.460
 4144SOL    HW113331   5.721   2.076   0.421
 4144SOL    HW213332   5.870   2.015   0.445
 4145SOL     OW13333   0.459   6.616   0.296
 4145SOL    HW113334   0.382   6.633   0.358
 4145SOL    HW213335   0.456   6.682   0.221
 4146SOL     OW13336   5.686   6.451   3.170
 4146SOL    HW113337   5.689   6.385   3.094
 4146SOL    HW213338   5.685   6.544   3.133
 4147SOL     OW13339   4.804   4.282   5.381
 4147SOL    HW113340   4.708   4.256   5.389
 4147SOL    HW213341   4.842   4.244   5.297
 4148SOL     OW13342   2.791   0.727   5.268
 4148SOL    HW113343   2.745   0.814   5.285
 4148SOL    HW213344   2.723   0.655   5.253
 4149SOL     OW13345   1.790   3.074   0.855
 4149SOL    HW113346   1.888   3.093   0.845
 4149SOL    HW213347   1.771   3.047   0.949
 4150SOL     OW13348   6.191   2.457   6.409
 4150SOL    HW113349   6.273   2.444   6.464
 4150SOL    HW213350   6.202   2.410   6.321
 4151SOL     OW13351   2.122   0.145   4.692
 4151SOL    HW113352   2.073   0.102   4.768
 4151SOL    HW213353   2.100   0.098   4.607
 4152SOL     OW13354   3.605   5.869   1.844
 4152SOL    HW113355   3.633   5.773   1.843
 4152SOL    HW213356   3.649   5.918   1.769
 4153SOL     OW13357   6.755   4.987   1.887
 4153SOL    HW113358   6.803   5.011   1.803
 4153SOL    HW213359   6.682   4.921   1.866
 4154SOL     OW13360   0.528   6.009   4.511
 4154SOL    HW113361   0.610   5.989   4.564
 4154SOL    HW213362   0.468   5.929   4.510
 4155SOL     OW13363   1.147   2.299   1.423
 4155SOL    HW113364   1.190   2.329   1.338
 4155SOL    HW213365   1.072   2.237   1.402
 4156SOL     OW13366   6.690   4.523   5.059
 4156SOL    HW113367   6.624   4.504   5.131
 4156SOL    HW213368   6.654   4.593   4.997
 4157SOL     OW13369   6.708   6.674   2.258
 4157SOL    HW113370   6.784   6.609   2.264
 4157SOL    HW213371   6.668   6.670   2.167
 4158SOL     OW13372   1.802   2.736   1.919
 4158SOL    HW113373   1.715   2.767   1.880
 4158SOL    HW213374   1.824   2.792   1.999
 4159SOL     OW13375   3.043   1.406   3.065
 4159SOL    HW113376   3.112   1.395   2.994
 4159SOL    HW213377   2.952   1.400   3.024
 4160SOL     OW13378   6.868   6.930   6.981
 4160SOL    HW113379   6.846   0.002   7.015
 4160SOL    HW213380   6.784   6.880   6.961
 4161SOL     OW13381   2.226   1.732   1.644
 4161SOL    HW113382   2.307   1.791   1.636
 4161SOL    HW213383   2.144   1.786   1.626
 4162SOL     OW13384   6.483   5.947   1.187
 4162SOL    HW113385   6.512   6.037   1.156
 4162SOL    HW213386   6.563   5.891   1.207
 4163SOL     OW13387   4.470   6.936   1.624
 4163SOL    HW113388   4.479   0.003   1.576
 4163SOL    HW213389   4.547   6.876   1.601
 4164SOL     OW13390   0.213   6.103   4.939
 4164SOL    HW113391   0.312   6.111   4.953
 4164SOL    HW213392   0.165   6.143   5.017
 4165SOL     OW13393   4.000   1.405   5.693
 4165SOL    HW113394   3.903   1.380   5.692
 4165SOL    HW213395   4.053   1.330   5.734
 4166SOL     OW13396   5.765   0.375   3.048
 4166SOL    HW113397   5.810   0.367   2.959
 4166SOL    HW213398   5.778   0.468   3.084
 4167SOL     OW13399   2.757   4.907   5.849
 4167SOL    HW113400   2.697   4.868   5.919
 4167SOL    HW213401   2.796   4.833   5.794
 4168SOL     OW13402   6.781   4.867   0.410
 4168SOL    HW113403   6.865   4.845   0.359
 4168SOL    HW213404   6.799   4.859   0.508
 4169SOL     OW13405   5.262   4.213   5.114
 4169SOL    HW113406   5.184   4.191   5.172
 4169SOL    HW213407   5.339   4.152   5.136
 4170SOL     OW13408   4.887   2.954   4.716
 4170SOL    HW113409   4.878   3.051   4.739
 4170SOL    HW213410   4.886   2.899   4.800
 4171SOL     OW13411   1.605   3.645   1.428
 4171SOL    HW113412   1.631   3.611   1.338
 4171SOL    HW213413   1.651   3.732   1.446
 4172SOL     OW13414   3.472   3.420   0.884
 4172SOL    HW113415   3.385   3.460   0.854
 4172SOL    HW213416   3.528   3.491   0.927
 4173SOL     OW13417   4.348   2.888   5.475
 4173SOL    HW113418   4.329   2.804   5.424
 4173SOL    HW213419   4.361   2.866   5.572
 4174SOL     OW13420   4.543   0.289   4.276
 4174SOL    HW113421   4.521   0.290   4.373
 4174SOL    HW213422   4.614   0.221   4.258
 4175SOL     OW13423   1.692   4.601   6.414
 4175SOL    HW113424   1.667   4.505   6.400
 4175SOL    HW213425   1.626   4.644   6.475
 4176SOL     OW13426   5.054   6.310   0.140
 4176SOL    HW113427   5.133   6.260   0.174
 4176SOL    HW213428   5.069   6.335   0.044
 4177SOL     OW13429   4.949   4.779   4.995
 4177SOL    HW113430   5.041   4.810   5.020
 4177SOL    HW213431   4.883   4.853   5.012
 4178SOL     OW13432   3.976   6.578   2.548
 4178SOL    HW113433   4.020   6.501   2.595
 4178SOL    HW213434   4.010   6.584   2.454
 4179SOL     OW13435   5.354   3.248   4.351
 4179SOL    HW113436   5.397   3.246   4.442
 4179SOL    HW213437   5.419   3.285   4.284
 4180SOL     OW13438   5.699   3.745   0.640
 4180SOL    HW113439   5.646   3.672   0.684
 4180SOL    HW213440   5.761   3.787   0.707
 4181SOL     OW13441   5.029   0.497   6.080
 4181SOL    HW113442   5.032   0.473   6.177
 4181SOL    HW213443   5.027   0.596   6.069
 4182SOL     OW13444   0.693   6.010   3.753
 4182SOL    HW113445   0.773   6.008   3.693
 4182SOL    HW213446   0.705   6.079   3.824
 4183SOL     OW13447   2.150   1.234   1.559
 4183SOL    HW113448   2.057   1.203   1.536
 4183SOL    HW213449   2.155   1.334   1.548
 4184SOL     OW13450   3.341   0.179   2.299
 4184SOL    HW113451   3.359   0.191   2.201
 4184SOL    HW213452   3.391   0.248   2.351
 4185SOL     OW13453   0.446   3.687   3.975
 4185SOL    HW113454   0.406   3.638   4.053
 4185SOL    HW213455   0.435   3.632   3.892
 4186SOL     OW13456   2.153   5.887   6.757
 4186SOL    HW113457   2.088   5.956   6.724
 4186SOL    HW213458   2.151   5.808   6.696
 4187SOL     OW13459   2.314   3.727   0.096
 4187SOL    HW113460   2.291   3.661   0.167
 4187SOL    HW213461   2.259   3.709   0.015
 4188SOL     OW13462   5.472   0.848   5.498
 4188SOL    HW113463   5.508   0.926   5.550
 4188SOL    HW213464   5.500   0.855   5.402
 4189SOL     OW13465   4.662   5.505   3.575
 4189SOL    HW113466   4.593   5.575   3.556
 4189SOL    HW213467   4.732   5.543   3.636
 4190SOL     OW13468   0.287   6.575   0.809
 4190SOL    HW113469   0.236   6.506   0.758
 4190SOL    HW213470   0.237   6.598   0.893
 4191SOL     OW13471   5.159   3.868   6.343
 4191SOL    HW113472   5.201   3.890   6.431
 4191SOL    HW213473   5.147   3.769   6.335
 4192SOL     OW13474   1.062   1.356   2.430
 4192SOL    HW113475   1.092   1.449   2.451
 4192SOL    HW213476   0.972   1.341   2.471
 4193SOL     OW13477   5.693   0.511   0.159
 4193SOL    HW113478   5.682   0.519   0.259
 4193SOL    HW213479   5.741   0.591   0.125
 4194SOL     OW13480   3.827   0.584   5.364
 4194SOL    HW113481   3.860   0.489   5.368
 4194SOL    HW213482   3.752   0.590   5.300
 4195SOL     OW13483   4.565   6.771   1.857
 4195SOL    HW113484   4.642   6.832   1.875
 4195SOL    HW213485   4.521   6.797   1.771
 4196SOL     OW13486   6.867   2.695   3.562
 4196SOL    HW113487   6.853   2.618   3.623
 4196SOL    HW213488   6.965   2.705   3.542
 4197SOL     OW13489   3.991   6.252   5.799
 4197SOL    HW113490   3.986   6.348   5.825
 4197SOL    HW213491   3.902   6.209   5.815
 4198SOL     OW13492   6.364   0.461   2.282
 4198SOL    HW113493   6.310   0.544   2.269
 4198SOL    HW213494   6.311   0.382   2.249
 4199SOL     OW13495   1.678   3.572   6.250
 4199SOL    HW113496   1.647   3.634   6.178
 4199SOL    HW213497   1.604   3.559   6.316
 4200SOL     OW13498   3.477   1.244   5.497
 4200SOL    HW113499   3.576   1.233   5.492
 4200SOL    HW213500   3.455   1.338   5.522
 4201SOL     OW13501   6.067   6.729   3.690
 4201SOL    HW113502   6.159   6.691   3.699
 4201SOL    HW213503   6.030   6.707   3.600
 4202SOL     OW13504   3.420   5.253   6.306
 4202SOL    HW113505   3.393   5.331   6.249
 4202SOL    HW213506   3.391   5.168   6.262
 4203SOL     OW13507   4.960   4.916   0.362
 4203SOL    HW113508   4.902   4.995   0.381
 4203SOL    HW213509   4.926   4.837   0.414
 4204SOL     OW13510   4.012   3.301   5.819
 4204SOL    HW113511   3.991   3.229   5.886
 4204SOL    HW213512   4.008   3.390   5.864
 4205SOL     OW13513   3.582   5.438   5.100
 4205SOL    HW113514   3.649   5.455   5.173
 4205SOL    HW213515   3.625   5.386   5.027
 4206SOL     OW13516   0.701   1.327   5.019
 4206SOL    HW113517   0.648   1.410   5.002
 4206SOL    HW213518   0.730   1.287   4.932
 4207SOL     OW13519   1.916   2.386   1.357
 4207SOL    HW113520   1.912   2.382   1.457
 4207SOL    HW213521   1.992   2.329   1.325
 4208SOL     OW13522   1.035   4.268   5.380
 4208SOL    HW113523   1.064   4.183   5.423
 4208SOL    HW213524   1.116   4.320   5.351
 4209SOL     OW13525   6.427   5.557   2.896
 4209SOL    HW113526   6.328   5.552   2.910
 4209SOL    HW213527   6.463   5.639   2.940
 4210SOL     OW13528   4.016   3.150   4.281
 4210SOL    HW113529   3.940   3.144   4.346
 4210SOL    HW213530   4.012   3.072   4.218
 4211SOL     OW13531   3.558   1.761   5.709
 4211SOL    HW113532   3.633   1.772   5.643
 4211SOL    HW213533   3.478   1.813   5.677
 4212SOL     OW13534   6.875   1.065   3.855
 4212SOL    HW113535   6.795   1.035   3.803
 4212SOL    HW213536   6.867   1.163   3.876
 4213SOL     OW13537   2.974   0.991   3.493
 4213SOL    HW113538   2.989   0.941   3.408
 4213SOL    HW213539   2.919   0.936   3.555
 4214SOL     OW13540   0.552   5.687   4.697
 4214SOL    HW113541   0.631   5.749   4.707
 4214SOL    HW213542   0.502   5.681   4.783
 4215SOL     OW13543   5.049   0.019   5.245
 4215SOL    HW113544   5.037   0.087   5.317
 4215SOL    HW213545   5.144   7.008   5.244
 4216SOL     OW13546   1.275   0.932   2.281
 4216SOL    HW113547   1.337   0.993   2.232
 4216SOL    HW213548   1.195   0.983   2.312
 4217SOL     OW13549   1.036   0.125   1.919
 4217SOL    HW113550   1.089   0.040   1.922
 4217SOL    HW213551   1.062   0.178   1.838
 4218SOL     OW13552   3.268   0.865   1.219
 4218SOL    HW113553   3.225   0.914   1.295
 4218SOL    HW213554   3.220   0.887   1.134
 4219SOL     OW13555   4.426   6.603   4.609
 4219SOL    HW113556   4.331   6.616   4.581
 4219SOL    HW213557   4.430   6.585   4.708
 4220SOL     OW13558   5.499   2.566   2.157
 4220SOL    HW113559   5.579   2.582   2.099
 4220SOL    HW213560   5.435   2.506   2.110
 4221SOL     OW13561   6.580   4.581   0.113
 4221SOL    HW113562   6.575   4.628   0.201
 4221SOL    HW213563   6.493   4.534   0.095
 4222SOL     OW13564   5.383   1.606   3.386
 4222SOL    HW113565   5.309   1.548   3.420
 4222SOL    HW213566   5.355   1.702   3.391
 4223SOL     OW13567   3.710   3.784   0.817
 4223SOL    HW113568   3.796   3.829   0.791
 4223SOL    HW213569   3.722   3.738   0.905
 4224SOL     OW13570   5.370   4.325   4.884
 4224SOL    HW113571   5.311   4.406   4.890
 4224SOL    HW213572   5.352   4.265   4.962
 4225SOL     OW13573   1.589   2.149   5.709
 4225SOL    HW113574   1.624   2.239   5.734
 4225SOL    HW213575   1.495   2.158   5.676
 4226SOL     OW13576   1.257   6.509   3.950
 4226SOL    HW113577   1.350   6.484   3.923
 4226SOL    HW213578   1.191   6.468   3.886
 4227SOL     OW13579   4.867   6.030   1.834
 4227SOL    HW113580   4.897   5.935   1.836
 4227SOL    HW213581   4.943   6.090   1.858
 4228SOL     OW13582   0.639   6.526   4.973
 4228SOL    HW113583   0.708   6.493   4.908
 4228SOL    HW213584   0.559   6.559   4.923
 4229SOL     OW13585   4.847   5.961   5.876
 4229SOL    HW113586   4.792   5.920   5.803
 4229SOL    HW213587   4.791   6.025   5.928
 4230SOL     OW13588   0.772   6.487   2.993
 4230SOL    HW113589   0.838   6.413   2.985
 4230SOL    HW213590   0.782   6.550   2.916
 4231SOL     OW13591   4.838   0.651   5.281
 4231SOL    HW113592   4.755   0.597   5.288
 4231SOL    HW213593   4.866   0.681   5.372
 4232SOL     OW13594   2.092   5.639   3.925
 4232SOL    HW113595   2.015   5.702   3.925
 4232SOL    HW213596   2.138   5.642   4.014
 4233SOL     OW13597   0.489   0.061   4.177
 4233SOL    HW113598   0.540   0.041   4.094
 4233SOL    HW213599   0.395   0.027   4.168
 4234SOL     OW13600   1.821   5.596   5.380
 4234SOL    HW113601   1.775   5.635   5.460
 4234SOL    HW213602   1.831   5.665   5.309
 4235SOL     OW13603   6.361   4.723   5.631
 4235SOL    HW113604   6.329   4.695   5.722
 4235SOL    HW213605   6.408   4.811   5.639
 4236SOL     OW13606   0.477   4.565   1.885
 4236SOL    HW113607   0.400   4.628   1.888
 4236SOL    HW213608   0.447   4.474   1.914
 4237SOL     OW13609   6.349   4.056   4.380
 4237SOL    HW113610   6.440   4.085   4.347
 4237SOL    HW213611   6.340   3.957   4.370
 4238SOL     OW13612   0.923   0.913   3.428
 4238SOL    HW113613   0.948   0.967   3.348
 4238SOL    HW213614   0.866   0.967   3.489
 4239SOL     OW13615   4.354   1.257   2.278
 4239SOL    HW113616   4.321   1.237   2.370
 4239SOL    HW213617   4.278   1.254   2.213
 4240SOL     OW13618   2.161   5.011   6.874
 4240SOL    HW113619   2.148   4.954   6.793
 4240SOL    HW213620   2.164   4.954   6.956
 4241SOL     OW13621   5.916   1.745   0.294
 4241SOL    HW113622   5.932   1.741   0.196
 4241SOL    HW213623   5.924   1.840   0.326
 4242SOL     OW13624   2.264   2.309   4.041
 4242SOL    HW113625   2.289   2.352   3.954
 4242SOL    HW213626   2.260   2.210   4.029
 4243SOL     OW13627   4.881   1.592   2.335
 4243SOL    HW113628   4.873   1.590   2.235
 4243SOL    HW213629   4.898   1.686   2.366
 4244SOL     OW13630   3.479   3.625   1.693
 4244SOL    HW113631   3.416   3.644   1.768
 4244SOL    HW213632   3.432   3.642   1.606
 4245SOL     OW13633   6.629   2.100   6.704
 4245SOL    HW113634   6.702   2.150   6.751
 4245SOL    HW213635   6.654   2.087   6.608
 4246SOL     OW13636   6.124   4.077   3.106
 4246SOL    HW113637   6.081   4.125   3.182
 4246SOL    HW213638   6.189   4.138   3.060
 4247SOL     OW13639   1.011   6.201   3.961
 4247SOL    HW113640   1.015   6.172   4.056
 4247SOL    HW213641   0.939   6.270   3.950
 4248SOL     OW13642   2.542   1.900   4.755
 4248SOL    HW113643   2.464   1.870   4.809
 4248SOL    HW213644   2.553   1.840   4.675
 4249SOL     OW13645   6.431   2.834   4.936
 4249SOL    HW113646   6.391   2.844   5.027
 4249SOL    HW213647   6.360   2.804   4.872
 4250SOL     OW13648   6.837   4.474   3.145
 4250SOL    HW113649   6.909   4.501   3.081
 4250SOL    HW213650   6.803   4.383   3.120
 4251SOL     OW13651   5.867   4.937   0.124
 4251SOL    HW113652   5.905   5.026   0.099
 4251SOL    HW213653   5.769   4.935   0.101
 4252SOL     OW13654   6.396   6.137   5.042
 4252SOL    HW113655   6.443   6.050   5.026
 4252SOL    HW213656   6.409   6.166   5.137
 4253SOL     OW13657   2.505   0.509   2.044
 4253SOL    HW113658   2.537   0.523   2.138
 4253SOL    HW213659   2.471   0.596   2.008
 4254SOL     OW13660   1.018   3.014   1.422
 4254SOL    HW113661   0.959   3.012   1.341
 4254SOL    HW213662   1.028   3.108   1.454
 4255SOL     OW13663   6.127   2.325   3.467
 4255SOL    HW113664   6.177   2.289   3.387
 4255SOL    HW213665   6.096   2.249   3.524
 4256SOL     OW13666   1.429   6.292   0.865
 4256SOL    HW113667   1.465   6.348   0.939
 4256SOL    HW213668   1.329   6.288   0.871
 4257SOL     OW13669   3.580   0.633   5.214
 4257SOL    HW113670   3.546   0.719   5.176
 4257SOL    HW213671   3.573   0.635   5.313
 4258SOL     OW13672   5.970   6.789   1.600
 4258SOL    HW113673   5.957   6.888   1.609
 4258SOL    HW213674   5.895   6.740   1.645
 4259SOL     OW13675   2.818   0.662   6.766
 4259SOL    HW113676   2.885   0.643   6.838
 4259SOL    HW213677   2.765   0.580   6.748
 4260SOL     OW13678   5.398   5.788   4.061
 4260SOL    HW113679   5.462   5.729   4.012
 4260SOL    HW213680   5.411   5.776   4.159
 4261SOL     OW13681   1.771   0.682   2.041
 4261SOL    HW113682   1.764   0.774   2.081
 4261SOL    HW213683   1.846   0.680   1.975
 4262SOL     OW13684   1.058   4.784   5.230
 4262SOL    HW113685   1.072   4.723   5.152
 4262SOL    HW213686   1.072   4.879   5.201
 4263SOL     OW13687   2.645   6.474   4.143
 4263SOL    HW113688   2.678   6.386   4.110
 4263SOL    HW213689   2.549   6.465   4.172
 4264SOL     OW13690   6.967   1.929   2.166
 4264SOL    HW113691   6.869   1.934   2.186
 4264SOL    HW213692   6.993   2.005   2.106
 4265SOL     OW13693   6.122   1.838   6.885
 4265SOL    HW113694   6.057   1.914   6.873
 4265SOL    HW213695   6.190   1.863   6.954
 4266SOL     OW13696   2.266   5.415   0.406
 4266SOL    HW113697   2.349   5.470   0.400
 4266SOL    HW213698   2.281   5.327   0.360
 4267SOL     OW13699   2.098   3.896   5.084
 4267SOL    HW113700   2.088   3.907   5.182
 4267SOL    HW213701   2.182   3.942   5.053
 4268SOL     OW13702   1.757   6.794   0.087
 4268SOL    HW113703   1.828   6.864   0.093
 4268SOL    HW213704   1.779   6.729   0.015
 4269SOL     OW13705   2.035   1.212   0.778
 4269SOL    HW113706   2.055   1.145   0.706
 4269SOL    HW213707   2.071   1.301   0.751
 4270SOL     OW13708   2.947   3.297   3.725
 4270SOL    HW113709   2.900   3.359   3.662
 4270SOL    HW213710   3.023   3.253   3.679
 4271SOL     OW13711   0.015   0.396   5.847
 4271SOL    HW113712   0.093   0.452   5.877
 4271SOL    HW213713   0.021   0.306   5.891
 4272SOL     OW13714   0.498   4.891   4.859
 4272SOL    HW113715   0.536   4.866   4.770
 4272SOL    HW213716   0.445   4.815   4.896
 4273SOL     OW13717   4.664   6.373   3.886
 4273SOL    HW113718   4.590   6.432   3.919
 4273SOL    HW213719   4.748   6.426   3.877
 4274SOL     OW13720   0.862   7.011   2.775
 4274SOL    HW113721   0.858   6.972   2.683
 4274SOL    HW213722   0.798   0.068   2.782
 4275SOL     OW13723   0.191   1.578   5.980
 4275SOL    HW113724   0.264   1.609   5.919
 4275SOL    HW213725   0.223   1.500   6.033
 4276SOL     OW13726   1.811   4.887   2.741
 4276SOL    HW113727   1.779   4.966   2.792
 4276SOL    HW213728   1.869   4.917   2.665
 4277SOL     OW13729   6.798   4.723   3.950
 4277SOL    HW113730   6.849   4.765   4.025
 4277SOL    HW213731   6.700   4.726   3.971
 4278SOL     OW13732   0.260   0.739   4.975
 4278SOL    HW113733   0.188   0.767   4.911
 4278SOL    HW213734   0.259   0.800   5.054
 4279SOL     OW13735   3.570   6.061   5.492
 4279SOL    HW113736   3.513   5.981   5.476
 4279SOL    HW213737   3.548   6.101   5.581
 4280SOL     OW13738   4.637   1.364   5.810
 4280SOL    HW113739   4.658   1.312   5.893
 4280SOL    HW213740   4.611   1.302   5.737
 4281SOL     OW13741   2.317   4.770   4.268
 4281SOL    HW113742   2.387   4.705   4.240
 4281SOL    HW213743   2.247   4.722   4.321
 4282SOL     OW13744   2.482   2.463   6.971
 4282SOL    HW113745   2.399   2.431   7.016
 4282SOL    HW213746   2.562   2.419   7.014
 4283SOL     OW13747   1.889   0.372   4.038
 4283SOL    HW113748   1.985   0.393   4.020
 4283SOL    HW213749   1.842   0.354   3.952
 4284SOL     OW13750   5.359   6.241   2.210
 4284SOL    HW113751   5.433   6.213   2.149
 4284SOL    HW213752   5.361   6.183   2.292
 4285SOL     OW13753   0.353   6.819   6.157
 4285SOL    HW113754   0.432   6.875   6.183
 4285SOL    HW213755   0.384   6.726   6.136
 4286SOL     OW13756   5.067   5.687   6.921
 4286SOL    HW113757   4.990   5.691   6.858
 4286SOL    HW213758   5.114   5.599   6.912
 4287SOL     OW13759   6.060   0.467   6.043
 4287SOL    HW113760   6.106   0.379   6.047
 4287SOL    HW213761   6.107   0.532   6.102
 4288SOL     OW13762   0.577   5.894   3.506
 4288SOL    HW113763   0.664   5.866   3.466
 4288SOL    HW213764   0.587   5.905   3.605
 4289SOL     OW13765   5.766   3.099   1.301
 4289SOL    HW113766   5.679   3.084   1.346
 4289SOL    HW213767   5.840   3.097   1.368
 4290SOL     OW13768   2.204   6.431   1.128
 4290SOL    HW113769   2.227   6.334   1.134
 4290SOL    HW213770   2.128   6.442   1.064
 4291SOL     OW13771   4.564   3.400   1.600
 4291SOL    HW113772   4.641   3.463   1.604
 4291SOL    HW213773   4.479   3.452   1.591
 4292SOL     OW13774   6.309   4.382   5.753
 4292SOL    HW113775   6.277   4.460   5.807
 4292SOL    HW213776   6.402   4.399   5.722
 4293SOL     OW13777   0.197   3.933   6.699
 4293SOL    HW113778   0.118   3.981   6.738
 4293SOL    HW213779   0.184   3.834   6.709
 4294SOL     OW13780   4.443   2.817   0.434
 4294SOL    HW113781   4.503   2.741   0.409
 4294SOL    HW213782   4.491   2.904   0.422
 4295SOL     OW13783   3.813   6.367   4.965
 4295SOL    HW113784   3.764   6.391   5.049
 4295SOL    HW213785   3.753   6.384   4.886
 4296SOL     OW13786   3.219   1.976   0.169
 4296SOL    HW113787   3.226   2.018   0.079
 4296SOL    HW213788   3.205   2.047   0.238
 4297SOL     OW13789   5.420   0.450   5.646
 4297SOL    HW113790   5.387   0.505   5.722
 4297SOL    HW213791   5.369   0.473   5.563
 4298SOL     OW13792   1.843   5.597   0.027
 4298SOL    HW113793   1.754   5.616   7.005
 4298SOL    HW213794   1.896   5.682   0.032
 4299SOL     OW13795   1.161   2.519   6.908
 4299SOL    HW113796   1.150   2.436   6.962
 4299SOL    HW213797   1.243   2.568   6.939
 4300SOL     OW13798   2.945   1.448   6.397
 4300SOL    HW113799   3.040   1.446   6.368
 4300SOL    HW213800   2.935   1.393   6.480
 4301SOL     OW13801   2.502   1.457   0.377
 4301SOL    HW113802   2.414   1.490   0.413
 4301SOL    HW213803   2.498   1.457   0.277
 4302SOL     OW13804   1.005   6.298   5.365
 4302SOL    HW113805   0.936   6.291   5.437
 4302SOL    HW213806   0.960   6.307   5.277
 4303SOL     OW13807   6.231   4.580   3.703
 4303SOL    HW113808   6.266   4.510   3.640
 4303SOL    HW213809   6.134   4.562   3.722
 4304SOL     OW13810   2.961   3.770   4.445
 4304SOL    HW113811   2.973   3.850   4.504
 4304SOL    HW213812   3.002   3.788   4.356
 4305SOL     OW13813   6.100   1.455   3.824
 4305SOL    HW113814   6.029   1.504   3.774
 4305SOL    HW213815   6.171   1.425   3.759
 4306SOL     OW13816   6.978   3.751   6.556
 4306SOL    HW113817   6.903   3.705   6.604
 4306SOL    HW213818   6.983   3.718   6.462
 4307SOL     OW13819   4.768   4.542   5.990
 4307SOL    HW113820   4.806   4.629   6.023
 4307SOL    HW213821   4.829   4.503   5.922
 4308SOL     OW13822   5.531   5.906   6.084
 4308SOL    HW113823   5.494   5.821   6.047
 4308SOL    HW213824   5.616   5.930   6.036
 4309SOL     OW13825   0.786   0.209   0.067
 4309SOL    HW113826   0.757   0.173   6.998
 4309SOL    HW213827   0.707   0.212   0.129
 4310SOL     OW13828   1.762   2.613   3.682
 4310SOL    HW113829   1.722   2.531   3.723
 4310SOL    HW213830   1.861   2.612   3.694
 4311SOL     OW13831   1.481   5.499   2.928
 4311SOL    HW113832   1.429   5.541   3.003
 4311SOL    HW213833   1.509   5.407   2.956
 4312SOL     OW13834   1.678   5.368   1.637
 4312SOL    HW113835   1.650   5.297   1.702
 4312SOL    HW213836   1.733   5.437   1.685
 4313SOL     OW13837   5.345   1.633   2.110
 4313SOL    HW113838   5.356   1.541   2.147
 4313SOL    HW213839   5.325   1.697   2.184
 4314SOL     OW13840   5.276   2.631   3.473
 4314SOL    HW113841   5.271   2.548   3.528
 4314SOL    HW213842   5.335   2.698   3.517
 4315SOL     OW13843   1.520   0.836   2.202
 4315SOL    HW113844   1.529   0.740   2.226
 4315SOL    HW213845   1.423   0.862   2.205
 4316SOL     OW13846   5.250   0.020   1.332
 4316SOL    HW113847   5.189   0.096   1.354
 4316SOL    HW213848   5.202   6.976   1.272
 4317SOL     OW13849   3.224   1.117   4.753
 4317SOL    HW113850   3.301   1.057   4.731
 4317SOL    HW213851   3.152   1.065   4.798
 4318SOL     OW13852   0.886   3.819   3.602
 4318SOL    HW113853   0.888   3.723   3.576
 4318SOL    HW213854   0.963   3.839   3.663
 4319SOL     OW13855   2.357   2.805   0.606
 4319SOL    HW113856   2.452   2.820   0.633
 4319SOL    HW213857   2.327   2.715   0.638
 4320SOL     OW13858   1.535   6.089   1.666
 4320SOL    HW113859   1.449   6.140   1.677
 4320SOL    HW213860   1.527   6.028   1.588
 4321SOL     OW13861   6.533   0.112   4.209
 4321SOL    HW113862   6.564   0.207   4.194
 4321SOL    HW213863   6.461   0.112   4.278
 4322SOL     OW13864   6.232   1.263   6.842
 4322SOL    HW113865   6.148   1.253   6.897
 4322SOL    HW213866   6.312   1.251   6.902
 4323SOL     OW13867   5.552   3.503   1.939
 4323SOL    HW113868   5.534   3.470   2.031
 4323SOL    HW213869   5.484   3.571   1.913
 4324SOL     OW13870   5.369   4.798   6.982
 4324SOL    HW113871   5.289   4.840   0.006
 4324SOL    HW213872   5.339   4.733   6.912
 4325SOL     OW13873   0.809   0.759   6.575
 4325SOL    HW113874   0.866   0.818   6.519
 4325SOL    HW213875   0.858   0.674   6.594
 4326SOL     OW13876   6.313   2.740   5.393
 4326SOL    HW113877   6.349   2.663   5.341
 4326SOL    HW213878   6.323   2.722   5.491
 4327SOL     OW13879   6.291   5.253   2.725
 4327SOL    HW113880   6.229   5.221   2.797
 4327SOL    HW213881   6.278   5.351   2.711
 4328SOL     OW13882   5.034   4.419   6.240
 4328SOL    HW113883   4.941   4.411   6.275
 4328SOL    HW213884   5.057   4.516   6.229
 4329SOL     OW13885   2.874   1.883   6.164
 4329SOL    HW113886   2.877   1.784   6.180
 4329SOL    HW213887   2.809   1.903   6.091
 4330SOL     OW13888   3.197   0.460   5.240
 4330SOL    HW113889   3.207   0.360   5.244
 4330SOL    HW213890   3.234   0.494   5.154
 4331SOL     OW13891   4.922   3.255   1.337
 4331SOL    HW113892   4.977   3.319   1.390
 4331SOL    HW213893   4.909   3.170   1.389
 4332SOL     OW13894   5.648   4.237   2.384
 4332SOL    HW113895   5.602   4.305   2.442
 4332SOL    HW213896   5.597   4.151   2.388
 4333SOL     OW13897   4.585   1.784   5.127
 4333SOL    HW113898   4.644   1.713   5.089
 4333SOL    HW213899   4.498   1.744   5.154
 4334SOL     OW13900   2.656   2.040   2.401
 4334SOL    HW113901   2.556   2.043   2.406
 4334SOL    HW213902   2.692   2.133   2.404
 4335SOL     OW13903   3.237   3.901   3.109
 4335SOL    HW113904   3.146   3.860   3.110
 4335SOL    HW213905   3.266   3.914   3.015
 4336SOL     OW13906   0.959   6.849   5.503
 4336SOL    HW113907   0.891   6.777   5.519
 4336SOL    HW213908   0.964   6.868   5.405
 4337SOL     OW13909   1.487   4.839   0.233
 4337SOL    HW113910   1.547   4.913   0.264
 4337SOL    HW213911   1.543   4.763   0.200
 4338SOL     OW13912   4.836   5.857   4.701
 4338SOL    HW113913   4.866   5.824   4.790
 4338SOL    HW213914   4.913   5.900   4.654
 4339SOL     OW13915   5.528   3.274   5.382
 4339SOL    HW113916   5.526   3.226   5.295
 4339SOL    HW213917   5.435   3.298   5.409
 4340SOL     OW13918   5.730   4.207   3.184
 4340SOL    HW113919   5.664   4.166   3.122
 4340SOL    HW213920   5.789   4.135   3.222
 4341SOL     OW13921   0.861   4.788   1.615
 4341SOL    HW113922   0.864   4.865   1.679
 4341SOL    HW213923   0.775   4.738   1.628
 4342SOL     OW13924   6.726   2.868   3.910
 4342SOL    HW113925   6.653   2.928   3.878
 4342SOL    HW213926   6.796   2.921   3.957
 4343SOL     OW13927   2.529   6.705   6.511
 4343SOL    HW113928   2.455   6.769   6.491
 4343SOL    HW213929   2.594   6.703   6.435
 4344SOL     OW13930   2.245   5.159   3.121
 4344SOL    HW113931   2.285   5.136   3.210
 4344SOL    HW213932   2.145   5.154   3.127
 4345SOL     OW13933   1.984   2.938   5.744
 4345SOL    HW113934   1.900   2.937   5.689
 4345SOL    HW213935   1.983   2.860   5.807
 4346SOL     OW13936   2.073   3.151   1.651
 4346SOL    HW113937   2.042   3.089   1.722
 4346SOL    HW213938   2.137   3.103   1.590
 4347SOL     OW13939   6.473   0.929   1.799
 4347SOL    HW113940   6.374   0.915   1.807
 4347SOL    HW213941   6.494   0.972   1.712
 4348SOL     OW13942   0.403   3.172   2.579
 4348SOL    HW113943   0.348   3.194   2.659
 4348SOL    HW213944   0.440   3.256   2.540
 4349SOL     OW13945   7.012   1.732   3.083
 4349SOL    HW113946   6.976   1.804   3.024
 4349SOL    HW213947   0.000   1.766   3.176
 4350SOL     OW13948   5.189   1.971   4.170
 4350SOL    HW113949   5.196   1.894   4.233
 4350SOL    HW213950   5.129   1.947   4.094
 4351SOL     OW13951   2.032   6.438   0.925
 4351SOL    HW113952   1.962   6.377   0.889
 4351SOL    HW213953   2.036   6.521   0.870
 4352SOL     OW13954   0.965   2.299   1.657
 4352SOL    HW113955   1.036   2.315   1.588
 4352SOL    HW213956   0.951   2.381   1.711
 4353SOL     OW13957   2.961   4.798   0.747
 4353SOL    HW113958   3.011   4.714   0.771
 4353SOL    HW213959   2.952   4.803   0.648
 4354SOL     OW13960   2.080   6.416   5.913
 4354SOL    HW113961   2.094   6.323   5.880
 4354SOL    HW213962   1.988   6.447   5.889
 4355SOL     OW13963   3.380   6.845   1.909
 4355SOL    HW113964   3.307   6.804   1.964
 4355SOL    HW213965   3.457   6.869   1.968
 4356SOL     OW13966   4.819   3.900   1.859
 4356SOL    HW113967   4.895   3.883   1.796
 4356SOL    HW213968   4.756   3.966   1.818
 4357SOL     OW13969   6.280   6.916   6.987
 4357SOL    HW113970   6.196   6.904   6.934
 4357SOL    HW213971   6.304   6.829   0.011
 4358SOL     OW13972   6.712   6.153   0.538
 4358SOL    HW113973   6.785   6.167   0.605
 4358SOL    HW213974   6.743   6.088   0.469
 4359SOL     OW13975   1.314   1.891   5.111
 4359SOL    HW113976   1.345   1.942   5.191
 4359SOL    HW213977   1.373   1.912   5.033
 4360SOL     OW13978   1.683   3.231   3.040
 4360SOL    HW113979   1.593   3.244   2.998
 4360SOL    HW213980   1.742   3.181   2.976
 4361SOL     OW13981   3.082   2.662   1.787
 4361SOL    HW113982   3.045   2.600   1.856
 4361SOL    HW213983   3.105   2.611   1.705
 4362SOL     OW13984   6.471   3.937   4.959
 4362SOL    HW113985   6.446   3.873   4.887
 4362SOL    HW213986   6.390   3.985   4.992
 4363SOL     OW13987   4.973   2.044   5.816
 4363SOL    HW113988   4.955   1.959   5.864
 4363SOL    HW213989   5.041   2.098   5.866
 4364SOL     OW13990   2.963   3.807   5.478
 4364SOL    HW113991   2.931   3.713   5.473
 4364SOL    HW213992   2.944   3.854   5.392
 4365SOL     OW13993   2.767   1.044   2.320
 4365SOL    HW113994   2.843   1.083   2.371
 4365SOL    HW213995   2.690   1.028   2.382
 4366SOL     OW13996   5.645   0.086   0.482
 4366SOL    HW113997   5.734   0.046   0.502
 4366SOL    HW213998   5.649   0.185   0.493
 4367SOL     OW13999   1.248   4.870   5.427
 4367SOL    HW114000   1.255   4.825   5.516
 4367SOL    HW214001   1.200   4.809   5.363
 4368SOL     OW14002   3.990   5.371   0.877
 4368SOL    HW114003   4.078   5.397   0.917
 4368SOL    HW214004   3.984   5.271   0.871
 4369SOL     OW14005   4.313   5.640   2.599
 4369SOL    HW114006   4.384   5.581   2.639
 4369SOL    HW214007   4.351   5.691   2.522
 4370SOL     OW14008   4.908   4.758   2.899
 4370SOL    HW114009   4.933   4.771   2.995
 4370SOL    HW214010   4.991   4.744   2.844
 4371SOL     OW14011   6.468   0.201   1.743
 4371SOL    HW114012   6.510   0.290   1.758
 4371SOL    HW214013   6.395   0.186   1.810
 4372SOL     OW14014   4.165   1.313   2.488
 4372SOL    HW114015   4.077   1.282   2.453
 4372SOL    HW214016   4.151   1.371   2.568
 4373SOL     OW14017   0.327   3.041   6.711
 4373SOL    HW114018   0.240   3.020   6.667
 4373SOL    HW214019   0.398   3.050   6.642
 4374SOL     OW14020   1.004   1.856   1.614
 4374SOL    HW114021   1.038   1.826   1.703
 4374SOL    HW214022   0.969   1.949   1.621
 4375SOL     OW14023   3.144   0.020   4.058
 4375SOL    HW114024   3.152   0.099   4.119
 4375SOL    HW214025   3.199   6.964   4.092
 4376SOL     OW14026   7.019   0.440   2.332
 4376SOL    HW114027   7.007   0.495   2.415
 4376SOL    HW214028   6.946   0.372   2.326
 4377SOL     OW14029   6.278   3.815   0.604
 4377SOL    HW114030   6.237   3.768   0.526
 4377SOL    HW214031   6.235   3.783   0.689
 4378SOL     OW14032   1.718   1.299   3.131
 4378SOL    HW114033   1.689   1.211   3.171
 4378SOL    HW214034   1.746   1.361   3.205
 4379SOL     OW14035   2.936   1.491   4.099
 4379SOL    HW114036   2.874   1.561   4.066
 4379SOL    HW214037   3.028   1.509   4.066
 4380SOL     OW14038   1.126   0.314   1.750
 4380SOL    HW114039   1.047   0.375   1.760
 4380SOL    HW214040   1.206   0.367   1.721
 4381SOL     OW14041   1.196   5.750   4.973
 4381SOL    HW114042   1.176   5.716   5.065
 4381SOL    HW214043   1.248   5.835   4.979
 4382SOL     OW14044   6.757   3.021   6.155
 4382SOL    HW114045   6.721   3.069   6.075
 4382SOL    HW214046   6.833   2.962   6.126
 4383SOL     OW14047   6.397   4.249   6.274
 4383SOL    HW114048   6.333   4.234   6.198
 4383SOL    HW214049   6.403   4.165   6.329
 4384SOL     OW14050   5.828   0.730   3.379
 4384SOL    HW114051   5.842   0.828   3.365
 4384SOL    HW214052   5.792   0.714   3.471
 4385SOL     OW14053   4.416   2.354   4.980
 4385SOL    HW114054   4.331   2.352   5.033
 4385SOL    HW214055   4.441   2.260   4.954
 4386SOL     OW14056   1.339   3.800   5.247
 4386SOL    HW114057   1.317   3.704   5.264
 4386SOL    HW214058   1.438   3.811   5.244
 4387SOL     OW14059   6.550   2.766   1.700
 4387SOL    HW114060   6.621   2.753   1.632
 4387SOL    HW214061   6.576   2.841   1.761
 4388SOL     OW14062   4.933   2.302   6.067
 4388SOL    HW114063   5.021   2.270   6.031
 4388SOL    HW214064   4.862   2.236   6.042
 4389SOL     OW14065   6.694   3.378   1.292
 4389SOL    HW114066   6.608   3.412   1.331
 4389SOL    HW214067   6.760   3.362   1.365
 4390SOL     OW14068   4.783   0.109   1.089
 4390SOL    HW114069   4.821   0.041   1.153
 4390SOL    HW214070   4.785   0.072   0.996
 4391SOL     OW14071   2.617   4.812   6.075
 4391SOL    HW114072   2.644   4.873   6.149
 4391SOL    HW214073   2.530   4.843   6.037
 4392SOL     OW14074   0.766   1.644   4.936
 4392SOL    HW114075   0.722   1.734   4.937
 4392SOL    HW214076   0.865   1.655   4.927
 4393SOL     OW14077   6.352   0.651   1.924
 4393SOL    HW114078   6.296   0.579   1.882
 4393SOL    HW214079   6.414   0.689   1.855
 4394SOL     OW14080   1.205   6.390   1.720
 4394SOL    HW114081   1.230   6.420   1.628
 4394SOL    HW214082   1.265   6.435   1.787
 4395SOL     OW14083   1.711   0.574   1.314
 4395SOL    HW114084   1.698   0.617   1.403
 4395SOL    HW214085   1.726   0.645   1.245
 4396SOL     OW14086   1.761   1.801   3.909
 4396SOL    HW114087   1.818   1.843   3.838
 4396SOL    HW214088   1.779   1.703   3.913
 4397SOL     OW14089   1.883   2.978   4.531
 4397SOL    HW114090   1.887   2.894   4.478
 4397SOL    HW214091   1.812   2.970   4.602
 4398SOL     OW14092   1.778   3.471   6.701
 4398SOL    HW114093   1.795   3.497   6.606
 4398SOL    HW214094   1.812   3.378   6.717
 4399SOL     OW14095   2.179   6.352   1.977
 4399SOL    HW114096   2.219   6.271   1.933
 4399SOL    HW214097   2.178   6.340   2.076
 4400SOL     OW14098   2.232   6.823   3.702
 4400SOL    HW114099   2.139   6.798   3.677
 4400SOL    HW214100   2.290   6.823   3.620
 4401SOL     OW14101   4.158   6.262   4.974
 4401SOL    HW114102   4.100   6.340   4.998
 4401SOL    HW214103   4.139   6.186   5.036
 4402SOL     OW14104   0.802   0.776   2.400
 4402SOL    HW114105   0.705   0.776   2.378
 4402SOL    HW214106   0.845   0.858   2.361
 4403SOL     OW14107   1.163   6.212   0.831
 4403SOL    HW114108   1.168   6.157   0.914
 4403SOL    HW214109   1.072   6.252   0.823
 4404SOL     OW14110   1.196   5.800   5.470
 4404SOL    HW114111   1.275   5.749   5.505
 4404SOL    HW214112   1.228   5.887   5.432
 4405SOL     OW14113   2.506   4.735   2.859
 4405SOL    HW114114   2.415   4.744   2.898
 4405SOL    HW214115   2.519   4.643   2.823
 4406SOL     OW14116   6.930   3.364   1.462
 4406SOL    HW114117   6.987   3.420   1.402
 4406SOL    HW214118   6.975   3.277   1.479
 4407SOL     OW14119   0.011   5.382   1.029
 4407SOL    HW114120   0.022   5.320   1.107
 4407SOL    HW214121   7.005   5.329   0.948
 4408SOL     OW14122   3.113   6.303   6.772
 4408SOL    HW114123   3.150   6.288   6.863
 4408SOL    HW214124   3.015   6.324   6.778
 4409SOL     OW14125   4.119   1.105   1.623
 4409SOL    HW114126   4.119   1.094   1.523
 4409SOL    HW214127   4.209   1.140   1.652
 4410SOL     OW14128   6.963   5.678   0.723
 4410SOL    HW114129   0.008   5.710   0.792
 4410SOL    HW214130   6.876   5.725   0.735
 4411SOL     OW14131   3.634   4.735   5.269
 4411SOL    HW114132   3.567   4.764   5.201
 4411SOL    HW214133   3.606   4.767   5.359
 4412SOL     OW14134   4.974   6.506   4.345
 4412SOL    HW114135   5.020   6.453   4.273
 4412SOL    HW214136   5.042   6.557   4.398
 4413SOL     OW14137   4.676   6.180   4.063
 4413SOL    HW114138   4.657   6.250   3.994
 4413SOL    HW214139   4.620   6.196   4.144
 4414SOL     OW14140   4.528   5.587   1.656
 4414SOL    HW114141   4.560   5.503   1.613
 4414SOL    HW214142   4.586   5.609   1.735
 4415SOL     OW14143   3.607   3.631   0.621
 4415SOL    HW114144   3.637   3.539   0.643
 4415SOL    HW214145   3.615   3.689   0.703
 4416SOL     OW14146   3.976   1.339   4.159
 4416SOL    HW114147   4.013   1.331   4.252
 4416SOL    HW214148   4.006   1.425   4.119
 4417SOL     OW14149   6.224   2.933   4.272
 4417SOL    HW114150   6.166   2.932   4.191
 4417SOL    HW214151   6.305   2.989   4.255
 4418SOL     OW14152   5.994   2.012   2.334
 4418SOL    HW114153   5.929   2.087   2.328
 4418SOL    HW214154   5.957   1.940   2.393
 4419SOL     OW14155   6.543   6.834   5.964
 4419SOL    HW114156   6.513   6.772   5.891
 4419SOL    HW214157   6.483   6.914   5.966
 4420SOL     OW14158   3.360   1.588   0.820
 4420SOL    HW114159   3.414   1.532   0.757
 4420SOL    HW214160   3.420   1.655   0.865
 4421SOL     OW14161   1.574   2.546   5.295
 4421SOL    HW114162   1.512   2.519   5.221
 4421SOL    HW214163   1.669   2.543   5.262
 4422SOL     OW14164   1.035   5.103   0.040
 4422SOL    HW114165   1.065   5.148   0.124
 4422SOL    HW214166   1.111   5.050   0.002
 4423SOL     OW14167   6.591   4.656   5.847
 4423SOL    HW114168   6.653   4.731   5.869
 4423SOL    HW214169   6.541   4.629   5.930
 4424SOL     OW14170   5.545   5.831   4.314
 4424SOL    HW114171   5.538   5.815   4.412
 4424SOL    HW214172   5.593   5.917   4.297
 4425SOL     OW14173   1.777   5.514   1.172
 4425SOL    HW114174   1.701   5.527   1.235
 4425SOL    HW214175   1.812   5.603   1.143
 4426SOL     OW14176   0.999   0.556   3.983
 4426SOL    HW114177   0.907   0.517   3.992
 4426SOL    HW214178   1.063   0.506   4.042
 4427SOL     OW14179   4.031   6.031   2.745
 4427SOL    HW114180   3.975   6.098   2.794
 4427SOL    HW214181   3.974   5.981   2.680
 4428SOL     OW14182   4.997   1.036   4.603
 4428SOL    HW114183   5.073   1.082   4.557
 4428SOL    HW214184   5.030   0.992   4.686
 4429SOL     OW14185   2.821   6.466   2.960
 4429SOL    HW114186   2.775   6.425   3.038
 4429SOL    HW214187   2.895   6.406   2.929
 4430SOL     OW14188   5.663   5.160   4.609
 4430SOL    HW114189   5.655   5.091   4.681
 4430SOL    HW214190   5.606   5.133   4.531
 4431SOL     OW14191   3.220   0.217   3.621
 4431SOL    HW114192   3.156   0.223   3.697
 4431SOL    HW214193   3.297   0.279   3.637
 4432SOL     OW14194   2.261   3.200   6.433
 4432SOL    HW114195   2.166   3.231   6.435
 4432SOL    HW214196   2.316   3.257   6.495
 4433SOL     OW14197   0.458   2.420   4.546
 4433SOL    HW114198   0.545   2.389   4.585
 4433SOL    HW214199   0.403   2.340   4.522
 4434SOL     OW14200   5.551   1.648   1.803
 4434SOL    HW114201   5.501   1.604   1.877
 4434SOL    HW214202   5.501   1.729   1.772
 4435SOL     OW14203   3.943   3.898   0.641
 4435SOL    HW114204   4.024   3.841   0.654
 4435SOL    HW214205   3.874   3.846   0.591
 4436SOL     OW14206   3.744   1.599   1.424
 4436SOL    HW114207   3.644   1.608   1.420
 4436SOL    HW214208   3.778   1.639   1.508
 4437SOL     OW14209   0.516   3.639   2.782
 4437SOL    HW114210   0.430   3.689   2.795
 4437SOL    HW214211   0.502   3.542   2.805
 4438SOL     OW14212   4.695   0.116   5.507
 4438SOL    HW114213   4.702   0.063   5.422
 4438SOL    HW214214   4.704   0.213   5.486
 4439SOL     OW14215   1.241   5.177   2.905
 4439SOL    HW114216   1.175   5.176   2.981
 4439SOL    HW214217   1.332   5.156   2.940
 4440SOL     OW14218   2.736   4.204   1.183
 4440SOL    HW114219   2.680   4.227   1.103
 4440SOL    HW214220   2.682   4.154   1.250
 4441SOL     OW14221   0.033   1.522   0.810
 4441SOL    HW114222   0.071   1.525   0.717
 4441SOL    HW214223   0.092   1.466   0.868
 4442SOL     OW14224   1.248   5.129   5.753
 4442SOL    HW114225   1.277   5.204   5.694
 4442SOL    HW214226   1.148   5.125   5.755
 4443SOL     OW14227   0.540   4.470   6.362
 4443SOL    HW114228   0.626   4.492   6.317
 4443SOL    HW214229   0.552   4.471   6.461
 4444SOL     OW14230   4.483   4.009   0.399
 4444SOL    HW114231   4.428   3.926   0.407
 4444SOL    HW214232   4.489   4.036   0.303
 4445SOL     OW14233   1.535   5.288   0.312
 4445SOL    HW114234   1.566   5.337   0.231
 4445SOL    HW214235   1.435   5.283   0.312
 4446SOL     OW14236   5.625   1.816   0.128
 4446SOL    HW114237   5.643   1.721   0.151
 4446SOL    HW214238   5.549   1.850   0.183
 4447SOL     OW14239   5.932   4.428   5.387
 4447SOL    HW114240   5.944   4.526   5.371
 4447SOL    HW214241   5.966   4.405   5.478
 4448SOL     OW14242   3.019   0.133   1.199
 4448SOL    HW114243   3.005   0.079   1.282
 4448SOL    HW214244   2.931   0.164   1.164
 4449SOL     OW14245   4.426   0.970   6.581
 4449SOL    HW114246   4.341   1.008   6.619
 4449SOL    HW214247   4.423   0.871   6.587
 4450SOL     OW14248   3.179   1.516   0.100
 4450SOL    HW114249   3.157   1.420   0.082
 4450SOL    HW214250   3.190   1.565   0.014
 4451SOL     OW14251   4.901   4.848   4.264
 4451SOL    HW114252   4.964   4.914   4.223
 4451SOL    HW214253   4.809   4.862   4.227
 4452SOL     OW14254   6.134   6.228   4.597
 4452SOL    HW114255   6.198   6.174   4.652
 4452SOL    HW214256   6.093   6.169   4.527
 4453SOL     OW14257   1.184   2.832   1.729
 4453SOL    HW114258   1.248   2.762   1.762
 4453SOL    HW214259   1.190   2.913   1.787
 4454SOL     OW14260   0.400   1.501   6.999
 4454SOL    HW114261   0.455   1.418   7.001
 4454SOL    HW214262   0.382   1.532   0.073
 4455SOL     OW14263   5.825   5.472   5.326
 4455SOL    HW114264   5.767   5.488   5.407
 4455SOL    HW214265   5.782   5.514   5.246
 4456SOL     OW14266   2.149   6.113   3.449
 4456SOL    HW114267   2.148   6.172   3.530
 4456SOL    HW214268   2.062   6.064   3.443
 4457SOL     OW14269   1.769   2.015   4.921
 4457SOL    HW114270   1.810   1.989   4.833
 4457SOL    HW214271   1.840   2.050   4.982
 4458SOL     OW14272   2.188   3.404   1.422
 4458SOL    HW114273   2.170   3.495   1.459
 4458SOL    HW214274   2.249   3.355   1.485
 4459SOL     OW14275   2.242   1.682   4.280
 4459SOL    HW114276   2.156   1.642   4.249
 4459SOL    HW214277   2.272   1.636   4.364
 4460SOL     OW14278   0.719   3.425   4.703
 4460SOL    HW114279   0.810   3.387   4.687
 4460SOL    HW214280   0.719   3.522   4.681
 4461SOL     OW14281   1.687   0.819   1.144
 4461SOL    HW114282   1.644   0.757   1.078
 4461SOL    HW214283   1.660   0.913   1.123
 4462SOL     OW14284   6.046   4.202   2.570
 4462SOL    HW114285   5.978   4.207   2.497
 4462SOL    HW214286   6.093   4.113   2.566
 4463SOL     OW14287   4.908   1.380   1.104
 4463SOL    HW114288   4.951   1.297   1.069
 4463SOL    HW214289   4.925   1.387   1.202
 4464SOL     OW14290   0.829   5.831   0.205
 4464SOL    HW114291   0.765   5.817   0.129
 4464SOL    HW214292   0.778   5.851   0.289
 4465SOL     OW14293   2.750   5.331   0.349
 4465SOL    HW114294   2.737   5.392   0.427
 4465SOL    HW214295   2.709   5.370   0.267
 4466SOL     OW14296   1.862   2.242   3.131
 4466SOL    HW114297   1.774   2.256   3.178
 4466SOL    HW214298   1.849   2.251   3.033
 4467SOL     OW14299   2.347   5.952   3.902
 4467SOL    HW114300   2.341   5.866   3.852
 4467SOL    HW214301   2.346   5.934   4.000
 4468SOL     OW14302   1.084   3.803   1.154
 4468SOL    HW114303   1.080   3.903   1.166
 4468SOL    HW214304   1.161   3.766   1.207
 4469SOL     OW14305   2.349   0.849   1.507
 4469SOL    HW114306   2.281   0.873   1.577
 4469SOL    HW214307   2.414   0.784   1.545
 4470SOL     OW14308   0.612   1.138   1.999
 4470SOL    HW114309   0.581   1.044   1.993
 4470SOL    HW214310   0.546   1.192   2.053
 4471SOL     OW14311   1.916   2.991   6.393
 4471SOL    HW114312   1.885   3.056   6.462
 4471SOL    HW214313   1.990   2.935   6.431
 4472SOL     OW14314   1.482   2.380   0.989
 4472SOL    HW114315   1.495   2.360   1.086
 4472SOL    HW214316   1.385   2.399   0.972
 4473SOL     OW14317   6.282   3.016   3.621
 4473SOL    HW114318   6.302   3.046   3.527
 4473SOL    HW214319   6.356   3.046   3.681
 4474SOL     OW14320   2.826   0.791   1.949
 4474SOL    HW114321   2.825   0.693   1.967
 4474SOL    HW214322   2.736   0.819   1.915
 4475SOL     OW14323   0.832   3.675   1.755
 4475SOL    HW114324   0.814   3.584   1.716
 4475SOL    HW214325   0.898   3.667   1.829
 4476SOL     OW14326   6.033   1.157   4.449
 4476SOL    HW114327   5.952   1.130   4.500
 4476SOL    HW214328   6.015   1.150   4.351
 4477SOL     OW14329   1.713   0.221   5.152
 4477SOL    HW114330   1.746   0.277   5.228
 4477SOL    HW214331   1.651   0.151   5.188
 4478SOL     OW14332   1.144   0.261   1.405
 4478SOL    HW114333   1.154   0.219   1.495
 4478SOL    HW214334   1.230   0.253   1.354
 4479SOL     OW14335   0.956   1.569   0.306
 4479SOL    HW114336   0.861   1.571   0.337
 4479SOL    HW214337   1.012   1.622   0.370
 4480SOL     OW14338   0.777   4.517   4.826
 4480SOL    HW114339   0.718   4.440   4.851
 4480SOL    HW214340   0.788   4.578   4.905
 4481SOL     OW14341   2.302   5.766   5.328
 4481SOL    HW114342   2.220   5.709   5.341
 4481SOL    HW214343   2.382   5.707   5.317
 4482SOL     OW14344   2.532   3.873   6.133
 4482SOL    HW114345   2.543   3.852   6.035
 4482SOL    HW214346   2.487   3.962   6.142
 4483SOL     OW14347   0.551   2.459   1.825
 4483SOL    HW114348   0.581   2.424   1.736
 4483SOL    HW214349   0.474   2.521   1.811
 4484SOL     OW14350   2.411   2.963   0.388
 4484SOL    HW114351   2.405   3.019   0.471
 4484SOL    HW214352   2.348   2.886   0.395
 4485SOL     OW14353   4.662   2.497   5.035
 4485SOL    HW114354   4.602   2.419   5.018
 4485SOL    HW214355   4.696   2.493   5.129
 4486SOL     OW14356   5.720   5.037   5.653
 4486SOL    HW114357   5.774   4.969   5.702
 4486SOL    HW214358   5.624   5.009   5.651
 4487SOL     OW14359   1.982   2.607   6.477
 4487SOL    HW114360   2.057   2.581   6.538
 4487SOL    HW214361   2.019   2.651   6.396
 4488SOL     OW14362   1.211   3.652   3.928
 4488SOL    HW114363   1.137   3.678   3.866
 4488SOL    HW214364   1.184   3.570   3.980
 4489SOL     OW14365   5.086   5.174   5.279
 4489SOL    HW114366   5.114   5.080   5.263
 4489SOL    HW214367   5.006   5.176   5.339
 4490SOL     OW14368   5.579   2.197   1.173
 4490SOL    HW114369   5.665   2.206   1.122
 4490SOL    HW214370   5.576   2.264   1.247
 4491SOL     OW14371   0.736   3.768   3.148
 4491SOL    HW114372   0.683   3.773   3.232
 4491SOL    HW214373   0.724   3.851   3.095
 4492SOL     OW14374   5.868   1.218   1.858
 4492SOL    HW114375   5.829   1.310   1.863
 4492SOL    HW214376   5.874   1.189   1.763
 4493SOL     OW14377   5.984   6.516   4.335
 4493SOL    HW114378   5.919   6.592   4.338
 4493SOL    HW214379   5.978   6.471   4.246
 4494SOL     OW14380   0.749   1.298   5.754
 4494SOL    HW114381   0.784   1.279   5.846
 4494SOL    HW214382   0.713   1.214   5.714
 4495SOL     OW14383   3.827   6.757   2.774
 4495SOL    HW114384   3.779   6.671   2.791
 4495SOL    HW214385   3.903   6.741   2.711
 4496SOL     OW14386   4.566   6.228   6.801
 4496SOL    HW114387   4.628   6.151   6.788
 4496SOL    HW214388   4.607   6.294   6.864
 4497SOL     OW14389   4.140   2.420   0.066
 4497SOL    HW114390   4.162   2.330   0.103
 4497SOL    HW214391   4.054   2.414   0.016
 4498SOL     OW14392   6.940   5.216   6.484
 4498SOL    HW114393   6.887   5.158   6.423
 4498SOL    HW214394   6.947   5.173   6.574
 4499SOL     OW14395   6.055   1.714   3.469
 4499SOL    HW114396   6.046   1.798   3.417
 4499SOL    HW214397   6.115   1.729   3.547
 4500SOL     OW14398   4.183   4.394   6.467
 4500SOL    HW114399   4.167   4.349   6.556
 4500SOL    HW214400   4.164   4.492   6.476
 4501SOL     OW14401   6.095   2.317   2.344
 4501SOL    HW114402   6.136   2.305   2.254
 4501SOL    HW214403   5.995   2.308   2.336
 4502SOL     OW14404   0.802   3.921   0.225
 4502SOL    HW114405   0.824   3.823   0.222
 4502SOL    HW214406   0.794   3.956   0.132
 4503SOL     OW14407   2.716   0.155   2.173
 4503SOL    HW114408   2.749   0.062   2.193
 4503SOL    HW214409   2.682   0.158   2.079
 4504SOL     OW14410   6.520   1.858   4.203
 4504SOL    HW114411   6.591   1.928   4.193
 4504SOL    HW214412   6.529   1.791   4.129
 4505SOL     OW14413   6.686   4.189   2.523
 4505SOL    HW114414   6.657   4.275   2.481
 4505SOL    HW214415   6.749   4.207   2.599
 4506SOL     OW14416   5.592   3.177   3.808
 4506SOL    HW114417   5.515   3.231   3.841
 4506SOL    HW214418   5.629   3.122   3.883
 4507SOL     OW14419   6.907   3.133   3.593
 4507SOL    HW114420   6.816   3.093   3.584
 4507SOL    HW214421   6.970   3.065   3.631
 4508SOL     OW14422   1.264   4.432   0.260
 4508SOL    HW114423   1.287   4.460   0.354
 4508SOL    HW214424   1.225   4.510   0.211
 4509SOL     OW14425   4.964   2.181   2.583
 4509SOL    HW114426   4.955   2.240   2.663
 4509SOL    HW214427   5.019   2.226   2.513
 4510SOL     OW14428   4.307   1.623   4.079
 4510SOL    HW114429   4.344   1.704   4.124
 4510SOL    HW214430   4.211   1.611   4.105
 4511SOL     OW14431   6.807   3.817   1.175
 4511SOL    HW114432   6.865   3.744   1.138
 4511SOL    HW214433   6.781   3.794   1.268
 4512SOL     OW14434   3.106   2.020   6.023
 4512SOL    HW114435   3.055   1.974   6.096
 4512SOL    HW214436   3.069   2.112   6.009
 4513SOL     OW14437   0.459   6.109   6.454
 4513SOL    HW114438   0.472   6.166   6.373
 4513SOL    HW214439   0.397   6.155   6.517
 4514SOL     OW14440   3.600   3.335   0.006
 4514SOL    HW114441   3.556   3.406   6.972
 4514SOL    HW214442   3.662   3.377   0.073
 4515SOL     OW14443   5.510   1.212   4.675
 4515SOL    HW114444   5.510   1.152   4.596
 4515SOL    HW214445   5.483   1.304   4.646
 4516SOL     OW14446   2.854   0.852   5.652
 4516SOL    HW114447   2.829   0.949   5.647
 4516SOL    HW214448   2.777   0.799   5.686
 4517SOL     OW14449   4.330   6.788   6.763
 4517SOL    HW114450   4.261   6.774   6.834
 4517SOL    HW214451   4.308   6.871   6.711
 4518SOL     OW14452   1.294   6.856   1.309
 4518SOL    HW114453   1.374   6.914   1.326
 4518SOL    HW214454   1.252   6.882   1.222
 4519SOL     OW14455   4.841   6.704   6.918
 4519SOL    HW114456   4.784   6.770   6.870
 4519SOL    HW214457   4.813   6.611   6.894
 4520SOL     OW14458   4.251   6.004   5.486
 4520SOL    HW114459   4.227   5.933   5.419
 4520SOL    HW214460   4.264   6.091   5.439
 4521SOL     OW14461   5.005   1.889   4.682
 4521SOL    HW114462   4.983   1.864   4.777
 4521SOL    HW214463   4.952   1.970   4.656
 4522SOL     OW14464   5.566   4.017   3.519
 4522SOL    HW114465   5.580   4.004   3.617
 4522SOL    HW214466   5.529   4.108   3.503
 4523SOL     OW14467   0.958   3.873   6.812
 4523SOL    HW114468   1.034   3.926   6.775
 4523SOL    HW214469   0.877   3.887   6.756
 4524SOL     OW14470   6.995   3.952   2.059
 4524SOL    HW114471   6.927   4.025   2.069
 4524SOL    HW214472   0.006   3.922   2.149
 4525SOL     OW14473   2.391   2.208   5.537
 4525SOL    HW114474   2.417   2.285   5.596
 4525SOL    HW214475   2.439   2.215   5.450
 4526SOL     OW14476   0.212   0.746   6.434
 4526SOL    HW114477   0.224   0.653   6.398
 4526SOL    HW214478   0.284   0.766   6.500
 4527SOL     OW14479   6.981   0.359   2.946
 4527SOL    HW114480   0.044   0.305   2.934
 4527SOL    HW214481   6.917   0.342   2.871
 4528SOL     OW14482   4.056   0.424   6.312
 4528SOL    HW114483   3.967   0.413   6.356
 4528SOL    HW214484   4.127   0.392   6.374
 4529SOL     OW14485   2.755   1.081   6.226
 4529SOL    HW114486   2.747   1.050   6.131
 4529SOL    HW214487   2.834   1.036   6.269
 4530SOL     OW14488   2.506   6.305   4.629
 4530SOL    HW114489   2.452   6.334   4.709
 4530SOL    HW214490   2.457   6.332   4.546
 4531SOL     OW14491   1.392   4.447   6.604
 4531SOL    HW114492   1.393   4.352   6.573
 4531SOL    HW214493   1.444   4.504   6.540
 4532SOL     OW14494   5.067   0.610   2.701
 4532SOL    HW114495   5.056   0.570   2.793
 4532SOL    HW214496   5.165   0.615   2.679
 4533SOL     OW14497   1.457   1.117   2.899
 4533SOL    HW114498   1.384   1.062   2.858
 4533SOL    HW214499   1.502   1.064   2.971
 4534SOL     OW14500   4.261   2.051   5.223
 4534SOL    HW114501   4.217   2.073   5.310
 4534SOL    HW214502   4.348   2.100   5.217
 4535SOL     OW14503   3.503   1.549   1.213
 4535SOL    HW114504   3.456   1.592   1.290
 4535SOL    HW214505   3.542   1.620   1.154
 4536SOL     OW14506   2.225   1.571   5.572
 4536SOL    HW114507   2.148   1.584   5.509
 4536SOL    HW214508   2.235   1.474   5.593
 4537SOL     OW14509   4.107   3.690   3.297
 4537SOL    HW114510   4.061   3.770   3.258
 4537SOL    HW214511   4.131   3.627   3.223
 4538SOL     OW14512   0.903   2.369   1.995
 4538SOL    HW114513   0.984   2.395   2.048
 4538SOL    HW214514   0.887   2.437   1.924
 4539SOL     OW14515   2.359   5.297   4.632
 4539SOL    HW114516   2.333   5.302   4.535
 4539SOL    HW214517   2.365   5.389   4.670
 4540SOL     OW14518   0.836   0.730   0.698
 4540SOL    HW114519   0.896   0.756   0.774
 4540SOL    HW214520   0.756   0.682   0.734
 4541SOL     OW14521   4.503   1.765   6.655
 4541SOL    HW114522   4.421   1.718   6.686
 4541SOL    HW214523   4.509   1.855   6.697
 4542SOL     OW14524   6.760   2.749   0.746
 4542SOL    HW114525   6.755   2.758   0.646
 4542SOL    HW214526   6.839   2.800   0.780
 4543SOL     OW14527   4.429   1.967   0.700
 4543SOL    HW114528   4.445   1.979   0.602
 4543SOL    HW214529   4.505   1.915   0.739
 4544SOL     OW14530   4.772   4.833   1.117
 4544SOL    HW114531   4.809   4.750   1.158
 4544SOL    HW214532   4.741   4.894   1.190
 4545SOL     OW14533   0.567   4.321   5.469
 4545SOL    HW114534   0.643   4.300   5.407
 4545SOL    HW214535   0.496   4.371   5.419
 4546SOL     OW14536   2.799   0.483   5.811
 4546SOL    HW114537   2.808   0.582   5.824
 4546SOL    HW214538   2.772   0.465   5.716
 4547SOL     OW14539   6.509   0.476   6.893
 4547SOL    HW114540   6.546   0.539   6.824
 4547SOL    HW214541   6.540   0.383   6.874
 4548SOL     OW14542   2.416   2.531   3.204
 4548SOL    HW114543   2.350   2.542   3.130
 4548SOL    HW214544   2.416   2.613   3.262
 4549SOL     OW14545   4.974   4.512   2.532
 4549SOL    HW114546   4.926   4.583   2.584
 4549SOL    HW214547   4.946   4.516   2.436
 4550SOL     OW14548   0.730   4.475   3.366
 4550SOL    HW114549   0.744   4.405   3.296
 4550SOL    HW214550   0.648   4.453   3.419
 4551SOL     OW14551   0.908   4.082   5.120
 4551SOL    HW114552   0.839   4.041   5.060
 4551SOL    HW214553   0.913   4.029   5.205
 4552SOL     OW14554   5.925   1.802   2.025
 4552SOL    HW114555   5.972   1.816   2.112
 4552SOL    HW214556   5.828   1.824   2.035
 4553SOL     OW14557   5.102   4.334   6.779
 4553SOL    HW114558   5.097   4.423   6.734
 4553SOL    HW214559   5.128   4.346   6.875
 4554SOL     OW14560   0.222   6.304   1.026
 4554SOL    HW114561   0.257   6.226   1.078
 4554SOL    HW214562   0.269   6.308   0.937
 4555SOL     OW14563   0.981   0.899   6.435
 4555SOL    HW114564   1.032   0.813   6.443
 4555SOL    HW214565   1.044   0.971   6.406
 4556SOL     OW14566   6.122   3.144   5.306
 4556SOL    HW114567   6.046   3.123   5.245
 4556SOL    HW214568   6.094   3.132   5.401
 4557SOL     OW14569   6.096   5.060   5.073
 4557SOL    HW114570   6.016   5.004   5.095
 4557SOL    HW214571   6.177   5.001   5.065
 4558SOL     OW14572   6.817   3.108   4.902
 4558SOL    HW114573   6.915   3.122   4.907
 4558SOL    HW214574   6.772   3.193   4.874
 4559SOL     OW14575   0.252   3.184   2.817
 4559SOL    HW114576   0.195   3.104   2.835
 4559SOL    HW214577   0.222   3.260   2.875
 4560SOL     OW14578   6.266   4.305   2.430
 4560SOL    HW114579   6.185   4.282   2.485
 4560SOL    HW214580   6.274   4.239   2.355
 4561SOL     OW14581   3.473   2.028   3.988
 4561SOL    HW114582   3.480   2.053   4.085
 4561SOL    HW214583   3.466   1.929   3.979
 4562SOL     OW14584   2.514   6.303   0.602
 4562SOL    HW114585   2.552   6.384   0.556
 4562SOL    HW214586   2.568   6.223   0.578
 4563SOL     OW14587   6.575   3.421   1.694
 4563SOL    HW114588   6.531   3.412   1.783
 4563SOL    HW214589   6.670   3.449   1.706
 4564SOL     OW14590   6.834   4.207   2.065
 4564SOL    HW114591   6.859   4.252   2.151
 4564SOL    HW214592   6.890   4.245   1.990
 4565SOL     OW14593   1.507   0.832   4.371
 4565SOL    HW114594   1.583   0.766   4.365
 4565SOL    HW214595   1.468   0.829   4.463
 4566SOL     OW14596   0.328   3.598   1.176
 4566SOL    HW114597   0.413   3.650   1.162
 4566SOL    HW214598   0.287   3.625   1.263
 4567SOL     OW14599   6.883   0.575   6.936
 4567SOL    HW114600   6.845   0.514   6.866
 4567SOL    HW214601   6.905   0.663   6.894
 4568SOL     OW14602   0.673   4.264   4.853
 4568SOL    HW114603   0.762   4.227   4.881
 4568SOL    HW214604   0.635   4.208   4.780
 4569SOL     OW14605   3.257   0.794   2.801
 4569SOL    HW114606   3.211   0.880   2.825
 4569SOL    HW214607   3.303   0.757   2.881
 4570SOL     OW14608   6.110   6.030   1.852
 4570SOL    HW114609   6.121   5.933   1.874
 4570SOL    HW214610   6.175   6.083   1.906
 4571SOL     OW14611   5.040   2.936   6.483
 4571SOL    HW114612   5.106   2.923   6.557
 4571SOL    HW214613   5.069   2.883   6.403
 4572SOL     OW14614   2.625   2.036   6.294
 4572SOL    HW114615   2.554   2.102   6.271
 4572SOL    HW214616   2.676   2.012   6.212
 4573SOL     OW14617   0.972   7.009   0.877
 4573SOL    HW114618   0.881   7.004   0.918
 4573SOL    HW214619   0.964   7.005   0.777
 4574SOL     OW14620   5.999   4.209   7.017
 4574SOL    HW114621   6.055   4.291   0.009
 4574SOL    HW214622   6.049   4.129   0.033
 4575SOL     OW14623   6.118   0.936   4.085
 4575SOL    HW114624   6.179   0.992   4.030
 4575SOL    HW214625   6.152   0.931   4.179
 4576SOL     OW14626   2.602   4.877   5.092
 4576SOL    HW114627   2.551   4.905   5.011
 4576SOL    HW214628   2.571   4.787   5.122
 4577SOL     OW14629   1.111   2.437   2.731
 4577SOL    HW114630   1.075   2.346   2.750
 4577SOL    HW214631   1.160   2.471   2.811
 4578SOL     OW14632   0.187   0.635   3.469
 4578SOL    HW114633   0.169   0.537   3.455
 4578SOL    HW214634   0.203   0.679   3.381
 4579SOL     OW14635   4.615   1.150   1.759
 4579SOL    HW114636   4.681   1.096   1.811
 4579SOL    HW214637   4.610   1.116   1.665
 4580SOL     OW14638   5.574   4.212   0.692
 4580SOL    HW114639   5.623   4.136   0.735
 4580SOL    HW214640   5.639   4.286   0.673
 4581SOL     OW14641   2.778   6.598   2.307
 4581SOL    HW114642   2.764   6.605   2.406
 4581SOL    HW214643   2.705   6.647   2.259
 4582SOL     OW14644   4.589   0.555   2.953
 4582SOL    HW114645   4.489   0.556   2.958
 4582SOL    HW214646   4.621   0.461   2.946
 4583SOL     OW14647   2.217   1.052   6.202
 4583SOL    HW114648   2.183   1.101   6.121
 4583SOL    HW214649   2.142   1.002   6.244
 4584SOL     OW14650   1.898   6.844   5.515
 4584SOL    HW114651   1.921   6.940   5.528
 4584SOL    HW214652   1.928   6.792   5.595
 4585SOL     OW14653   1.608   3.827   3.534
 4585SOL    HW114654   1.559   3.865   3.612
 4585SOL    HW214655   1.650   3.740   3.559
 4586SOL     OW14656   4.923   4.445   0.454
 4586SOL    HW114657   4.959   4.401   0.372
 4586SOL    HW214658   4.961   4.400   0.535
 4587SOL     OW14659   3.432   3.555   4.946
 4587SOL    HW114660   3.402   3.599   5.030
 4587SOL    HW214661   3.480   3.622   4.888
 4588SOL     OW14662   3.310   3.396   5.791
 4588SOL    HW114663   3.313   3.488   5.752
 4588SOL    HW214664   3.391   3.382   5.849
 4589SOL     OW14665   5.919   5.681   2.240
 4589SOL    HW114666   5.938   5.774   2.269
 4589SOL    HW214667   5.962   5.663   2.152
 4590SOL     OW14668   3.682   5.852   2.117
 4590SOL    HW114669   3.699   5.941   2.075
 4590SOL    HW214670   3.603   5.810   2.074
 4591SOL     OW14671   2.393   0.854   5.203
 4591SOL    HW114672   2.492   0.842   5.196
 4591SOL    HW214673   2.368   0.944   5.166
 4592SOL     OW14674   2.709   1.870   3.582
 4592SOL    HW114675   2.707   1.770   3.586
 4592SOL    HW214676   2.649   1.907   3.652
 4593SOL     OW14677   6.755   5.661   2.522
 4593SOL    HW114678   6.830   5.727   2.532
 4593SOL    HW214679   6.791   5.569   2.536
 4594SOL     OW14680   2.708   6.927   2.892
 4594SOL    HW114681   2.755   7.010   2.921
 4594SOL    HW214682   2.698   6.928   2.792
 4595SOL     OW14683   4.755   2.124   5.671
 4595SOL    HW114684   4.770   2.222   5.681
 4595SOL    HW214685   4.817   2.074   5.731
 4596SOL     OW14686   0.454   1.359   1.808
 4596SOL    HW114687   0.361   1.352   1.774
 4596SOL    HW214688   0.453   1.392   1.902
 4597SOL     OW14689   2.190   5.175   6.643
 4597SOL    HW114690   2.205   5.167   6.742
 4597SOL    HW214691   2.107   5.125   6.618
 4598SOL     OW14692   2.362   5.247   6.917
 4598SOL    HW114693   2.269   5.241   6.956
 4598SOL    HW214694   2.417   5.172   6.951
 4599SOL     OW14695   1.719   3.327   1.940
 4599SOL    HW114696   1.733   3.239   1.894
 4599SOL    HW214697   1.798   3.387   1.924
 4600SOL     OW14698   0.235   7.018   6.359
 4600SOL    HW114699   0.276   6.999   6.448
 4600SOL    HW214700   0.288   6.974   6.287
 4601SOL     OW14701   0.844   1.000   4.785
 4601SOL    HW114702   0.801   1.023   4.698
 4601SOL    HW214703   0.868   0.903   4.785
 4602SOL     OW14704   2.640   0.040   6.036
 4602SOL    HW114705   2.716   6.997   6.024
 4602SOL    HW214706   2.557   7.018   5.999
 4603SOL     OW14707   3.886   6.118   1.192
 4603SOL    HW114708   3.920   6.212   1.203
 4603SOL    HW214709   3.951   6.054   1.233
 4604SOL     OW14710   4.910   6.876   5.464
 4604SOL    HW114711   4.935   6.814   5.389
 4604SOL    HW214712   4.976   6.866   5.539
 4605SOL     OW14713   1.899   0.263   1.835
 4605SOL    HW114714   1.881   0.305   1.747
 4605SOL    HW214715   1.997   0.246   1.845
 4606SOL     OW14716   0.420   6.714   2.658
 4606SOL    HW114717   0.437   6.812   2.664
 4606SOL    HW214718   0.414   6.676   2.751
 4607SOL     OW14719   2.047   3.673   3.299
 4607SOL    HW114720   1.977   3.735   3.334
 4607SOL    HW214721   2.127   3.726   3.269
 4608SOL     OW14722   0.395   3.371   4.132
 4608SOL    HW114723   0.412   3.452   4.188
 4608SOL    HW214724   0.311   3.383   4.080
 4609SOL     OW14725   4.656   5.884   6.742
 4609SOL    HW114726   4.629   5.872   6.647
 4609SOL    HW214727   4.756   5.891   6.747
 4610SOL     OW14728   5.591   2.305   7.017
 4610SOL    HW114729   5.586   2.207   6.997
 4610SOL    HW214730   5.664   2.322   0.064
 4611SOL     OW14731   0.275   0.995   5.653
 4611SOL    HW114732   0.305   0.909   5.693
 4611SOL    HW214733   0.177   0.990   5.632
 4612SOL     OW14734   2.382   6.165   2.340
 4612SOL    HW114735   2.371   6.095   2.269
 4612SOL    HW214736   2.441   6.238   2.306
 4613SOL     OW14737   2.138   4.712   2.591
 4613SOL    HW114738   2.098   4.791   2.545
 4613SOL    HW214739   2.148   4.637   2.526
 4614SOL     OW14740   6.277   3.590   3.888
 4614SOL    HW114741   6.281   3.601   3.789
 4614SOL    HW214742   6.248   3.675   3.931
 4615SOL     OW14743   1.026   0.710   1.581
 4615SOL    HW114744   0.946   0.745   1.630
 4615SOL    HW214745   1.092   0.673   1.647
 4616SOL     OW14746   6.562   2.591   4.818
 4616SOL    HW114747   6.488   2.524   4.825
 4616SOL    HW214748   6.528   2.680   4.851
 4617SOL     OW14749   0.929   2.712   2.196
 4617SOL    HW114750   0.888   2.686   2.109
 4617SOL    HW214751   0.946   2.630   2.250
 4618SOL     OW14752   2.753   3.603   5.501
 4618SOL    HW114753   2.771   3.603   5.599
 4618SOL    HW214754   2.677   3.665   5.481
 4619SOL     OW14755   3.215   6.317   3.750
 4619SOL    HW114756   3.219   6.350   3.656
 4619SOL    HW214757   3.300   6.269   3.772
 4620SOL     OW14758   0.866   5.534   1.372
 4620SOL    HW114759   0.773   5.545   1.336
 4620SOL    HW214760   0.867   5.458   1.437
 4621SOL     OW14761   4.929   0.301   1.926
 4621SOL    HW114762   5.008   0.239   1.920
 4621SOL    HW214763   4.863   0.264   1.991
 4622SOL     OW14764   4.422   4.837   0.935
 4622SOL    HW114765   4.498   4.794   0.885
 4622SOL    HW214766   4.411   4.792   1.024
 4623SOL     OW14767   3.865   5.383   1.381
 4623SOL    HW114768   3.963   5.363   1.369
 4623SOL    HW214769   3.811   5.326   1.320
 4624SOL     OW14770   3.967   1.538   3.129
 4624SOL    HW114771   3.943   1.530   3.226
 4624SOL    HW214772   4.054   1.587   3.120
 4625SOL     OW14773   2.318   5.860   1.873
 4625SOL    HW114774   2.338   5.798   1.797
 4625SOL    HW214775   2.222   5.850   1.899
 4626SOL     OW14776   4.183   3.787   1.648
 4626SOL    HW114777   4.101   3.780   1.591
 4626SOL    HW214778   4.224   3.877   1.635
 4627SOL     OW14779   0.219   5.789   4.956
 4627SOL    HW114780   0.303   5.737   4.971
 4627SOL    HW214781   0.240   5.873   4.905
 4628SOL     OW14782   4.493   4.742   3.039
 4628SOL    HW114783   4.482   4.642   3.042
 4628SOL    HW214784   4.510   4.770   2.944
 4629SOL     OW14785   2.095   5.748   6.095
 4629SOL    HW114786   2.022   5.812   6.072
 4629SOL    HW214787   2.168   5.755   6.027
 4630SOL     OW14788   1.599   5.186   2.601
 4630SOL    HW114789   1.571   5.276   2.569
 4630SOL    HW214790   1.617   5.127   2.522
 4631SOL     OW14791   1.085   0.354   3.556
 4631SOL    HW114792   1.074   0.286   3.629
 4631SOL    HW214793   1.133   0.313   3.479
 4632SOL     OW14794   2.600   5.549   2.889
 4632SOL    HW114795   2.697   5.568   2.901
 4632SOL    HW214796   2.569   5.589   2.802
 4633SOL     OW14797   5.031   1.472   4.347
 4633SOL    HW114798   5.048   1.517   4.435
 4633SOL    HW214799   4.936   1.443   4.343
 4634SOL     OW14800   3.053   3.767   5.118
 4634SOL    HW114801   2.980   3.826   5.153
 4634SOL    HW214802   3.071   3.694   5.184
 4635SOL     OW14803   4.474   5.113   1.136
 4635SOL    HW114804   4.527   5.028   1.137
 4635SOL    HW214805   4.470   5.151   1.229
 4636SOL     OW14806   1.773   5.161   0.706
 4636SOL    HW114807   1.699   5.094   0.701
 4636SOL    HW214808   1.761   5.229   0.634
 4637SOL     OW14809   1.377   6.782   0.856
 4637SOL    HW114810   1.470   6.755   0.879
 4637SOL    HW214811   1.326   6.702   0.821
 4638SOL     OW14812   3.171   5.086   6.639
 4638SOL    HW114813   3.105   5.122   6.705
 4638SOL    HW214814   3.192   5.156   6.572
 4639SOL     OW14815   2.991   2.214   6.884
 4639SOL    HW114816   2.960   2.184   6.793
 4639SOL    HW214817   3.076   2.166   6.907
 4640SOL     OW14818   5.895   2.594   5.011
 4640SOL    HW114819   5.988   2.630   5.017
 4640SOL    HW214820   5.869   2.583   4.915
 4641SOL     OW14821   1.970   7.001   4.023
 4641SOL    HW114822   2.020   0.068   4.018
 4641SOL    HW214823   1.897   7.001   3.955
 4642SOL     OW14824   1.703   1.093   3.933
 4642SOL    HW114825   1.707   1.038   4.016
 4642SOL    HW214826   1.794   1.100   3.892
 4643SOL     OW14827   6.539   2.062   0.207
 4643SOL    HW114828   6.486   2.148   0.204
 4643SOL    HW214829   6.477   1.986   0.223
 4644SOL     OW14830   7.002   0.911   5.879
 4644SOL    HW114831   6.919   0.865   5.910
 4644SOL    HW214832   0.043   0.926   5.957
 4645SOL     OW14833   1.850   0.822   3.938
 4645SOL    HW114834   1.751   0.835   3.947
 4645SOL    HW214835   1.885   0.881   3.866
 4646SOL     OW14836   2.451   5.044   4.544
 4646SOL    HW114837   2.364   4.997   4.528
 4646SOL    HW214838   2.434   5.138   4.571
 4647SOL     OW14839   1.719   6.776   3.035
 4647SOL    HW114840   1.819   6.774   3.041
 4647SOL    HW214841   1.692   6.788   2.940
 4648SOL     OW14842   2.757   0.864   4.159
 4648SOL    HW114843   2.712   0.904   4.079
 4648SOL    HW214844   2.856   0.859   4.143
 4649SOL     OW14845   5.958   0.942   1.207
 4649SOL    HW114846   5.868   0.900   1.218
 4649SOL    HW214847   5.983   0.941   1.110
 4650SOL     OW14848   4.602   5.978   1.040
 4650SOL    HW114849   4.524   5.924   1.073
 4650SOL    HW214850   4.673   5.978   1.110
 4651SOL     OW14851   6.056   3.855   6.492
 4651SOL    HW114852   5.958   3.832   6.498
 4651SOL    HW214853   6.067   3.954   6.500
 4652SOL     OW14854   6.935   5.886   3.975
 4652SOL    HW114855   6.880   5.963   4.005
 4652SOL    HW214856   7.016   5.919   3.925
 4653SOL     OW14857   4.721   5.879   0.287
 4653SOL    HW114858   4.727   5.860   0.385
 4653SOL    HW214859   4.790   5.824   0.239
 4654SOL     OW14860   6.889   6.556   5.082
 4654SOL    HW114861   6.842   6.470   5.101
 4654SOL    HW214862   6.950   6.578   5.157
 4655SOL     OW14863   5.284   3.517   1.819
 4655SOL    HW114864   5.203   3.506   1.876
 4655SOL    HW214865   5.319   3.611   1.827
 4656SOL     OW14866   0.701   0.258   1.470
 4656SOL    HW114867   0.745   0.344   1.442
 4656SOL    HW214868   0.762   0.182   1.450
 4657SOL     OW14869   5.758   6.010   1.431
 4657SOL    HW114870   5.781   5.927   1.381
 4657SOL    HW214871   5.741   6.084   1.365
 4658SOL     OW14872   2.919   2.661   5.667
 4658SOL    HW114873   2.894   2.735   5.604
 4658SOL    HW214874   3.006   2.684   5.711
 4659SOL     OW14875   3.678   4.238   1.423
 4659SOL    HW114876   3.621   4.268   1.500
 4659SOL    HW214877   3.622   4.184   1.360
 4660SOL     OW14878   1.580   0.110   4.019
 4660SOL    HW114879   1.664   0.078   3.974
 4660SOL    HW214880   1.503   0.104   3.956
 4661SOL     OW14881   2.380   4.249   5.582
 4661SOL    HW114882   2.371   4.206   5.492
 4661SOL    HW214883   2.289   4.268   5.620
 4662SOL     OW14884   2.910   0.093   5.352
 4662SOL    HW114885   2.848   0.080   5.275
 4662SOL    HW214886   2.911   0.190   5.378
 4663SOL     OW14887   1.268   6.585   0.169
 4663SOL    HW114888   1.283   6.670   0.220
 4663SOL    HW214889   1.325   6.513   0.207
 4664SOL     OW14890   0.017   0.040   0.860
 4664SOL    HW114891   0.100   0.060   0.912
 4664SOL    HW214892   6.958   0.040   0.922
 4665SOL     OW14893   1.904   0.845   5.929
 4665SOL    HW114894   1.894   0.916   5.859
 4665SOL    HW214895   1.979   0.784   5.905
 4666SOL     OW14896   1.969   2.434   0.116
 4666SOL    HW114897   1.914   2.353   0.134
 4666SOL    HW214898   1.911   2.515   0.119
 4667SOL     OW14899   6.589   3.872   1.771
 4667SOL    HW114900   6.649   3.936   1.819
 4667SOL    HW214901   6.645   3.804   1.723
 4668SOL     OW14902   3.975   2.122   5.153
 4668SOL    HW114903   3.978   2.044   5.215
 4668SOL    HW214904   3.880   2.150   5.139
 4669SOL     OW14905   4.908   0.062   6.970
 4669SOL    HW114906   4.910   0.158   6.997
 4669SOL    HW214907   4.832   0.016   7.016
 4670SOL     OW14908   1.324   3.255   0.228
 4670SOL    HW114909   1.334   3.241   0.326
 4670SOL    HW214910   1.266   3.183   0.190
 4671SOL     OW14911   0.755   3.412   0.229
 4671SOL    HW114912   0.798   3.355   0.159
 4671SOL    HW214913   0.775   3.374   0.320
 4672SOL     OW14914   4.669   4.372   6.211
 4672SOL    HW114915   4.575   4.391   6.241
 4672SOL    HW214916   4.691   4.428   6.131
 4673SOL     OW14917   5.215   0.565   6.764
 4673SOL    HW114918   5.249   0.470   6.764
 4673SOL    HW214919   5.224   0.604   6.855
 4674SOL     OW14920   6.549   1.367   0.510
 4674SOL    HW114921   6.640   1.397   0.538
 4674SOL    HW214922   6.548   1.267   0.502
 4675SOL     OW14923   3.851   0.004   6.507
 4675SOL    HW114924   3.769   0.031   6.456
 4675SOL    HW214925   3.827   7.004   6.602
 4676SOL     OW14926   0.794   6.785   4.300
 4676SOL    HW114927   0.836   6.699   4.328
 4676SOL    HW214928   0.810   6.854   4.371
 4677SOL     OW14929   2.704   0.207   0.020
 4677SOL    HW114930   2.681   0.129   0.078
 4677SOL    HW214931   2.799   0.201   7.011
 4678SOL     OW14932   1.879   5.537   1.766
 4678SOL    HW114933   1.910   5.495   1.852
 4678SOL    HW214934   1.930   5.497   1.690
 4679SOL     OW14935   2.571   1.439   5.911
 4679SOL    HW114936   2.638   1.512   5.895
 4679SOL    HW214937   2.588   1.396   5.999
 4680SOL     OW14938   2.422   5.218   1.388
 4680SOL    HW114939   2.409   5.124   1.421
 4680SOL    HW214940   2.441   5.216   1.290
 4681SOL     OW14941   6.782   6.241   4.321
 4681SOL    HW114942   6.799   6.161   4.378
 4681SOL    HW214943   6.739   6.313   4.375
 4682SOL     OW14944   4.117   5.663   6.765
 4682SOL    HW114945   4.178   5.586   6.784
 4682SOL    HW214946   4.127   5.690   6.669
 4683SOL     OW14947   5.650   3.964   2.684
 4683SOL    HW114948   5.723   3.918   2.736
 4683SOL    HW214949   5.627   3.908   2.604
 4684SOL     OW14950   1.224   2.178   4.156
 4684SOL    HW114951   1.292   2.248   4.135
 4684SOL    HW214952   1.160   2.213   4.225
 4685SOL     OW14953   6.571   5.576   4.785
 4685SOL    HW114954   6.594   5.570   4.883
 4685SOL    HW214955   6.623   5.650   4.744
 4686SOL     OW14956   5.311   5.340   0.265
 4686SOL    HW114957   5.327   5.293   0.179
 4686SOL    HW214958   5.317   5.275   0.341
 4687SOL     OW14959   6.461   4.433   4.691
 4687SOL    HW114960   6.554   4.418   4.725
 4687SOL    HW214961   6.395   4.413   4.763
 4688SOL     OW14962   0.874   3.484   6.735
 4688SOL    HW114963   0.970   3.470   6.759
 4688SOL    HW214964   0.861   3.577   6.701
 4689SOL     OW14965   6.170   0.222   5.623
 4689SOL    HW114966   6.267   0.245   5.621
 4689SOL    HW214967   6.143   0.198   5.716
 4690SOL     OW14968   1.091   1.160   6.656
 4690SOL    HW114969   1.014   1.223   6.663
 4690SOL    HW214970   1.098   1.128   6.561
 4691SOL     OW14971   2.616   4.203   0.903
 4691SOL    HW114972   2.565   4.149   0.836
 4691SOL    HW214973   2.709   4.219   0.869
 4692SOL     OW14974   0.090   5.273   2.559
 4692SOL    HW114975   0.167   5.211   2.570
 4692SOL    HW214976   0.006   5.221   2.548
 4693SOL     OW14977   0.291   1.738   4.740
 4693SOL    HW114978   0.281   1.719   4.642
 4693SOL    HW214979   0.361   1.809   4.753
 4694SOL     OW14980   2.958   0.634   0.217
 4694SOL    HW114981   2.885   0.576   0.254
 4694SOL    HW214982   2.938   0.730   0.237
 4695SOL     OW14983   3.961   3.209   1.488
 4695SOL    HW114984   4.002   3.206   1.579
 4695SOL    HW214985   3.978   3.122   1.442
 4696SOL     OW14986   1.246   3.900   6.015
 4696SOL    HW114987   1.170   3.963   6.035
 4696SOL    HW214988   1.304   3.890   6.096
 4697SOL     OW14989   1.630   3.514   0.893
 4697SOL    HW114990   1.661   3.425   0.861
 4697SOL    HW214991   1.706   3.578   0.893
 4698SOL     OW14992   5.259   4.851   2.112
 4698SOL    HW114993   5.233   4.792   2.035
 4698SOL    HW214994   5.177   4.882   2.160
 4699SOL     OW14995   0.342   6.711   2.388
 4699SOL    HW114996   0.251   6.684   2.355
 4699SOL    HW214997   0.349   6.693   2.486
 4700SOL     OW14998   5.497   2.071   1.720
 4700SOL    HW114999   5.512   2.138   1.793
 4700SOL    HW215000   5.418   2.013   1.744
 4701SOL     OW15001   0.960   1.282   6.989
 4701SOL    HW115002   0.971   1.262   6.892
 4701SOL    HW215003   0.870   1.253   7.019
 4702SOL     OW15004   4.645   3.970   6.899
 4702SOL    HW115005   4.562   3.982   6.844
 4702SOL    HW215006   4.629   4.005   6.991
 4703SOL     OW15007   0.964   1.804   2.907
 4703SOL    HW115008   0.941   1.877   2.972
 4703SOL    HW215009   1.063   1.793   2.903
 4704SOL     OW15010   0.119   6.087   0.838
 4704SOL    HW115011   0.211   6.116   0.814
 4704SOL    HW215012   0.123   6.007   0.899
 4705SOL     OW15013   3.603   2.959   3.742
 4705SOL    HW115014   3.554   2.957   3.829
 4705SOL    HW215015   3.622   3.053   3.716
 4706SOL     OW15016   3.585   5.923   6.489
 4706SOL    HW115017   3.643   5.941   6.410
 4706SOL    HW215018   3.580   5.824   6.505
 4707SOL     OW15019   2.288   5.829   1.085
 4707SOL    HW115020   2.377   5.807   1.124
 4707SOL    HW215021   2.217   5.772   1.128
 4708SOL     OW15022   2.645   2.851   0.630
 4708SOL    HW115023   2.655   2.751   0.638
 4708SOL    HW215024   2.734   2.894   0.645
 4709SOL     OW15025   3.978   5.211   4.968
 4709SOL    HW115026   4.063   5.176   4.929
 4709SOL    HW215027   3.997   5.290   5.026
 4710SOL     OW15028   4.623   1.326   6.427
 4710SOL    HW115029   4.628   1.410   6.480
 4710SOL    HW215030   4.596   1.250   6.486
 4711SOL     OW15031   3.328   7.007   2.505
 4711SOL    HW115032   3.244   0.008   2.555
 4711SOL    HW215033   3.340   0.054   2.432
 4712SOL     OW15034   2.520   4.476   0.964
 4712SOL    HW115035   2.479   4.389   0.937
 4712SOL    HW215036   2.619   4.467   0.965
 4713SOL     OW15037   3.363   4.522   1.486
 4713SOL    HW115038   3.326   4.441   1.441
 4713SOL    HW215039   3.288   4.576   1.524
 4714SOL     OW15040   1.761   1.238   0.742
 4714SOL    HW115041   1.702   1.197   0.673
 4714SOL    HW215042   1.816   1.167   0.785
 4715SOL     OW15043   6.431   3.358   2.272
 4715SOL    HW115044   6.500   3.386   2.206
 4715SOL    HW215045   6.414   3.260   2.264
 4716SOL     OW15046   3.748   4.305   6.321
 4716SOL    HW115047   3.809   4.357   6.381
 4716SOL    HW215048   3.672   4.363   6.293
 4717SOL     OW15049   1.119   5.950   2.269
 4717SOL    HW115050   1.084   5.920   2.358
 4717SOL    HW215051   1.178   5.878   2.231
 4718SOL     OW15052   4.924   1.744   6.553
 4718SOL    HW115053   4.829   1.774   6.549
 4718SOL    HW215054   4.984   1.823   6.540
 4719SOL     OW15055   5.031   3.754   3.188
 4719SOL    HW115056   4.981   3.773   3.273
 4719SOL    HW215057   5.004   3.664   3.153
 4720SOL     OW15058   2.202   6.570   5.726
 4720SOL    HW115059   2.226   6.501   5.794
 4720SOL    HW215060   2.116   6.613   5.753
 4721SOL     OW15061   0.651   2.191   1.297
 4721SOL    HW115062   0.635   2.141   1.383
 4721SOL    HW215063   0.564   2.227   1.263
 4722SOL     OW15064   1.797   6.249   0.193
 4722SOL    HW115065   1.805   6.229   0.291
 4722SOL    HW215066   1.840   6.337   0.174
 4723SOL     OW15067   1.933   6.184   6.045
 4723SOL    HW115068   1.898   6.094   6.019
 4723SOL    HW215069   2.031   6.177   6.065
 4724SOL     OW15070   4.302   6.439   2.762
 4724SOL    HW115071   4.308   6.488   2.675
 4724SOL    HW215072   4.216   6.462   2.807
 4725SOL     OW15073   5.343   6.398   3.085
 4725SOL    HW115074   5.353   6.299   3.089
 4725SOL    HW215075   5.250   6.424   3.114
 4726SOL     OW15076   1.129   3.892   6.498
 4726SOL    HW115077   1.039   3.857   6.475
 4726SOL    HW215078   1.122   3.957   6.574
 4727SOL     OW15079   6.949   5.525   0.151
 4727SOL    HW115080   6.945   5.610   0.097
 4727SOL    HW215081   6.991   5.545   0.239
 4728SOL     OW15082   5.909   1.566   0.713
 4728SOL    HW115083   5.882   1.508   0.790
 4728SOL    HW215084   5.988   1.622   0.739
 4729SOL     OW15085   1.612   0.812   3.003
 4729SOL    HW115086   1.529   0.757   3.017
 4729SOL    HW215087   1.660   0.822   3.091
 4730SOL     OW15088   2.701   6.103   5.496
 4730SOL    HW115089   2.734   6.099   5.591
 4730SOL    HW215090   2.667   6.013   5.469
 4731SOL     OW15091   6.019   0.637   5.240
 4731SOL    HW115092   5.928   0.603   5.215
 4731SOL    HW215093   6.049   0.592   5.324
 4732SOL     OW15094   6.829   3.565   6.655
 4732SOL    HW115095   6.821   3.473   6.616
 4732SOL    HW215096   6.882   3.560   6.740
 4733SOL     OW15097   0.263   3.810   2.797
 4733SOL    HW115098   0.198   3.856   2.737
 4733SOL    HW215099   0.323   3.878   2.839
 4734SOL     OW15100   5.520   2.903   6.666
 4734SOL    HW115101   5.531   2.921   6.763
 4734SOL    HW215102   5.608   2.912   6.620
 4735SOL     OW15103   1.328   4.185   3.624
 4735SOL    HW115104   1.382   4.262   3.660
 4735SOL    HW215105   1.234   4.214   3.610
 4736SOL     OW15106   0.041   0.945   6.433
 4736SOL    HW115107   0.102   0.866   6.431
 4736SOL    HW215108   7.008   0.949   6.348
 4737SOL     OW15109   2.483   4.606   1.986
 4737SOL    HW115110   2.540   4.674   2.031
 4737SOL    HW215111   2.498   4.517   2.029
 4738SOL     OW15112   6.904   6.117   1.458
 4738SOL    HW115113   6.917   6.102   1.360
 4738SOL    HW215114   6.857   6.038   1.498
 4739SOL     OW15115   3.885   0.383   2.376
 4739SOL    HW115116   3.964   0.368   2.317
 4739SOL    HW215117   3.887   0.317   2.451
 4740SOL     OW15118   0.399   1.595   2.487
 4740SOL    HW115119   0.438   1.604   2.579
 4740SOL    HW215120   0.426   1.674   2.432
 4741SOL     OW15121   3.883   2.513   1.410
 4741SOL    HW115122   3.929   2.449   1.348
 4741SOL    HW215123   3.900   2.485   1.505
 4742SOL     OW15124   2.312   6.852   0.079
 4742SOL    HW115125   2.343   6.919   0.012
 4742SOL    HW215126   2.391   6.810   0.123
 4743SOL     OW15127   1.885   3.815   2.492
 4743SOL    HW115128   1.982   3.814   2.471
 4743SOL    HW215129   1.848   3.722   2.484
 4744SOL     OW15130   1.861   5.736   1.034
 4744SOL    HW115131   1.951   5.737   0.990
 4744SOL    HW215132   1.793   5.702   0.969
 4745SOL     OW15133   2.588   3.594   0.584
 4745SOL    HW115134   2.513   3.561   0.642
 4745SOL    HW215135   2.611   3.524   0.516
 4746SOL     OW15136   4.803   5.011   4.519
 4746SOL    HW115137   4.756   4.965   4.594
 4746SOL    HW215138   4.835   4.942   4.454
 4747SOL     OW15139   1.459   2.881   0.906
 4747SOL    HW115140   1.506   2.820   0.970
 4747SOL    HW215141   1.393   2.828   0.853
 4748SOL     OW15142   2.057   6.564   1.903
 4748SOL    HW115143   2.122   6.599   1.836
 4748SOL    HW215144   2.084   6.471   1.931
 4749SOL     OW15145   2.528   0.075   0.532
 4749SOL    HW115146   2.601   0.142   0.525
 4749SOL    HW215147   2.439   0.121   0.534
 4750SOL     OW15148   6.096   3.965   5.250
 4750SOL    HW115149   6.146   3.901   5.308
 4750SOL    HW215150   6.150   3.986   5.168
 4751SOL     OW15151   4.587   1.664   2.121
 4751SOL    HW115152   4.527   1.688   2.044
 4751SOL    HW215153   4.618   1.569   2.110
 4752SOL     OW15154   4.866   1.706   0.510
 4752SOL    HW115155   4.821   1.780   0.460
 4752SOL    HW215156   4.870   1.624   0.453
 4753SOL     OW15157   1.798   6.633   4.525
 4753SOL    HW115158   1.781   6.633   4.624
 4753SOL    HW215159   1.892   6.601   4.508
 4754SOL     OW15160   4.445   4.080   6.284
 4754SOL    HW115161   4.414   4.049   6.194
 4754SOL    HW215162   4.376   4.058   6.352
 4755SOL     OW15163   1.347   0.453   1.697
 4755SOL    HW115164   1.390   0.380   1.645
 4755SOL    HW215165   1.406   0.481   1.773
 4756SOL     OW15166   6.615   4.384   0.377
 4756SOL    HW115167   6.662   4.426   0.454
 4756SOL    HW215168   6.517   4.406   0.381
 4757SOL     OW15169   1.124   2.728   1.272
 4757SOL    HW115170   1.098   2.650   1.215
 4757SOL    HW215171   1.108   2.813   1.222
 4758SOL     OW15172   1.634   0.293   3.484
 4758SOL    HW115173   1.637   0.355   3.406
 4758SOL    HW215174   1.643   0.345   3.569
 4759SOL     OW15175   0.981   5.264   0.259
 4759SOL    HW115176   0.954   5.323   0.335
 4759SOL    HW215177   0.928   5.179   0.263
 4760SOL     OW15178   1.319   6.999   1.062
 4760SOL    HW115179   1.255   0.012   0.993
 4760SOL    HW215180   1.374   6.924   1.023
 4761SOL     OW15181   0.195   6.885   0.542
 4761SOL    HW115182   0.179   6.980   0.515
 4761SOL    HW215183   0.228   6.882   0.636
 4762SOL     OW15184   1.832   5.601   2.129
 4762SOL    HW115185   1.880   5.526   2.083
 4762SOL    HW215186   1.734   5.590   2.117
 4763SOL     OW15187   4.881   6.076   2.097
 4763SOL    HW115188   4.909   5.986   2.129
 4763SOL    HW215189   4.862   6.073   1.999
 4764SOL     OW15190   4.882   3.626   5.323
 4764SOL    HW115191   4.862   3.640   5.420
 4764SOL    HW215192   4.800   3.591   5.277
 4765SOL     OW15193   3.120   1.380   5.220
 4765SOL    HW115194   3.124   1.319   5.141
 4765SOL    HW215195   3.167   1.337   5.297
 4766SOL     OW15196   5.835   6.744   4.321
 4766SOL    HW115197   5.795   6.830   4.352
 4766SOL    HW215198   5.911   6.762   4.259
 4767SOL     OW15199   2.424   5.511   4.997
 4767SOL    HW115200   2.510   5.541   5.039
 4767SOL    HW215201   2.365   5.471   5.067
 4768SOL     OW15202   4.655   2.674   6.561
 4768SOL    HW115203   4.694   2.598   6.509
 4768SOL    HW215204   4.728   2.736   6.590
 4769SOL     OW15205   3.257   6.066   1.212
 4769SOL    HW115206   3.273   6.111   1.300
 4769SOL    HW215207   3.265   6.132   1.138
 4770SOL     OW15208   6.596   1.708   5.493
 4770SOL    HW115209   6.632   1.769   5.423
 4770SOL    HW215210   6.560   1.763   5.569
 4771SOL     OW15211   2.407   0.154   5.357
 4771SOL    HW115212   2.496   0.120   5.388
 4771SOL    HW215213   2.335   0.091   5.388
 4772SOL     OW15214   3.174   5.081   0.886
 4772SOL    HW115215   3.083   5.107   0.919
 4772SOL    HW215216   3.228   5.164   0.869
 4773SOL     OW15217   2.482   5.814   4.744
 4773SOL    HW115218   2.568   5.845   4.785
 4773SOL    HW215219   2.406   5.869   4.778
 4774SOL     OW15220   1.744   4.183   0.589
 4774SOL    HW115221   1.687   4.122   0.645
 4774SOL    HW215222   1.780   4.257   0.646
 4775SOL     OW15223   5.113   6.192   4.490
 4775SOL    HW115224   5.104   6.094   4.502
 4775SOL    HW215225   5.144   6.212   4.397
 4776SOL     OW15226   1.159   0.519   5.510
 4776SOL    HW115227   1.211   0.447   5.557
 4776SOL    HW215228   1.105   0.570   5.577
 4777SOL     OW15229   1.313   5.470   0.790
 4777SOL    HW115230   1.257   5.421   0.857
 4777SOL    HW215231   1.380   5.527   0.838
 4778SOL     OW15232   0.827   2.608   4.535
 4778SOL    HW115233   0.760   2.672   4.499
 4778SOL    HW215234   0.780   2.532   4.580
 4779SOL     OW15235   6.305   0.482   4.141
 4779SOL    HW115236   6.371   0.553   4.164
 4779SOL    HW215237   6.227   0.522   4.092
 4780SOL     OW15238   5.604   2.566   5.550
 4780SOL    HW115239   5.535   2.619   5.599
 4780SOL    HW215240   5.624   2.482   5.600
 4781SOL     OW15241   2.245   5.890   2.732
 4781SOL    HW115242   2.326   5.837   2.708
 4781SOL    HW215243   2.181   5.892   2.655
 4782SOL     OW15244   5.233   5.454   6.039
 4782SOL    HW115245   5.161   5.398   5.999
 4782SOL    HW215246   5.201   5.548   6.050
 4783SOL     OW15247   5.813   4.026   0.626
 4783SOL    HW115248   5.850   4.119   0.612
 4783SOL    HW215249   5.842   3.967   0.550
 4784SOL     OW15250   5.937   2.379   6.469
 4784SOL    HW115251   6.020   2.435   6.467
 4784SOL    HW215252   5.858   2.437   6.451
 4785SOL     OW15253   0.435   6.182   3.014
 4785SOL    HW115254   0.521   6.148   2.974
 4785SOL    HW215255   0.450   6.273   3.052
 4786SOL     OW15256   2.778   6.884   1.052
 4786SOL    HW115257   2.782   6.981   1.028
 4786SOL    HW215258   2.844   6.833   0.996
 4787SOL     OW15259   4.179   1.990   4.224
 4787SOL    HW115260   4.216   1.994   4.131
 4787SOL    HW215261   4.181   2.081   4.265
 4788SOL     OW15262   6.210   5.917   0.070
 4788SOL    HW115263   6.228   5.882   6.998
 4788SOL    HW215264   6.121   5.883   0.101
 4789SOL     OW15265   5.050   1.610   2.072
 4789SOL    HW115266   5.027   1.701   2.108
 4789SOL    HW215267   5.149   1.597   2.073
 4790SOL     OW15268   5.333   1.630   5.159
 4790SOL    HW115269   5.320   1.668   5.068
 4790SOL    HW215270   5.288   1.541   5.164
 4791SOL     OW15271   0.435   2.941   1.068
 4791SOL    HW115272   0.374   3.020   1.070
 4791SOL    HW215273   0.519   2.965   1.018
 4792SOL     OW15274   1.776   4.244   4.589
 4792SOL    HW115275   1.750   4.228   4.684
 4792SOL    HW215276   1.829   4.167   4.555
 4793SOL     OW15277   1.305   4.164   6.379
 4793SOL    HW115278   1.206   4.166   6.366
 4793SOL    HW215279   1.332   4.074   6.412
 4794SOL     OW15280   4.740   0.366   3.898
 4794SOL    HW115281   4.774   0.412   3.980
 4794SOL    HW215282   4.799   0.289   3.875
 4795SOL     OW15283   0.467   1.439   3.943
 4795SOL    HW115284   0.526   1.517   3.966
 4795SOL    HW215285   0.508   1.388   3.867
 4796SOL     OW15286   3.706   1.283   6.126
 4796SOL    HW115287   3.644   1.232   6.186
 4796SOL    HW215288   3.691   1.256   6.031
 4797SOL     OW15289   0.436   5.253   4.570
 4797SOL    HW115290   0.508   5.299   4.622
 4797SOL    HW215291   0.387   5.320   4.514
 4798SOL     OW15292   5.243   5.276   6.532
 4798SOL    HW115293   5.249   5.373   6.555
 4798SOL    HW215294   5.330   5.232   6.550
 4799SOL     OW15295   3.001   2.371   6.391
 4799SOL    HW115296   2.913   2.411   6.415
 4799SOL    HW215297   2.990   2.274   6.372
 4800SOL     OW15298   2.090   4.791   0.521
 4800SOL    HW115299   2.146   4.716   0.484
 4800SOL    HW215300   2.120   4.811   0.615
 4801SOL     OW15301   4.982   2.236   1.530
 4801SOL    HW115302   4.909   2.223   1.464
 4801SOL    HW215303   4.976   2.328   1.569
 4802SOL     OW15304   0.472   6.110   2.104
 4802SOL    HW115305   0.387   6.064   2.127
 4802SOL    HW215306   0.549   6.053   2.133
 4803SOL     OW15307   5.564   4.883   0.126
 4803SOL    HW115308   5.590   4.816   0.196
 4803SOL    HW215309   5.490   4.845   0.071
 4804SOL     OW15310   5.170   1.537   0.750
 4804SOL    HW115311   5.203   1.622   0.708
 4804SOL    HW215312   5.111   1.559   0.827
 4805SOL     OW15313   6.611   2.011   1.722
 4805SOL    HW115314   6.711   2.017   1.723
 4805SOL    HW215315   6.573   2.095   1.682
 4806SOL     OW15316   1.415   3.266   2.930
 4806SOL    HW115317   1.330   3.228   2.892
 4806SOL    HW215318   1.417   3.365   2.914
 4807SOL     OW15319   1.161   3.468   6.701
 4807SOL    HW115320   1.211   3.455   6.787
 4807SOL    HW215321   1.210   3.535   6.645
 4808SOL     OW15322   4.024   6.384   1.216
 4808SOL    HW115323   4.071   6.345   1.295
 4808SOL    HW215324   4.048   6.333   1.134
 4809SOL     OW15325   3.463   4.811   1.470
 4809SOL    HW115326   3.466   4.711   1.463
 4809SOL    HW215327   3.487   4.852   1.382
 4810SOL     OW15328   0.818   4.061   3.817
 4810SOL    HW115329   0.792   4.138   3.876
 4810SOL    HW215330   0.740   4.001   3.805
 4811SOL     OW15331   3.369   4.022   4.861
 4811SOL    HW115332   3.277   4.015   4.899
 4811SOL    HW215333   3.433   3.971   4.918
 4812SOL     OW15334   0.673   6.634   1.490
 4812SOL    HW115335   0.623   6.552   1.465
 4812SOL    HW215336   0.670   6.646   1.589
 4813SOL     OW15337   6.214   1.488   0.080
 4813SOL    HW115338   6.235   1.390   0.087
 4813SOL    HW215339   6.125   1.501   0.038
 4814SOL     OW15340   7.015   4.163   1.753
 4814SOL    HW115341   0.045   4.162   1.840
 4814SOL    HW215342   6.988   4.256   1.731
 4815SOL     OW15343   5.569   4.736   2.567
 4815SOL    HW115344   5.544   4.684   2.649
 4815SOL    HW215345   5.531   4.691   2.486
 4816SOL     OW15346   1.800   6.494   1.863
 4816SOL    HW115347   1.721   6.552   1.842
 4816SOL    HW215348   1.884   6.549   1.860
 4817SOL     OW15349   3.540   1.071   1.554
 4817SOL    HW115350   3.599   1.000   1.517
 4817SOL    HW215351   3.466   1.029   1.606
 4818SOL     OW15352   2.930   0.305   4.618
 4818SOL    HW115353   2.877   0.227   4.650
 4818SOL    HW215354   2.932   0.375   4.690
 4819SOL     OW15355   2.824   1.965   1.177
 4819SOL    HW115356   2.848   1.997   1.269
 4819SOL    HW215357   2.853   1.870   1.166
 4820SOL     OW15358   0.242   3.302   2.143
 4820SOL    HW115359   0.249   3.398   2.167
 4820SOL    HW215360   0.299   3.248   2.206
 4821SOL     OW15361   6.603   5.713   1.789
 4821SOL    HW115362   6.620   5.812   1.790
 4821SOL    HW215363   6.566   5.688   1.699
 4822SOL     OW15364   1.867   3.737   3.875
 4822SOL    HW115365   1.935   3.767   3.942
 4822SOL    HW215366   1.862   3.804   3.801
 4823SOL     OW15367   1.317   0.148   4.125
 4823SOL    HW115368   1.249   0.076   4.141
 4823SOL    HW215369   1.403   0.121   4.167
 4824SOL     OW15370   5.106   2.471   3.101
 4824SOL    HW115371   5.155   2.549   3.139
 4824SOL    HW215372   5.026   2.504   3.050
 4825SOL     OW15373   1.603   3.249   4.284
 4825SOL    HW115374   1.549   3.165   4.291
 4825SOL    HW215375   1.690   3.236   4.331
 4826SOL     OW15376   0.216   6.589   0.480
 4826SOL    HW115377   0.229   6.686   0.499
 4826SOL    HW215378   0.222   6.536   0.565
 4827SOL     OW15379   4.647   1.310   1.069
 4827SOL    HW115380   4.740   1.341   1.088
 4827SOL    HW215381   4.630   1.223   1.116
 4828SOL     OW15382   5.460   3.654   1.485
 4828SOL    HW115383   5.363   3.676   1.500
 4828SOL    HW215384   5.493   3.597   1.560
 4829SOL     OW15385   3.455   0.266   6.028
 4829SOL    HW115386   3.477   0.179   5.984
 4829SOL    HW215387   3.363   0.262   6.066
 4830SOL     OW15388   4.991   6.024   3.565
 4830SOL    HW115389   4.985   6.077   3.480
 4830SOL    HW215390   5.066   6.059   3.621
 4831SOL     OW15391   6.562   4.901   5.138
 4831SOL    HW115392   6.642   4.961   5.138
 4831SOL    HW215393   6.531   4.886   5.044
 4832SOL     OW15394   3.810   2.594   5.594
 4832SOL    HW115395   3.774   2.504   5.569
 4832SOL    HW215396   3.737   2.648   5.635
 4833SOL     OW15397   4.553   1.420   3.185
 4833SOL    HW115398   4.579   1.473   3.266
 4833SOL    HW215399   4.494   1.345   3.211
 4834SOL     OW15400   3.978   0.910   0.735
 4834SOL    HW115401   4.021   0.822   0.757
 4834SOL    HW215402   3.948   0.909   0.639
 4835SOL     OW15403   1.513   6.963   6.477
 4835SOL    HW115404   1.553   6.928   6.561
 4835SOL    HW215405   1.525   0.043   6.472
 4836SOL     OW15406   4.627   1.832   4.047
 4836SOL    HW115407   4.615   1.822   3.949
 4836SOL    HW215408   4.538   1.829   4.092
 4837SOL     OW15409   3.089   2.795   1.487
 4837SOL    HW115410   3.169   2.844   1.453
 4837SOL    HW215411   3.110   2.697   1.490
 4838SOL     OW15412   3.724   4.923   2.207
 4838SOL    HW115413   3.695   4.885   2.295
 4838SOL    HW215414   3.701   4.859   2.134
 4839SOL     OW15415   7.009   4.881   5.206
 4839SOL    HW115416   0.088   4.896   5.201
 4839SOL    HW215417   6.982   4.818   5.133
 4840SOL     OW15418   5.515   6.458   0.141
 4840SOL    HW115419   5.459   6.440   0.222
 4840SOL    HW215420   5.537   6.372   0.095
 4841SOL     OW15421   3.238   5.785   1.479
 4841SOL    HW115422   3.322   5.802   1.428
 4841SOL    HW215423   3.205   5.871   1.518
 4842SOL     OW15424   3.597   5.329   1.985
 4842SOL    HW115425   3.584   5.426   1.966
 4842SOL    HW215426   3.694   5.307   1.986
 4843SOL     OW15427   6.892   3.808   6.956
 4843SOL    HW115428   6.967   3.767   6.904
 4843SOL    HW215429   6.924   3.834   0.027
 4844SOL     OW15430   6.737   3.970   6.821
 4844SOL    HW115431   6.796   3.917   6.881
 4844SOL    HW215432   6.787   3.994   6.738
 4845SOL     OW15433   6.407   5.742   4.436
 4845SOL    HW115434   6.443   5.648   4.436
 4845SOL    HW215435   6.327   5.747   4.496
 4846SOL     OW15436   0.616   3.540   0.869
 4846SOL    HW115437   0.608   3.513   0.965
 4846SOL    HW215438   0.657   3.631   0.863
 4847SOL     OW15439   3.668   2.010   5.913
 4847SOL    HW115440   3.708   2.059   5.990
 4847SOL    HW215441   3.597   2.066   5.870
 4848SOL     OW15442   1.798   1.530   3.958
 4848SOL    HW115443   1.838   1.531   3.866
 4848SOL    HW215444   1.718   1.469   3.959
 4849SOL     OW15445   1.829   6.746   6.646
 4849SOL    HW115446   1.883   6.738   6.730
 4849SOL    HW215447   1.839   6.662   6.592
 4850SOL     OW15448   3.556   0.836   2.068
 4850SOL    HW115449   3.498   0.912   2.099
 4850SOL    HW215450   3.608   0.800   2.145
 4851SOL     OW15451   4.086   6.345   5.557
 4851SOL    HW115452   4.028   6.291   5.618
 4851SOL    HW215453   4.132   6.417   5.610
 4852SOL     OW15454   1.446   0.469   0.056
 4852SOL    HW115455   1.377   0.405   0.090
 4852SOL    HW215456   1.427   0.560   0.092
 4853SOL     OW15457   3.462   1.621   2.431
 4853SOL    HW115458   3.530   1.558   2.468
 4853SOL    HW215459   3.370   1.586   2.449
 4854SOL     OW15460   4.592   6.075   2.494
 4854SOL    HW115461   4.494   6.057   2.503
 4854SOL    HW215462   4.626   6.117   2.578
 4855SOL     OW15463   5.650   1.882   2.073
 4855SOL    HW115464   5.624   1.930   1.989
 4855SOL    HW215465   5.642   1.945   2.151
 4856SOL     OW15466   2.744   4.782   3.297
 4856SOL    HW115467   2.843   4.799   3.288
 4856SOL    HW215468   2.707   4.755   3.209
 4857SOL     OW15469   1.228   1.706   5.738
 4857SOL    HW115470   1.239   1.802   5.764
 4857SOL    HW215471   1.155   1.665   5.793
 4858SOL     OW15472   1.550   1.407   3.931
 4858SOL    HW115473   1.549   1.314   3.895
 4858SOL    HW215474   1.563   1.404   4.030
 4859SOL     OW15475   1.590   5.806   4.232
 4859SOL    HW115476   1.646   5.724   4.218
 4859SOL    HW215477   1.554   5.806   4.326
 4860SOL     OW15478   3.868   5.273   1.970
 4860SOL    HW115479   3.899   5.209   1.900
 4860SOL    HW215480   3.894   5.239   2.060
 4861SOL     OW15481   5.400   5.207   6.904
 4861SOL    HW115482   5.332   5.266   6.859
 4861SOL    HW215483   5.358   5.162   6.982
 4862SOL     OW15484   2.231   5.053   4.220
 4862SOL    HW115485   2.140   5.079   4.189
 4862SOL    HW215486   2.230   4.957   4.250
 4863SOL     OW15487   5.865   4.885   0.518
 4863SOL    HW115488   5.915   4.880   0.604
 4863SOL    HW215489   5.885   4.805   0.462
 4864SOL     OW15490   3.500   1.072   3.770
 4864SOL    HW115491   3.598   1.086   3.784
 4864SOL    HW215492   3.449   1.141   3.820
 4865SOL     OW15493   2.339   0.325   5.148
 4865SOL    HW115494   2.378   0.270   5.223
 4865SOL    HW215495   2.337   0.421   5.175
 4866SOL     OW15496   6.507   3.983   1.130
 4866SOL    HW115497   6.513   3.943   1.038
 4866SOL    HW215498   6.493   3.910   1.197
 4867SOL     OW15499   4.560   5.415   2.285
 4867SOL    HW115500   4.485   5.442   2.224
 4867SOL    HW215501   4.646   5.456   2.252
 4868SOL     OW15502   6.579   4.951   2.110
 4868SOL    HW115503   6.655   4.925   2.170
 4868SOL    HW215504   6.615   4.983   2.022
 4869SOL     OW15505   1.262   1.511   0.863
 4869SOL    HW115506   1.242   1.417   0.835
 4869SOL    HW215507   1.193   1.542   0.927
 4870SOL     OW15508   0.665   6.286   2.075
 4870SOL    HW115509   0.582   6.232   2.089
 4870SOL    HW215510   0.710   6.257   1.990
 4871SOL     OW15511   1.212   0.648   4.767
 4871SOL    HW115512   1.262   0.583   4.710
 4871SOL    HW215513   1.257   0.656   4.856
 4872SOL     OW15514   6.778   6.974   2.962
 4872SOL    HW115515   6.799   6.971   2.864
 4872SOL    HW215516   6.849   6.924   3.012
 4873SOL     OW15517   6.758   5.783   4.694
 4873SOL    HW115518   6.811   5.700   4.673
 4873SOL    HW215519   6.819   5.852   4.732
 4874SOL     OW15520   5.063   2.707   2.576
 4874SOL    HW115521   4.980   2.758   2.555
 4874SOL    HW215522   5.051   2.611   2.549
 4875SOL     OW15523   5.281   0.292   6.754
 4875SOL    HW115524   5.223   0.269   6.676
 4875SOL    HW215525   5.287   0.214   6.816
 4876SOL     OW15526   6.829   1.565   3.584
 4876SOL    HW115527   6.779   1.571   3.671
 4876SOL    HW215528   6.791   1.631   3.519
 4877SOL     OW15529   0.282   2.306   5.335
 4877SOL    HW115530   0.326   2.302   5.425
 4877SOL    HW215531   0.191   2.345   5.345
 4878SOL     OW15532   6.682   1.940   2.225
 4878SOL    HW115533   6.656   1.887   2.305
 4878SOL    HW215534   6.680   2.037   2.247
 4879SOL     OW15535   4.764   1.730   1.829
 4879SOL    HW115536   4.665   1.742   1.842
 4879SOL    HW215537   4.783   1.635   1.805
 4880SOL     OW15538   6.145   3.705   0.174
 4880SOL    HW115539   6.052   3.696   0.139
 4880SOL    HW215540   6.158   3.642   0.250
 4881SOL     OW15541   1.899   1.915   0.808
 4881SOL    HW115542   1.963   1.839   0.820
 4881SOL    HW215543   1.913   1.956   0.718
 4882SOL     OW15544   4.224   2.385   5.443
 4882SOL    HW115545   4.244   2.475   5.481
 4882SOL    HW215546   4.196   2.324   5.517
 4883SOL     OW15547   5.022   3.994   1.604
 4883SOL    HW115548   4.943   3.986   1.543
 4883SOL    HW215549   5.018   4.083   1.651
 4884SOL     OW15550   3.276   5.222   0.512
 4884SOL    HW115551   3.271   5.261   0.420
 4884SOL    HW215552   3.197   5.163   0.527
 4885SOL     OW15553   2.304   4.301   2.090
 4885SOL    HW115554   2.345   4.374   2.144
 4885SOL    HW215555   2.264   4.339   2.007
 4886SOL     OW15556   3.000   7.003   1.411
 4886SOL    HW115557   2.917   6.954   1.386
 4886SOL    HW215558   2.983   0.038   1.493
 4887SOL     OW15559   1.166   6.150   1.822
 4887SOL    HW115560   1.094   6.107   1.768
 4887SOL    HW215561   1.191   6.237   1.780
 4888SOL     OW15562   2.357   0.125   2.757
 4888SOL    HW115563   2.316   0.085   2.675
 4888SOL    HW215564   2.440   0.174   2.732
 4889SOL     OW15565   6.773   1.581   5.321
 4889SOL    HW115566   6.722   1.548   5.242
 4889SOL    HW215567   6.709   1.604   5.395
 4890SOL     OW15568   1.003   2.361   5.655
 4890SOL    HW115569   1.028   2.387   5.561
 4890SOL    HW215570   0.994   2.261   5.660
 4891SOL     OW15571   2.623   5.143   6.481
 4891SOL    HW115572   2.654   5.230   6.519
 4891SOL    HW215573   2.586   5.085   6.554
 4892SOL     OW15574   5.281   5.820   2.062
 4892SOL    HW115575   5.190   5.819   2.105
 4892SOL    HW215576   5.271   5.839   1.965
 4893SOL     OW15577   6.647   3.428   2.039
 4893SOL    HW115578   6.573   3.394   1.980
 4893SOL    HW215579   6.735   3.410   1.995
 4894SOL     OW15580   3.029   0.050   2.240
 4894SOL    HW115581   2.964   0.041   2.164
 4894SOL    HW215582   3.121   0.030   2.208
 4895SOL     OW15583   0.987   5.065   3.183
 4895SOL    HW115584   0.994   5.120   3.266
 4895SOL    HW215585   1.073   5.015   3.170
 4896SOL     OW15586   2.883   4.978   2.557
 4896SOL    HW115587   2.873   4.976   2.656
 4896SOL    HW215588   2.980   4.976   2.533
 4897SOL     OW15589   1.715   6.002   5.473
 4897SOL    HW115590   1.655   6.014   5.394
 4897SOL    HW215591   1.758   6.089   5.496
 4898SOL     OW15592   4.101   1.183   5.137
 4898SOL    HW115593   4.030   1.112   5.133
 4898SOL    HW215594   4.058   1.273   5.142
 4899SOL     OW15595   6.128   5.190   2.938
 4899SOL    HW115596   6.044   5.138   2.929
 4899SOL    HW215597   6.134   5.226   3.031
 4900SOL     OW15598   4.260   6.147   5.788
 4900SOL    HW115599   4.161   6.162   5.788
 4900SOL    HW215600   4.307   6.234   5.775
 4901SOL     OW15601   1.847   1.618   4.826
 4901SOL    HW115602   1.831   1.638   4.923
 4901SOL    HW215603   1.760   1.597   4.782
 4902SOL     OW15604   1.541   0.688   6.326
 4902SOL    HW115605   1.554   0.671   6.228
 4902SOL    HW215606   1.605   0.757   6.357
 4903SOL     OW15607   4.395   5.566   0.775
 4903SOL    HW115608   4.309   5.558   0.725
 4903SOL    HW215609   4.408   5.486   0.834
 4904SOL     OW15610   1.799   1.170   5.348
 4904SOL    HW115611   1.752   1.089   5.385
 4904SOL    HW215612   1.802   1.241   5.418
 4905SOL     OW15613   2.241   0.702   3.617
 4905SOL    HW115614   2.278   0.671   3.704
 4905SOL    HW215615   2.312   0.696   3.546
 4906SOL     OW15616   5.116   2.774   5.579
 4906SOL    HW115617   5.116   2.848   5.646
 4906SOL    HW215618   5.022   2.748   5.558
 4907SOL     OW15619   4.991   1.290   0.793
 4907SOL    HW115620   4.921   1.334   0.736
 4907SOL    HW215621   5.082   1.315   0.759
 4908SOL     OW15622   4.898   0.048   0.444
 4908SOL    HW115623   4.833   0.122   0.462
 4908SOL    HW215624   4.944   0.021   0.529
 4909SOL     OW15625   6.900   4.459   3.955
 4909SOL    HW115626   6.873   4.555   3.944
 4909SOL    HW215627   6.864   4.406   3.879
 4910SOL     OW15628   5.904   0.796   4.052
 4910SOL    HW115629   5.989   0.849   4.062
 4910SOL    HW215630   5.840   0.822   4.124
 4911SOL     OW15631   1.596   3.135   3.480
 4911SOL    HW115632   1.545   3.210   3.439
 4911SOL    HW215633   1.675   3.171   3.530
 4912SOL     OW15634   5.218   1.991   5.586
 4912SOL    HW115635   5.226   1.922   5.514
 4912SOL    HW215636   5.170   1.952   5.665
 4913SOL     OW15637   5.574   3.474   5.627
 4913SOL    HW115638   5.520   3.490   5.710
 4913SOL    HW215639   5.513   3.474   5.547
 4914SOL     OW15640   4.382   0.514   5.606
 4914SOL    HW115641   4.481   0.529   5.606
 4914SOL    HW215642   4.363   0.417   5.610
 4915SOL     OW15643   3.035   6.397   5.233
 4915SOL    HW115644   3.073   6.464   5.296
 4915SOL    HW215645   3.102   6.325   5.216
 4916SOL     OW15646   6.999   0.586   4.218
 4916SOL    HW115647   6.969   0.534   4.298
 4916SOL    HW215648   0.049   0.653   4.246
 4917SOL     OW15649   4.151   5.732   1.007
 4917SOL    HW115650   4.090   5.811   1.005
 4917SOL    HW215651   4.177   5.707   0.913
 4918SOL     OW15652   6.317   6.154   2.039
 4918SOL    HW115653   6.307   6.180   2.135
 4918SOL    HW215654   6.381   6.217   1.994
 4919SOL     OW15655   3.754   2.871   2.175
 4919SOL    HW115656   3.663   2.851   2.139
 4919SOL    HW215657   3.815   2.794   2.158
 4920SOL     OW15658   5.365   0.518   5.357
 4920SOL    HW115659   5.375   0.421   5.335
 4920SOL    HW215660   5.396   0.573   5.280
 4921SOL     OW15661   1.907   5.228   0.258
 4921SOL    HW115662   1.938   5.260   0.168
 4921SOL    HW215663   1.977   5.169   0.299
 4922SOL     OW15664   3.288   2.046   5.029
 4922SOL    HW115665   3.282   2.008   4.937
 4922SOL    HW215666   3.244   2.136   5.031
 4923SOL     OW15667   2.472   1.960   2.893
 4923SOL    HW115668   2.452   2.039   2.835
 4923SOL    HW215669   2.478   1.877   2.836
 4924SOL     OW15670   2.237   2.100   4.993
 4924SOL    HW115671   2.177   2.044   5.050
 4924SOL    HW215672   2.188   2.182   4.962
 4925SOL     OW15673   4.384   0.155   2.431
 4925SOL    HW115674   4.436   0.207   2.499
 4925SOL    HW215675   4.425   0.065   2.420
 4926SOL     OW15676   5.782   1.855   1.591
 4926SOL    HW115677   5.708   1.826   1.651
 4926SOL    HW215678   5.856   1.894   1.645
 4927SOL     OW15679   3.052   2.826   6.170
 4927SOL    HW115680   3.129   2.844   6.107
 4927SOL    HW215681   3.081   2.762   6.241
 4928SOL     OW15682   1.397   1.097   0.018
 4928SOL    HW115683   1.322   1.049   6.992
 4928SOL    HW215684   1.380   1.195   0.016
 4929SOL     OW15685   6.743   6.846   3.550
 4929SOL    HW115686   6.691   6.931   3.563
 4929SOL    HW215687   6.757   6.830   3.452
 4930SOL     OW15688   6.379   6.531   2.414
 4930SOL    HW115689   6.442   6.582   2.473
 4930SOL    HW215690   6.293   6.515   2.464
 4931SOL     OW15691   6.327   6.375   1.388
 4931SOL    HW115692   6.305   6.392   1.292
 4931SOL    HW215693   6.257   6.415   1.447
 4932SOL     OW15694   3.612   3.978   3.463
 4932SOL    HW115695   3.542   4.043   3.435
 4932SOL    HW215696   3.570   3.890   3.485
 4933SOL     OW15697   2.176   6.536   3.620
 4933SOL    HW115698   2.130   6.494   3.699
 4933SOL    HW215699   2.110   6.544   3.545
 4934SOL     OW15700   3.541   6.070   2.836
 4934SOL    HW115701   3.571   6.099   2.746
 4934SOL    HW215702   3.442   6.056   2.836
 4935SOL     OW15703   1.550   1.688   0.182
 4935SOL    HW115704   1.548   1.593   0.212
 4935SOL    HW215705   1.630   1.733   0.220
 4936SOL     OW15706   2.482   4.725   0.884
 4936SOL    HW115707   2.577   4.753   0.880
 4936SOL    HW215708   2.475   4.633   0.922
 4937SOL     OW15709   5.332   3.308   5.120
 4937SOL    HW115710   5.302   3.213   5.128
 4937SOL    HW215711   5.367   3.324   5.027
 4938SOL     OW15712   3.328   5.391   5.737
 4938SOL    HW115713   3.290   5.299   5.748
 4938SOL    HW215714   3.400   5.406   5.804
 4939SOL     OW15715   5.277   2.259   5.207
 4939SOL    HW115716   5.249   2.332   5.145
 4939SOL    HW215717   5.273   2.171   5.159
 4940SOL     OW15718   1.351   0.914   4.783
 4940SOL    HW115719   1.336   0.831   4.838
 4940SOL    HW215720   1.371   0.991   4.843
 4941SOL     OW15721   3.882   1.788   6.912
 4941SOL    HW115722   3.828   1.704   6.916
 4941SOL    HW215723   3.919   1.800   6.820
 4942SOL     OW15724   4.879   3.327   5.090
 4942SOL    HW115725   4.828   3.309   5.174
 4942SOL    HW215726   4.867   3.423   5.064
 4943SOL     OW15727   4.154   2.216   0.454
 4943SOL    HW115728   4.175   2.306   0.493
 4943SOL    HW215729   4.102   2.162   0.519
 4944SOL     OW15730   2.229   4.031   2.996
 4944SOL    HW115731   2.261   4.120   3.029
 4944SOL    HW215732   2.211   3.971   3.074
 4945SOL     OW15733   1.282   0.612   3.841
 4945SOL    HW115734   1.293   0.513   3.854
 4945SOL    HW215735   1.367   0.651   3.806
 4946SOL     OW15736   0.962   3.360   1.292
 4946SOL    HW115737   0.985   3.396   1.202
 4946SOL    HW215738   0.910   3.275   1.281
 4947SOL     OW15739   1.067   6.957   0.606
 4947SOL    HW115740   1.053   6.860   0.586
 4947SOL    HW215741   1.003   7.011   0.552
 4948SOL     OW15742   2.778   0.948   2.731
 4948SOL    HW115743   2.851   0.910   2.673
 4948SOL    HW215744   2.770   1.046   2.715
 4949SOL     OW15745   4.607   0.769   5.722
 4949SOL    HW115746   4.605   0.790   5.624
 4949SOL    HW215747   4.572   0.677   5.737
 4950SOL     OW15748   2.693   5.884   3.933
 4950SOL    HW115749   2.730   5.793   3.917
 4950SOL    HW215750   2.598   5.888   3.901
 4951SOL     OW15751   4.761   1.489   4.265
 4951SOL    HW115752   4.773   1.415   4.331
 4951SOL    HW215753   4.669   1.487   4.228
 4952SOL     OW15754   0.076   6.164   4.690
 4952SOL    HW115755   0.057   6.262   4.695
 4952SOL    HW215756   0.146   6.139   4.756
 4953SOL     OW15757   2.556   5.524   1.491
 4953SOL    HW115758   2.624   5.491   1.556
 4953SOL    HW215759   2.474   5.468   1.497
 4954SOL     OW15760   4.828   4.729   0.184
 4954SOL    HW115761   4.870   4.786   0.255
 4954SOL    HW215762   4.891   4.719   0.107
 4955SOL     OW15763   1.647   5.784   0.183
 4955SOL    HW115764   1.563   5.778   0.238
 4955SOL    HW215765   1.718   5.830   0.237
 4956SOL     OW15766   4.006   6.840   5.702
 4956SOL    HW115767   4.022   6.743   5.722
 4956SOL    HW215768   3.918   6.851   5.656
 4957SOL     OW15769   0.099   1.271   4.371
 4957SOL    HW115770   0.132   1.328   4.446
 4957SOL    HW215771   0.155   1.289   4.290
 4958SOL     OW15772   0.821   6.502   5.901
 4958SOL    HW115773   0.916   6.521   5.877
 4958SOL    HW215774   0.780   6.582   5.946
 4959SOL     OW15775   1.091   0.790   6.834
 4959SOL    HW115776   1.077   0.697   6.803
 4959SOL    HW215777   1.006   0.825   6.874
 4960SOL     OW15778   3.820   6.635   4.267
 4960SOL    HW115779   3.741   6.574   4.256
 4960SOL    HW215780   3.812   6.685   4.353
 4961SOL     OW15781   5.493   0.627   5.116
 4961SOL    HW115782   5.496   0.715   5.070
 4961SOL    HW215783   5.516   0.554   5.051
 4962SOL     OW15784   5.466   2.976   2.059
 4962SOL    HW115785   5.457   2.938   2.151
 4962SOL    HW215786   5.479   2.901   1.993
 4963SOL     OW15787   0.259   5.940   1.489
 4963SOL    HW115788   0.249   5.854   1.440
 4963SOL    HW215789   0.267   5.921   1.587
 4964SOL     OW15790   3.569   5.512   3.435
 4964SOL    HW115791   3.666   5.508   3.461
 4964SOL    HW215792   3.541   5.424   3.397
 4965SOL     OW15793   0.545   6.989   4.882
 4965SOL    HW115794   0.492   6.977   4.798
 4965SOL    HW215795   0.580   0.063   4.885
 4966SOL     OW15796   2.827   5.826   4.499
 4966SOL    HW115797   2.807   5.916   4.538
 4966SOL    HW215798   2.780   5.756   4.552
 4967SOL     OW15799   4.179   2.519   6.756
 4967SOL    HW115800   4.104   2.485   6.813
 4967SOL    HW215801   4.186   2.462   6.674
 4968SOL     OW15802   5.270   2.996   3.505
 4968SOL    HW115803   5.329   2.917   3.527
 4968SOL    HW215804   5.277   3.064   3.578
 4969SOL     OW15805   1.569   1.407   1.994
 4969SOL    HW115806   1.548   1.310   1.980
 4969SOL    HW215807   1.597   1.422   2.089
 4970SOL     OW15808   1.165   2.386   4.786
 4970SOL    HW115809   1.077   2.342   4.764
 4970SOL    HW215810   1.239   2.322   4.770
 4971SOL     OW15811   6.581   6.096   3.760
 4971SOL    HW115812   6.600   6.174   3.819
 4971SOL    HW215813   6.617   6.013   3.802
 4972SOL     OW15814   2.441   3.723   0.910
 4972SOL    HW115815   2.419   3.626   0.926
 4972SOL    HW215816   2.357   3.777   0.917
 4973SOL     OW15817   6.146   5.998   1.583
 4973SOL    HW115818   6.220   5.933   1.566
 4973SOL    HW215819   6.147   6.026   1.679
 4974SOL     OW15820   5.556   5.510   2.517
 4974SOL    HW115821   5.572   5.459   2.432
 4974SOL    HW215822   5.627   5.486   2.584
 4975SOL     OW15823   5.928   6.071   0.879
 4975SOL    HW115824   5.986   6.014   0.820
 4975SOL    HW215825   5.862   6.120   0.822
 4976SOL     OW15826   3.363   0.514   4.562
 4976SOL    HW115827   3.281   0.563   4.535
 4976SOL    HW215828   3.412   0.483   4.481
 4977SOL     OW15829   4.675   4.080   0.901
 4977SOL    HW115830   4.675   4.078   0.801
 4977SOL    HW215831   4.593   4.034   0.936
 4978SOL     OW15832   6.078   4.011   5.612
 4978SOL    HW115833   6.044   3.923   5.645
 4978SOL    HW215834   6.015   4.047   5.543
 4979SOL     OW15835   0.122   1.785   5.067
 4979SOL    HW115836   0.043   1.725   5.053
 4979SOL    HW215837   0.203   1.745   5.025
 4980SOL     OW15838   3.525   5.742   2.654
 4980SOL    HW115839   3.511   5.764   2.557
 4980SOL    HW215840   3.446   5.690   2.687
 4981SOL     OW15841   4.509   7.006   5.693
 4981SOL    HW115842   4.412   7.011   5.669
 4981SOL    HW215843   4.561   0.041   5.628
 4982SOL     OW15844   1.967   1.491   6.920
 4982SOL    HW115845   1.914   1.576   6.918
 4982SOL    HW215846   2.059   1.510   6.953
 4983SOL     OW15847   5.560   3.291   4.181
 4983SOL    HW115848   5.544   3.201   4.141
 4983SOL    HW215849   5.659   3.305   4.192
 4984SOL     OW15850   5.432   3.875   4.600
 4984SOL    HW115851   5.496   3.810   4.640
 4984SOL    HW215852   5.450   3.967   4.635
 4985SOL     OW15853   5.810   5.226   3.767
 4985SOL    HW115854   5.894   5.280   3.760
 4985SOL    HW215855   5.796   5.198   3.861
 4986SOL     OW15856   6.160   4.471   2.655
 4986SOL    HW115857   6.097   4.434   2.723
 4986SOL    HW215858   6.240   4.411   2.648
 4987SOL     OW15859   0.359   3.131   0.754
 4987SOL    HW115860   0.439   3.119   0.696
 4987SOL    HW215861   0.387   3.165   0.844
 4988SOL     OW15862   0.163   1.677   3.759
 4988SOL    HW115863   0.089   1.744   3.762
 4988SOL    HW215864   0.218   1.685   3.843
 4989SOL     OW15865   6.056   1.365   1.373
 4989SOL    HW115866   6.001   1.308   1.311
 4989SOL    HW215867   6.005   1.382   1.457
 4990SOL     OW15868   0.745   2.763   5.862
 4990SOL    HW115869   0.684   2.702   5.911
 4990SOL    HW215870   0.694   2.841   5.826
 4991SOL     OW15871   0.685   3.323   4.299
 4991SOL    HW115872   0.632   3.274   4.230
 4991SOL    HW215873   0.646   3.306   4.390
 4992SOL     OW15874   3.662   0.705   4.676
 4992SOL    HW115875   3.620   0.629   4.726
 4992SOL    HW215876   3.625   0.708   4.583
 4993SOL     OW15877   2.840   5.646   3.896
 4993SOL    HW115878   2.867   5.576   3.963
 4993SOL    HW215879   2.903   5.643   3.818
 4994SOL     OW15880   1.184   6.631   2.637
 4994SOL    HW115881   1.156   6.623   2.733
 4994SOL    HW215882   1.164   6.545   2.589
 4995SOL     OW15883   6.666   3.204   6.365
 4995SOL    HW115884   6.589   3.261   6.336
 4995SOL    HW215885   6.703   3.155   6.285
 4996SOL     OW15886   0.031   1.428   1.575
 4996SOL    HW115887   0.063   1.436   1.481
 4996SOL    HW215888   0.102   1.385   1.631
 4997SOL     OW15889   6.561   2.224   2.956
 4997SOL    HW115890   6.525   2.181   3.038
 4997SOL    HW215891   6.563   2.158   2.881
 4998SOL     OW15892   1.684   4.871   4.952
 4998SOL    HW115893   1.667   4.782   4.910
 4998SOL    HW215894   1.639   4.942   4.898
 4999SOL     OW15895   5.095   5.442   1.147
 4999SOL    HW115896   5.182   5.474   1.184
 4999SOL    HW215897   5.112   5.375   1.075
 5000SOL     OW15898   1.188   0.284   4.761
 5000SOL    HW115899   1.264   0.346   4.741
 5000SOL    HW215900   1.125   0.283   4.683
 5001SOL     OW15901   2.141   3.746   6.206
 5001SOL    HW115902   2.042   3.753   6.216
 5001SOL    HW215903   2.165   3.656   6.171
 5002SOL     OW15904   1.663   1.859   2.710
 5002SOL    HW115905   1.723   1.788   2.747
 5002SOL    HW215906   1.626   1.914   2.785
 5003SOL     OW15907   0.456   6.696   2.950
 5003SOL    HW115908   0.395   6.775   2.950
 5003SOL    HW215909   0.477   6.669   3.044
 5004SOL     OW15910   2.298   5.740   5.907
 5004SOL    HW115911   2.367   5.692   5.962
 5004SOL    HW215912   2.295   5.701   5.815
 5005SOL     OW15913   3.833   2.262   0.578
 5005SOL    HW115914   3.872   2.196   0.641
 5005SOL    HW215915   3.815   2.217   0.490
 5006SOL     OW15916   5.650   6.749   5.447
 5006SOL    HW115917   5.645   6.696   5.362
 5006SOL    HW215918   5.671   6.845   5.426
 5007SOL     OW15919   3.796   0.934   5.923
 5007SOL    HW115920   3.870   0.871   5.900
 5007SOL    HW215921   3.712   0.882   5.940
 5008SOL     OW15922   6.198   1.365   2.998
 5008SOL    HW115923   6.228   1.271   3.013
 5008SOL    HW215924   6.117   1.383   3.053
 5009SOL     OW15925   1.261   5.998   1.567
 5009SOL    HW115926   1.168   6.025   1.593
 5009SOL    HW215927   1.303   5.944   1.640
 5010SOL     OW15928   3.517   4.178   4.294
 5010SOL    HW115929   3.596   4.137   4.250
 5010SOL    HW215930   3.547   4.253   4.353
 5011SOL     OW15931   2.113   3.283   2.200
 5011SOL    HW115932   2.080   3.255   2.109
 5011SOL    HW215933   2.152   3.374   2.194
 5012SOL     OW15934   6.613   2.598   5.606
 5012SOL    HW115935   6.538   2.554   5.656
 5012SOL    HW215936   6.589   2.693   5.587
 5013SOL     OW15937   4.458   0.676   6.594
 5013SOL    HW115938   4.370   0.644   6.629
 5013SOL    HW215939   4.489   0.614   6.522
 5014SOL     OW15940   6.130   5.904   0.817
 5014SOL    HW115941   6.130   5.886   0.916
 5014SOL    HW215942   6.210   5.960   0.793
 5015SOL     OW15943   4.146   1.984   3.586
 5015SOL    HW115944   4.232   1.946   3.552
 5015SOL    HW215945   4.129   2.072   3.543
 5016SOL     OW15946   1.779   1.075   2.947
 5016SOL    HW115947   1.700   1.039   2.998
 5016SOL    HW215948   1.747   1.124   2.866
 5017SOL     OW15949   2.336   2.084   0.427
 5017SOL    HW115950   2.248   2.098   0.380
 5017SOL    HW215951   2.329   2.120   0.520
 5018SOL     OW15952   0.001   4.248   2.279
 5018SOL    HW115953   0.058   4.166   2.269
 5018SOL    HW215954   6.974   4.245   2.368
 5019SOL     OW15955   2.878   3.524   0.626
 5019SOL    HW115956   2.940   3.588   0.579
 5019SOL    HW215957   2.785   3.561   0.626
 5020SOL     OW15958   5.588   5.609   6.282
 5020SOL    HW115959   5.592   5.564   6.371
 5020SOL    HW215960   5.556   5.543   6.213
 5021SOL     OW15961   1.392   4.684   5.895
 5021SOL    HW115962   1.377   4.615   5.824
 5021SOL    HW215963   1.482   4.726   5.880
 5022SOL     OW15964   1.876   6.205   0.811
 5022SOL    HW115965   1.926   6.140   0.755
 5022SOL    HW215966   1.778   6.198   0.791
 5023SOL     OW15967   6.298   3.106   0.835
 5023SOL    HW115968   6.368   3.136   0.900
 5023SOL    HW215969   6.240   3.183   0.811
 5024SOL     OW15970   6.698   3.968   3.478
 5024SOL    HW115971   6.780   3.911   3.481
 5024SOL    HW215972   6.651   3.954   3.391
 5025SOL     OW15973   4.735   1.132   2.763
 5025SOL    HW115974   4.746   1.200   2.835
 5025SOL    HW215975   4.713   1.043   2.804
 5026SOL     OW15976   6.204   5.404   5.250
 5026SOL    HW115977   6.152   5.483   5.216
 5026SOL    HW215978   6.227   5.344   5.173
 5027SOL     OW15979   0.229   6.238   2.786
 5027SOL    HW115980   0.298   6.309   2.802
 5027SOL    HW215981   0.251   6.157   2.841
 5028SOL     OW15982   0.505   6.171   1.546
 5028SOL    HW115983   0.430   6.109   1.523
 5028SOL    HW215984   0.570   6.125   1.607
 5029SOL     OW15985   6.814   2.479   2.006
 5029SOL    HW115986   6.817   2.466   2.105
 5029SOL    HW215987   6.898   2.526   1.977
 5030SOL     OW15988   6.632   0.200   6.792
 5030SOL    HW115989   6.621   0.114   6.741
 5030SOL    HW215990   6.664   0.180   6.885
 5031SOL     OW15991   5.941   1.161   4.169
 5031SOL    HW115992   5.978   1.242   4.122
 5031SOL    HW215993   5.938   1.085   4.104
 5032SOL     OW15994   1.827   5.516   0.669
 5032SOL    HW115995   1.767   5.494   0.592
 5032SOL    HW215996   1.919   5.482   0.651
 5033SOL     OW15997   2.615   4.840   5.395
 5033SOL    HW115998   2.563   4.814   5.314
 5033SOL    HW215999   2.713   4.836   5.374
 5034SOL     OW16000   6.569   2.287   2.582
 5034SOL    HW116001   6.564   2.366   2.643
 5034SOL    HW216002   6.499   2.220   2.607
 5035SOL     OW16003   4.619   5.556   0.390
 5035SOL    HW116004   4.667   5.579   0.475
 5035SOL    HW216005   4.546   5.491   0.410
 5036SOL     OW16006   1.454   6.177   6.926
 5036SOL    HW116007   1.471   6.273   6.944
 5036SOL    HW216008   1.519   6.121   6.978
 5037SOL     OW16009   3.933   1.839   3.516
 5037SOL    HW116010   3.967   1.746   3.524
 5037SOL    HW216011   4.006   1.903   3.540
 5038SOL     OW16012   1.219   5.833   5.937
 5038SOL    HW116013   1.135   5.829   5.991
 5038SOL    HW216014   1.266   5.744   5.942
 5039SOL     OW16015   2.606   2.909   5.435
 5039SOL    HW116016   2.547   2.848   5.488
 5039SOL    HW216017   2.566   2.923   5.344
 5040SOL     OW16018   2.624   3.445   7.002
 5040SOL    HW116019   2.528   3.438   0.009
 5040SOL    HW216020   2.681   3.401   0.051
 5041SOL     OW16021   1.019   4.119   1.486
 5041SOL    HW116022   0.922   4.114   1.461
 5041SOL    HW216023   1.041   4.046   1.551
 5042SOL     OW16024   6.323   3.661   6.600
 5042SOL    HW116025   6.242   3.710   6.566
 5042SOL    HW216026   6.302   3.619   6.688
 5043SOL     OW16027   3.616   1.272   4.399
 5043SOL    HW116028   3.547   1.322   4.347
 5043SOL    HW216029   3.693   1.251   4.340
 5044SOL     OW16030   6.201   6.157   3.869
 5044SOL    HW116031   6.104   6.181   3.880
 5044SOL    HW216032   6.227   6.167   3.773
 5045SOL     OW16033   6.214   3.558   0.420
 5045SOL    HW116034   6.277   3.567   0.497
 5045SOL    HW216035   6.152   3.481   0.436
 5046SOL     OW16036   3.718   3.014   4.780
 5046SOL    HW116037   3.705   2.940   4.846
 5046SOL    HW216038   3.814   3.041   4.779
 5047SOL     OW16039   5.723   0.941   2.760
 5047SOL    HW116040   5.809   0.985   2.735
 5047SOL    HW216041   5.727   0.908   2.854
 5048SOL     OW16042   0.073   2.615   1.905
 5048SOL    HW116043   0.078   2.629   2.004
 5048SOL    HW216044   0.140   2.546   1.878
 5049SOL     OW16045   0.981   1.722   1.921
 5049SOL    HW116046   0.918   1.688   1.851
 5049SOL    HW216047   0.940   1.711   2.011
 5050SOL     OW16048   0.430   2.216   1.688
 5050SOL    HW116049   0.479   2.164   1.758
 5050SOL    HW216050   0.495   2.249   1.620
 5051SOL     OW16051   2.507   3.946   1.036
 5051SOL    HW116052   2.481   3.867   0.981
 5051SOL    HW216053   2.559   4.011   0.980
 5052SOL     OW16054   3.988   4.763   0.993
 5052SOL    HW116055   4.027   4.755   0.901
 5052SOL    HW216056   4.042   4.827   1.047
 5053SOL     OW16057   2.207   4.124   1.902
 5053SOL    HW116058   2.246   4.174   1.980
 5053SOL    HW216059   2.281   4.092   1.843
 5054SOL     OW16060   3.611   6.176   5.021
 5054SOL    HW116061   3.647   6.256   4.974
 5054SOL    HW216062   3.541   6.132   4.965
 5055SOL     OW16063   0.771   2.007   5.211
 5055SOL    HW116064   0.702   1.973   5.148
 5055SOL    HW216065   0.823   1.931   5.248
 5056SOL     OW16066   0.116   3.617   5.989
 5056SOL    HW116067   0.131   3.659   6.078
 5056SOL    HW216068   0.040   3.663   5.943
 5057SOL     OW16069   0.898   5.591   3.437
 5057SOL    HW116070   0.903   5.545   3.526
 5057SOL    HW216071   0.903   5.523   3.364
 5058SOL     OW16072   4.109   4.441   0.040
 5058SOL    HW116073   4.060   4.477   0.119
 5058SOL    HW216074   4.099   4.342   0.036
 5059SOL     OW16075   3.549   2.074   4.825
 5059SOL    HW116076   3.487   2.007   4.867
 5059SOL    HW216077   3.588   2.133   4.897
 5060SOL     OW16078   0.352   3.545   5.084
 5060SOL    HW116079   0.388   3.619   5.141
 5060SOL    HW216080   0.428   3.493   5.045
 5061SOL     OW16081   2.939   3.565   4.636
 5061SOL    HW116082   2.944   3.612   4.725
 5061SOL    HW216083   2.957   3.631   4.563
 5062SOL     OW16084   4.580   1.333   2.598
 5062SOL    HW116085   4.652   1.270   2.627
 5062SOL    HW216086   4.604   1.375   2.511
 5063SOL     OW16087   1.485   6.540   2.206
 5063SOL    HW116088   1.506   6.569   2.299
 5063SOL    HW216089   1.551   6.581   2.142
 5064SOL     OW16090   4.758   5.608   0.658
 5064SOL    HW116091   4.755   5.623   0.757
 5064SOL    HW216092   4.800   5.519   0.639
 5065SOL     OW16093   2.017   0.368   3.366
 5065SOL    HW116094   2.108   0.327   3.358
 5065SOL    HW216095   1.997   0.421   3.284
 5066SOL     OW16096   2.160   4.995   1.647
 5066SOL    HW116097   2.251   4.977   1.609
 5066SOL    HW216098   2.168   5.022   1.743
 5067SOL     OW16099   3.909   2.174   1.540
 5067SOL    HW116100   3.905   2.103   1.470
 5067SOL    HW216101   3.819   2.217   1.550
 5068SOL     OW16102   3.765   6.312   0.830
 5068SOL    HW116103   3.670   6.321   0.863
 5068SOL    HW216104   3.777   6.221   0.790
 5069SOL     OW16105   2.792   3.985   6.510
 5069SOL    HW116106   2.838   3.898   6.494
 5069SOL    HW216107   2.824   4.024   6.597
 5070SOL     OW16108   5.836   3.322   4.210
 5070SOL    HW116109   5.837   3.223   4.193
 5070SOL    HW216110   5.886   3.341   4.295
 5071SOL     OW16111   3.935   1.357   3.808
 5071SOL    HW116112   3.903   1.429   3.746
 5071SOL    HW216113   3.877   1.354   3.889
 5072SOL     OW16114   1.325   0.689   0.867
 5072SOL    HW116115   1.249   0.728   0.814
 5072SOL    HW216116   1.289   0.623   0.933
 5073SOL     OW16117   2.574   6.236   2.629
 5073SOL    HW116118   2.618   6.173   2.693
 5073SOL    HW216119   2.634   6.253   2.551
 5074SOL     OW16120   3.518   1.965   1.510
 5074SOL    HW116121   3.540   2.036   1.443
 5074SOL    HW216122   3.429   1.986   1.552
 5075SOL     OW16123   1.272   2.980   0.094
 5075SOL    HW116124   1.347   3.019   0.147
 5075SOL    HW216125   1.256   2.886   0.122
 5076SOL     OW16126   5.229   0.678   0.113
 5076SOL    HW116127   5.272   0.757   0.156
 5076SOL    HW216128   5.298   0.607   0.096
 5077SOL     OW16129   1.351   4.108   4.682
 5077SOL    HW116130   1.384   4.023   4.723
 5077SOL    HW216131   1.426   4.157   4.639
 5078SOL     OW16132   0.378   1.117   3.856
 5078SOL    HW116133   0.303   1.183   3.853
 5078SOL    HW216134   0.343   1.025   3.838
 5079SOL     OW16135   1.801   2.022   5.787
 5079SOL    HW116136   1.790   1.925   5.761
 5079SOL    HW216137   1.713   2.068   5.777
 5080SOL     OW16138   5.984   5.321   5.938
 5080SOL    HW116139   6.049   5.347   5.866
 5080SOL    HW216140   5.891   5.329   5.904
 5081SOL     OW16141   3.301   5.827   5.191
 5081SOL    HW116142   3.251   5.783   5.117
 5081SOL    HW216143   3.394   5.848   5.160
 5082SOL     OW16144   4.610   6.410   0.406
 5082SOL    HW116145   4.595   6.378   0.313
 5082SOL    HW216146   4.627   6.331   0.465
 5083SOL     OW16147   2.916   0.795   2.491
 5083SOL    HW116148   2.852   0.818   2.418
 5083SOL    HW216149   2.939   0.698   2.487
 5084SOL     OW16150   0.870   5.222   5.312
 5084SOL    HW116151   0.966   5.197   5.325
 5084SOL    HW216152   0.864   5.307   5.259
 5085SOL     OW16153   1.487   3.486   5.918
 5085SOL    HW116154   1.429   3.512   5.840
 5085SOL    HW216155   1.514   3.568   5.969
 5086SOL     OW16156   1.025   4.946   2.864
 5086SOL    HW116157   0.995   5.019   2.926
 5086SOL    HW216158   1.115   4.970   2.827
 5087SOL     OW16159   6.866   5.416   2.214
 5087SOL    HW116160   6.956   5.376   2.231
 5087SOL    HW216161   6.801   5.382   2.282
 5088SOL     OW16162   4.327   5.981   2.542
 5088SOL    HW116163   4.254   6.023   2.489
 5088SOL    HW216164   4.292   5.955   2.633
 5089SOL     OW16165   5.823   3.865   4.644
 5089SOL    HW116166   5.760   3.792   4.618
 5089SOL    HW216167   5.842   3.922   4.564
 5090SOL     OW16168   1.771   0.016   3.843
 5090SOL    HW116169   1.751   6.968   3.773
 5090SOL    HW216170   1.770   0.108   3.802
 5091SOL     OW16171   6.614   0.375   0.272
 5091SOL    HW116172   6.525   0.369   0.227
 5091SOL    HW216173   6.673   0.438   0.221
 5092SOL     OW16174   3.411   3.870   4.628
 5092SOL    HW116175   3.381   3.899   4.719
 5092SOL    HW216176   3.398   3.945   4.563
 5093SOL     OW16177   2.503   1.167   2.851
 5093SOL    HW116178   2.439   1.206   2.784
 5093SOL    HW216179   2.597   1.183   2.822
 5094SOL     OW16180   2.611   5.530   6.918
 5094SOL    HW116181   2.512   5.515   6.909
 5094SOL    HW216182   2.635   5.618   6.876
 5095SOL     OW16183   0.579   1.306   3.727
 5095SOL    HW116184   0.516   1.232   3.753
 5095SOL    HW216185   0.583   1.312   3.627
 5096SOL     OW16186   5.524   3.810   6.466
 5096SOL    HW116187   5.506   3.730   6.408
 5096SOL    HW216188   5.494   3.791   6.559
 5097SOL     OW16189   6.601   6.305   6.924
 5097SOL    HW116190   6.649   6.260   7.000
 5097SOL    HW216191   6.594   6.403   6.943
 5098SOL     OW16192   3.938   2.180   1.806
 5098SOL    HW116193   3.846   2.210   1.832
 5098SOL    HW216194   3.943   2.172   1.707
 5099SOL     OW16195   0.285   6.011   1.763
 5099SOL    HW116196   0.247   6.094   1.804
 5099SOL    HW216197   0.217   5.938   1.768
 5100SOL     OW16198   4.615   5.095   2.619
 5100SOL    HW116199   4.624   5.187   2.580
 5100SOL    HW216200   4.668   5.089   2.704
 5101SOL     OW16201   4.080   0.288   5.161
 5101SOL    HW116202   4.053   0.200   5.121
 5101SOL    HW216203   4.018   0.359   5.129
 5102SOL     OW16204   4.903   5.535   4.173
 5102SOL    HW116205   4.901   5.632   4.198
 5102SOL    HW216206   4.968   5.487   4.233
 5103SOL     OW16207   0.595   0.530   5.039
 5103SOL    HW116208   0.683   0.485   5.021
 5103SOL    HW216209   0.558   0.497   5.125
 5104SOL     OW16210   3.306   6.163   2.061
 5104SOL    HW116211   3.330   6.260   2.063
 5104SOL    HW216212   3.262   6.138   2.147
 5105SOL     OW16213   2.743   3.250   0.179
 5105SOL    HW116214   2.830   3.284   0.144
 5105SOL    HW216215   2.746   3.150   0.184
 5106SOL     OW16216   4.139   2.283   1.023
 5106SOL    HW116217   4.080   2.358   0.994
 5106SOL    HW216218   4.191   2.249   0.945
 5107SOL     OW16219   5.661   2.902   1.062
 5107SOL    HW116220   5.596   2.971   1.033
 5107SOL    HW216221   5.754   2.938   1.057
 5108SOL     OW16222   4.738   4.117   5.813
 5108SOL    HW116223   4.720   4.026   5.850
 5108SOL    HW216224   4.722   4.186   5.884
 5109SOL     OW16225   1.673   3.083   1.563
 5109SOL    HW116226   1.722   3.168   1.586
 5109SOL    HW216227   1.722   3.036   1.489
 5110SOL     OW16228   6.921   6.491   6.268
 5110SOL    HW116229   7.009   6.527   6.300
 5110SOL    HW216230   6.852   6.563   6.270
 5111SOL     OW16231   1.202   6.324   4.716
 5111SOL    HW116232   1.250   6.398   4.764
 5111SOL    HW216233   1.119   6.360   4.674
 5112SOL     OW16234   0.647   0.151   2.672
 5112SOL    HW116235   0.723   0.202   2.631
 5112SOL    HW216236   0.570   0.213   2.688
 5113SOL     OW16237   1.743   5.302   0.478
 5113SOL    HW116238   1.802   5.295   0.398
 5113SOL    HW216239   1.648   5.307   0.449
 5114SOL     OW16240   3.577   0.214   0.689
 5114SOL    HW116241   3.665   0.257   0.708
 5114SOL    HW216242   3.503   0.269   0.730
 5115SOL     OW16243   2.128   3.638   1.522
 5115SOL    HW116244   2.030   3.658   1.515
 5115SOL    HW216245   2.179   3.724   1.516
 5116SOL     OW16246   2.809   6.668   6.921
 5116SOL    HW116247   2.736   6.727   6.888
 5116SOL    HW216248   2.845   6.613   6.845
 5117SOL     OW16249   0.936   3.273   4.584
 5117SOL    HW116250   0.869   3.227   4.527
 5117SOL    HW216251   0.950   3.220   4.669
 5118SOL     OW16252   5.883   6.903   0.493
 5118SOL    HW116253   5.805   6.861   0.446
 5118SOL    HW216254   5.864   6.910   0.590
 5119SOL     OW16255   5.518   1.635   0.617
 5119SOL    HW116256   5.460   1.716   0.617
 5119SOL    HW216257   5.481   1.568   0.682
 5120SOL     OW16258   4.968   0.520   5.088
 5120SOL    HW116259   4.940   0.578   5.165
 5120SOL    HW216260   5.059   0.547   5.057
 5121SOL     OW16261   3.316   3.878   6.959
 5121SOL    HW116262   3.363   3.891   0.027
 5121SOL    HW216263   3.257   3.797   6.965
 5122SOL     OW16264   3.717   5.128   3.425
 5122SOL    HW116265   3.645   5.164   3.365
 5122SOL    HW216266   3.678   5.109   3.515
 5123SOL     OW16267   5.340   2.201   2.439
 5123SOL    HW116268   5.337   2.130   2.369
 5123SOL    HW216269   5.259   2.260   2.429
 5124SOL     OW16270   1.763   6.327   3.709
 5124SOL    HW116271   1.837   6.388   3.737
 5124SOL    HW216272   1.688   6.380   3.670
 5125SOL     OW16273   0.189   1.317   3.823
 5125SOL    HW116274   0.257   1.390   3.828
 5125SOL    HW216275   0.102   1.354   3.790
 5126SOL     OW16276   1.280   6.428   0.603
 5126SOL    HW116277   1.304   6.366   0.677
 5126SOL    HW216278   1.281   6.378   0.516
 5127SOL     OW16279   2.011   5.989   0.223
 5127SOL    HW116280   2.059   5.917   0.274
 5127SOL    HW216281   1.916   5.994   0.254
 5128SOL     OW16282   0.004   5.847   0.967
 5128SOL    HW116283   6.929   5.815   0.968
 5128SOL    HW216284   0.062   5.784   1.019
 5129SOL     OW16285   4.620   6.547   1.645
 5129SOL    HW116286   4.670   6.557   1.730
 5129SOL    HW216287   4.610   6.637   1.601
 5130SOL     OW16288   6.937   4.682   2.810
 5130SOL    HW116289   6.918   4.604   2.751
 5130SOL    HW216290   6.867   4.752   2.797
 5131SOL     OW16291   1.028   3.428   3.168
 5131SOL    HW116292   1.124   3.435   3.192
 5131SOL    HW216293   0.979   3.509   3.201
 5132SOL     OW16294   3.313   3.917   6.088
 5132SOL    HW116295   3.338   3.822   6.065
 5132SOL    HW216296   3.397   3.970   6.102
 5133SOL     OW16297   3.247   5.388   6.811
 5133SOL    HW116298   3.289   5.336   6.736
 5133SOL    HW216299   3.272   5.346   6.898
 5134SOL     OW16300   0.611   3.058   1.966
 5134SOL    HW116301   0.610   3.142   1.911
 5134SOL    HW216302   0.529   3.005   1.947
 5135SOL     OW16303   6.752   2.373   6.086
 5135SOL    HW116304   6.699   2.457   6.099
 5135SOL    HW216305   6.702   2.296   6.126
 5136SOL     OW16306   5.262   0.752   4.579
 5136SOL    HW116307   5.175   0.714   4.548
 5136SOL    HW216308   5.306   0.690   4.644
 5137SOL     OW16309   5.918   3.158   6.435
 5137SOL    HW116310   5.902   3.160   6.337
 5137SOL    HW216311   5.988   3.090   6.456
 5138SOL     OW16312   4.233   3.025   6.754
 5138SOL    HW116313   4.255   3.060   6.663
 5138SOL    HW216314   4.162   3.082   6.795
 5139SOL     OW16315   1.734   6.856   3.602
 5139SOL    HW116316   1.664   6.926   3.591
 5139SOL    HW216317   1.751   6.813   3.513
 5140SOL     OW16318   2.263   1.589   0.435
 5140SOL    HW116319   2.275   1.659   0.506
 5140SOL    HW216320   2.219   1.630   0.355
 5141SOL     OW16321   5.577   3.550   1.274
 5141SOL    HW116322   5.534   3.598   1.351
 5141SOL    HW216323   5.675   3.540   1.291
 5142SOL     OW16324   6.172   2.297   4.383
 5142SOL    HW116325   6.263   2.292   4.425
 5142SOL    HW216326   6.102   2.285   4.454
 5143SOL     OW16327   1.031   4.317   4.426
 5143SOL    HW116328   1.009   4.399   4.373
 5143SOL    HW216329   1.011   4.333   4.523
 5144SOL     OW16330   1.552   6.599   6.031
 5144SOL    HW116331   1.486   6.672   6.013
 5144SOL    HW216332   1.554   6.580   6.129
 5145SOL     OW16333   2.340   5.578   6.313
 5145SOL    HW116334   2.356   5.590   6.215
 5145SOL    HW216335   2.371   5.487   6.341
 5146SOL     OW16336   4.228   3.974   6.730
 5146SOL    HW116337   4.308   3.918   6.754
 5146SOL    HW216338   4.168   3.923   6.670
 5147SOL     OW16339   0.335   3.964   1.651
 5147SOL    HW116340   0.325   4.048   1.597
 5147SOL    HW216341   0.404   3.905   1.608
 5148SOL     OW16342   0.611   6.090   0.917
 5148SOL    HW116343   0.703   6.069   0.885
 5148SOL    HW216344   0.610   6.180   0.960
 5149SOL     OW16345   5.922   0.301   3.647
 5149SOL    HW116346   5.910   0.340   3.556
 5149SOL    HW216347   5.959   0.208   3.639
 5150SOL     OW16348   1.933   5.895   4.325
 5150SOL    HW116349   1.988   5.865   4.247
 5150SOL    HW216350   1.982   5.968   4.374
 5151SOL     OW16351   5.742   1.001   6.753
 5151SOL    HW116352   5.643   0.995   6.737
 5151SOL    HW216353   5.776   1.088   6.719
 5152SOL     OW16354   2.286   4.828   0.047
 5152SOL    HW116355   2.362   4.764   0.060
 5152SOL    HW216356   2.313   4.919   0.078
 5153SOL     OW16357   1.880   2.023   6.939
 5153SOL    HW116358   1.821   2.006   6.860
 5153SOL    HW216359   1.959   1.963   6.935
 5154SOL     OW16360   2.075   3.246   6.126
 5154SOL    HW116361   2.039   3.304   6.200
 5154SOL    HW216362   2.002   3.186   6.093
 5155SOL     OW16363   4.097   6.359   1.960
 5155SOL    HW116364   4.140   6.443   1.926
 5155SOL    HW216365   4.024   6.331   1.898
 5156SOL     OW16366   6.664   2.541   6.402
 5156SOL    HW116367   6.682   2.603   6.326
 5156SOL    HW216368   6.656   2.592   6.487
 5157SOL     OW16369   4.709   2.905   3.736
 5157SOL    HW116370   4.664   2.989   3.766
 5157SOL    HW216371   4.785   2.884   3.798
 5158SOL     OW16372   2.876   2.062   1.439
 5158SOL    HW116373   2.942   1.996   1.475
 5158SOL    HW216374   2.827   2.104   1.515
 5159SOL     OW16375   1.142   3.954   4.780
 5159SOL    HW116376   1.175   3.916   4.866
 5159SOL    HW216377   1.214   4.010   4.739
 5160SOL     OW16378   1.432   3.742   4.257
 5160SOL    HW116379   1.422   3.653   4.213
 5160SOL    HW216380   1.500   3.736   4.331
 5161SOL     OW16381   1.159   4.343   5.675
 5161SOL    HW116382   1.064   4.372   5.687
 5161SOL    HW216383   1.162   4.266   5.612
 5162SOL     OW16384   0.069   5.028   4.445
 5162SOL    HW116385   7.017   4.960   4.430
 5162SOL    HW216386   0.113   5.011   4.533
 5163SOL     OW16387   4.728   5.240   1.251
 5163SOL    HW116388   4.811   5.276   1.295
 5163SOL    HW216389   4.705   5.152   1.294
 5164SOL     OW16390   5.769   2.296   5.517
 5164SOL    HW116391   5.720   2.353   5.450
 5164SOL    HW216392   5.750   2.199   5.497
 5165SOL     OW16393   5.735   5.021   5.167
 5165SOL    HW116394   5.667   4.948   5.162
 5165SOL    HW216395   5.776   5.022   5.258
 5166SOL     OW16396   1.828   5.166   1.892
 5166SOL    HW116397   1.899   5.220   1.847
 5166SOL    HW216398   1.870   5.085   1.935
 5167SOL     OW16399   6.533   6.873   5.426
 5167SOL    HW116400   6.438   6.900   5.441
 5167SOL    HW216401   6.548   6.860   5.328
 5168SOL     OW16402   4.493   2.529   3.678
 5168SOL    HW116403   4.411   2.497   3.726
 5168SOL    HW216404   4.491   2.496   3.584
 5169SOL     OW16405   3.316   3.564   6.559
 5169SOL    HW116406   3.276   3.610   6.480
 5169SOL    HW216407   3.257   3.489   6.587
 5170SOL     OW16408   6.904   4.549   6.047
 5170SOL    HW116409   6.893   4.603   5.963
 5170SOL    HW216410   6.930   4.456   6.024
 5171SOL     OW16411   2.453   4.409   4.482
 5171SOL    HW116412   2.370   4.450   4.519
 5171SOL    HW216413   2.461   4.314   4.513
 5172SOL     OW16414   0.722   3.318   1.839
 5172SOL    HW116415   0.685   3.402   1.880
 5172SOL    HW216416   0.777   3.343   1.759
 5173SOL     OW16417   5.918   4.151   6.753
 5173SOL    HW116418   5.994   4.178   6.694
 5173SOL    HW216419   5.937   4.180   6.847
 5174SOL     OW16420   2.066   4.689   4.772
 5174SOL    HW116421   1.983   4.718   4.725
 5174SOL    HW216422   2.058   4.712   4.869
 5175SOL     OW16423   1.767   4.123   0.320
 5175SOL    HW116424   1.692   4.077   0.272
 5175SOL    HW216425   1.740   4.139   0.415
 5176SOL     OW16426   3.852   3.174   0.344
 5176SOL    HW116427   3.919   3.145   0.413
 5176SOL    HW216428   3.764   3.131   0.364
 5177SOL     OW16429   4.693   0.554   5.547
 5177SOL    HW116430   4.697   0.468   5.496
 5177SOL    HW216431   4.747   0.545   5.631
 5178SOL     OW16432   2.232   2.521   1.603
 5178SOL    HW116433   2.306   2.583   1.629
 5178SOL    HW216434   2.171   2.507   1.681
 5179SOL     OW16435   4.803   6.605   5.093
 5179SOL    HW116436   4.738   6.668   5.048
 5179SOL    HW216437   4.882   6.657   5.126
 5180SOL     OW16438   3.527   2.432   6.798
 5180SOL    HW116439   3.603   2.457   6.858
 5180SOL    HW216440   3.499   2.338   6.818
 5181SOL     OW16441   3.661   0.809   3.084
 5181SOL    HW116442   3.640   0.823   2.987
 5181SOL    HW216443   3.726   0.879   3.114
 5182SOL     OW16444   6.039   4.783   1.714
 5182SOL    HW116445   5.987   4.798   1.798
 5182SOL    HW216446   5.999   4.707   1.663
 5183SOL     OW16447   4.640   0.093   1.814
 5183SOL    HW116448   4.639   0.151   1.896
 5183SOL    HW216449   4.699   0.014   1.830
 5184SOL     OW16450   0.830   1.689   3.919
 5184SOL    HW116451   0.783   1.742   3.849
 5184SOL    HW216452   0.795   1.595   3.918
 5185SOL     OW16453   3.734   0.039   2.777
 5185SOL    HW116454   3.728   6.972   2.728
 5185SOL    HW216455   3.802   0.097   2.733
 5186SOL     OW16456   6.505   3.762   0.949
 5186SOL    HW116457   6.539   3.678   0.907
 5186SOL    HW216458   6.506   3.836   0.882
 5187SOL     OW16459   6.635   1.342   3.420
 5187SOL    HW116460   6.683   1.428   3.403
 5187SOL    HW216461   6.697   1.265   3.401
 5188SOL     OW16462   0.577   4.937   0.129
 5188SOL    HW116463   0.563   5.036   0.122
 5188SOL    HW216464   0.649   4.909   0.066
 5189SOL     OW16465   4.556   5.083   6.945
 5189SOL    HW116466   4.561   5.182   6.959
 5189SOL    HW216467   4.644   5.042   6.967
 5190SOL     OW16468   0.687   2.061   3.866
 5190SOL    HW116469   0.692   1.986   3.800
 5190SOL    HW216470   0.779   2.081   3.900
 5191SOL     OW16471   3.251   1.172   1.689
 5191SOL    HW116472   3.302   1.087   1.702
 5191SOL    HW216473   3.185   1.183   1.763
 5192SOL     OW16474   4.928   5.446   2.545
 5192SOL    HW116475   4.902   5.538   2.575
 5192SOL    HW216476   4.977   5.400   2.619
 5193SOL     OW16477   4.601   4.341   3.830
 5193SOL    HW116478   4.539   4.413   3.800
 5193SOL    HW216479   4.613   4.274   3.756
 5194SOL     OW16480   5.020   0.757   6.045
 5194SOL    HW116481   5.074   0.830   6.087
 5194SOL    HW216482   4.948   0.797   5.989
 5195SOL     OW16483   6.234   6.794   4.527
 5195SOL    HW116484   6.172   6.857   4.573
 5195SOL    HW216485   6.319   6.787   4.579
 5196SOL     OW16486   0.500   4.171   1.780
 5196SOL    HW116487   0.587   4.130   1.805
 5196SOL    HW216488   0.434   4.099   1.756
 5197SOL     OW16489   1.519   6.228   4.244
 5197SOL    HW116490   1.465   6.214   4.162
 5197SOL    HW216491   1.613   6.197   4.229
 5198SOL     OW16492   2.805   6.803   4.702
 5198SOL    HW116493   2.795   6.768   4.609
 5198SOL    HW216494   2.829   6.729   4.764
 5199SOL     OW16495   2.207   5.436   1.387
 5199SOL    HW116496   2.166   5.473   1.304
 5199SOL    HW216497   2.265   5.358   1.363
 5200SOL     OW16498   1.045   1.846   5.034
 5200SOL    HW116499   0.971   1.814   5.094
 5200SOL    HW216500   1.119   1.883   5.089
 5201SOL     OW16501   5.605   4.836   4.560
 5201SOL    HW116502   5.622   4.746   4.600
 5201SOL    HW216503   5.684   4.862   4.504
 5202SOL     OW16504   5.179   3.065   6.944
 5202SOL    HW116505   5.207   2.989   7.003
 5202SOL    HW216506   5.081   3.057   6.925
 5203SOL     OW16507   1.418   0.611   6.558
 5203SOL    HW116508   1.458   0.619   6.467
 5203SOL    HW216509   1.471   0.668   6.622
 5204SOL     OW16510   3.694   6.934   6.777
 5204SOL    HW116511   3.745   6.942   6.862
 5204SOL    HW216512   3.599   6.913   6.797
 5205SOL     OW16513   6.762   5.719   0.916
 5205SOL    HW116514   6.706   5.746   0.994
 5205SOL    HW216515   6.767   5.619   0.911
 5206SOL     OW16516   0.726   4.737   4.979
 5206SOL    HW116517   0.711   4.832   5.003
 5206SOL    HW216518   0.732   4.681   5.062
 5207SOL     OW16519   0.061   6.955   3.950
 5207SOL    HW116520   7.001   6.988   3.901
 5207SOL    HW216521   0.106   0.012   3.996
 5208SOL     OW16522   4.976   2.236   0.670
 5208SOL    HW116523   4.983   2.331   0.699
 5208SOL    HW216524   4.880   2.210   0.660
 5209SOL     OW16525   4.571   0.025   3.443
 5209SOL    HW116526   4.569   6.946   3.461
 5209SOL    HW216527   4.485   0.053   3.402
 5210SOL     OW16528   4.971   4.639   1.167
 5210SOL    HW116529   4.953   4.684   1.080
 5210SOL    HW216530   4.998   4.544   1.151
 5211SOL     OW16531   4.911   2.181   3.861
 5211SOL    HW116532   4.863   2.248   3.918
 5211SOL    HW216533   4.933   2.100   3.917
 5212SOL     OW16534   1.303   2.080   1.127
 5212SOL    HW116535   1.294   1.996   1.181
 5212SOL    HW216536   1.395   2.085   1.089
 5213SOL     OW16537   4.138   3.592   2.095
 5213SOL    HW116538   4.157   3.520   2.029
 5213SOL    HW216539   4.124   3.551   2.186
 5214SOL     OW16540   5.498   4.358   6.670
 5214SOL    HW116541   5.482   4.440   6.615
 5214SOL    HW216542   5.597   4.345   6.682
 5215SOL     OW16543   0.078   3.153   4.913
 5215SOL    HW116544   0.158   3.213   4.904
 5215SOL    HW216545   0.082   3.083   4.841
 5216SOL     OW16546   5.768   4.975   1.047
 5216SOL    HW116547   5.683   4.967   1.099
 5216SOL    HW216548   5.757   5.044   0.975
 5217SOL     OW16549   3.977   5.794   4.223
 5217SOL    HW116550   3.965   5.859   4.148
 5217SOL    HW216551   4.073   5.793   4.251
 5218SOL     OW16552   0.495   0.794   0.842
 5218SOL    HW116553   0.542   0.709   0.818
 5218SOL    HW216554   0.495   0.855   0.764
 5219SOL     OW16555   3.016   1.819   4.918
 5219SOL    HW116556   3.011   1.853   4.824
 5219SOL    HW216557   2.960   1.738   4.927
 5220SOL     OW16558   2.330   5.516   3.489
 5220SOL    HW116559   2.330   5.531   3.588
 5220SOL    HW216560   2.403   5.452   3.466
 5221SOL     OW16561   6.943   0.303   1.619
 5221SOL    HW116562   0.010   0.256   1.635
 5221SOL    HW216563   6.961   0.395   1.584
 5222SOL     OW16564   4.469   4.875   1.451
 5222SOL    HW116565   4.389   4.848   1.396
 5222SOL    HW216566   4.523   4.793   1.472
 5223SOL     OW16567   0.187   3.239   0.473
 5223SOL    HW116568   0.159   3.244   0.377
 5223SOL    HW216569   0.274   3.191   0.480
 5224SOL     OW16570   0.968   1.938   4.397
 5224SOL    HW116571   1.057   1.902   4.367
 5224SOL    HW216572   0.904   1.935   4.320
 5225SOL     OW16573   6.556   1.013   4.753
 5225SOL    HW116574   6.568   1.072   4.833
 5225SOL    HW216575   6.600   0.925   4.770
 5226SOL     OW16576   0.439   5.678   3.217
 5226SOL    HW116577   0.495   5.620   3.277
 5226SOL    HW216578   0.382   5.738   3.273
 5227SOL     OW16579   0.186   3.792   5.751
 5227SOL    HW116580   0.087   3.808   5.754
 5227SOL    HW216581   0.206   3.718   5.687
 5228SOL     OW16582   1.331   2.906   5.977
 5228SOL    HW116583   1.250   2.945   5.932
 5228SOL    HW216584   1.321   2.806   5.983
 5229SOL     OW16585   3.957   6.621   6.764
 5229SOL    HW116586   4.027   6.571   6.815
 5229SOL    HW216587   3.998   6.663   6.683
 5230SOL     OW16588   7.010   0.105   2.245
 5230SOL    HW116589   6.998   0.154   2.159
 5230SOL    HW216590   6.926   0.112   2.299
 5231SOL     OW16591   5.549   1.567   3.109
 5231SOL    HW116592   5.491   1.633   3.159
 5231SOL    HW216593   5.520   1.564   3.014
 5232SOL     OW16594   1.890   3.738   6.193
 5232SOL    HW116595   1.847   3.824   6.220
 5232SOL    HW216596   1.836   3.661   6.228
 5233SOL     OW16597   3.166   0.888   2.511
 5233SOL    HW116598   3.069   0.874   2.493
 5233SOL    HW216599   3.195   0.831   2.587
 5234SOL     OW16600   2.001   2.501   0.970
 5234SOL    HW116601   1.925   2.531   0.911
 5234SOL    HW216602   1.996   2.550   1.057
 5235SOL     OW16603   2.273   1.603   0.950
 5235SOL    HW116604   2.234   1.693   0.931
 5235SOL    HW216605   2.355   1.614   1.006
 5236SOL     OW16606   3.256   5.153   2.261
 5236SOL    HW116607   3.275   5.134   2.357
 5236SOL    HW216608   3.164   5.189   2.251
 5237SOL     OW16609   1.835   2.256   4.374
 5237SOL    HW116610   1.870   2.321   4.441
 5237SOL    HW216611   1.751   2.213   4.410
 5238SOL     OW16612   1.442   4.911   2.934
 5238SOL    HW116613   1.476   4.858   3.012
 5238SOL    HW216614   1.515   4.967   2.897
 5239SOL     OW16615   3.131   3.762   1.216
 5239SOL    HW116616   3.074   3.689   1.176
 5239SOL    HW216617   3.086   3.850   1.204
 5240SOL     OW16618   2.687   2.916   5.793
 5240SOL    HW116619   2.773   2.871   5.818
 5240SOL    HW216620   2.681   3.003   5.842
 5241SOL     OW16621   1.439   5.875   2.250
 5241SOL    HW116622   1.452   5.967   2.285
 5241SOL    HW216623   1.484   5.867   2.161
 5242SOL     OW16624   4.889   0.941   1.092
 5242SOL    HW116625   4.911   0.845   1.108
 5242SOL    HW216626   4.808   0.966   1.145
 5243SOL     OW16627   2.173   6.126   1.608
 5243SOL    HW116628   2.090   6.181   1.600
 5243SOL    HW216629   2.197   6.088   1.519
 5244SOL     OW16630   5.194   3.498   0.763
 5244SOL    HW116631   5.105   3.487   0.719
 5244SOL    HW216632   5.266   3.463   0.702
 5245SOL     OW16633   4.235   4.407   0.408
 5245SOL    HW116634   4.304   4.363   0.350
 5245SOL    HW216635   4.163   4.446   0.350
 5246SOL     OW16636   6.656   2.824   2.018
 5246SOL    HW116637   6.572   2.818   2.072
 5246SOL    HW216638   6.731   2.782   2.069
 5247SOL     OW16639   3.704   1.552   5.428
 5247SOL    HW116640   3.756   1.627   5.470
 5247SOL    HW216641   3.635   1.519   5.492
 5248SOL     OW16642   6.819   1.763   2.663
 5248SOL    HW116643   6.883   1.707   2.717
 5248SOL    HW216644   6.871   1.829   2.609
 5249SOL     OW16645   1.060   4.879   0.306
 5249SOL    HW116646   0.969   4.910   0.334
 5249SOL    HW216647   1.128   4.949   0.329
 5250SOL     OW16648   2.113   5.663   0.294
 5250SOL    HW116649   2.171   5.679   0.214
 5250SOL    HW216650   2.125   5.569   0.326
 5251SOL     OW16651   1.165   4.347   1.560
 5251SOL    HW116652   1.120   4.259   1.545
 5251SOL    HW216653   1.121   4.417   1.505
 5252SOL     OW16654   3.146   6.608   2.066
 5252SOL    HW116655   3.115   6.656   2.148
 5252SOL    HW216656   3.070   6.602   2.001
 5253SOL     OW16657   5.853   4.186   4.805
 5253SOL    HW116658   5.858   4.134   4.891
 5253SOL    HW216659   5.757   4.197   4.778
 5254SOL     OW16660   5.645   0.160   3.175
 5254SOL    HW116661   5.685   0.093   3.113
 5254SOL    HW216662   5.661   0.252   3.139
 5255SOL     OW16663   5.645   2.189   4.400
 5255SOL    HW116664   5.598   2.112   4.442
 5255SOL    HW216665   5.577   2.256   4.369
 5256SOL     OW16666   4.457   0.967   2.956
 5256SOL    HW116667   4.392   1.002   2.888
 5256SOL    HW216668   4.409   0.955   3.044
 5257SOL     OW16669   4.326   0.345   0.074
 5257SOL    HW116670   4.388   0.412   0.034
 5257SOL    HW216671   4.343   0.255   0.033
 5258SOL     OW16672   5.403   1.453   2.514
 5258SOL    HW116673   5.446   1.543   2.528
 5258SOL    HW216674   5.356   1.426   2.597
 5259SOL     OW16675   5.057   5.758   2.740
 5259SOL    HW116676   5.134   5.697   2.756
 5259SOL    HW216677   5.027   5.799   2.826
 5260SOL     OW16678   2.916   5.581   0.090
 5260SOL    HW116679   2.818   5.598   0.104
 5260SOL    HW216680   2.968   5.660   0.122
 5261SOL     OW16681   6.860   4.818   1.047
 5261SOL    HW116682   6.844   4.769   0.961
 5261SOL    HW216683   6.887   4.753   1.118
 5262SOL     OW16684   2.594   0.759   3.072
 5262SOL    HW116685   2.587   0.858   3.089
 5262SOL    HW216686   2.507   0.725   3.035
 5263SOL     OW16687   1.617   1.070   3.236
 5263SOL    HW116688   1.654   0.977   3.229
 5263SOL    HW216689   1.640   1.109   3.325
 5264SOL     OW16690   6.874   2.215   1.941
 5264SOL    HW116691   6.830   2.301   1.967
 5264SOL    HW216692   6.878   2.208   1.842
 5265SOL     OW16693   5.285   2.680   4.218
 5265SOL    HW116694   5.227   2.608   4.256
 5265SOL    HW216695   5.294   2.754   4.284
 5266SOL     OW16696   2.424   6.397   0.831
 5266SOL    HW116697   2.456   6.351   0.748
 5266SOL    HW216698   2.378   6.483   0.805
 5267SOL     OW16699   4.408   2.324   4.301
 5267SOL    HW116700   4.460   2.242   4.326
 5267SOL    HW216701   4.449   2.404   4.346
 5268SOL     OW16702   5.448   0.536   0.041
 5268SOL    HW116703   5.541   0.535   0.078
 5268SOL    HW216704   5.452   0.545   6.961
 5269SOL     OW16705   0.687   6.610   2.568
 5269SOL    HW116706   0.684   6.590   2.471
 5269SOL    HW216707   0.597   6.641   2.599
 5270SOL     OW16708   6.287   2.068   0.490
 5270SOL    HW116709   6.368   2.044   0.543
 5270SOL    HW216710   6.269   2.166   0.498
 5271SOL     OW16711   6.364   5.319   5.015
 5271SOL    HW116712   6.341   5.273   4.929
 5271SOL    HW216713   6.446   5.277   5.054
 5272SOL     OW16714   3.856   6.750   0.824
 5272SOL    HW116715   3.839   6.709   0.734
 5272SOL    HW216716   3.830   6.685   0.896
 5273SOL     OW16717   1.231   3.234   2.546
 5273SOL    HW116718   1.214   3.331   2.529
 5273SOL    HW216719   1.201   3.210   2.638
 5274SOL     OW16720   4.595   6.519   2.572
 5274SOL    HW116721   4.573   6.473   2.486
 5274SOL    HW216722   4.675   6.476   2.613
 5275SOL     OW16723   2.743   0.454   1.291
 5275SOL    HW116724   2.841   0.467   1.303
 5275SOL    HW216725   2.704   0.535   1.248
 5276SOL     OW16726   2.260   6.893   1.583
 5276SOL    HW116727   2.339   6.869   1.527
 5276SOL    HW216728   2.258   6.992   1.597
 5277SOL     OW16729   2.994   1.204   2.423
 5277SOL    HW116730   2.995   1.304   2.435
 5277SOL    HW216731   3.054   1.162   2.491
 5278SOL     OW16732   3.948   4.817   2.825
 5278SOL    HW116733   3.848   4.823   2.819
 5278SOL    HW216734   3.985   4.791   2.736
 5279SOL     OW16735   2.745   5.336   1.167
 5279SOL    HW116736   2.693   5.371   1.089
 5279SOL    HW216737   2.742   5.403   1.241
 5280SOL     OW16738   3.352   6.273   5.248
 5280SOL    HW116739   3.355   6.373   5.242
 5280SOL    HW216740   3.345   6.244   5.343
 5281SOL     OW16741   0.063   1.602   2.436
 5281SOL    HW116742   0.110   1.678   2.482
 5281SOL    HW216743   0.120   1.520   2.441
 5282SOL     OW16744   2.392   1.995   3.528
 5282SOL    HW116745   2.325   2.061   3.494
 5282SOL    HW216746   2.453   1.968   3.454
 5283SOL     OW16747   5.281   5.651   0.943
 5283SOL    HW116748   5.188   5.634   0.911
 5283SOL    HW216749   5.321   5.727   0.892
 5284SOL     OW16750   5.372   4.421   3.057
 5284SOL    HW116751   5.424   4.390   2.977
 5284SOL    HW216752   5.326   4.343   3.099
 5285SOL     OW16753   3.354   4.901   3.793
 5285SOL    HW116754   3.362   4.883   3.891
 5285SOL    HW216755   3.443   4.929   3.757
 5286SOL     OW16756   2.128   4.187   1.053
 5286SOL    HW116757   2.090   4.120   0.988
 5286SOL    HW216758   2.081   4.274   1.041
 5287SOL     OW16759   2.438   1.069   0.714
 5287SOL    HW116760   2.419   1.164   0.740
 5287SOL    HW216761   2.401   1.051   0.623
 5288SOL     OW16762   3.261   0.296   1.107
 5288SOL    HW116763   3.183   0.252   1.151
 5288SOL    HW216764   3.247   0.296   1.008
 5289SOL     OW16765   1.068   5.262   0.790
 5289SOL    HW116766   1.110   5.222   0.871
 5289SOL    HW216767   1.005   5.335   0.818
 5290SOL     OW16768   3.695   5.808   6.991
 5290SOL    HW116769   3.771   5.754   6.956
 5290SOL    HW216770   3.730   5.892   0.013
 5291SOL     OW16771   1.593   4.756   5.400
 5291SOL    HW116772   1.519   4.708   5.445
 5291SOL    HW216773   1.643   4.693   5.341
 5292SOL     OW16774   4.880   3.312   6.754
 5292SOL    HW116775   4.781   3.324   6.751
 5292SOL    HW216776   4.901   3.219   6.786
 5293SOL     OW16777   0.816   0.470   4.527
 5293SOL    HW116778   0.739   0.515   4.574
 5293SOL    HW216779   0.855   0.532   4.459
 5294SOL     OW16780   5.873   2.863   6.103
 5294SOL    HW116781   5.973   2.870   6.106
 5294SOL    HW216782   5.845   2.820   6.016
 5295SOL     OW16783   5.430   1.101   3.048
 5295SOL    HW116784   5.458   1.016   3.093
 5295SOL    HW216785   5.453   1.179   3.107
 5296SOL     OW16786   1.680   4.598   0.637
 5296SOL    HW116787   1.642   4.619   0.727
 5296SOL    HW216788   1.754   4.531   0.647
 5297SOL     OW16789   2.318   1.367   1.295
 5297SOL    HW116790   2.335   1.280   1.341
 5297SOL    HW216791   2.340   1.358   1.198
 5298SOL     OW16792   6.477   4.761   1.244
 5298SOL    HW116793   6.483   4.843   1.301
 5298SOL    HW216794   6.563   4.711   1.248
 5299SOL     OW16795   3.148   0.768   1.646
 5299SOL    HW116796   3.078   0.698   1.631
 5299SOL    HW216797   3.147   0.832   1.568
 5300SOL     OW16798   0.181   6.747   3.550
 5300SOL    HW116799   0.148   6.740   3.456
 5300SOL    HW216800   0.170   6.658   3.595
 5301SOL     OW16801   4.318   1.627   6.826
 5301SOL    HW116802   4.234   1.622   6.879
 5301SOL    HW216803   4.325   1.546   6.767
 5302SOL     OW16804   6.317   4.536   2.938
 5302SOL    HW116805   6.383   4.539   3.013
 5302SOL    HW216806   6.352   4.588   2.861
 5303SOL     OW16807   0.083   4.640   3.645
 5303SOL    HW116808   0.040   4.575   3.582
 5303SOL    HW216809   0.014   4.704   3.677
 5304SOL     OW16810   4.860   1.546   6.022
 5304SOL    HW116811   4.922   1.520   5.948
 5304SOL    HW216812   4.769   1.561   5.985
 5305SOL     OW16813   2.477   1.018   3.546
 5305SOL    HW116814   2.512   1.103   3.584
 5305SOL    HW216815   2.481   0.946   3.615
 5306SOL     OW16816   2.920   6.270   6.048
 5306SOL    HW116817   2.915   6.359   6.092
 5306SOL    HW216818   2.881   6.276   5.956
 5307SOL     OW16819   4.620   6.868   6.370
 5307SOL    HW116820   4.689   6.833   6.307
 5307SOL    HW216821   4.604   6.965   6.352
 5308SOL     OW16822   6.839   1.147   3.423
 5308SOL    HW116823   6.935   1.149   3.454
 5308SOL    HW216824   6.834   1.108   3.332
 5309SOL     OW16825   3.754   4.117   4.147
 5309SOL    HW116826   3.714   4.094   4.058
 5309SOL    HW216827   3.853   4.112   4.141
 5310SOL     OW16828   5.675   2.123   1.518
 5310SOL    HW116829   5.598   2.098   1.577
 5310SOL    HW216830   5.711   2.041   1.474
 5311SOL     OW16831   2.055   5.535   6.837
 5311SOL    HW116832   2.007   5.548   6.924
 5311SOL    HW216833   2.021   5.452   6.792
 5312SOL     OW16834   1.105   4.180   2.990
 5312SOL    HW116835   1.039   4.157   3.062
 5312SOL    HW216836   1.194   4.197   3.032
 5313SOL     OW16837   1.169   5.996   6.256
 5313SOL    HW116838   1.134   5.903   6.269
 5313SOL    HW216839   1.248   6.010   6.316
 5314SOL     OW16840   3.883   5.561   6.875
 5314SOL    HW116841   3.959   5.609   6.832
 5314SOL    HW216842   3.917   5.504   6.949
 5315SOL     OW16843   5.670   3.587   1.688
 5315SOL    HW116844   5.638   3.567   1.781
 5315SOL    HW216845   5.673   3.686   1.674
 5316SOL     OW16846   6.841   4.657   4.566
 5316SOL    HW116847   6.937   4.664   4.542
 5316SOL    HW216848   6.789   4.728   4.519
 5317SOL     OW16849   5.334   0.372   2.349
 5317SOL    HW116850   5.300   0.378   2.443
 5317SOL    HW216851   5.345   0.464   2.312
 5318SOL     OW16852   0.378   2.864   4.353
 5318SOL    HW116853   0.308   2.810   4.400
 5318SOL    HW216854   0.363   2.961   4.370
 5319SOL     OW16855   5.024   0.224   0.235
 5319SOL    HW116856   4.979   0.137   0.253
 5319SOL    HW216857   5.123   0.215   0.247
 5320SOL     OW16858   5.636   3.536   6.721
 5320SOL    HW116859   5.691   3.485   6.654
 5320SOL    HW216860   5.559   3.480   6.751
 5321SOL     OW16861   1.452   5.690   5.533
 5321SOL    HW116862   1.498   5.731   5.455
 5321SOL    HW216863   1.450   5.590   5.522
 5322SOL     OW16864   3.668   5.266   6.186
 5322SOL    HW116865   3.576   5.291   6.214
 5322SOL    HW216866   3.681   5.167   6.198
 5323SOL     OW16867   4.311   1.949   0.288
 5323SOL    HW116868   4.349   1.939   0.196
 5323SOL    HW216869   4.257   2.033   0.293
 5324SOL     OW16870   4.244   2.881   1.646
 5324SOL    HW116871   4.184   2.934   1.587
 5324SOL    HW216872   4.196   2.799   1.679
 5325SOL     OW16873   5.289   6.521   2.128
 5325SOL    HW116874   5.305   6.589   2.200
 5325SOL    HW216875   5.289   6.429   2.167
 5326SOL     OW16876   6.783   5.870   1.496
 5326SOL    HW116877   6.801   5.780   1.537
 5326SOL    HW216878   6.705   5.913   1.542
 5327SOL     OW16879   6.628   6.621   4.245
 5327SOL    HW116880   6.717   6.658   4.273
 5327SOL    HW216881   6.592   6.563   4.318
 5328SOL     OW16882   3.750   3.920   0.204
 5328SOL    HW116883   3.809   3.839   0.205
 5328SOL    HW216884   3.802   3.997   0.168
 5329SOL     OW16885   0.577   4.507   0.742
 5329SOL    HW116886   0.480   4.490   0.757
 5329SOL    HW216887   0.603   4.593   0.787
 5330SOL     OW16888   3.699   3.933   1.257
 5330SOL    HW116889   3.650   3.846   1.268
 5330SOL    HW216890   3.636   4.009   1.270
 5331SOL     OW16891   4.440   2.181   0.487
 5331SOL    HW116892   4.348   2.182   0.449
 5331SOL    HW216893   4.457   2.267   0.536
 5332SOL     OW16894   5.954   4.638   0.410
 5332SOL    HW116895   5.979   4.670   0.319
 5332SOL    HW216896   5.919   4.544   0.405
 5333SOL     OW16897   1.702   1.178   3.475
 5333SOL    HW116898   1.767   1.244   3.513
 5333SOL    HW216899   1.670   1.116   3.546
 5334SOL     OW16900   4.509   4.475   3.040
 5334SOL    HW116901   4.495   4.447   2.945
 5334SOL    HW216902   4.421   4.476   3.088
 5335SOL     OW16903   0.077   4.866   1.484
 5335SOL    HW116904   7.014   4.870   1.541
 5335SOL    HW216905   0.106   4.959   1.461
 5336SOL     OW16906   1.950   2.039   4.200
 5336SOL    HW116907   2.039   1.998   4.222
 5336SOL    HW216908   1.942   2.126   4.249
 5337SOL     OW16909   0.130   4.409   1.204
 5337SOL    HW116910   0.038   4.375   1.185
 5337SOL    HW216911   0.125   4.480   1.273
 5338SOL     OW16912   6.592   3.535   0.801
 5338SOL    HW116913   6.600   3.542   0.701
 5338SOL    HW216914   6.548   3.448   0.824
 5339SOL     OW16915   5.710   2.668   2.857
 5339SOL    HW116916   5.677   2.732   2.787
 5339SOL    HW216917   5.789   2.618   2.821
 5340SOL     OW16918   5.598   2.840   2.653
 5340SOL    HW116919   5.653   2.783   2.593
 5340SOL    HW216920   5.504   2.805   2.657
 5341SOL     OW16921   4.549   5.257   3.704
 5341SOL    HW116922   4.583   5.349   3.683
 5341SOL    HW216923   4.449   5.257   3.702
 5342SOL     OW16924   5.841   0.235   4.610
 5342SOL    HW116925   5.745   0.258   4.624
 5342SOL    HW216926   5.883   0.300   4.547
 5343SOL     OW16927   4.114   3.631   5.580
 5343SOL    HW116928   4.131   3.721   5.619
 5343SOL    HW216929   4.144   3.630   5.484
 5344SOL     OW16930   0.628   1.894   6.185
 5344SOL    HW116931   0.583   1.867   6.270
 5344SOL    HW216932   0.569   1.870   6.108
 5345SOL     OW16933   5.652   1.856   6.761
 5345SOL    HW116934   5.576   1.791   6.768
 5345SOL    HW216935   5.690   1.853   6.669
 5346SOL     OW16936   2.802   5.163   4.106
 5346SOL    HW116937   2.798   5.263   4.107
 5346SOL    HW216938   2.710   5.126   4.119
 5347SOL     OW16939   6.266   1.802   4.120
 5347SOL    HW116940   6.287   1.857   4.200
 5347SOL    HW216941   6.286   1.855   4.037
 5348SOL     OW16942   5.422   2.123   3.447
 5348SOL    HW116943   5.322   2.120   3.457
 5348SOL    HW216944   5.465   2.102   3.535
 5349SOL     OW16945   0.574   3.346   2.413
 5349SOL    HW116946   0.654   3.338   2.473
 5349SOL    HW216947   0.603   3.341   2.318
 5350SOL     OW16948   2.186   6.598   6.084
 5350SOL    HW116949   2.138   6.520   6.044
 5350SOL    HW216950   2.244   6.567   6.159
 5351SOL     OW16951   0.573   5.702   1.639
 5351SOL    HW116952   0.662   5.718   1.597
 5351SOL    HW216953   0.535   5.616   1.604
 5352SOL     OW16954   2.015   3.793   4.385
 5352SOL    HW116955   2.033   3.702   4.425
 5352SOL    HW216956   1.923   3.794   4.346
 5353SOL     OW16957   4.484   5.790   3.178
 5353SOL    HW116958   4.451   5.868   3.232
 5353SOL    HW216959   4.407   5.748   3.130
 5354SOL     OW16960   3.639   5.320   0.246
 5354SOL    HW116961   3.580   5.319   0.165
 5354SOL    HW216962   3.609   5.250   0.310
 5355SOL     OW16963   5.196   4.897   5.294
 5355SOL    HW116964   5.284   4.892   5.247
 5355SOL    HW216965   5.133   4.832   5.253
 5356SOL     OW16966   0.227   5.053   1.281
 5356SOL    HW116967   0.159   5.033   1.211
 5356SOL    HW216968   0.301   4.986   1.276
 5357SOL     OW16969   4.998   4.932   2.254
 5357SOL    HW116970   4.957   4.915   2.343
 5357SOL    HW216971   4.983   5.027   2.227
 5358SOL     OW16972   4.330   1.665   0.626
 5358SOL    HW116973   4.277   1.656   0.541
 5358SOL    HW216974   4.420   1.705   0.605
 5359SOL     OW16975   1.707   2.163   6.592
 5359SOL    HW116976   1.653   2.161   6.508
 5359SOL    HW216977   1.748   2.254   6.603
 5360SOL     OW16978   4.925   4.808   3.229
 5360SOL    HW116979   4.845   4.802   3.289
 5360SOL    HW216980   4.962   4.717   3.213
 5361SOL     OW16981   2.847   5.955   2.425
 5361SOL    HW116982   2.823   6.022   2.355
 5361SOL    HW216983   2.876   6.003   2.508
 5362SOL     OW16984   5.856   0.397   1.709
 5362SOL    HW116985   5.930   0.428   1.649
 5362SOL    HW216986   5.806   0.322   1.664
 5363SOL     OW16987   5.591   5.293   5.194
 5363SOL    HW116988   5.628   5.380   5.161
 5363SOL    HW216989   5.658   5.220   5.179
 5364SOL     OW16990   4.840   0.667   2.447
 5364SOL    HW116991   4.741   0.668   2.466
 5364SOL    HW216992   4.890   0.692   2.529
 5365SOL     OW16993   3.226   2.990   4.314
 5365SOL    HW116994   3.237   2.928   4.391
 5365SOL    HW216995   3.163   3.063   4.339
 5366SOL     OW16996   6.178   6.348   1.748
 5366SOL    HW116997   6.149   6.390   1.662
 5366SOL    HW216998   6.100   6.302   1.790
 5367SOL     OW16999   6.625   6.380   1.812
 5367SOL    HW117000   6.685   6.457   1.790
 5367SOL    HW217001   6.612   6.323   1.731
 5368SOL     OW17002   6.774   5.937   3.568
 5368SOL    HW117003   6.736   5.849   3.597
 5368SOL    HW217004   6.715   6.011   3.601
 5369SOL     OW17005   2.786   6.086   2.180
 5369SOL    HW117006   2.712   6.112   2.117
 5369SOL    HW217007   2.792   5.987   2.184
 5370SOL     OW17008   2.920   3.887   1.718
 5370SOL    HW117009   2.998   3.886   1.655
 5370SOL    HW217010   2.841   3.845   1.675
 5371SOL     OW17011   6.585   5.177   5.051
 5371SOL    HW117012   6.649   5.126   5.108
 5371SOL    HW217013   6.631   5.206   4.967
 5372SOL     OW17014   0.811   0.053   2.345
 5372SOL    HW117015   0.799   0.121   2.418
 5372SOL    HW217016   0.837   0.100   2.260
 5373SOL     OW17017   3.463   0.635   6.359
 5373SOL    HW117018   3.476   0.552   6.307
 5373SOL    HW217019   3.547   0.690   6.356
 5374SOL     OW17020   3.233   5.253   1.700
 5374SOL    HW117021   3.279   5.342   1.702
 5374SOL    HW217022   3.153   5.255   1.761
 5375SOL     OW17023   0.755   5.966   4.661
 5375SOL    HW117024   0.801   6.037   4.715
 5375SOL    HW217025   0.821   5.895   4.636
 5376SOL     OW17026   0.570   1.681   6.772
 5376SOL    HW117027   0.601   1.757   6.829
 5376SOL    HW217028   0.496   1.632   6.819
 5377SOL     OW17029   2.417   0.655   3.433
 5377SOL    HW117030   2.399   0.619   3.342
 5377SOL    HW217031   2.481   0.732   3.426
 5378SOL     OW17032   5.646   1.128   2.146
 5378SOL    HW117033   5.680   1.039   2.176
 5378SOL    HW217034   5.563   1.116   2.093
 5379SOL     OW17035   1.184   3.194   6.357
 5379SOL    HW117036   1.265   3.142   6.328
 5379SOL    HW217037   1.184   3.203   6.457
 5380SOL     OW17038   4.602   6.944   0.892
 5380SOL    HW117039   4.538   6.867   0.893
 5380SOL    HW217040   4.671   6.929   0.822
 5381SOL     OW17041   4.466   6.075   3.457
 5381SOL    HW117042   4.433   6.169   3.457
 5381SOL    HW217043   4.557   6.071   3.416
 5382SOL     OW17044   4.029   1.853   1.508
 5382SOL    HW117045   4.070   1.873   1.420
 5382SOL    HW217046   4.100   1.850   1.579
 5383SOL     OW17047   2.342   2.769   4.200
 5383SOL    HW117048   2.422   2.726   4.242
 5383SOL    HW217049   2.278   2.798   4.272
 5384SOL     OW17050   5.019   6.000   5.633
 5384SOL    HW117051   4.971   6.040   5.556
 5384SOL    HW217052   4.956   5.988   5.710
 5385SOL     OW17053   5.387   2.769   5.577
 5385SOL    HW117054   5.332   2.795   5.498
 5385SOL    HW217055   5.332   2.714   5.639
 5386SOL     OW17056   6.339   4.150   3.979
 5386SOL    HW117057   6.404   4.108   4.042
 5386SOL    HW217058   6.318   4.243   4.010
 5387SOL     OW17059   1.803   1.668   2.479
 5387SOL    HW117060   1.804   1.624   2.389
 5387SOL    HW217061   1.843   1.759   2.472
 5388SOL     OW17062   0.517   6.993   2.347
 5388SOL    HW117063   0.616   7.001   2.335
 5388SOL    HW217064   0.497   6.925   2.419
 5389SOL     OW17065   4.278   2.044   3.983
 5389SOL    HW117066   4.377   2.059   3.979
 5389SOL    HW217067   4.250   1.985   3.907
 5390SOL     OW17068   6.531   3.340   3.710
 5390SOL    HW117069   6.521   3.299   3.801
 5390SOL    HW217070   6.470   3.419   3.703
 5391SOL     OW17071   2.157   2.401   0.442
 5391SOL    HW117072   2.080   2.462   0.423
 5391SOL    HW217073   2.144   2.356   0.530
 5392SOL     OW17074   5.830   2.023   3.577
 5392SOL    HW117075   5.757   2.085   3.551
 5392SOL    HW217076   5.792   1.947   3.631
 5393SOL     OW17077   3.786   1.797   5.580
 5393SOL    HW117078   3.822   1.779   5.672
 5393SOL    HW217079   3.815   1.888   5.550
 5394SOL     OW17080   1.612   0.619   0.970
 5394SOL    HW117081   1.666   0.537   0.951
 5394SOL    HW217082   1.582   0.660   0.884
 5395SOL     OW17083   5.659   1.902   1.220
 5395SOL    HW117084   5.642   1.835   1.293
 5395SOL    HW217085   5.605   1.985   1.238
 5396SOL     OW17086   5.845   5.353   3.453
 5396SOL    HW117087   5.929   5.309   3.420
 5396SOL    HW217088   5.770   5.287   3.449
 5397SOL     OW17089   6.384   1.142   3.251
 5397SOL    HW117090   6.457   1.209   3.251
 5397SOL    HW217091   6.372   1.105   3.159
 5398SOL     OW17092   4.925   1.795   3.433
 5398SOL    HW117093   4.831   1.794   3.399
 5398SOL    HW217094   4.978   1.861   3.381
 5399SOL     OW17095   2.696   0.142   5.777
 5399SOL    HW117096   2.727   0.162   5.871
 5399SOL    HW217097   2.631   0.067   5.779
 5400SOL     OW17098   3.710   3.237   1.420
 5400SOL    HW117099   3.807   3.233   1.444
 5400SOL    HW217100   3.662   3.295   1.486
 5401SOL     OW17101   6.116   4.304   1.352
 5401SOL    HW117102   6.061   4.387   1.350
 5401SOL    HW217103   6.206   4.322   1.313
 5402SOL     OW17104   1.621   0.115   1.029
 5402SOL    HW117105   1.680   0.130   1.108
 5402SOL    HW217106   1.614   0.199   0.976
 5403SOL     OW17107   5.170   3.432   0.288
 5403SOL    HW117108   5.196   3.478   0.203
 5403SOL    HW217109   5.243   3.370   0.316
 5404SOL     OW17110   6.666   1.025   1.167
 5404SOL    HW117111   6.626   0.974   1.091
 5404SOL    HW217112   6.723   1.099   1.132
 5405SOL     OW17113   4.862   6.077   6.974
 5405SOL    HW117114   4.877   6.158   6.917
 5405SOL    HW217115   4.945   6.021   6.974
 5406SOL     OW17116   2.586   0.462   3.626
 5406SOL    HW117117   2.560   0.533   3.561
 5406SOL    HW217118   2.640   0.392   3.578
 5407SOL     OW17119   1.736   0.389   2.038
 5407SOL    HW117120   1.777   0.465   2.088
 5407SOL    HW217121   1.802   0.353   1.972
 5408SOL     OW17122   2.836   2.312   4.422
 5408SOL    HW117123   2.857   2.232   4.365
 5408SOL    HW217124   2.848   2.288   4.518
 5409SOL     OW17125   1.220   2.473   0.891
 5409SOL    HW117126   1.230   2.569   0.867
 5409SOL    HW217127   1.192   2.421   0.810
 5410SOL     OW17128   0.728   2.373   0.711
 5410SOL    HW117129   0.635   2.389   0.680
 5410SOL    HW217130   0.773   2.460   0.732
 5411SOL     OW17131   3.595   4.801   6.830
 5411SOL    HW117132   3.507   4.822   6.786
 5411SOL    HW217133   3.613   4.703   6.823
 5412SOL     OW17134   0.335   2.514   5.802
 5412SOL    HW117135   0.239   2.540   5.808
 5412SOL    HW217136   0.343   2.423   5.760
 5413SOL     OW17137   7.004   6.741   4.060
 5413SOL    HW117138   0.045   6.808   4.019
 5413SOL    HW217139   6.909   6.769   4.048
 5414SOL     OW17140   6.236   3.853   5.459
 5414SOL    HW117141   6.182   3.921   5.509
 5414SOL    HW217142   6.326   3.845   5.502
 5415SOL     OW17143   3.540   0.494   0.579
 5415SOL    HW117144   3.529   0.492   0.679
 5415SOL    HW217145   3.626   0.449   0.555
 5416SOL     OW17146   3.296   5.059   6.152
 5416SOL    HW117147   3.204   5.073   6.115
 5416SOL    HW217148   3.321   4.962   6.144
 5417SOL     OW17149   4.742   5.911   3.673
 5417SOL    HW117150   4.665   5.891   3.611
 5417SOL    HW217151   4.817   5.951   3.620
 5418SOL     OW17152   6.275   3.734   4.731
 5418SOL    HW117153   6.354   3.751   4.671
 5418SOL    HW217154   6.192   3.765   4.686
 5419SOL     OW17155   4.315   0.170   6.288
 5419SOL    HW117156   4.243   0.105   6.312
 5419SOL    HW217157   4.298   0.257   6.333
 5420SOL     OW17158   0.959   0.931   1.921
 5420SOL    HW117159   0.945   1.017   1.969
 5420SOL    HW217160   0.955   0.947   1.822
 5421SOL     OW17161   3.939   5.108   2.195
 5421SOL    HW117162   4.029   5.065   2.199
 5421SOL    HW217163   3.868   5.038   2.201
 5422SOL     OW17164   2.292   6.145   4.144
 5422SOL    HW117165   2.284   6.241   4.172
 5422SOL    HW217166   2.363   6.100   4.198
 5423SOL     OW17167   6.226   6.168   2.386
 5423SOL    HW117168   6.248   6.176   2.483
 5423SOL    HW217169   6.129   6.186   2.372
 5424SOL     OW17170   4.413   3.999   5.775
 5424SOL    HW117171   4.392   4.060   5.698
 5424SOL    HW217172   4.510   4.007   5.798
 5425SOL     OW17173   0.411   3.268   5.664
 5425SOL    HW117174   0.425   3.291   5.568
 5425SOL    HW217175   0.332   3.318   5.700
 5426SOL     OW17176   5.747   5.393   2.360
 5426SOL    HW117177   5.773   5.489   2.347
 5426SOL    HW217178   5.823   5.343   2.401
 5427SOL     OW17179   4.735   2.445   6.465
 5427SOL    HW117180   4.697   2.386   6.536
 5427SOL    HW217181   4.835   2.448   6.475
 5428SOL     OW17182   6.924   5.326   3.237
 5428SOL    HW117183   6.982   5.364   3.166
 5428SOL    HW217184   6.832   5.308   3.201
 5429SOL     OW17185   2.899   6.963   3.868
 5429SOL    HW117186   2.877   6.990   3.774
 5429SOL    HW217187   2.964   6.887   3.866
 5430SOL     OW17188   2.705   3.706   6.286
 5430SOL    HW117189   2.794   3.698   6.242
 5430SOL    HW217190   2.654   3.782   6.246
 5431SOL     OW17191   3.578   4.834   6.162
 5431SOL    HW117192   3.493   4.834   6.109
 5431SOL    HW217193   3.558   4.806   6.256
 5432SOL     OW17194   5.229   4.931   0.323
 5432SOL    HW117195   5.265   5.001   0.385
 5432SOL    HW217196   5.129   4.929   0.329
 5433SOL     OW17197   1.626   6.828   1.089
 5433SOL    HW117198   1.617   6.926   1.074
 5433SOL    HW217199   1.626   6.809   1.188
 5434SOL     OW17200   5.217   0.569   4.319
 5434SOL    HW117201   5.242   0.472   4.316
 5434SOL    HW217202   5.120   0.578   4.341
 5435SOL     OW17203   6.814   4.039   0.999
 5435SOL    HW117204   6.794   3.975   1.074
 5435SOL    HW217205   6.803   3.992   0.911
 5436SOL     OW17206   1.555   4.286   2.894
 5436SOL    HW117207   1.615   4.230   2.838
 5436SOL    HW217208   1.609   4.354   2.943
 5437SOL     OW17209   3.865   5.953   0.963
 5437SOL    HW117210   3.856   6.010   1.044
 5437SOL    HW217211   3.791   5.974   0.899
 5438SOL     OW17212   4.730   5.006   2.860
 5438SOL    HW117213   4.758   4.910   2.851
 5438SOL    HW217214   4.693   5.021   2.951
 5439SOL     OW17215   1.275   5.376   1.564
 5439SOL    HW117216   1.245   5.298   1.618
 5439SOL    HW217217   1.250   5.461   1.610
 5440SOL     OW17218   5.968   5.885   3.706
 5440SOL    HW117219   5.916   5.810   3.664
 5440SOL    HW217220   5.944   5.971   3.663
 5441SOL     OW17221   4.661   2.502   3.424
 5441SOL    HW117222   4.612   2.506   3.337
 5441SOL    HW217223   4.690   2.594   3.450
 5442SOL     OW17224   4.813   6.906   4.916
 5442SOL    HW117225   4.747   6.972   4.952
 5442SOL    HW217226   4.905   6.945   4.919
 5443SOL     OW17227   4.267   0.570   4.439
 5443SOL    HW117228   4.346   0.592   4.495
 5443SOL    HW217229   4.288   0.588   4.342
 5444SOL     OW17230   6.666   0.759   4.777
 5444SOL    HW117231   6.693   0.753   4.681
 5444SOL    HW217232   6.574   0.722   4.789
 5445SOL     OW17233   5.298   5.400   5.521
 5445SOL    HW117234   5.345   5.489   5.523
 5445SOL    HW217235   5.363   5.329   5.493
 5446SOL     OW17236   0.759   4.557   6.250
 5446SOL    HW117237   0.749   4.575   6.152
 5446SOL    HW217238   0.853   4.579   6.279
 5447SOL     OW17239   1.087   1.476   0.083
 5447SOL    HW117240   1.030   1.410   0.034
 5447SOL    HW217241   1.032   1.520   0.155
 5448SOL     OW17242   4.594   5.519   3.040
 5448SOL    HW117243   4.599   5.473   3.129
 5448SOL    HW217244   4.536   5.600   3.048
 5449SOL     OW17245   2.800   1.909   1.946
 5449SOL    HW117246   2.859   1.865   2.014
 5449SOL    HW217247   2.846   1.990   1.909
 5450SOL     OW17248   4.024   5.868   1.510
 5450SOL    HW117249   4.018   5.957   1.556
 5450SOL    HW217250   3.932   5.831   1.497
 5451SOL     OW17251   1.024   0.268   3.117
 5451SOL    HW117252   1.063   0.354   3.150
 5451SOL    HW217253   0.926   0.267   3.138
 5452SOL     OW17254   2.176   5.096   1.895
 5452SOL    HW117255   2.250   5.054   1.946
 5452SOL    HW217256   2.192   5.195   1.889
 5453SOL     OW17257   5.549   4.418   3.264
 5453SOL    HW117258   5.481   4.412   3.191
 5453SOL    HW217259   5.608   4.338   3.263
 5454SOL     OW17260   5.675   5.151   3.541
 5454SOL    HW117261   5.721   5.183   3.623
 5454SOL    HW217262   5.579   5.130   3.562
 5455SOL     OW17263   0.692   1.741   3.026
 5455SOL    HW117264   0.651   1.669   3.083
 5455SOL    HW217265   0.777   1.708   2.987
 5456SOL     OW17266   5.973   1.251   7.013
 5456SOL    HW117267   6.001   1.285   0.083
 5456SOL    HW217268   5.924   1.324   6.964
 5457SOL     OW17269   6.155   2.807   0.249
 5457SOL    HW117270   6.095   2.864   0.305
 5457SOL    HW217271   6.228   2.768   0.307
 5458SOL     OW17272   6.402   4.571   0.770
 5458SOL    HW117273   6.322   4.622   0.739
 5458SOL    HW217274   6.396   4.556   0.868
 5459SOL     OW17275   2.072   3.779   5.525
 5459SOL    HW117276   2.166   3.745   5.535
 5459SOL    HW217277   2.012   3.731   5.589
 5460SOL     OW17278   2.001   0.375   7.013
 5460SOL    HW117279   1.911   0.406   0.026
 5460SOL    HW217280   2.023   0.420   6.927
 5461SOL     OW17281   6.422   1.497   6.269
 5461SOL    HW117282   6.383   1.410   6.237
 5461SOL    HW217283   6.513   1.508   6.231
 5462SOL     OW17284   5.592   5.396   6.773
 5462SOL    HW117285   5.540   5.316   6.802
 5462SOL    HW217286   5.588   5.466   6.844
 5463SOL     OW17287   0.045   2.942   0.150
 5463SOL    HW117288   7.005   3.011   0.191
 5463SOL    HW217289   0.126   2.986   0.111
 5464SOL     OW17290   6.894   6.178   5.361
 5464SOL    HW117291   6.817   6.115   5.369
 5464SOL    HW217292   6.896   6.239   5.440
 5465SOL     OW17293   6.589   6.581   3.377
 5465SOL    HW117294   6.642   6.530   3.309
 5465SOL    HW217295   6.605   6.679   3.364
 5466SOL     OW17296   5.853   2.685   5.395
 5466SOL    HW117297   5.777   2.677   5.460
 5466SOL    HW217298   5.853   2.605   5.334
 5467SOL     OW17299   5.514   3.667   3.782
 5467SOL    HW117300   5.597   3.691   3.731
 5467SOL    HW217301   5.528   3.687   3.879
 5468SOL     OW17302   0.405   1.480   2.059
 5468SOL    HW117303   0.318   1.526   2.043
 5468SOL    HW217304   0.444   1.512   2.145
 5469SOL     OW17305   2.241   1.226   5.295
 5469SOL    HW117306   2.278   1.292   5.230
 5469SOL    HW217307   2.160   1.182   5.255
 5470SOL     OW17308   3.745   5.453   4.057
 5470SOL    HW117309   3.751   5.433   4.155
 5470SOL    HW217310   3.740   5.367   4.006
 5471SOL     OW17311   4.577   0.283   2.863
 5471SOL    HW117312   4.645   0.210   2.858
 5471SOL    HW217313   4.553   0.312   2.770
 5472SOL     OW17314   2.663   1.419   6.419
 5472SOL    HW117315   2.641   1.387   6.326
 5472SOL    HW217316   2.755   1.456   6.421
 5473SOL     OW17317   2.506   4.118   1.342
 5473SOL    HW117318   2.415   4.090   1.311
 5473SOL    HW217319   2.515   4.102   1.440
 5474SOL     OW17320   0.696   5.230   3.242
 5474SOL    HW117321   0.685   5.270   3.334
 5474SOL    HW217322   0.627   5.269   3.181
 5475SOL     OW17323   7.011   2.086   5.898
 5475SOL    HW117324   0.058   2.160   5.893
 5475SOL    HW217325   7.003   2.055   5.993
 5476SOL     OW17326   2.396   6.495   6.325
 5476SOL    HW117327   2.463   6.549   6.376
 5476SOL    HW217328   2.357   6.425   6.385
 5477SOL     OW17329   2.302   5.652   4.466
 5477SOL    HW117330   2.283   5.557   4.440
 5477SOL    HW217331   2.341   5.654   4.558
 5478SOL     OW17332   5.420   4.570   6.473
 5478SOL    HW117333   5.347   4.529   6.528
 5478SOL    HW217334   5.420   4.529   6.381
 5479SOL     OW17335   3.583   2.107   4.553
 5479SOL    HW117336   3.575   2.108   4.653
 5479SOL    HW217337   3.614   2.196   4.521
 5480SOL     OW17338   6.267   4.334   4.872
 5480SOL    HW117339   6.207   4.330   4.793
 5480SOL    HW217340   6.214   4.353   4.955
 5481SOL     OW17341   4.674   1.094   6.661
 5481SOL    HW117342   4.601   1.044   6.615
 5481SOL    HW217343   4.637   1.145   6.739
 5482SOL     OW17344   4.091   3.193   1.744
 5482SOL    HW117345   4.180   3.147   1.743
 5482SOL    HW217346   4.094   3.270   1.807
 5483SOL     OW17347   6.860   3.665   5.880
 5483SOL    HW117348   6.866   3.674   5.780
 5483SOL    HW217349   6.797   3.733   5.916
 5484SOL     OW17350   6.960   6.226   3.923
 5484SOL    HW117351   6.955   6.321   3.893
 5484SOL    HW217352   0.036   6.200   3.936
 5485SOL     OW17353   4.223   6.841   5.059
 5485SOL    HW117354   4.296   6.781   5.091
 5485SOL    HW217355   4.165   6.791   4.995
 5486SOL     OW17356   1.058   0.645   3.026
 5486SOL    HW117357   1.092   0.584   3.098
 5486SOL    HW217358   0.964   0.671   3.047
 5487SOL     OW17359   6.283   4.512   0.157
 5487SOL    HW117360   6.319   4.439   0.099
 5487SOL    HW217361   6.183   4.515   0.147
 5488SOL     OW17362   5.157   2.343   6.680
 5488SOL    HW117363   5.234   2.289   6.646
 5488SOL    HW217364   5.190   2.409   6.748
 5489SOL     OW17365   1.974   4.858   2.398
 5489SOL    HW117366   1.999   4.772   2.354
 5489SOL    HW217367   1.876   4.857   2.419
 5490SOL     OW17368   3.171   1.012   0.510
 5490SOL    HW117369   3.217   1.100   0.519
 5490SOL    HW217370   3.085   1.024   0.461
 5491SOL     OW17371   1.832   4.730   0.410
 5491SOL    HW117372   1.923   4.730   0.450
 5491SOL    HW217373   1.763   4.735   0.482
 5492SOL     OW17374   1.013   2.276   6.748
 5492SOL    HW117375   1.065   2.225   6.816
 5492SOL    HW217376   1.044   2.371   6.746
 5493SOL     OW17377   3.903   3.155   6.010
 5493SOL    HW117378   3.970   3.101   6.062
 5493SOL    HW217379   3.839   3.198   6.074
 5494SOL     OW17380   6.348   3.762   1.562
 5494SOL    HW117381   6.280   3.824   1.523
 5494SOL    HW217382   6.344   3.768   1.662
 5495SOL     OW17383   4.055   3.855   2.039
 5495SOL    HW117384   4.066   3.767   2.085
 5495SOL    HW217385   4.125   3.919   2.070
 5496SOL     OW17386   3.716   6.140   2.102
 5496SOL    HW117387   3.687   6.151   2.007
 5496SOL    HW217388   3.667   6.206   2.160
 5497SOL     OW17389   0.366   1.403   2.877
 5497SOL    HW117390   0.460   1.383   2.851
 5497SOL    HW217391   0.357   1.400   2.977
 5498SOL     OW17392   4.557   1.590   5.968
 5498SOL    HW117393   4.549   1.500   5.926
 5498SOL    HW217394   4.532   1.584   6.065
 5499SOL     OW17395   6.813   1.576   3.198
 5499SOL    HW117396   6.725   1.545   3.163
 5499SOL    HW217397   6.884   1.558   3.129
 5500SOL     OW17398   2.420   5.288   0.638
 5500SOL    HW117399   2.351   5.242   0.694
 5500SOL    HW217400   2.506   5.237   0.642
 5501SOL     OW17401   2.476   0.303   1.896
 5501SOL    HW117402   2.432   0.231   1.950
 5501SOL    HW217403   2.508   0.375   1.957
 5502SOL     OW17404   6.089   4.129   6.033
 5502SOL    HW117405   6.028   4.061   6.073
 5502SOL    HW217406   6.119   4.099   5.942
 5503SOL     OW17407   1.160   4.860   3.475
 5503SOL    HW117408   1.213   4.941   3.499
 5503SOL    HW217409   1.144   4.805   3.556
 5504SOL     OW17410   3.317   1.585   5.126
 5504SOL    HW117411   3.243   1.533   5.167
 5504SOL    HW217412   3.283   1.675   5.098
 5505SOL     OW17413   2.660   5.633   5.093
 5505SOL    HW117414   2.621   5.709   5.041
 5505SOL    HW217415   2.731   5.589   5.038
 5506SOL     OW17416   6.852   0.740   5.007
 5506SOL    HW117417   6.815   0.648   5.021
 5506SOL    HW217418   6.787   0.795   4.955
 5507SOL     OW17419   2.637   6.762   3.571
 5507SOL    HW117420   2.566   6.713   3.622
 5507SOL    HW217421   2.597   6.805   3.491
 5508SOL     OW17422   2.434   0.687   6.245
 5508SOL    HW117423   2.493   0.715   6.320
 5508SOL    HW217424   2.445   0.751   6.168
 5509SOL     OW17425   5.878   6.376   0.112
 5509SOL    HW117426   5.814   6.304   0.137
 5509SOL    HW217427   5.953   6.378   0.178
 5510SOL     OW17428   4.577   0.116   6.285
 5510SOL    HW117429   4.629   0.158   6.211
 5510SOL    HW217430   4.479   0.126   6.267
 5511SOL     OW17431   0.654   0.717   2.629
 5511SOL    HW117432   0.566   0.766   2.627
 5511SOL    HW217433   0.696   0.720   2.539
 5512SOL     OW17434   0.059   1.527   0.199
 5512SOL    HW117435   7.000   1.588   0.208
 5512SOL    HW217436   0.052   1.476   0.114
 5513SOL     OW17437   4.539   4.431   4.785
 5513SOL    HW117438   4.612   4.397   4.845
 5513SOL    HW217439   4.483   4.497   4.835
 5514SOL     OW17440   5.684   4.838   2.955
 5514SOL    HW117441   5.752   4.802   3.018
 5514SOL    HW217442   5.647   4.924   2.991
 5515SOL     OW17443   6.761   2.518   2.287
 5515SOL    HW117444   6.706   2.577   2.348
 5515SOL    HW217445   6.812   2.452   2.342
 5516SOL     OW17446   1.410   2.671   6.787
 5516SOL    HW117447   1.471   2.592   6.788
 5516SOL    HW217448   1.348   2.663   6.709
 5517SOL     OW17449   3.097   2.150   1.292
 5517SOL    HW117450   3.137   2.059   1.286
 5517SOL    HW217451   3.014   2.147   1.348
 5518SOL     OW17452   5.181   4.821   6.174
 5518SOL    HW117453   5.144   4.843   6.083
 5518SOL    HW217454   5.269   4.868   6.186
 5519SOL     OW17455   5.356   3.687   3.365
 5519SOL    HW117456   5.408   3.610   3.402
 5519SOL    HW217457   5.348   3.758   3.435
 5520SOL     OW17458   1.676   3.664   3.112
 5520SOL    HW117459   1.699   3.651   3.016
 5520SOL    HW217460   1.579   3.690   3.120
 5521SOL     OW17461   5.313   6.445   1.831
 5521SOL    HW117462   5.261   6.528   1.809
 5521SOL    HW217463   5.305   6.427   1.929
 5522SOL     OW17464   2.628   3.284   1.710
 5522SOL    HW117465   2.570   3.320   1.782
 5522SOL    HW217466   2.709   3.343   1.700
 5523SOL     OW17467   3.181   6.794   2.961
 5523SOL    HW117468   3.198   6.761   3.054
 5523SOL    HW217469   3.264   6.838   2.926
 5524SOL     OW17470   0.890   5.660   5.023
 5524SOL    HW117471   0.965   5.685   5.085
 5524SOL    HW217472   0.928   5.638   4.933
 5525SOL     OW17473   6.717   4.988   0.021
 5525SOL    HW117474   6.666   5.025   0.099
 5525SOL    HW217475   6.806   4.955   0.052
 5526SOL     OW17476   6.136   3.489   3.295
 5526SOL    HW117477   6.215   3.479   3.234
 5526SOL    HW217478   6.096   3.579   3.283
 5527SOL     OW17479   0.935   2.700   1.539
 5527SOL    HW117480   0.860   2.684   1.475
 5527SOL    HW217481   0.906   2.674   1.632
 5528SOL     OW17482   6.975   2.623   4.914
 5528SOL    HW117483   0.042   2.616   4.964
 5528SOL    HW217484   6.919   2.542   4.933
 5529SOL     OW17485   2.599   0.687   4.952
 5529SOL    HW117486   2.614   0.613   4.886
 5529SOL    HW217487   2.512   0.732   4.932
 5530SOL     OW17488   0.206   2.576   0.808
 5530SOL    HW117489   0.124   2.558   0.754
 5530SOL    HW217490   0.191   2.547   0.903
 5531SOL     OW17491   3.972   3.123   4.866
 5531SOL    HW117492   4.011   3.172   4.789
 5531SOL    HW217493   4.012   3.031   4.871
 5532SOL     OW17494   1.565   0.713   0.320
 5532SOL    HW117495   1.514   0.644   0.370
 5532SOL    HW217496   1.525   0.725   0.229
 5533SOL     OW17497   3.011   0.816   3.231
 5533SOL    HW117498   2.996   0.728   3.277
 5533SOL    HW217499   2.939   0.830   3.162
 5534SOL     OW17500   1.433   3.180   6.752
 5534SOL    HW117501   1.468   3.246   6.818
 5534SOL    HW217502   1.483   3.094   6.762
 5535SOL     OW17503   6.831   2.974   3.237
 5535SOL    HW117504   6.777   2.932   3.309
 5535SOL    HW217505   6.771   3.017   3.169
 5536SOL     OW17506   2.499   0.531   4.371
 5536SOL    HW117507   2.466   0.528   4.466
 5536SOL    HW217508   2.582   0.587   4.367
 5537SOL     OW17509   3.948   0.087   5.027
 5537SOL    HW117510   3.855   0.097   4.991
 5537SOL    HW217511   3.975   7.011   5.023
 5538SOL     OW17512   4.058   0.728   5.375
 5538SOL    HW117513   3.969   0.684   5.360
 5538SOL    HW217514   4.082   0.723   5.472
 5539SOL     OW17515   1.022   1.408   1.703
 5539SOL    HW117516   0.927   1.380   1.684
 5539SOL    HW217517   1.085   1.343   1.659
 5540SOL     OW17518   5.042   2.691   1.429
 5540SOL    HW117519   5.026   2.745   1.346
 5540SOL    HW217520   5.005   2.739   1.508
 5541SOL     OW17521   5.416   3.580   5.437
 5541SOL    HW117522   5.317   3.580   5.454
 5541SOL    HW217523   5.433   3.572   5.339
 5542SOL     OW17524   5.423   5.083   6.590
 5542SOL    HW117525   5.365   5.004   6.608
 5542SOL    HW217526   5.517   5.063   6.618
 5543SOL     OW17527   2.422   5.763   6.593
 5543SOL    HW117528   2.392   5.671   6.617
 5543SOL    HW217529   2.361   5.801   6.522
 5544SOL     OW17530   5.471   5.390   6.138
 5544SOL    HW117531   5.377   5.417   6.119
 5544SOL    HW217532   5.499   5.319   6.073
 5545SOL     OW17533   3.737   1.393   2.736
 5545SOL    HW117534   3.834   1.370   2.742
 5545SOL    HW217535   3.699   1.401   2.828
 5546SOL     OW17536   0.919   6.555   4.383
 5546SOL    HW117537   0.991   6.541   4.315
 5546SOL    HW217538   0.961   6.579   4.471
 5547SOL     OW17539   4.130   1.768   5.703
 5547SOL    HW117540   4.085   1.841   5.755
 5547SOL    HW217541   4.206   1.731   5.756
 5548SOL     OW17542   6.629   4.284   5.816
 5548SOL    HW117543   6.566   4.300   5.892
 5548SOL    HW217544   6.621   4.359   5.750
 5549SOL     OW17545   4.160   3.114   1.172
 5549SOL    HW117546   4.103   3.185   1.132
 5549SOL    HW217547   4.190   3.142   1.263
 5550SOL     OW17548   2.273   4.196   3.252
 5550SOL    HW117549   2.320   4.271   3.299
 5550SOL    HW217550   2.220   4.234   3.175
 5551SOL     OW17551   1.671   6.001   2.655
 5551SOL    HW117552   1.738   5.928   2.647
 5551SOL    HW217553   1.581   5.962   2.674
 5552SOL     OW17554   6.309   6.978   6.061
 5552SOL    HW117555   6.247   6.907   6.094
 5552SOL    HW217556   6.260   0.020   6.000
 5553SOL     OW17557   4.353   0.216   6.722
 5553SOL    HW117558   4.428   0.254   6.776
 5553SOL    HW217559   4.274   0.200   6.781
 5554SOL     OW17560   4.716   3.145   1.671
 5554SOL    HW117561   4.647   3.213   1.646
 5554SOL    HW217562   4.688   3.099   1.756
 5555SOL     OW17563   0.792   3.770   2.141
 5555SOL    HW117564   0.797   3.734   2.234
 5555SOL    HW217565   0.867   3.835   2.127
 5556SOL     OW17566   6.168   0.921   3.595
 5556SOL    HW117567   6.095   0.895   3.659
 5556SOL    HW217568   6.198   0.840   3.544
 5557SOL     OW17569   3.758   5.793   1.522
 5557SOL    HW117570   3.695   5.865   1.552
 5557SOL    HW217571   3.706   5.720   1.478
 5558SOL     OW17572   3.869   3.651   0.211
 5558SOL    HW117573   3.831   3.559   0.214
 5558SOL    HW217574   3.933   3.662   0.287
 5559SOL     OW17575   1.159   0.309   2.278
 5559SOL    HW117576   1.229   0.352   2.334
 5559SOL    HW217577   1.139   0.367   2.199
 5560SOL     OW17578   0.141   5.794   1.913
 5560SOL    HW117579   0.200   5.715   1.894
 5560SOL    HW217580   0.071   5.769   1.980
 5561SOL     OW17581   2.988   0.417   4.863
 5561SOL    HW117582   2.979   0.438   4.961
 5561SOL    HW217583   3.000   0.502   4.812
 5562SOL     OW17584   4.437   4.277   0.267
 5562SOL    HW117585   4.420   4.247   0.173
 5562SOL    HW217586   4.534   4.301   0.277
 5563SOL     OW17587   3.032   5.379   2.857
 5563SOL    HW117588   2.935   5.374   2.880
 5563SOL    HW217589   3.086   5.383   2.941
 5564SOL     OW17590   4.904   6.892   6.533
 5564SOL    HW117591   4.868   6.965   6.592
 5564SOL    HW217592   4.908   6.807   6.585
 5565SOL     OW17593   4.276   2.761   6.658
 5565SOL    HW117594   4.244   2.678   6.703
 5565SOL    HW217595   4.271   2.838   6.722
 5566SOL     OW17596   2.081   4.424   0.496
 5566SOL    HW117597   2.059   4.327   0.482
 5566SOL    HW217598   2.170   4.444   0.454
 5567SOL     OW17599   0.663   3.914   1.807
 5567SOL    HW117600   0.676   3.930   1.905
 5567SOL    HW217601   0.707   3.828   1.781
 5568SOL     OW17602   4.536   0.647   3.233
 5568SOL    HW117603   4.590   0.639   3.149
 5568SOL    HW217604   4.576   0.719   3.290
 5569SOL     OW17605   2.061   2.043   2.766
 5569SOL    HW117606   2.094   1.986   2.841
 5569SOL    HW217607   2.017   2.125   2.803
 5570SOL     OW17608   6.480   3.178   3.306
 5570SOL    HW117609   6.521   3.125   3.231
 5570SOL    HW217610   6.552   3.223   3.358
 5571SOL     OW17611   6.686   5.343   1.976
 5571SOL    HW117612   6.708   5.374   2.069
 5571SOL    HW217613   6.755   5.376   1.912
 5572SOL     OW17614   1.719   4.166   4.868
 5572SOL    HW117615   1.700   4.069   4.849
 5572SOL    HW217616   1.673   4.193   4.952
 5573SOL     OW17617   1.592   5.762   5.316
 5573SOL    HW117618   1.655   5.827   5.275
 5573SOL    HW217619   1.582   5.683   5.256
 5574SOL     OW17620   0.442   3.116   0.474
 5574SOL    HW117621   0.511   3.150   0.537
 5574SOL    HW217622   0.453   3.017   0.464
 5575SOL     OW17623   6.848   0.276   0.551
 5575SOL    HW117624   6.804   0.284   0.641
 5575SOL    HW217625   6.790   0.222   0.490
 5576SOL     OW17626   1.520   4.322   2.315
 5576SOL    HW117627   1.496   4.276   2.401
 5576SOL    HW217628   1.544   4.254   2.246
 5577SOL     OW17629   2.414   2.936   6.731
 5577SOL    HW117630   2.405   2.868   6.659
 5577SOL    HW217631   2.448   2.892   6.815
 5578SOL     OW17632   3.548   4.106   2.117
 5578SOL    HW117633   3.470   4.144   2.167
 5578SOL    HW217634   3.604   4.180   2.082
 5579SOL     OW17635   0.596   3.466   1.170
 5579SOL    HW117636   0.661   3.501   1.238
 5579SOL    HW217637   0.504   3.496   1.193
 5580SOL     OW17638   4.342   1.937   5.887
 5580SOL    HW117639   4.398   1.881   5.825
 5580SOL    HW217640   4.348   1.899   5.979
 5581SOL     OW17641   1.398   0.915   1.431
 5581SOL    HW117642   1.456   0.921   1.512
 5581SOL    HW217643   1.431   0.843   1.371
 5582SOL     OW17644   2.999   4.062   6.696
 5582SOL    HW117645   3.050   4.138   6.736
 5582SOL    HW217646   3.061   3.986   6.677
 5583SOL     OW17647   4.031   0.984   2.509
 5583SOL    HW117648   4.027   1.070   2.459
 5583SOL    HW217649   4.114   0.935   2.484
 5584SOL     OW17650   6.338   3.764   4.205
 5584SOL    HW117651   6.330   3.809   4.116
 5584SOL    HW217652   6.433   3.768   4.236
 5585SOL     OW17653   5.067   5.270   3.204
 5585SOL    HW117654   5.012   5.188   3.186
 5585SOL    HW217655   5.006   5.345   3.231
 5586SOL     OW17656   0.298   4.039   5.821
 5586SOL    HW117657   0.272   4.068   5.913
 5586SOL    HW217658   0.262   3.947   5.804
 5587SOL     OW17659   4.459   0.158   0.660
 5587SOL    HW117660   4.418   0.242   0.624
 5587SOL    HW217661   4.440   0.152   0.758
 5588SOL     OW17662   2.701   5.844   3.038
 5588SOL    HW117663   2.619   5.901   3.042
 5588SOL    HW217664   2.755   5.859   3.121
 5589SOL     OW17665   6.108   4.062   6.345
 5589SOL    HW117666   6.067   3.998   6.280
 5589SOL    HW217667   6.198   4.028   6.372
 5590SOL     OW17668   6.486   6.442   3.606
 5590SOL    HW117669   6.512   6.477   3.517
 5590SOL    HW217670   6.553   6.374   3.637
 5591SOL     OW17671   6.991   2.432   1.564
 5591SOL    HW117672   0.037   2.413   1.637
 5591SOL    HW217673   6.923   2.497   1.597
 5592SOL     OW17674   2.253   6.250   3.685
 5592SOL    HW117675   2.337   6.217   3.728
 5592SOL    HW217676   2.191   6.285   3.755
 5593SOL     OW17677   0.093   2.951   6.578
 5593SOL    HW117678   0.036   2.905   6.510
 5593SOL    HW217679   0.042   3.026   6.619
 5594SOL     OW17680   5.172   0.601   4.933
 5594SOL    HW117681   5.186   0.696   4.962
 5594SOL    HW217682   5.257   0.564   4.896
 5595SOL     OW17683   0.730   1.584   4.618
 5595SOL    HW117684   0.702   1.556   4.710
 5595SOL    HW217685   0.820   1.626   4.622
 5596SOL     OW17686   4.068   6.428   2.909
 5596SOL    HW117687   3.994   6.373   2.871
 5596SOL    HW217688   4.094   6.392   2.999
 5597SOL     OW17689   4.525   2.552   4.429
 5597SOL    HW117690   4.506   2.642   4.469
 5597SOL    HW217691   4.624   2.534   4.434
 5598SOL     OW17692   5.395   3.506   4.519
 5598SOL    HW117693   5.430   3.420   4.555
 5598SOL    HW217694   5.297   3.496   4.500
 5599SOL     OW17695   1.125   1.559   4.192
 5599SOL    HW117696   1.173   1.471   4.197
 5599SOL    HW217697   1.120   1.590   4.097
 5600SOL     OW17698   1.104   1.241   1.966
 5600SOL    HW117699   1.033   1.302   1.931
 5600SOL    HW217700   1.110   1.250   2.066
 5601SOL     OW17701   2.489   0.798   5.599
 5601SOL    HW117702   2.491   0.804   5.698
 5601SOL    HW217703   2.515   0.886   5.559
 5602SOL     OW17704   6.282   1.738   1.143
 5602SOL    HW117705   6.362   1.687   1.110
 5602SOL    HW217706   6.290   1.833   1.115
 5603SOL     OW17707   5.928   2.137   6.635
 5603SOL    HW117708   5.840   2.096   6.612
 5603SOL    HW217709   5.932   2.229   6.596
 5604SOL     OW17710   6.369   2.368   4.578
 5604SOL    HW117711   6.379   2.351   4.676
 5604SOL    HW217712   6.444   2.427   4.547
 5605SOL     OW17713   0.452   0.643   4.809
 5605SOL    HW117714   0.388   0.689   4.870
 5605SOL    HW217715   0.505   0.576   4.860
 5606SOL     OW17716   4.730   6.654   0.457
 5606SOL    HW117717   4.758   6.692   0.369
 5606SOL    HW217718   4.697   6.560   0.443
 5607SOL     OW17719   5.435   0.088   2.655
 5607SOL    HW117720   5.396   0.179   2.668
 5607SOL    HW217721   5.424   0.034   2.739
 5608SOL     OW17722   4.854   0.266   5.008
 5608SOL    HW117723   4.782   0.265   4.938
 5608SOL    HW217724   4.895   0.357   5.012
 5609SOL     OW17725   2.765   5.129   0.905
 5609SOL    HW117726   2.846   5.115   0.960
 5609SOL    HW217727   2.700   5.187   0.954
 5610SOL     OW17728   4.766   6.678   1.162
 5610SOL    HW117729   4.744   6.649   1.069
 5610SOL    HW217730   4.708   6.755   1.188
 5611SOL     OW17731   0.910   5.568   2.383
 5611SOL    HW117732   0.963   5.550   2.301
 5611SOL    HW217733   0.920   5.491   2.447
 5612SOL     OW17734   3.500   1.529   6.819
 5612SOL    HW117735   3.568   1.524   6.746
 5612SOL    HW217736   3.540   1.576   6.898
 5613SOL     OW17737   5.514   4.059   3.784
 5613SOL    HW117738   5.417   4.033   3.792
 5613SOL    HW217739   5.563   4.028   3.866
 5614SOL     OW17740   4.723   2.824   4.548
 5614SOL    HW117741   4.730   2.867   4.458
 5614SOL    HW217742   4.785   2.869   4.612
 5615SOL     OW17743   0.473   1.199   4.487
 5615SOL    HW117744   0.477   1.292   4.523
 5615SOL    HW217745   0.420   1.142   4.549
 5616SOL     OW17746   2.352   1.780   4.915
 5616SOL    HW117747   2.362   1.815   5.008
 5616SOL    HW217748   2.379   1.684   4.913
 5617SOL     OW17749   2.804   0.177   6.573
 5617SOL    HW117750   2.876   0.238   6.540
 5617SOL    HW217751   2.843   0.113   6.639
 5618SOL     OW17752   6.928   4.164   3.823
 5618SOL    HW117753   7.008   4.215   3.791
 5618SOL    HW217754   6.856   4.168   3.754
 5619SOL     OW17755   2.941   3.757   6.122
 5619SOL    HW117756   3.008   3.697   6.079
 5619SOL    HW217757   2.985   3.843   6.148
 5620SOL     OW17758   3.437   2.960   0.834
 5620SOL    HW117759   3.501   3.036   0.842
 5620SOL    HW217760   3.458   2.891   0.904
 5621SOL     OW17761   1.007   2.729   5.945
 5621SOL    HW117762   0.908   2.732   5.933
 5621SOL    HW217763   1.048   2.812   5.908
 5622SOL     OW17764   4.784   0.309   5.795
 5622SOL    HW117765   4.686   0.310   5.777
 5622SOL    HW217766   4.822   0.220   5.768
 5623SOL     OW17767   1.855   5.918   5.961
 5623SOL    HW117768   1.826   5.883   6.050
 5623SOL    HW217769   1.860   5.842   5.895
 5624SOL     OW17770   1.010   4.761   3.270
 5624SOL    HW117771   1.049   4.781   3.359
 5624SOL    HW217772   1.068   4.799   3.198
 5625SOL     OW17773   6.762   1.275   4.163
 5625SOL    HW117774   6.765   1.269   4.064
 5625SOL    HW217775   6.849   1.246   4.202
 5626SOL     OW17776   2.709   6.273   4.373
 5626SOL    HW117777   2.625   6.248   4.324
 5626SOL    HW217778   2.774   6.315   4.310
 5627SOL     OW17779   1.055   6.003   6.830
 5627SOL    HW117780   0.969   6.045   6.860
 5627SOL    HW217781   1.049   5.904   6.840
 5628SOL     OW17782   1.373   2.547   6.287
 5628SOL    HW117783   1.341   2.461   6.328
 5628SOL    HW217784   1.296   2.594   6.244
 5629SOL     OW17785   2.935   3.799   2.348
 5629SOL    HW117786   2.946   3.714   2.296
 5629SOL    HW217787   2.867   3.856   2.302
 5630SOL     OW17788   2.160   4.944   0.940
 5630SOL    HW117789   2.169   4.923   1.037
 5630SOL    HW217790   2.063   4.957   0.918
 5631SOL     OW17791   4.425   1.905   0.031
 5631SOL    HW117792   4.502   1.853   0.068
 5631SOL    HW217793   4.455   1.957   6.971
 5632SOL     OW17794   3.806   2.774   6.195
 5632SOL    HW117795   3.880   2.787   6.129
 5632SOL    HW217796   3.739   2.710   6.158
 5633SOL     OW17797   6.387   3.186   4.199
 5633SOL    HW117798   6.425   3.213   4.288
 5633SOL    HW217799   6.460   3.185   4.131
 5634SOL     OW17800   2.417   5.991   5.231
 5634SOL    HW117801   2.390   5.907   5.279
 5634SOL    HW217802   2.337   6.029   5.184
 5635SOL     OW17803   2.257   3.695   5.261
 5635SOL    HW117804   2.331   3.760   5.245
 5635SOL    HW217805   2.284   3.631   5.333
 5636SOL     OW17806   3.620   6.725   3.168
 5636SOL    HW117807   3.639   6.803   3.108
 5636SOL    HW217808   3.590   6.759   3.257
 5637SOL     OW17809   5.114   6.647   3.391
 5637SOL    HW117810   5.034   6.707   3.386
 5637SOL    HW217811   5.193   6.693   3.349
 5638SOL     OW17812   5.433   3.965   1.442
 5638SOL    HW117813   5.502   3.893   1.448
 5638SOL    HW217814   5.342   3.924   1.443
 5639SOL     OW17815   0.541   0.387   6.825
 5639SOL    HW117816   0.613   0.317   6.827
 5639SOL    HW217817   0.457   0.349   6.865
 5640SOL     OW17818   2.566   0.842   3.785
 5640SOL    HW117819   2.510   0.768   3.822
 5640SOL    HW217820   2.590   0.906   3.858
 5641SOL     OW17821   0.485   5.081   5.423
 5641SOL    HW117822   0.568   5.103   5.476
 5641SOL    HW217823   0.504   5.003   5.363
 5642SOL     OW17824   1.977   0.106   6.171
 5642SOL    HW117825   2.021   0.065   6.251
 5642SOL    HW217826   2.022   0.193   6.149
 5643SOL     OW17827   4.663   1.156   4.861
 5643SOL    HW117828   4.593   1.221   4.831
 5643SOL    HW217829   4.750   1.178   4.817
 5644SOL     OW17830   3.332   0.201   5.158
 5644SOL    HW117831   3.292   0.169   5.244
 5644SOL    HW217832   3.285   0.157   5.081
 5645SOL     OW17833   6.741   4.192   3.639
 5645SOL    HW117834   6.741   4.116   3.574
 5645SOL    HW217835   6.648   4.205   3.675
 5646SOL     OW17836   1.818   5.517   3.010
 5646SOL    HW117837   1.899   5.483   2.961
 5646SOL    HW217838   1.757   5.563   2.945
 5647SOL     OW17839   4.991   6.442   1.215
 5647SOL    HW117840   4.929   6.465   1.290
 5647SOL    HW217841   5.031   6.526   1.178
 5648SOL     OW17842   1.995   6.106   3.090
 5648SOL    HW117843   1.983   6.027   3.150
 5648SOL    HW217844   1.955   6.187   3.134
 5649SOL     OW17845   1.423   0.004   3.814
 5649SOL    HW117846   1.455   0.011   3.720
 5649SOL    HW217847   1.335   6.975   3.816
 5650SOL     OW17848   1.271   4.452   1.295
 5650SOL    HW117849   1.263   4.360   1.257
 5650SOL    HW217850   1.198   4.510   1.260
 5651SOL     OW17851   1.386   0.748   0.103
 5651SOL    HW117852   1.349   0.841   0.111
 5651SOL    HW217853   1.448   0.744   0.025
 5652SOL     OW17854   6.760   5.844   1.197
 5652SOL    HW117855   6.853   5.877   1.179
 5652SOL    HW217856   6.736   5.863   1.293
 5653SOL     OW17857   0.600   6.007   6.769
 5653SOL    HW117858   0.503   5.985   6.766
 5653SOL    HW217859   0.616   6.094   6.723
 5654SOL     OW17860   1.552   5.280   4.185
 5654SOL    HW117861   1.578   5.186   4.209
 5654SOL    HW217862   1.611   5.314   4.113
 5655SOL     OW17863   0.177   2.606   2.947
 5655SOL    HW117864   0.181   2.537   3.019
 5655SOL    HW217865   0.244   2.585   2.876
 5656SOL     OW17866   6.723   4.365   6.229
 5656SOL    HW117867   6.752   4.460   6.232
 5656SOL    HW217868   6.640   4.357   6.175
 5657SOL     OW17869   4.707   4.429   5.016
 5657SOL    HW117870   4.751   4.491   4.952
 5657SOL    HW217871   4.768   4.351   5.034
 5658SOL     OW17872   3.266   3.100   5.927
 5658SOL    HW117873   3.187   3.113   5.868
 5658SOL    HW217874   3.294   3.189   5.966
 5659SOL     OW17875   3.499   3.697   6.281
 5659SOL    HW117876   3.554   3.773   6.244
 5659SOL    HW217877   3.467   3.640   6.205
 5660SOL     OW17878   4.355   0.015   6.555
 5660SOL    HW117879   4.357   0.078   6.633
 5660SOL    HW217880   4.378   0.064   6.471
 5661SOL     OW17881   1.279   5.464   5.124
 5661SOL    HW117882   1.332   5.387   5.160
 5661SOL    HW217883   1.298   5.474   5.026
 5662SOL     OW17884   2.282   0.046   2.403
 5662SOL    HW117885   2.233   0.126   2.368
 5662SOL    HW217886   2.219   7.010   2.458
 5663SOL     OW17887   1.698   2.199   0.903
 5663SOL    HW117888   1.621   2.258   0.927
 5663SOL    HW217889   1.690   2.170   0.808
 5664SOL     OW17890   6.092   3.796   4.557
 5664SOL    HW117891   6.095   3.746   4.470
 5664SOL    HW217892   6.003   3.782   4.600
 5665SOL     OW17893   1.104   5.659   0.255
 5665SOL    HW117894   1.017   5.684   0.213
 5665SOL    HW217895   1.116   5.711   0.339
 5666SOL     OW17896   5.735   0.707   3.642
 5666SOL    HW117897   5.694   0.752   3.721
 5666SOL    HW217898   5.713   0.609   3.644
 5667SOL     OW17899   2.006   5.483   4.781
 5667SOL    HW117900   1.939   5.555   4.764
 5667SOL    HW217901   1.978   5.430   4.862
 5668SOL     OW17902   6.222   2.854   3.307
 5668SOL    HW117903   6.294   2.813   3.362
 5668SOL    HW217904   6.134   2.815   3.333
 5669SOL     OW17905   6.607   5.101   0.368
 5669SOL    HW117906   6.639   5.177   0.424
 5669SOL    HW217907   6.646   5.016   0.402
 5670SOL     OW17908   1.635   3.379   3.779
 5670SOL    HW117909   1.609   3.358   3.874
 5670SOL    HW217910   1.684   3.301   3.741
 5671SOL     OW17911   6.358   5.318   5.472
 5671SOL    HW117912   6.292   5.341   5.400
 5671SOL    HW217913   6.358   5.219   5.486
 5672SOL     OW17914   4.817   4.206   5.118
 5672SOL    HW117915   4.900   4.169   5.076
 5672SOL    HW217916   4.751   4.133   5.131
 5673SOL     OW17917   0.909   6.444   1.191
 5673SOL    HW117918   0.873   6.533   1.164
 5673SOL    HW217919   0.955   6.453   1.280
 5674SOL     OW17920   2.103   5.060   4.656
 5674SOL    HW117921   2.014   5.013   4.650
 5674SOL    HW217922   2.141   5.047   4.747
 5675SOL     OW17923   3.841   1.859   0.461
 5675SOL    HW117924   3.918   1.851   0.525
 5675SOL    HW217925   3.852   1.791   0.388
 5676SOL     OW17926   2.942   1.775   2.111
 5676SOL    HW117927   2.921   1.686   2.071
 5676SOL    HW217928   3.042   1.787   2.116
 5677SOL     OW17929   0.192   0.637   0.124
 5677SOL    HW117930   0.284   0.641   0.163
 5677SOL    HW217931   0.198   0.629   0.025
 5678SOL     OW17932   3.921   1.325   1.865
 5678SOL    HW117933   3.886   1.275   1.786
 5678SOL    HW217934   3.853   1.393   1.893
 5679SOL     OW17935   5.871   1.979   4.840
 5679SOL    HW117936   5.930   2.060   4.848
 5679SOL    HW217937   5.924   1.902   4.806
 5680SOL     OW17938   1.579   4.940   6.073
 5680SOL    HW117939   1.528   4.859   6.102
 5680SOL    HW217940   1.639   4.969   6.147
 5681SOL     OW17941   0.220   4.015   2.362
 5681SOL    HW117942   0.128   3.976   2.368
 5681SOL    HW217943   0.242   4.060   2.448
 5682SOL     OW17944   2.238   5.647   4.178
 5682SOL    HW117945   2.236   5.695   4.265
 5682SOL    HW217946   2.310   5.578   4.180
 5683SOL     OW17947   4.222   2.553   6.276
 5683SOL    HW117948   4.276   2.610   6.339
 5683SOL    HW217949   4.251   2.458   6.285
 5684SOL     OW17950   2.117   3.562   6.486
 5684SOL    HW117951   2.033   3.608   6.458
 5684SOL    HW217952   2.187   3.629   6.510
 5685SOL     OW17953   1.915   2.345   3.566
 5685SOL    HW117954   1.968   2.299   3.637
 5685SOL    HW217955   1.958   2.330   3.477
 5686SOL     OW17956   3.208   0.811   4.961
 5686SOL    HW117957   3.275   0.821   4.887
 5686SOL    HW217958   3.124   0.859   4.936
 5687SOL     OW17959   0.195   5.959   6.139
 5687SOL    HW117960   0.130   5.937   6.211
 5687SOL    HW217961   0.197   6.058   6.124
 5688SOL     OW17962   2.190   3.029   3.247
 5688SOL    HW117963   2.196   3.024   3.346
 5688SOL    HW217964   2.139   2.950   3.213
 5689SOL     OW17965   2.177   0.238   1.871
 5689SOL    HW117966   2.241   0.162   1.880
 5689SOL    HW217967   2.216   0.308   1.811
 5690SOL     OW17968   1.087   5.083   6.677
 5690SOL    HW117969   1.069   5.004   6.618
 5690SOL    HW217970   1.169   5.065   6.732
 5691SOL     OW17971   3.940   0.704   2.544
 5691SOL    HW117972   3.968   0.704   2.448
 5691SOL    HW217973   3.943   0.797   2.580
 5692SOL     OW17974   4.846   4.684   0.845
 5692SOL    HW117975   4.754   4.669   0.880
 5692SOL    HW217976   4.865   4.782   0.840
 5693SOL     OW17977   4.376   0.214   1.243
 5693SOL    HW117978   4.387   0.309   1.271
 5693SOL    HW217979   4.280   0.188   1.251
 5694SOL     OW17980   0.169   0.188   2.461
 5694SOL    HW117981   0.243   0.161   2.400
 5694SOL    HW217982   0.081   0.172   2.416
 5695SOL     OW17983   0.981   0.865   2.850
 5695SOL    HW117984   1.018   0.809   2.924
 5695SOL    HW217985   0.902   0.916   2.883
 5696SOL     OW17986   1.694   0.457   4.216
 5696SOL    HW117987   1.779   0.436   4.168
 5696SOL    HW217988   1.651   0.372   4.246
 5697SOL     OW17989   6.086   2.306   1.779
 5697SOL    HW117990   6.134   2.338   1.698
 5697SOL    HW217991   6.143   2.241   1.828
 5698SOL     OW17992   1.775   3.749   4.254
 5698SOL    HW117993   1.717   3.710   4.325
 5698SOL    HW217994   1.747   3.715   4.164
 5699SOL     OW17995   1.800   2.475   2.750
 5699SOL    HW117996   1.892   2.514   2.748
 5699SOL    HW217997   1.773   2.450   2.657
 5700SOL     OW17998   6.701   0.464   2.579
 5700SOL    HW117999   6.608   0.433   2.600
 5700SOL    HW218000   6.766   0.421   2.641
 5701SOL     OW18001   6.902   0.852   1.347
 5701SOL    HW118002   6.829   0.904   1.302
 5701SOL    HW218003   6.981   0.911   1.362
 5702SOL     OW18004   1.295   6.553   4.420
 5702SOL    HW118005   1.252   6.540   4.331
 5702SOL    HW218006   1.324   6.649   4.429
 5703SOL     OW18007   0.116   4.319   6.729
 5703SOL    HW118008   0.166   4.303   6.815
 5703SOL    HW218009   0.040   4.381   6.745
 5704SOL     OW18010   4.927   4.068   3.799
 5704SOL    HW118011   4.934   4.097   3.894
 5704SOL    HW218012   4.976   3.982   3.787
 5705SOL     OW18013   6.047   5.621   0.075
 5705SOL    HW118014   6.002   5.583   0.156
 5705SOL    HW218015   6.137   5.579   0.064
 5706SOL     OW18016   4.959   2.879   1.615
 5706SOL    HW118017   4.890   2.920   1.556
 5706SOL    HW218018   4.918   2.862   1.705
 5707SOL     OW18019   5.716   6.923   1.087
 5707SOL    HW118020   5.698   7.007   1.036
 5707SOL    HW218021   5.759   6.946   1.174
 5708SOL     OW18022   5.070   6.105   2.691
 5708SOL    HW118023   5.086   6.065   2.601
 5708SOL    HW218024   5.142   6.076   2.754
 5709SOL     OW18025   6.922   0.885   2.614
 5709SOL    HW118026   6.894   0.836   2.697
 5709SOL    HW218027   6.852   0.873   2.543
 5710SOL     OW18028   2.701   2.243   0.687
 5710SOL    HW118029   2.800   2.235   0.683
 5710SOL    HW218030   2.664   2.173   0.748
 5711SOL     OW18031   5.048   0.855   1.767
 5711SOL    HW118032   5.111   0.777   1.766
 5711SOL    HW218033   5.093   0.935   1.805
 5712SOL     OW18034   6.425   6.855   0.596
 5712SOL    HW118035   6.416   6.948   0.563
 5712SOL    HW218036   6.415   6.854   0.696
 5713SOL     OW18037   3.084   5.012   0.592
 5713SOL    HW118038   3.037   4.957   0.524
 5713SOL    HW218039   3.074   4.971   0.682
 5714SOL     OW18040   6.402   6.654   1.021
 5714SOL    HW118041   6.456   6.666   0.938
 5714SOL    HW218042   6.453   6.688   1.099
 5715SOL     OW18043   0.166   6.835   1.411
 5715SOL    HW118044   0.228   6.808   1.338
 5715SOL    HW218045   0.200   6.799   1.498
 5716SOL     OW18046   0.803   5.358   6.321
 5716SOL    HW118047   0.873   5.352   6.392
 5716SOL    HW218048   0.737   5.430   6.346
 5717SOL     OW18049   2.225   5.364   1.856
 5717SOL    HW118050   2.272   5.434   1.909
 5717SOL    HW218051   2.278   5.343   1.774
 5718SOL     OW18052   0.891   3.244   0.441
 5718SOL    HW118053   0.910   3.291   0.527
 5718SOL    HW218054   0.966   3.259   0.377
 5719SOL     OW18055   3.111   3.691   0.896
 5719SOL    HW118056   3.040   3.649   0.954
 5719SOL    HW218057   3.083   3.686   0.800
 5720SOL     OW18058   1.979   6.587   4.876
 5720SOL    HW118059   2.055   6.562   4.935
 5720SOL    HW218060   1.897   6.536   4.903
 5721SOL     OW18061   5.999   3.999   1.215
 5721SOL    HW118062   5.901   4.016   1.207
 5721SOL    HW218063   6.040   4.068   1.276
 5722SOL     OW18064   0.166   2.007   4.922
 5722SOL    HW118065   0.252   1.993   4.873
 5722SOL    HW218066   0.141   1.923   4.970
 5723SOL     OW18067   3.813   3.504   6.750
 5723SOL    HW118068   3.807   3.590   6.801
 5723SOL    HW218069   3.869   3.517   6.668
 5724SOL     OW18070   6.601   2.485   2.955
 5724SOL    HW118071   6.606   2.385   2.952
 5724SOL    HW218072   6.526   2.512   3.015
 5725SOL     OW18073   6.215   5.269   3.414
 5725SOL    HW118074   6.276   5.342   3.385
 5725SOL    HW218075   6.264   5.182   3.416
 5726SOL     OW18076   5.884   4.912   3.831
 5726SOL    HW118077   5.904   4.831   3.886
 5726SOL    HW218078   5.804   4.959   3.869
 5727SOL     OW18079   0.117   2.367   4.458
 5727SOL    HW118080   0.168   2.432   4.515
 5727SOL    HW218081   0.157   2.276   4.469
 5728SOL     OW18082   4.888   5.910   5.234
 5728SOL    HW118083   4.825   5.852   5.285
 5728SOL    HW218084   4.912   5.989   5.290
 5729SOL     OW18085   1.207   2.641   5.781
 5729SOL    HW118086   1.215   2.543   5.801
 5729SOL    HW218087   1.160   2.687   5.856
 5730SOL     OW18088   6.472   4.377   6.020
 5730SOL    HW118089   6.375   4.357   6.026
 5730SOL    HW218090   6.494   4.455   6.079
 5731SOL     OW18091   6.691   6.779   1.456
 5731SOL    HW118092   6.746   6.859   1.479
 5731SOL    HW218093   6.605   6.781   1.506
 5732SOL     OW18094   1.132   6.844   3.688
 5732SOL    HW118095   1.155   6.820   3.783
 5732SOL    HW218096   1.044   6.893   3.687
 5733SOL     OW18097   4.389   6.339   5.162
 5733SOL    HW118098   4.317   6.328   5.231
 5733SOL    HW218099   4.467   6.281   5.185
 5734SOL     OW18100   1.377   6.812   4.808
 5734SOL    HW118101   1.360   6.908   4.831
 5734SOL    HW218102   1.468   6.786   4.840
 5735SOL     OW18103   2.820   1.287   1.700
 5735SOL    HW118104   2.907   1.306   1.654
 5735SOL    HW218105   2.747   1.283   1.632
 5736SOL     OW18106   0.914   4.563   6.863
 5736SOL    HW118107   0.886   4.512   6.944
 5736SOL    HW218108   0.853   4.641   6.851
 5737SOL     OW18109   5.604   6.171   6.839
 5737SOL    HW118110   5.610   6.249   6.777
 5737SOL    HW218111   5.684   6.112   6.827
 5738SOL     OW18112   1.845   3.552   7.003
 5738SOL    HW118113   1.745   3.556   7.013
 5738SOL    HW218114   1.881   3.480   0.042
 5739SOL     OW18115   1.855   0.814   6.779
 5739SOL    HW118116   1.815   0.737   6.829
 5739SOL    HW218117   1.844   0.898   6.832
 5740SOL     OW18118   4.309   6.035   0.244
 5740SOL    HW118119   4.360   6.036   0.330
 5740SOL    HW218120   4.211   6.042   0.264
 5741SOL     OW18121   6.653   5.843   4.454
 5741SOL    HW118122   6.679   5.822   4.549
 5741SOL    HW218123   6.556   5.824   4.441
 5742SOL     OW18124   5.638   6.518   2.139
 5742SOL    HW118125   5.698   6.572   2.198
 5742SOL    HW218126   5.625   6.565   2.051
 5743SOL     OW18127   2.617   6.955   5.119
 5743SOL    HW118128   2.665   6.873   5.148
 5743SOL    HW218129   2.673   7.005   5.052
 5744SOL     OW18130   5.031   1.233   0.354
 5744SOL    HW118131   5.010   1.311   0.296
 5744SOL    HW218132   4.947   1.202   0.400
 5745SOL     OW18133   1.674   1.714   4.399
 5745SOL    HW118134   1.723   1.773   4.335
 5745SOL    HW218135   1.576   1.717   4.380
 5746SOL     OW18136   5.003   1.420   0.158
 5746SOL    HW118137   5.074   1.355   0.130
 5746SOL    HW218138   5.043   1.511   0.166
 5747SOL     OW18139   0.342   5.061   2.284
 5747SOL    HW118140   0.365   4.987   2.346
 5747SOL    HW218141   0.376   5.148   2.321
 5748SOL     OW18142   2.409   4.830   1.789
 5748SOL    HW118143   2.342   4.770   1.745
 5748SOL    HW218144   2.427   4.798   1.882
 5749SOL     OW18145   1.997   1.565   4.194
 5749SOL    HW118146   1.914   1.616   4.171
 5749SOL    HW218147   2.019   1.502   4.120
 5750SOL     OW18148   6.108   4.854   4.388
 5750SOL    HW118149   6.153   4.878   4.474
 5750SOL    HW218150   6.148   4.908   4.314
 5751SOL     OW18151   2.113   3.085   5.010
 5751SOL    HW118152   2.111   3.182   4.987
 5751SOL    HW218153   2.208   3.053   5.012
 5752SOL     OW18154   6.779   6.966   6.094
 5752SOL    HW118155   6.708   6.925   6.038
 5752SOL    HW218156   6.869   6.932   6.065
 5753SOL     OW18157   3.425   3.101   6.565
 5753SOL    HW118158   3.327   3.123   6.561
 5753SOL    HW218159   3.442   3.017   6.514
 5754SOL     OW18160   5.976   5.284   1.983
 5754SOL    HW118161   6.059   5.303   1.931
 5754SOL    HW218162   5.925   5.211   1.938
 5755SOL     OW18163   3.111   3.693   6.856
 5755SOL    HW118164   3.023   3.669   6.896
 5755SOL    HW218165   3.160   3.610   6.830
 5756SOL     OW18166   6.676   4.894   3.527
 5756SOL    HW118167   6.577   4.880   3.529
 5756SOL    HW218168   6.714   4.853   3.444
 5757SOL     OW18169   6.296   5.765   1.608
 5757SOL    HW118170   6.205   5.739   1.577
 5757SOL    HW218171   6.304   5.747   1.707
 5758SOL     OW18172   2.683   2.395   5.006
 5758SOL    HW118173   2.735   2.322   4.963
 5758SOL    HW218174   2.597   2.359   5.041
 5759SOL     OW18175   5.261   2.158   6.464
 5759SOL    HW118176   5.351   2.197   6.483
 5759SOL    HW218177   5.204   2.227   6.418
 5760SOL     OW18178   1.953   5.773   2.299
 5760SOL    HW118179   1.916   5.705   2.235
 5760SOL    HW218180   2.036   5.813   2.260
 5761SOL     OW18181   5.393   0.185   4.967
 5761SOL    HW118182   5.405   0.088   4.990
 5761SOL    HW218183   5.410   0.199   4.870
 5762SOL     OW18184   5.621   6.841   0.648
 5762SOL    HW118185   5.674   6.767   0.690
 5762SOL    HW218186   5.571   6.891   0.719
 5763SOL     OW18187   1.222   0.340   0.495
 5763SOL    HW118188   1.260   0.428   0.465
 5763SOL    HW218189   1.234   0.272   0.422
 5764SOL     OW18190   5.644   4.577   5.579
 5764SOL    HW118191   5.672   4.495   5.629
 5764SOL    HW218192   5.706   4.652   5.599
 5765SOL     OW18193   6.827   4.131   0.037
 5765SOL    HW118194   6.924   4.109   0.051
 5765SOL    HW218195   6.799   4.102   6.966
 5766SOL     OW18196   3.023   1.480   1.823
 5766SOL    HW118197   3.021   1.382   1.806
 5766SOL    HW218198   2.962   1.502   1.900
 5767SOL     OW18199   0.706   6.376   0.582
 5767SOL    HW118200   0.640   6.395   0.509
 5767SOL    HW218201   0.716   6.277   0.594
 5768SOL     OW18202   6.801   1.048   2.840
 5768SOL    HW118203   6.771   1.078   2.749
 5768SOL    HW218204   6.742   0.974   2.872
 5769SOL     OW18205   2.926   6.522   3.420
 5769SOL    HW118206   2.845   6.580   3.428
 5769SOL    HW218207   2.966   6.533   3.329
 5770SOL     OW18208   6.804   7.003   1.077
 5770SOL    HW118209   6.719   0.019   1.116
 5770SOL    HW218210   6.837   6.927   1.132
 5771SOL     OW18211   1.096   0.739   1.131
 5771SOL    HW118212   1.043   0.655   1.144
 5771SOL    HW218213   1.105   0.787   1.218
 5772SOL     OW18214   5.950   3.366   0.220
 5772SOL    HW118215   5.984   3.351   0.313
 5772SOL    HW218216   5.852   3.349   0.217
 5773SOL     OW18217   5.494   6.422   3.637
 5773SOL    HW118218   5.412   6.428   3.694
 5773SOL    HW218219   5.467   6.419   3.541
 5774SOL     OW18220   2.145   4.537   3.486
 5774SOL    HW118221   2.237   4.499   3.476
 5774SOL    HW218222   2.081   4.485   3.430
 5775SOL     OW18223   6.600   6.832   6.915
 5775SOL    HW118224   6.510   6.792   6.930
 5775SOL    HW218225   6.596   6.896   6.838
 5776SOL     OW18226   5.313   0.747   6.202
 5776SOL    HW118227   5.380   0.728   6.129
 5776SOL    HW218228   5.358   0.739   6.291
 5777SOL     OW18229   6.297   1.130   3.987
 5777SOL    HW118230   6.253   1.212   4.024
 5777SOL    HW218231   6.391   1.125   4.021
 5778SOL     OW18232   1.131   6.559   2.903
 5778SOL    HW118233   1.098   6.653   2.911
 5778SOL    HW218234   1.064   6.497   2.946
 5779SOL     OW18235   3.848   1.107   1.374
 5779SOL    HW118236   3.941   1.083   1.402
 5779SOL    HW218237   3.813   1.037   1.312
 5780SOL     OW18238   6.863   4.314   1.192
 5780SOL    HW118239   6.922   4.237   1.167
 5780SOL    HW218240   6.768   4.291   1.172
 5781SOL     OW18241   1.813   4.556   5.049
 5781SOL    HW118242   1.861   4.477   5.013
 5781SOL    HW218243   1.875   4.635   5.052
 5782SOL     OW18244   1.942   0.772   1.629
 5782SOL    HW118245   1.844   0.766   1.610
 5782SOL    HW218246   1.984   0.837   1.566
 5783SOL     OW18247   1.332   0.203   1.207
 5783SOL    HW118248   1.378   0.275   1.156
 5783SOL    HW218249   1.340   0.117   1.158
 5784SOL     OW18250   0.824   6.091   0.131
 5784SOL    HW118251   0.830   5.997   0.164
 5784SOL    HW218252   0.848   6.094   0.034
 5785SOL     OW18253   1.637   1.116   0.538
 5785SOL    HW118254   1.696   1.045   0.575
 5785SOL    HW218255   1.665   1.138   0.445
 5786SOL     OW18256   1.453   3.016   1.708
 5786SOL    HW118257   1.444   2.983   1.802
 5786SOL    HW218258   1.539   3.067   1.699
 5787SOL     OW18259   6.098   2.416   4.716
 5787SOL    HW118260   6.027   2.404   4.646
 5787SOL    HW218261   6.188   2.399   4.676
 5788SOL     OW18262   3.304   1.120   2.485
 5788SOL    HW118263   3.253   1.037   2.508
 5788SOL    HW218264   3.401   1.098   2.479
 5789SOL     OW18265   4.388   4.202   0.590
 5789SOL    HW118266   4.430   4.137   0.527
 5789SOL    HW218267   4.352   4.280   0.539
 5790SOL     OW18268   5.818   5.385   4.661
 5790SOL    HW118269   5.777   5.294   4.658
 5790SOL    HW218270   5.917   5.377   4.671
 5791SOL     OW18271   3.801   1.050   2.657
 5791SOL    HW118272   3.824   1.141   2.692
 5791SOL    HW218273   3.877   1.015   2.602
 5792SOL     OW18274   4.792   3.959   2.807
 5792SOL    HW118275   4.849   3.923   2.881
 5792SOL    HW218276   4.826   3.925   2.719
 5793SOL     OW18277   5.368   2.049   5.056
 5793SOL    HW118278   5.360   1.951   5.035
 5793SOL    HW218279   5.408   2.097   4.979
 5794SOL     OW18280   3.524   6.577   6.097
 5794SOL    HW118281   3.579   6.496   6.077
 5794SOL    HW218282   3.458   6.557   6.169
 5795SOL     OW18283   1.006   5.102   2.004
 5795SOL    HW118284   0.947   5.117   2.083
 5795SOL    HW218285   1.061   5.020   2.018
 5796SOL     OW18286   4.344   1.537   6.459
 5796SOL    HW118287   4.281   1.614   6.453
 5796SOL    HW218288   4.333   1.491   6.547
 5797SOL     OW18289   5.136   2.601   0.060
 5797SOL    HW118290   5.206   2.543   0.019
 5797SOL    HW218291   5.086   2.548   0.129
 5798SOL     OW18292   1.707   4.155   5.263
 5798SOL    HW118293   1.689   4.064   5.225
 5798SOL    HW218294   1.803   4.160   5.293
 5799SOL     OW18295   1.420   6.106   3.296
 5799SOL    HW118296   1.489   6.164   3.252
 5799SOL    HW218297   1.329   6.140   3.276
 5800SOL     OW18298   0.272   6.857   0.789
 5800SOL    HW118299   0.275   6.769   0.837
 5800SOL    HW218300   0.278   6.931   0.856
 5801SOL     OW18301   2.451   2.571   2.350
 5801SOL    HW118302   2.401   2.655   2.327
 5801SOL    HW218303   2.490   2.531   2.267
 5802SOL     OW18304   0.159   1.762   2.175
 5802SOL    HW118305   0.129   1.676   2.217
 5802SOL    HW218306   0.083   1.827   2.173
 5803SOL     OW18307   1.133   5.245   4.371
 5803SOL    HW118308   1.200   5.319   4.364
 5803SOL    HW218309   1.132   5.192   4.286
 5804SOL     OW18310   5.749   0.036   3.494
 5804SOL    HW118311   5.830   0.090   3.518
 5804SOL    HW218312   5.706   0.002   3.578
 5805SOL     OW18313   2.281   3.074   1.474
 5805SOL    HW118314   2.328   3.143   1.528
 5805SOL    HW218315   2.339   2.993   1.465
 5806SOL     OW18316   0.432   3.161   3.480
 5806SOL    HW118317   0.448   3.234   3.546
 5806SOL    HW218318   0.518   3.139   3.434
 5807SOL     OW18319   1.117   6.650   0.528
 5807SOL    HW118320   1.068   6.589   0.465
 5807SOL    HW218321   1.199   6.605   0.562
 5808SOL     OW18322   5.836   0.839   4.868
 5808SOL    HW118323   5.832   0.863   4.771
 5808SOL    HW218324   5.839   0.923   4.923
 5809SOL     OW18325   0.534   2.627   5.965
 5809SOL    HW118326   0.550   2.569   6.046
 5809SOL    HW218327   0.458   2.589   5.912
 5810SOL     OW18328   3.885   0.068   4.683
 5810SOL    HW118329   3.921   0.151   4.726
 5810SOL    HW218330   3.803   0.091   4.631
 5811SOL     OW18331   2.756   3.708   5.752
 5811SOL    HW118332   2.768   3.786   5.814
 5811SOL    HW218333   2.833   3.646   5.763
 5812SOL     OW18334   5.797   3.363   0.525
 5812SOL    HW118335   5.769   3.411   0.608
 5812SOL    HW218336   5.767   3.268   0.530
 5813SOL     OW18337   4.669   6.783   1.527
 5813SOL    HW118338   4.724   6.730   1.462
 5813SOL    HW218339   4.705   6.876   1.533
 5814SOL     OW18340   5.033   1.861   2.208
 5814SOL    HW118341   5.013   1.938   2.268
 5814SOL    HW218342   5.087   1.793   2.257
 5815SOL     OW18343   6.301   1.135   3.701
 5815SOL    HW118344   6.259   1.054   3.661
 5815SOL    HW218345   6.280   1.137   3.799
 5816SOL     OW18346   6.831   3.933   2.920
 5816SOL    HW118347   6.847   3.906   2.825
 5816SOL    HW218348   6.834   4.032   2.927
 5817SOL     OW18349   5.315   4.761   3.643
 5817SOL    HW118350   5.333   4.666   3.667
 5817SOL    HW218351   5.240   4.765   3.577
 5818SOL     OW18352   2.061   0.214   5.218
 5818SOL    HW118353   2.010   0.292   5.182
 5818SOL    HW218354   2.159   0.229   5.203
 5819SOL     OW18355   4.302   5.019   6.986
 5819SOL    HW118356   4.272   4.949   6.921
 5819SOL    HW218357   4.401   5.033   6.978
 5820SOL     OW18358   5.916   5.014   2.586
 5820SOL    HW118359   5.904   4.948   2.512
 5820SOL    HW218360   5.898   4.969   2.674
 5821SOL     OW18361   6.359   0.723   1.559
 5821SOL    HW118362   6.325   0.771   1.640
 5821SOL    HW218363   6.402   0.789   1.497
 5822SOL     OW18364   1.766   3.121   2.560
 5822SOL    HW118365   1.667   3.122   2.567
 5822SOL    HW218366   1.795   3.171   2.478
 5823SOL     OW18367   1.978   6.482   3.812
 5823SOL    HW118368   1.911   6.556   3.822
 5823SOL    HW218369   2.006   6.450   3.902
 5824SOL     OW18370   0.772   0.024   1.900
 5824SOL    HW118371   0.762   6.958   1.951
 5824SOL    HW218372   0.858   0.068   1.926
 5825SOL     OW18373   6.503   0.108   4.534
 5825SOL    HW118374   6.404   0.114   4.523
 5825SOL    HW218375   6.528   0.134   4.628
 5826SOL     OW18376   0.358   6.974   4.667
 5826SOL    HW118377   0.416   6.981   4.587
 5826SOL    HW218378   0.280   6.915   4.646
 5827SOL     OW18379   1.735   4.559   5.294
 5827SOL    HW118380   1.747   4.571   5.196
 5827SOL    HW218381   1.823   4.541   5.337
 5828SOL     OW18382   4.403   0.026   4.655
 5828SOL    HW118383   4.433   0.110   4.611
 5828SOL    HW218384   4.303   0.020   4.651
 5829SOL     OW18385   2.187   0.923   3.779
 5829SOL    HW118386   2.197   0.874   3.692
 5829SOL    HW218387   2.176   0.857   3.853
 5830SOL     OW18388   3.954   5.726   5.172
 5830SOL    HW118389   3.901   5.661   5.117
 5830SOL    HW218390   3.894   5.772   5.238
 5831SOL     OW18391   1.606   1.438   5.521
 5831SOL    HW118392   1.583   1.513   5.460
 5831SOL    HW218393   1.551   1.358   5.496
 5832SOL     OW18394   3.381   4.896   0.773
 5832SOL    HW118395   3.297   4.923   0.819
 5832SOL    HW218396   3.414   4.972   0.717
 5833SOL     OW18397   4.056   3.653   6.240
 5833SOL    HW118398   4.124   3.672   6.170
 5833SOL    HW218399   4.078   3.568   6.287
 5834SOL     OW18400   5.641   4.099   6.836
 5834SOL    HW118401   5.594   4.027   6.785
 5834SOL    HW218402   5.735   4.106   6.803
 5835SOL     OW18403   5.402   0.645   2.636
 5835SOL    HW118404   5.321   0.650   2.576
 5835SOL    HW218405   5.426   0.737   2.666
 5836SOL     OW18406   4.118   0.309   2.189
 5836SOL    HW118407   4.074   0.252   2.120
 5836SOL    HW218408   4.216   0.314   2.170
 5837SOL     OW18409   3.782   4.439   0.148
 5837SOL    HW118410   3.733   4.489   0.219
 5837SOL    HW218411   3.753   4.471   0.058
 5838SOL     OW18412   2.962   1.713   0.959
 5838SOL    HW118413   2.873   1.758   0.968
 5838SOL    HW218414   3.014   1.756   0.886
 5839SOL     OW18415   1.509   1.706   1.312
 5839SOL    HW118416   1.556   1.678   1.228
 5839SOL    HW218417   1.444   1.779   1.291
 5840SOL     OW18418   1.088   3.469   2.263
 5840SOL    HW118419   1.000   3.510   2.287
 5840SOL    HW218420   1.145   3.462   2.345
 5841SOL     OW18421   5.386   1.866   0.254
 5841SOL    HW118422   5.318   1.810   0.206
 5841SOL    HW218423   5.402   1.828   0.345
 5842SOL     OW18424   2.880   1.773   0.557
 5842SOL    HW118425   2.951   1.707   0.580
 5842SOL    HW218426   2.914   1.866   0.573
 5843SOL     OW18427   1.822   2.991   1.108
 5843SOL    HW118428   1.879   2.935   1.168
 5843SOL    HW218429   1.809   3.082   1.149
 5844SOL     OW18430   0.586   0.812   5.059
 5844SOL    HW118431   0.553   0.870   4.984
 5844SOL    HW218432   0.549   0.720   5.049
 5845SOL     OW18433   0.994   5.781   1.791
 5845SOL    HW118434   0.908   5.800   1.838
 5845SOL    HW218435   1.069   5.783   1.856
 5846SOL     OW18436   6.455   3.804   5.653
 5846SOL    HW118437   6.380   3.769   5.708
 5846SOL    HW218438   6.506   3.873   5.705
 5847SOL     OW18439   2.915   2.937   0.672
 5847SOL    HW118440   2.925   2.984   0.584
 5847SOL    HW218441   3.004   2.900   0.700
 5848SOL     OW18442   2.167   5.803   3.495
 5848SOL    HW118443   2.095   5.860   3.457
 5848SOL    HW218444   2.251   5.857   3.505
 5849SOL     OW18445   2.587   5.832   5.532
 5849SOL    HW118446   2.633   5.785   5.607
 5849SOL    HW218447   2.581   5.771   5.453
 5850SOL     OW18448   0.686   1.838   1.313
 5850SOL    HW118449   0.643   1.757   1.274
 5850SOL    HW218450   0.758   1.871   1.252
 5851SOL     OW18451   5.635   3.060   4.844
 5851SOL    HW118452   5.590   3.116   4.775
 5851SOL    HW218453   5.732   3.052   4.821
 5852SOL     OW18454   5.331   5.197   3.099
 5852SOL    HW118455   5.290   5.136   3.031
 5852SOL    HW218456   5.261   5.258   3.136
 5853SOL     OW18457   3.880   4.705   5.565
 5853SOL    HW118458   3.808   4.762   5.605
 5853SOL    HW218459   3.938   4.761   5.507
 5854SOL     OW18460   2.392   4.978   5.993
 5854SOL    HW118461   2.332   4.912   5.948
 5854SOL    HW218462   2.404   5.058   5.934
 5855SOL     OW18463   2.015   2.591   3.771
 5855SOL    HW118464   2.034   2.683   3.804
 5855SOL    HW218465   2.030   2.525   3.845
 5856SOL     OW18466   1.583   0.476   2.771
 5856SOL    HW118467   1.493   0.448   2.740
 5856SOL    HW218468   1.645   0.397   2.767
 5857SOL     OW18469   0.143   4.462   6.384
 5857SOL    HW118470   0.230   4.496   6.420
 5857SOL    HW218471   0.071   4.477   6.452
 5858SOL     OW18472   1.735   1.489   3.338
 5858SOL    HW118473   1.783   1.577   3.342
 5858SOL    HW218474   1.694   1.469   3.427
 5859SOL     OW18475   6.390   7.002   2.339
 5859SOL    HW118476   6.381   6.972   2.434
 5859SOL    HW218477   6.325   6.953   2.282
 5860SOL     OW18478   0.597   2.851   4.032
 5860SOL    HW118479   0.517   2.816   3.984
 5860SOL    HW218480   0.648   2.776   4.072
 5861SOL     OW18481   5.098   0.963   4.862
 5861SOL    HW118482   5.195   0.987   4.868
 5861SOL    HW218483   5.066   0.931   4.952
 5862SOL     OW18484   0.018   5.202   3.451
 5862SOL    HW118485   6.966   5.204   3.521
 5862SOL    HW218486   7.003   5.241   3.366
 5863SOL     OW18487   3.865   0.311   5.382
 5863SOL    HW118488   3.771   0.312   5.347
 5863SOL    HW218489   3.918   0.243   5.331
 5864SOL     OW18490   3.036   3.759   2.602
 5864SOL    HW118491   2.988   3.777   2.516
 5864SOL    HW218492   3.081   3.670   2.597
 5865SOL     OW18493   5.925   0.896   5.233
 5865SOL    HW118494   5.990   0.970   5.216
 5865SOL    HW218495   5.974   0.809   5.236
 5866SOL     OW18496   4.114   3.239   2.126
 5866SOL    HW118497   4.182   3.221   2.198
 5866SOL    HW218498   4.041   3.170   2.133
 5867SOL     OW18499   2.680   2.548   1.514
 5867SOL    HW118500   2.766   2.525   1.561
 5867SOL    HW218501   2.625   2.465   1.504
 5868SOL     OW18502   0.511   1.583   6.091
 5868SOL    HW118503   0.501   1.577   6.190
 5868SOL    HW218504   0.467   1.666   6.058
 5869SOL     OW18505   1.265   4.725   4.388
 5869SOL    HW118506   1.321   4.806   4.376
 5869SOL    HW218507   1.218   4.704   4.302
 5870SOL     OW18508   4.213   4.810   4.994
 5870SOL    HW118509   4.267   4.816   5.078
 5870SOL    HW218510   4.232   4.722   4.949
 5871SOL     OW18511   3.627   3.456   2.937
 5871SOL    HW118512   3.588   3.383   2.994
 5871SOL    HW218513   3.695   3.506   2.990
 5872SOL     OW18514   3.696   6.560   2.479
 5872SOL    HW118515   3.789   6.555   2.515
 5872SOL    HW218516   3.679   6.481   2.420
 5873SOL     OW18517   3.742   5.224   2.505
 5873SOL    HW118518   3.801   5.305   2.503
 5873SOL    HW218519   3.717   5.200   2.411
 5874SOL     OW18520   2.163   4.321   5.702
 5874SOL    HW118521   2.201   4.397   5.753
 5874SOL    HW218522   2.083   4.285   5.751
 5875SOL     OW18523   3.362   1.260   0.478
 5875SOL    HW118524   3.319   1.342   0.439
 5875SOL    HW218525   3.373   1.273   0.576
 5876SOL     OW18526   3.812   3.384   1.725
 5876SOL    HW118527   3.892   3.444   1.723
 5876SOL    HW218528   3.838   3.296   1.767
 5877SOL     OW18529   5.974   5.132   1.237
 5877SOL    HW118530   5.916   5.092   1.165
 5877SOL    HW218531   5.954   5.229   1.244
 5878SOL     OW18532   2.229   4.723   2.867
 5878SOL    HW118533   2.197   4.723   2.773
 5878SOL    HW218534   2.159   4.683   2.926
 5879SOL     OW18535   0.069   4.099   0.134
 5879SOL    HW118536   7.017   4.139   0.190
 5879SOL    HW218537   0.108   4.020   0.181
 5880SOL     OW18538   2.889   6.358   1.229
 5880SOL    HW118539   2.805   6.397   1.266
 5880SOL    HW218540   2.944   6.320   1.303
 5881SOL     OW18541   0.655   4.337   3.732
 5881SOL    HW118542   0.682   4.433   3.725
 5881SOL    HW218543   0.667   4.306   3.827
 5882SOL     OW18544   5.127   0.257   1.387
 5882SOL    HW118545   5.166   0.346   1.362
 5882SOL    HW218546   5.029   0.259   1.372
 5883SOL     OW18547   6.516   2.766   6.846
 5883SOL    HW118548   6.605   2.724   6.858
 5883SOL    HW218549   6.445   2.701   6.873
 5884SOL     OW18550   0.816   1.229   3.350
 5884SOL    HW118551   0.786   1.216   3.255
 5884SOL    HW218552   0.914   1.250   3.351
 5885SOL     OW18553   6.293   6.427   1.125
 5885SOL    HW118554   6.351   6.486   1.068
 5885SOL    HW218555   6.204   6.416   1.081
 5886SOL     OW18556   0.533   2.604   5.255
 5886SOL    HW118557   0.524   2.596   5.354
 5886SOL    HW218558   0.482   2.530   5.211
 5887SOL     OW18559   3.128   0.894   4.374
 5887SOL    HW118560   3.092   0.984   4.399
 5887SOL    HW218561   3.219   0.905   4.332
 5888SOL     OW18562   1.889   6.319   3.254
 5888SOL    HW118563   1.920   6.344   3.346
 5888SOL    HW218564   1.790   6.326   3.249
 5889SOL     OW18565   2.252   0.320   1.065
 5889SOL    HW118566   2.199   0.367   1.135
 5889SOL    HW218567   2.336   0.371   1.048
 5890SOL     OW18568   2.168   6.351   5.186
 5890SOL    HW118569   2.197   6.371   5.280
 5890SOL    HW218570   2.167   6.252   5.172
 5891SOL     OW18571   3.813   2.967   0.026
 5891SOL    HW118572   3.834   3.060   7.016
 5891SOL    HW218573   3.840   2.903   6.974
 5892SOL     OW18574   0.516   6.392   1.414
 5892SOL    HW118575   0.496   6.305   1.459
 5892SOL    HW218576   0.435   6.421   1.362
 5893SOL     OW18577   1.246   2.185   3.787
 5893SOL    HW118578   1.298   2.159   3.706
 5893SOL    HW218579   1.270   2.123   3.862
 5894SOL     OW18580   1.382   3.921   3.696
 5894SOL    HW118581   1.398   3.917   3.794
 5894SOL    HW218582   1.350   4.012   3.671
 5895SOL     OW18583   5.237   3.097   4.759
 5895SOL    HW118584   5.296   3.025   4.725
 5895SOL    HW218585   5.142   3.067   4.755
 5896SOL     OW18586   3.834   2.258   6.474
 5896SOL    HW118587   3.759   2.324   6.475
 5896SOL    HW218588   3.854   2.229   6.567
 5897SOL     OW18589   3.755   1.158   0.659
 5897SOL    HW118590   3.809   1.074   0.658
 5897SOL    HW218591   3.782   1.214   0.738
 5898SOL     OW18592   1.648   0.187   1.767
 5898SOL    HW118593   1.745   0.186   1.793
 5898SOL    HW218594   1.640   0.196   1.668
 5899SOL     OW18595   5.459   6.932   4.994
 5899SOL    HW118596   5.390   6.887   5.051
 5899SOL    HW218597   5.548   6.926   5.038
 5900SOL     OW18598   5.016   5.109   2.829
 5900SOL    HW118599   5.095   5.060   2.867
 5900SOL    HW218600   4.932   5.061   2.856
 5901SOL     OW18601   2.195   6.704   6.604
 5901SOL    HW118602   2.197   6.722   6.506
 5901SOL    HW218603   2.143   6.620   6.622
 5902SOL     OW18604   6.773   2.800   0.469
 5902SOL    HW118605   6.868   2.824   0.446
 5902SOL    HW218606   6.716   2.882   0.465
 5903SOL     OW18607   6.013   4.521   0.096
 5903SOL    HW118608   6.048   4.499   0.005
 5903SOL    HW218609   5.913   4.520   0.094
 5904SOL     OW18610   0.388   3.504   2.281
 5904SOL    HW118611   0.447   3.445   2.336
 5904SOL    HW218612   0.356   3.581   2.338
 5905SOL     OW18613   6.812   6.063   2.722
 5905SOL    HW118614   6.768   6.046   2.634
 5905SOL    HW218615   6.890   6.124   2.709
 5906SOL     OW18616   5.597   1.077   3.727
 5906SOL    HW118617   5.572   1.030   3.811
 5906SOL    HW218618   5.696   1.089   3.724
 5907SOL     OW18619   0.549   6.332   1.026
 5907SOL    HW118620   0.582   6.411   0.974
 5907SOL    HW218621   0.546   6.356   1.123
 5908SOL     OW18622   0.761   2.395   5.501
 5908SOL    HW118623   0.818   2.476   5.510
 5908SOL    HW218624   0.670   2.414   5.540
 5909SOL     OW18625   1.239   5.978   0.699
 5909SOL    HW118626   1.321   5.993   0.644
 5909SOL    HW218627   1.205   6.065   0.734
 5910SOL     OW18628   1.323   2.232   2.889
 5910SOL    HW118629   1.266   2.166   2.938
 5910SOL    HW218630   1.318   2.215   2.791
 5911SOL     OW18631   6.640   5.661   6.931
 5911SOL    HW118632   6.608   5.591   6.995
 5911SOL    HW218633   6.707   5.621   6.870
 5912SOL     OW18634   6.426   1.527   5.885
 5912SOL    HW118635   6.361   1.572   5.823
 5912SOL    HW218636   6.378   1.460   5.941
 5913SOL     OW18637   5.334   3.371   0.548
 5913SOL    HW118638   5.386   3.320   0.480
 5913SOL    HW218639   5.253   3.318   0.575
 5914SOL     OW18640   0.950   6.719   6.236
 5914SOL    HW118641   1.048   6.733   6.252
 5914SOL    HW218642   0.937   6.631   6.189
 5915SOL     OW18643   3.520   6.908   0.356
 5915SOL    HW118644   3.474   6.837   0.410
 5915SOL    HW218645   3.604   6.935   0.402
 5916SOL     OW18646   1.318   6.689   1.695
 5916SOL    HW118647   1.313   6.738   1.782
 5916SOL    HW218648   1.237   6.711   1.640
 5917SOL     OW18649   3.131   4.367   6.369
 5917SOL    HW118650   3.079   4.433   6.422
 5917SOL    HW218651   3.076   4.285   6.354
 5918SOL     OW18652   2.536   6.118   5.784
 5918SOL    HW118653   2.589   6.036   5.764
 5918SOL    HW218654   2.593   6.183   5.835
 5919SOL     OW18655   3.419   3.434   3.436
 5919SOL    HW118656   3.358   3.458   3.511
 5919SOL    HW218657   3.369   3.381   3.367
 5920SOL     OW18658   5.872   0.774   6.069
 5920SOL    HW118659   5.962   0.731   6.077
 5920SOL    HW218660   5.801   0.707   6.091
 5921SOL     OW18661   3.617   4.795   6.442
 5921SOL    HW118662   3.576   4.882   6.467
 5921SOL    HW218663   3.712   4.810   6.413
 5922SOL     OW18664   6.560   3.929   2.950
 5922SOL    HW118665   6.659   3.918   2.953
 5922SOL    HW218666   6.523   3.930   3.043
 5923SOL     OW18667   6.144   1.091   1.587
 5923SOL    HW118668   6.050   1.077   1.556
 5923SOL    HW218669   6.205   1.089   1.508
 5924SOL     OW18670   5.712   0.052   2.780
 5924SOL    HW118671   5.687   0.012   2.868
 5924SOL    HW218672   5.631   0.060   2.722
 5925SOL     OW18673   4.740   5.359   0.970
 5925SOL    HW118674   4.764   5.327   1.062
 5925SOL    HW218675   4.758   5.286   0.904
 5926SOL     OW18676   4.021   4.978   3.006
 5926SOL    HW118677   3.967   4.973   3.090
 5926SOL    HW218678   3.992   4.907   2.943
 5927SOL     OW18679   1.543   3.732   2.066
 5927SOL    HW118680   1.541   3.633   2.081
 5927SOL    HW218681   1.450   3.766   2.052
 5928SOL     OW18682   4.104   0.645   0.805
 5928SOL    HW118683   4.075   0.667   0.898
 5928SOL    HW218684   4.194   0.601   0.808
 5929SOL     OW18685   6.756   0.486   5.361
 5929SOL    HW118686   6.837   0.448   5.406
 5929SOL    HW218687   6.724   0.566   5.413
 5930SOL     OW18688   1.221   3.225   1.459
 5930SOL    HW118689   1.222   3.236   1.360
 5930SOL    HW218690   1.201   3.313   1.502
 5931SOL     OW18691   5.485   6.288   2.790
 5931SOL    HW118692   5.500   6.310   2.693
 5931SOL    HW218693   5.465   6.372   2.841
 5932SOL     OW18694   3.106   0.248   6.627
 5932SOL    HW118695   3.148   0.334   6.596
 5932SOL    HW218696   3.145   0.172   6.575
 5933SOL     OW18697   6.910   5.525   4.647
 5933SOL    HW118698   6.995   5.566   4.614
 5933SOL    HW218699   6.932   5.447   4.707
 5934SOL     OW18700   3.498   3.833   5.854
 5934SOL    HW118701   3.457   3.743   5.865
 5934SOL    HW218702   3.426   3.900   5.834
 5935SOL     OW18703   0.423   6.245   5.064
 5935SOL    HW118704   0.433   6.248   5.163
 5935SOL    HW218705   0.511   6.263   5.021
 5936SOL     OW18706   3.510   3.220   3.035
 5936SOL    HW118707   3.480   3.128   3.011
 5936SOL    HW218708   3.598   3.216   3.082
 5937SOL     OW18709   0.411   2.650   2.061
 5937SOL    HW118710   0.496   2.664   2.112
 5937SOL    HW218711   0.380   2.737   2.024
 5938SOL     OW18712   5.999   5.269   5.383
 5938SOL    HW118713   6.081   5.311   5.345
 5938SOL    HW218714   5.922   5.332   5.374
 5939SOL     OW18715   3.815   6.813   4.591
 5939SOL    HW118716   3.854   6.862   4.669
 5939SOL    HW218717   3.835   6.863   4.507
 5940SOL     OW18718   4.878   5.529   2.951
 5940SOL    HW118719   4.791   5.494   2.986
 5940SOL    HW218720   4.879   5.628   2.958
 5941SOL     OW18721   6.414   2.211   2.141
 5941SOL    HW118722   6.358   2.134   2.173
 5941SOL    HW218723   6.504   2.207   2.183
 5942SOL     OW18724   6.310   3.179   6.014
 5942SOL    HW118725   6.305   3.101   6.077
 5942SOL    HW218726   6.347   3.148   5.926
 5943SOL     OW18727   4.200   3.403   0.424
 5943SOL    HW118728   4.265   3.332   0.396
 5943SOL    HW218729   4.115   3.392   0.374
 5944SOL     OW18730   0.254   3.005   6.957
 5944SOL    HW118731   0.274   3.031   6.862
 5944SOL    HW218732   0.333   3.023   7.014
 5945SOL     OW18733   0.648   6.135   4.932
 5945SOL    HW118734   0.609   6.175   4.849
 5945SOL    HW218735   0.738   6.097   4.911
 5946SOL     OW18736   3.845   4.383   6.566
 5946SOL    HW118737   3.811   4.292   6.589
 5946SOL    HW218738   3.939   4.393   6.598
 5947SOL     OW18739   3.196   2.986   4.946
 5947SOL    HW118740   3.132   2.911   4.957
 5947SOL    HW218741   3.191   3.046   5.026
 5948SOL     OW18742   4.907   3.910   2.154
 5948SOL    HW118743   4.954   3.965   2.085
 5948SOL    HW218744   4.811   3.898   2.127
 5949SOL     OW18745   5.648   5.395   1.281
 5949SOL    HW118746   5.745   5.403   1.259
 5949SOL    HW218747   5.630   5.304   1.318
 5950SOL     OW18748   5.335   2.220   5.512
 5950SOL    HW118749   5.289   2.132   5.505
 5950SOL    HW218750   5.352   2.256   5.420
 5951SOL     OW18751   0.881   5.228   4.897
 5951SOL    HW118752   0.966   5.272   4.925
 5951SOL    HW218753   0.900   5.164   4.822
 5952SOL     OW18754   4.165   4.975   2.226
 5952SOL    HW118755   4.230   5.043   2.260
 5952SOL    HW218756   4.214   4.895   2.193
 5953SOL     OW18757   6.284   2.666   4.775
 5953SOL    HW118758   6.319   2.688   4.684
 5953SOL    HW218759   6.242   2.576   4.774
 5954SOL     OW18760   0.501   5.569   5.234
 5954SOL    HW118761   0.535   5.657   5.267
 5954SOL    HW218762   0.573   5.500   5.242
 5955SOL     OW18763   5.181   4.822   1.307
 5955SOL    HW118764   5.152   4.756   1.238
 5955SOL    HW218765   5.214   4.905   1.262
 5956SOL     OW18766   5.033   2.810   4.232
 5956SOL    HW118767   5.132   2.799   4.224
 5956SOL    HW218768   5.010   2.844   4.323
 5957SOL     OW18769   1.210   1.021   2.816
 5957SOL    HW118770   1.189   1.106   2.768
 5957SOL    HW218771   1.137   0.955   2.799
 5958SOL     OW18772   3.425   0.040   3.053
 5958SOL    HW118773   3.353   7.020   3.109
 5958SOL    HW218774   3.447   0.132   3.086
 5959SOL     OW18775   4.881   2.356   4.927
 5959SOL    HW118776   4.807   2.416   4.958
 5959SOL    HW218777   4.871   2.338   4.829
 5960SOL     OW18778   3.381   6.564   5.211
 5960SOL    HW118779   3.309   6.619   5.253
 5960SOL    HW218780   3.465   6.618   5.205
 5961SOL     OW18781   3.862   1.831   2.558
 5961SOL    HW118782   3.881   1.921   2.596
 5961SOL    HW218783   3.947   1.779   2.550
 5962SOL     OW18784   5.002   6.388   6.508
 5962SOL    HW118785   4.994   6.362   6.411
 5962SOL    HW218786   4.948   6.325   6.564
 5963SOL     OW18787   3.773   4.636   6.617
 5963SOL    HW118788   3.822   4.555   6.585
 5963SOL    HW218789   3.718   4.674   6.542
 5964SOL     OW18790   2.277   0.267   2.985
 5964SOL    HW118791   2.312   0.345   2.933
 5964SOL    HW218792   2.254   0.192   2.923
 5965SOL     OW18793   1.858   0.181   6.883
 5965SOL    HW118794   1.920   0.257   6.903
 5965SOL    HW218795   1.841   0.128   6.966
 5966SOL     OW18796   1.495   0.155   5.662
 5966SOL    HW118797   1.566   0.148   5.733
 5966SOL    HW218798   1.512   0.087   5.591
 5967SOL     OW18799   2.490   2.175   5.060
 5967SOL    HW118800   2.557   2.140   4.995
 5967SOL    HW218801   2.398   2.155   5.027
 5968SOL     OW18802   5.679   2.616   0.168
 5968SOL    HW118803   5.586   2.616   0.204
 5968SOL    HW218804   5.728   2.696   0.204
 5969SOL     OW18805   5.254   0.664   6.514
 5969SOL    HW118806   5.158   0.675   6.485
 5969SOL    HW218807   5.259   0.669   6.613
 5970SOL     OW18808   0.386   3.827   0.802
 5970SOL    HW118809   0.466   3.831   0.861
 5970SOL    HW218810   0.402   3.762   0.728
 5971SOL     OW18811   5.922   0.237   2.792
 5971SOL    HW118812   5.952   0.222   2.698
 5971SOL    HW218813   5.850   0.173   2.815
 5972SOL     OW18814   4.632   5.629   0.143
 5972SOL    HW118815   4.725   5.634   0.106
 5972SOL    HW218816   4.634   5.585   0.232
 5973SOL     OW18817   1.677   3.608   2.836
 5973SOL    HW118818   1.700   3.692   2.787
 5973SOL    HW218819   1.663   3.534   2.770
 5974SOL     OW18820   4.278   0.775   6.820
 5974SOL    HW118821   4.192   0.741   6.858
 5974SOL    HW218822   4.354   0.748   6.879
 5975SOL     OW18823   5.325   5.113   0.490
 5975SOL    HW118824   5.416   5.089   0.524
 5975SOL    HW218825   5.270   5.148   0.566
 5976SOL     OW18826   3.600   3.406   6.025
 5976SOL    HW118827   3.644   3.331   5.975
 5976SOL    HW218828   3.664   3.443   6.092
 5977SOL     OW18829   0.452   5.453   0.245
 5977SOL    HW118830   0.377   5.513   0.217
 5977SOL    HW218831   0.467   5.462   0.343
 5978SOL     OW18832   3.441   5.327   0.025
 5978SOL    HW118833   3.497   5.246   0.006
 5978SOL    HW218834   3.492   5.409   7.018
 5979SOL     OW18835   6.138   0.753   2.064
 5979SOL    HW118836   6.212   0.712   2.011
 5979SOL    HW218837   6.078   0.805   2.003
 5980SOL     OW18838   3.307   2.825   1.862
 5980SOL    HW118839   3.313   2.884   1.781
 5980SOL    HW218840   3.231   2.762   1.851
 5981SOL     OW18841   4.777   2.651   0.628
 5981SOL    HW118842   4.798   2.600   0.712
 5981SOL    HW218843   4.686   2.690   0.635
 5982SOL     OW18844   5.828   2.260   2.327
 5982SOL    HW118845   5.812   2.358   2.342
 5982SOL    HW218846   5.803   2.236   2.233
 5983SOL     OW18847   0.291   0.470   3.960
 5983SOL    HW118848   0.261   0.479   3.865
 5983SOL    HW218849   0.313   0.560   3.997
 5984SOL     OW18850   5.886   6.154   3.627
 5984SOL    HW118851   5.909   6.251   3.627
 5984SOL    HW218852   5.787   6.143   3.631
 5985SOL     OW18853   6.398   1.813   3.572
 5985SOL    HW118854   6.355   1.900   3.594
 5985SOL    HW218855   6.379   1.789   3.476
 5986SOL     OW18856   4.355   3.859   5.280
 5986SOL    HW118857   4.298   3.937   5.308
 5986SOL    HW218858   4.296   3.782   5.257
 5987SOL     OW18859   6.931   0.929   4.604
 5987SOL    HW118860   6.869   0.851   4.602
 5987SOL    HW218861   6.903   0.996   4.535
 5988SOL     OW18862   2.748   1.550   6.758
 5988SOL    HW118863   2.815   1.482   6.727
 5988SOL    HW218864   2.796   1.635   6.780
 5989SOL     OW18865   1.270   5.770   6.895
 5989SOL    HW118866   1.181   5.744   6.858
 5989SOL    HW218867   1.259   5.845   6.960
 5990SOL     OW18868   4.283   4.300   1.137
 5990SOL    HW118869   4.243   4.391   1.149
 5990SOL    HW218870   4.216   4.240   1.094
 5991SOL     OW18871   4.067   5.903   0.745
 5991SOL    HW118872   4.099   5.942   0.832
 5991SOL    HW218873   3.968   5.916   0.738
 5992SOL     OW18874   2.811   0.510   2.016
 5992SOL    HW118875   2.727   0.464   2.045
 5992SOL    HW218876   2.868   0.529   2.096
 5993SOL     OW18877   6.219   3.580   6.830
 5993SOL    HW118878   6.263   3.619   6.911
 5993SOL    HW218879   6.206   3.482   6.843
 5994SOL     OW18880   0.125   3.429   1.164
 5994SOL    HW118881   0.210   3.472   1.133
 5994SOL    HW218882   0.144   3.370   1.243
 5995SOL     OW18883   4.555   3.028   1.312
 5995SOL    HW118884   4.542   3.126   1.327
 5995SOL    HW218885   4.558   3.009   1.214
 5996SOL     OW18886   2.062   5.815   1.372
 5996SOL    HW118887   1.963   5.818   1.361
 5996SOL    HW218888   2.085   5.766   1.456
 5997SOL     OW18889   6.710   6.831   3.252
 5997SOL    HW118890   6.801   6.845   3.214
 5997SOL    HW218891   6.648   6.799   3.180
 5998SOL     OW18892   5.375   0.989   1.718
 5998SOL    HW118893   5.458   1.033   1.752
 5998SOL    HW218894   5.295   1.028   1.763
 5999SOL     OW18895   3.981   3.301   1.015
 5999SOL    HW118896   4.003   3.396   1.037
 5999SOL    HW218897   4.038   3.271   0.938
 6000SOL     OW18898   0.215   5.653   0.138
 6000SOL    HW118899   0.186   5.697   0.053
 6000SOL    HW218900   0.231   5.723   0.208
 6001SOL     OW18901   5.172   6.202   6.128
 6001SOL    HW118902   5.141   6.206   6.033
 6001SOL    HW218903   5.205   6.110   6.149
 6002SOL     OW18904   6.683   6.974   4.736
 6002SOL    HW118905   6.764   0.011   4.751
 6002SOL    HW218906   6.601   0.002   4.769
 6003SOL     OW18907   6.775   2.609   4.036
 6003SOL    HW118908   6.702   2.601   4.104
 6003SOL    HW218909   6.766   2.697   3.988
 6004SOL     OW18910   5.936   2.486   3.358
 6004SOL    HW118911   6.016   2.447   3.404
 6004SOL    HW218912   5.942   2.467   3.260
 6005SOL     OW18913   5.000   4.063   4.953
 6005SOL    HW118914   5.069   4.125   4.916
 6005SOL    HW218915   4.943   4.030   4.878
 6006SOL     OW18916   3.624   0.307   5.252
 6006SOL    HW118917   3.531   0.270   5.248
 6006SOL    HW218918   3.627   0.394   5.202
 6007SOL     OW18919   0.388   4.082   6.567
 6007SOL    HW118920   0.319   4.030   6.617
 6007SOL    HW218921   0.344   4.158   6.519
 6008SOL     OW18922   1.958   4.054   5.632
 6008SOL    HW118923   1.998   3.971   5.592
 6008SOL    HW218924   1.977   4.132   5.573
 6009SOL     OW18925   4.887   5.806   2.978
 6009SOL    HW118926   4.806   5.836   2.928
 6009SOL    HW218927   4.877   5.830   3.074
 6010SOL     OW18928   0.411   4.397   4.510
 6010SOL    HW118929   0.506   4.367   4.518
 6010SOL    HW218930   0.390   4.415   4.414
 6011SOL     OW18931   4.462   1.955   3.037
 6011SOL    HW118932   4.555   1.920   3.046
 6011SOL    HW218933   4.462   2.053   3.059
 6012SOL     OW18934   5.967   0.329   6.753
 6012SOL    HW118935   5.884   0.301   6.705
 6012SOL    HW218936   6.041   0.340   6.687
 6013SOL     OW18937   5.192   0.689   2.432
 6013SOL    HW118938   5.132   0.610   2.418
 6013SOL    HW218939   5.143   0.772   2.407
 6014SOL     OW18940   3.256   3.232   4.018
 6014SOL    HW118941   3.278   3.329   4.005
 6014SOL    HW218942   3.157   3.220   4.021
 6015SOL     OW18943   6.578   2.505   4.444
 6015SOL    HW118944   6.661   2.460   4.477
 6015SOL    HW218945   6.593   2.539   4.352
 6016SOL     OW18946   4.576   1.674   5.383
 6016SOL    HW118947   4.617   1.728   5.309
 6016SOL    HW218948   4.478   1.666   5.368
 6017SOL     OW18949   6.687   4.158   4.710
 6017SOL    HW118950   6.695   4.227   4.638
 6017SOL    HW218951   6.727   4.194   4.794
 6018SOL     OW18952   3.492   1.513   4.750
 6018SOL    HW118953   3.569   1.449   4.745
 6018SOL    HW218954   3.437   1.492   4.832
 6019SOL     OW18955   1.287   3.612   5.769
 6019SOL    HW118956   1.267   3.627   5.672
 6019SOL    HW218957   1.222   3.547   5.807
 6020SOL     OW18958   1.171   5.109   1.013
 6020SOL    HW118959   1.269   5.117   0.993
 6020SOL    HW218960   1.159   5.071   1.105
 6021SOL     OW18961   4.429   0.551   2.327
 6021SOL    HW118962   4.440   0.460   2.288
 6021SOL    HW218963   4.334   0.563   2.356
 6022SOL     OW18964   6.280   1.638   2.993
 6022SOL    HW118965   6.243   1.621   3.085
 6022SOL    HW218966   6.248   1.567   2.930
 6023SOL     OW18967   5.140   0.313   1.654
 6023SOL    HW118968   5.097   0.283   1.569
 6023SOL    HW218969   5.138   0.239   1.721
 6024SOL     OW18970   0.454   4.833   1.016
 6024SOL    HW118971   0.490   4.853   1.107
 6024SOL    HW218972   0.365   4.788   1.025
 6025SOL     OW18973   2.885   1.260   3.511
 6025SOL    HW118974   2.945   1.333   3.545
 6025SOL    HW218975   2.932   1.172   3.518
 6026SOL     OW18976   6.523   4.497   4.391
 6026SOL    HW118977   6.520   4.444   4.476
 6026SOL    HW218978   6.545   4.436   4.314
 6027SOL     OW18979   5.957   3.495   6.177
 6027SOL    HW118980   6.010   3.415   6.149
 6027SOL    HW218981   6.012   3.551   6.240
 6028SOL     OW18982   5.490   4.705   0.995
 6028SOL    HW118983   5.467   4.652   1.077
 6028SOL    HW218984   5.425   4.684   0.922
 6029SOL     OW18985   2.436   0.089   3.842
 6029SOL    HW118986   2.514   0.028   3.850
 6029SOL    HW218987   2.459   0.179   3.880
 6030SOL     OW18988   4.923   3.534   4.801
 6030SOL    HW118989   5.021   3.546   4.817
 6030SOL    HW218990   4.872   3.563   4.882
 6031SOL     OW18991   1.084   5.921   3.975
 6031SOL    HW118992   1.048   6.013   3.989
 6031SOL    HW218993   1.120   5.885   4.061
 6032SOL     OW18994   3.577   5.911   4.084
 6032SOL    HW118995   3.632   5.890   4.004
 6032SOL    HW218996   3.498   5.967   4.056
 6033SOL     OW18997   2.413   2.555   2.775
 6033SOL    HW118998   2.472   2.475   2.789
 6033SOL    HW218999   2.327   2.525   2.734
 6034SOL     OW19000   0.877   0.076   6.357
 6034SOL    HW119001   0.909   0.001   6.299
 6034SOL    HW219002   0.938   0.086   6.436
 6035SOL     OW19003   0.557   1.164   2.578
 6035SOL    HW119004   0.458   1.167   2.570
 6035SOL    HW219005   0.582   1.124   2.667
 6036SOL     OW19006   5.967   5.029   1.515
 6036SOL    HW119007   5.984   5.076   1.428
 6036SOL    HW219008   5.954   4.931   1.497
 6037SOL     OW19009   3.886   1.302   0.854
 6037SOL    HW119010   3.950   1.226   0.842
 6037SOL    HW219011   3.902   1.346   0.942
 6038SOL     OW19012   0.500   2.448   6.729
 6038SOL    HW119013   0.442   2.453   6.810
 6038SOL    HW219014   0.464   2.377   6.667
 6039SOL     OW19015   4.153   3.629   3.809
 6039SOL    HW119016   4.189   3.631   3.716
 6039SOL    HW219017   4.185   3.547   3.856
 6040SOL     OW19018   1.741   1.524   0.348
 6040SOL    HW119019   1.644   1.513   0.324
 6040SOL    HW219020   1.749   1.579   0.431
 6041SOL     OW19021   3.353   2.786   5.612
 6041SOL    HW119022   3.278   2.820   5.556
 6041SOL    HW219023   3.318   2.748   5.697
 6042SOL     OW19024   3.793   6.312   3.527
 6042SOL    HW119025   3.837   6.380   3.586
 6042SOL    HW219026   3.769   6.232   3.581
 6043SOL     OW19027   1.791   0.788   3.585
 6043SOL    HW119028   1.882   0.829   3.576
 6043SOL    HW219029   1.722   0.860   3.572
 6044SOL     OW19030   2.005   1.849   2.046
 6044SOL    HW119031   2.059   1.898   2.114
 6044SOL    HW219032   2.017   1.751   2.058
 6045SOL     OW19033   5.090   3.445   3.828
 6045SOL    HW119034   5.023   3.409   3.893
 6045SOL    HW219035   5.141   3.369   3.788
 6046SOL     OW19036   3.455   2.631   1.600
 6046SOL    HW119037   3.510   2.660   1.679
 6046SOL    HW219038   3.514   2.587   1.533
 6047SOL     OW19039   5.767   2.374   0.769
 6047SOL    HW119040   5.697   2.364   0.698
 6047SOL    HW219041   5.738   2.325   0.851
 6048SOL     OW19042   5.366   4.864   4.978
 6048SOL    HW119043   5.397   4.894   4.888
 6048SOL    HW219044   5.441   4.821   5.027
 6049SOL     OW19045   5.423   4.417   6.245
 6049SOL    HW119046   5.355   4.349   6.272
 6049SOL    HW219047   5.434   4.416   6.145
 6050SOL     OW19048   3.193   5.530   0.474
 6050SOL    HW119049   3.224   5.467   0.403
 6050SOL    HW219050   3.221   5.496   0.563
 6051SOL     OW19051   0.288   1.363   2.463
 6051SOL    HW119052   0.341   1.448   2.466
 6051SOL    HW219053   0.341   1.292   2.417
 6052SOL     OW19054   5.635   0.246   1.080
 6052SOL    HW119055   5.597   0.338   1.083
 6052SOL    HW219056   5.563   0.179   1.098
 6053SOL     OW19057   4.629   0.846   6.193
 6053SOL    HW119058   4.698   0.916   6.212
 6053SOL    HW219059   4.545   0.867   6.243
 6054SOL     OW19060   4.026   5.300   0.494
 6054SOL    HW119061   3.976   5.220   0.527
 6054SOL    HW219062   4.087   5.333   0.566
 6055SOL     OW19063   3.348   4.954   6.399
 6055SOL    HW119064   3.360   5.001   6.311
 6055SOL    HW219065   3.335   5.022   6.471
 6056SOL     OW19066   6.008   2.754   4.689
 6056SOL    HW119067   6.080   2.701   4.734
 6056SOL    HW219068   6.015   2.742   4.590
 6057SOL     OW19069   5.547   0.188   2.445
 6057SOL    HW119070   5.499   0.157   2.527
 6057SOL    HW219071   5.487   0.246   2.391
 6058SOL     OW19072   6.203   3.695   0.872
 6058SOL    HW119073   6.123   3.738   0.914
 6058SOL    HW219074   6.286   3.735   0.910
 6059SOL     OW19075   5.220   4.009   5.367
 6059SOL    HW119076   5.251   4.073   5.438
 6059SOL    HW219077   5.215   3.917   5.406
 6060SOL     OW19078   3.164   3.052   0.376
 6060SOL    HW119079   3.201   2.987   0.442
 6060SOL    HW219080   3.169   3.013   0.284
 6061SOL     OW19081   4.077   4.619   0.244
 6061SOL    HW119082   4.052   4.650   0.335
 6061SOL    HW219083   4.160   4.667   0.214
 6062SOL     OW19084   2.324   1.727   6.758
 6062SOL    HW119085   2.349   1.654   6.694
 6062SOL    HW219086   2.403   1.749   6.816
 6063SOL     OW19087   3.873   4.413   5.426
 6063SOL    HW119088   3.824   4.327   5.410
 6063SOL    HW219089   3.831   4.462   5.502
 6064SOL     OW19090   0.480   0.377   0.649
 6064SOL    HW119091   0.490   0.353   0.553
 6064SOL    HW219092   0.474   0.293   0.704
 6065SOL     OW19093   1.057   5.392   1.882
 6065SOL    HW119094   1.047   5.468   1.818
 6065SOL    HW219095   1.090   5.426   1.970
 6066SOL     OW19096   5.026   0.969   3.514
 6066SOL    HW119097   4.990   0.994   3.424
 6066SOL    HW219098   5.062   0.876   3.512
 6067SOL     OW19099   5.778   0.254   5.559
 6067SOL    HW119100   5.691   0.220   5.595
 6067SOL    HW219101   5.837   0.177   5.536
 6068SOL     OW19102   4.966   2.198   5.166
 6068SOL    HW119103   4.931   2.257   5.093
 6068SOL    HW219104   5.062   2.218   5.182
 6069SOL     OW19105   6.906   3.067   5.819
 6069SOL    HW119106   6.895   3.008   5.899
 6069SOL    HW219107   6.993   3.116   5.825
 6070SOL     OW19108   3.665   2.244   1.638
 6070SOL    HW119109   3.679   2.303   1.718
 6070SOL    HW219110   3.595   2.176   1.659
 6071SOL     OW19111   0.098   6.274   4.282
 6071SOL    HW119112   0.100   6.340   4.357
 6071SOL    HW219113   0.004   6.245   4.266
 6072SOL     OW19114   0.077   1.965   0.767
 6072SOL    HW119115   0.054   1.904   0.843
 6072SOL    HW219116   0.075   2.060   0.798
 6073SOL     OW19117   4.906   2.883   1.249
 6073SOL    HW119118   4.975   2.941   1.206
 6073SOL    HW219119   4.862   2.934   1.324
 6074SOL     OW19120   1.653   6.812   2.377
 6074SOL    HW119121   1.673   6.883   2.445
 6074SOL    HW219122   1.575   6.757   2.408
 6075SOL     OW19123   4.777   6.890   6.068
 6075SOL    HW119124   4.866   6.921   6.035
 6075SOL    HW219125   4.709   6.962   6.054
 6076SOL     OW19126   2.527   5.247   3.872
 6076SOL    HW119127   2.533   5.164   3.927
 6076SOL    HW219128   2.530   5.327   3.933
 6077SOL     OW19129   5.432   6.504   0.807
 6077SOL    HW119130   5.525   6.524   0.774
 6077SOL    HW219131   5.396   6.583   0.856
 6078SOL     OW19132   4.198   4.463   0.681
 6078SOL    HW119133   4.278   4.435   0.734
 6078SOL    HW219134   4.209   4.435   0.586
 6079SOL     OW19135   4.861   4.319   6.525
 6079SOL    HW119136   4.873   4.417   6.542
 6079SOL    HW219137   4.947   4.271   6.545
 6080SOL     OW19138   0.828   4.999   1.785
 6080SOL    HW119139   0.911   5.022   1.835
 6080SOL    HW219140   0.764   5.075   1.789
 6081SOL     OW19141   0.957   3.378   5.407
 6081SOL    HW119142   0.994   3.446   5.343
 6081SOL    HW219143   1.027   3.355   5.475
 6082SOL     OW19144   3.357   0.176   2.036
 6082SOL    HW119145   3.321   0.254   1.985
 6082SOL    HW219146   3.342   0.092   1.984
 6083SOL     OW19147   5.699   6.845   0.284
 6083SOL    HW119148   5.780   6.789   0.271
 6083SOL    HW219149   5.646   6.849   0.199
 6084SOL     OW19150   0.834   6.199   1.867
 6084SOL    HW119151   0.774   6.153   1.802
 6084SOL    HW219152   0.926   6.160   1.861
 6085SOL     OW19153   6.069   5.993   6.360
 6085SOL    HW119154   5.973   5.976   6.337
 6085SOL    HW219155   6.073   6.055   6.438
 6086SOL     OW19156   3.778   2.748   6.730
 6086SOL    HW119157   3.710   2.818   6.749
 6086SOL    HW219158   3.783   2.732   6.631
 6087SOL     OW19159   5.017   6.195   0.415
 6087SOL    HW119160   4.922   6.201   0.382
 6087SOL    HW219161   5.079   6.223   0.342
 6088SOL     OW19162   5.282   6.508   5.411
 6088SOL    HW119163   5.308   6.426   5.360
 6088SOL    HW219164   5.351   6.527   5.481
 6089SOL     OW19165   6.645   2.198   2.315
 6089SOL    HW119166   6.628   2.239   2.405
 6089SOL    HW219167   6.741   2.211   2.290
 6090SOL     OW19168   2.954   5.151   4.492
 6090SOL    HW119169   2.950   5.072   4.554
 6090SOL    HW219170   3.015   5.130   4.415
 6091SOL     OW19171   2.570   1.374   1.124
 6091SOL    HW119172   2.662   1.403   1.098
 6091SOL    HW219173   2.509   1.453   1.125
 6092SOL     OW19174   4.260   0.539   1.855
 6092SOL    HW119175   4.318   0.467   1.817
 6092SOL    HW219176   4.171   0.500   1.881
 6093SOL     OW19177   2.372   1.665   2.202
 6093SOL    HW119178   2.354   1.670   2.103
 6093SOL    HW219179   2.460   1.709   2.221
 6094SOL     OW19180   1.209   6.777   3.955
 6094SOL    HW119181   1.223   6.679   3.943
 6094SOL    HW219182   1.211   6.800   4.052
 6095SOL     OW19183   4.146   5.245   6.939
 6095SOL    HW119184   4.195   5.332   6.946
 6095SOL    HW219185   4.212   5.170   6.941
 6096SOL     OW19186   5.520   6.326   2.523
 6096SOL    HW119187   5.610   6.321   2.479
 6096SOL    HW219188   5.465   6.246   2.496
 6097SOL     OW19189   1.302   5.782   1.914
 6097SOL    HW119190   1.326   5.794   1.818
 6097SOL    HW219191   1.322   5.688   1.941
 6098SOL     OW19192   6.409   0.524   5.658
 6098SOL    HW119193   6.373   0.509   5.751
 6098SOL    HW219194   6.462   0.609   5.657
 6099SOL     OW19195   4.584   6.338   5.933
 6099SOL    HW119196   4.665   6.394   5.917
 6099SOL    HW219197   4.526   6.339   5.852
 6100SOL     OW19198   0.469   5.820   1.868
 6100SOL    HW119199   0.417   5.903   1.851
 6100SOL    HW219200   0.473   5.765   1.784
 6101SOL     OW19201   6.263   2.452   2.109
 6101SOL    HW119202   6.301   2.363   2.082
 6101SOL    HW219203   6.324   2.496   2.174
 6102SOL     OW19204   4.311   5.698   2.978
 6102SOL    HW119205   4.224   5.653   2.993
 6102SOL    HW219206   4.297   5.782   2.925
 6103SOL     OW19207   6.482   1.574   1.068
 6103SOL    HW119208   6.431   1.549   0.985
 6103SOL    HW219209   6.527   1.492   1.105
 6104SOL     OW19210   6.135   1.084   5.176
 6104SOL    HW119211   6.101   1.128   5.093
 6104SOL    HW219212   6.224   1.123   5.201
 6105SOL     OW19213   2.378   5.328   5.592
 6105SOL    HW119214   2.469   5.363   5.569
 6105SOL    HW219215   2.351   5.259   5.526
 6106SOL     OW19216   0.961   4.546   0.921
 6106SOL    HW119217   0.915   4.635   0.924
 6106SOL    HW219218   0.895   4.474   0.943
 6107SOL     OW19219   4.656   5.347   4.264
 6107SOL    HW119220   4.720   5.417   4.232
 6107SOL    HW219221   4.583   5.334   4.197
 6108SOL     OW19222   1.458   1.759   2.474
 6108SOL    HW119223   1.512   1.763   2.559
 6108SOL    HW219224   1.471   1.843   2.422
 6109SOL     OW19225   5.647   0.614   4.190
 6109SOL    HW119226   5.576   0.680   4.215
 6109SOL    HW219227   5.625   0.575   4.100
 6110SOL     OW19228   1.105   2.735   6.415
 6110SOL    HW119229   1.071   2.665   6.478
 6110SOL    HW219230   1.203   2.750   6.432
 6111SOL     OW19231   1.373   3.183   2.129
 6111SOL    HW119232   1.274   3.198   2.136
 6111SOL    HW219233   1.417   3.265   2.093
 6112SOL     OW19234   3.745   0.510   2.199
 6112SOL    HW119235   3.781   0.458   2.276
 6112SOL    HW219236   3.655   0.548   2.222
 6113SOL     OW19237   2.783   4.024   6.870
 6113SOL    HW119238   2.863   4.029   6.810
 6113SOL    HW219239   2.814   4.015   6.965
 6114SOL     OW19240   4.905   2.464   2.454
 6114SOL    HW119241   4.827   2.507   2.409
 6114SOL    HW219242   4.872   2.412   2.534
 6115SOL     OW19243   0.455   1.668   5.257
 6115SOL    HW119244   0.359   1.679   5.280
 6115SOL    HW219245   0.511   1.689   5.338
 6116SOL     OW19246   3.825   2.328   5.285
 6116SOL    HW119247   3.738   2.278   5.296
 6116SOL    HW219248   3.806   2.425   5.270
 6117SOL     OW19249   1.173   1.236   3.086
 6117SOL    HW119250   1.116   1.295   3.028
 6117SOL    HW219251   1.260   1.219   3.040
 6118SOL     OW19252   5.857   1.430   1.553
 6118SOL    HW119253   5.932   1.449   1.616
 6118SOL    HW219254   5.780   1.390   1.603
 6119SOL     OW19255   0.118   3.228   0.224
 6119SOL    HW119256   0.200   3.244   0.168
 6119SOL    HW219257   0.039   3.218   0.164
 6120SOL     OW19258   1.864   6.810   5.230
 6120SOL    HW119259   1.800   6.732   5.235
 6120SOL    HW219260   1.842   6.875   5.303
 6121SOL     OW19261   0.457   4.047   5.443
 6121SOL    HW119262   0.489   4.139   5.465
 6121SOL    HW219263   0.357   4.045   5.446
 6122SOL     OW19264   5.294   5.963   6.195
 6122SOL    HW119265   5.373   5.928   6.144
 6122SOL    HW219266   5.256   5.890   6.252
 6123SOL     OW19267   5.196   0.851   5.576
 6123SOL    HW119268   5.191   0.881   5.480
 6123SOL    HW219269   5.291   0.831   5.600
 6124SOL     OW19270   1.735   6.947   5.055
 6124SOL    HW119271   1.791   6.887   5.112
 6124SOL    HW219272   1.657   6.980   5.107
 6125SOL     OW19273   2.583   3.779   0.050
 6125SOL    HW119274   2.585   3.873   0.084
 6125SOL    HW219275   2.489   3.754   0.027
 6126SOL     OW19276   0.964   2.203   5.112
 6126SOL    HW119277   0.913   2.121   5.089
 6126SOL    HW219278   0.908   2.262   5.171
 6127SOL     OW19279   3.913   0.748   1.344
 6127SOL    HW119280   3.973   0.733   1.265
 6127SOL    HW219281   3.858   0.830   1.328
 6128SOL     OW19282   5.788   5.402   0.879
 6128SOL    HW119283   5.888   5.396   0.884
 6128SOL    HW219284   5.755   5.467   0.947
 6129SOL     OW19285   1.850   4.851   3.213
 6129SOL    HW119286   1.840   4.753   3.226
 6129SOL    HW219287   1.944   4.872   3.188
 6130SOL     OW19288   5.832   2.286   2.862
 6130SOL    HW119289   5.911   2.231   2.836
 6130SOL    HW219290   5.753   2.259   2.807
 6131SOL     OW19291   0.703   2.155   2.039
 6131SOL    HW119292   0.795   2.182   2.011
 6131SOL    HW219293   0.691   2.172   2.136
 6132SOL     OW19294   3.244   1.845   6.372
 6132SOL    HW119295   3.312   1.904   6.329
 6132SOL    HW219296   3.273   1.749   6.362
 6133SOL     OW19297   1.156   2.143   3.330
 6133SOL    HW119298   1.249   2.117   3.305
 6133SOL    HW219299   1.158   2.227   3.385
 6134SOL     OW19300   4.632   6.889   6.850
 6134SOL    HW119301   4.549   6.850   6.811
 6134SOL    HW219302   4.664   6.964   6.792
 6135SOL     OW19303   5.951   6.701   6.927
 6135SOL    HW119304   6.006   6.763   6.871
 6135SOL    HW219305   5.890   6.755   6.985
 6136SOL     OW19306   1.423   2.557   1.274
 6136SOL    HW119307   1.513   2.516   1.287
 6136SOL    HW219308   1.358   2.487   1.244
 6137SOL     OW19309   0.596   3.831   2.434
 6137SOL    HW119310   0.629   3.925   2.421
 6137SOL    HW219311   0.503   3.824   2.398
 6138SOL     OW19312   3.197   0.488   2.108
 6138SOL    HW119313   3.280   0.533   2.141
 6138SOL    HW219314   3.205   0.471   2.009
 6139SOL     OW19315   0.725   6.711   5.526
 6139SOL    HW119316   0.674   6.690   5.442
 6139SOL    HW219317   0.744   6.626   5.575
 6140SOL     OW19318   0.462   0.912   3.275
 6140SOL    HW119319   0.506   0.912   3.365
 6140SOL    HW219320   0.486   0.996   3.227
 6141SOL     OW19321   0.797   0.166   6.053
 6141SOL    HW119322   0.835   0.245   6.101
 6141SOL    HW219323   0.846   0.083   6.082
 6142SOL     OW19324   0.621   0.304   5.894
 6142SOL    HW119325   0.684   0.273   5.966
 6142SOL    HW219326   0.582   0.224   5.848
 6143SOL     OW19327   0.222   4.046   0.884
 6143SOL    HW119328   0.136   4.059   0.835
 6143SOL    HW219329   0.276   3.975   0.838
 6144SOL     OW19330   4.628   4.465   3.417
 6144SOL    HW119331   4.628   4.376   3.372
 6144SOL    HW219332   4.659   4.535   3.353
 6145SOL     OW19333   5.591   4.761   3.655
 6145SOL    HW119334   5.617   4.696   3.583
 6145SOL    HW219335   5.497   4.793   3.638
 6146SOL     OW19336   3.918   6.905   4.329
 6146SOL    HW119337   3.874   6.924   4.241
 6146SOL    HW219338   3.993   6.968   4.344
 6147SOL     OW19339   2.186   2.648   4.453
 6147SOL    HW119340   2.267   2.691   4.492
 6147SOL    HW219341   2.212   2.563   4.407
 6148SOL     OW19342   3.871   5.053   6.562
 6148SOL    HW119343   3.911   4.995   6.491
 6148SOL    HW219344   3.774   5.031   6.573
 6149SOL     OW19345   2.133   0.307   2.342
 6149SOL    HW119346   2.151   0.351   2.255
 6149SOL    HW219347   2.048   0.254   2.336
 6150SOL     OW19348   6.582   4.020   6.570
 6150SOL    HW119349   6.580   3.920   6.561
 6150SOL    HW219350   6.660   4.056   6.519
 6151SOL     OW19351   5.158   5.238   4.139
 6151SOL    HW119352   5.164   5.290   4.054
 6151SOL    HW219353   5.205   5.150   4.128
 6152SOL     OW19354   1.028   5.572   4.795
 6152SOL    HW119355   0.981   5.498   4.747
 6152SOL    HW219356   1.100   5.534   4.853
 6153SOL     OW19357   4.778   5.132   0.697
 6153SOL    HW119358   4.818   5.222   0.679
 6153SOL    HW219359   4.679   5.135   0.681
 6154SOL     OW19360   5.308   3.500   3.158
 6154SOL    HW119361   5.327   3.575   3.221
 6154SOL    HW219362   5.285   3.538   3.068
 6155SOL     OW19363   2.876   1.112   3.081
 6155SOL    HW119364   2.883   1.212   3.073
 6155SOL    HW219365   2.968   1.074   3.090
 6156SOL     OW19366   5.214   3.734   1.555
 6156SOL    HW119367   5.155   3.807   1.591
 6156SOL    HW219368   5.185   3.710   1.463
 6157SOL     OW19369   0.758   2.096   3.508
 6157SOL    HW119370   0.728   2.054   3.422
 6157SOL    HW219371   0.844   2.054   3.538
 6158SOL     OW19372   3.395   2.164   6.709
 6158SOL    HW119373   3.345   2.211   6.636
 6158SOL    HW219374   3.380   2.065   6.701
 6159SOL     OW19375   5.496   3.823   0.881
 6159SOL    HW119376   5.479   3.747   0.819
 6159SOL    HW219377   5.574   3.802   0.940
 6160SOL     OW19378   6.611   6.963   6.661
 6160SOL    HW119379   6.694   6.966   6.604
 6160SOL    HW219380   6.531   6.962   6.602
 6161SOL     OW19381   5.403   2.037   6.748
 6161SOL    HW119382   5.482   1.983   6.777
 6161SOL    HW219383   5.376   2.009   6.656
 6162SOL     OW19384   5.921   6.664   3.421
 6162SOL    HW119385   5.966   6.612   3.349
 6162SOL    HW219386   5.829   6.690   3.391
 6163SOL     OW19387   5.348   5.575   1.959
 6163SOL    HW119388   5.339   5.571   1.860
 6163SOL    HW219389   5.336   5.670   1.990
 6164SOL     OW19390   3.527   4.168   4.668
 6164SOL    HW119391   3.614   4.143   4.710
 6164SOL    HW219392   3.451   4.133   4.724
 6165SOL     OW19393   4.278   2.301   6.295
 6165SOL    HW119394   4.205   2.271   6.233
 6165SOL    HW219395   4.353   2.234   6.292
 6166SOL     OW19396   6.862   1.910   6.954
 6166SOL    HW119397   6.819   1.981   7.010
 6166SOL    HW219398   6.822   1.912   6.862
 6167SOL     OW19399   1.509   4.435   2.671
 6167SOL    HW119400   1.577   4.508   2.669
 6167SOL    HW219401   1.510   4.391   2.761
 6168SOL     OW19402   6.976   2.262   3.092
 6168SOL    HW119403   0.043   2.310   3.108
 6168SOL    HW219404   6.904   2.304   3.147
 6169SOL     OW19405   0.842   1.052   5.987
 6169SOL    HW119406   0.917   1.118   5.976
 6169SOL    HW219407   0.863   0.991   6.064
 6170SOL     OW19408   3.522   4.132   6.521
 6170SOL    HW119409   3.621   4.141   6.517
 6170SOL    HW219410   3.485   4.133   6.428
 6171SOL     OW19411   1.493   3.384   2.326
 6171SOL    HW119412   1.436   3.460   2.294
 6171SOL    HW219413   1.444   3.298   2.314
 6172SOL     OW19414   0.301   0.706   2.413
 6172SOL    HW119415   0.254   0.781   2.459
 6172SOL    HW219416   0.246   0.673   2.337
 6173SOL     OW19417   0.532   5.203   2.525
 6173SOL    HW119418   0.573   5.292   2.507
 6173SOL    HW219419   0.604   5.135   2.539
 6174SOL     OW19420   5.944   4.951   2.874
 6174SOL    HW119421   5.865   4.895   2.898
 6174SOL    HW219422   6.027   4.907   2.908
 6175SOL     OW19423   5.737   6.644   2.418
 6175SOL    HW119424   5.818   6.625   2.363
 6175SOL    HW219425   5.728   6.743   2.430
 6176SOL     OW19426   6.585   3.740   6.557
 6176SOL    HW119427   6.663   3.690   6.592
 6176SOL    HW219428   6.503   3.683   6.563
 6177SOL     OW19429   5.759   1.598   1.347
 6177SOL    HW119430   5.702   1.668   1.390
 6177SOL    HW219431   5.795   1.536   1.417
 6178SOL     OW19432   4.986   5.370   1.797
 6178SOL    HW119433   4.931   5.300   1.753
 6178SOL    HW219434   4.978   5.456   1.747
 6179SOL     OW19435   0.176   3.582   4.887
 6179SOL    HW119436   0.243   3.566   4.959
 6179SOL    HW219437   0.165   3.680   4.871
 6180SOL     OW19438   3.324   6.856   6.449
 6180SOL    HW119439   3.358   6.801   6.525
 6180SOL    HW219440   3.388   6.850   6.372
 6181SOL     OW19441   4.731   6.592   0.909
 6181SOL    HW119442   4.667   6.600   0.832
 6181SOL    HW219443   4.815   6.548   0.878
 6182SOL     OW19444   4.992   5.373   5.966
 6182SOL    HW119445   4.999   5.393   5.868
 6182SOL    HW219446   4.942   5.288   5.979
 6183SOL     OW19447   1.990   0.440   3.090
 6183SOL    HW119448   1.913   0.483   3.043
 6183SOL    HW219449   2.028   0.368   3.032
 6184SOL     OW19450   1.985   6.925   5.944
 6184SOL    HW119451   1.936   6.998   5.993
 6184SOL    HW219452   2.068   6.902   5.993
 6185SOL     OW19453   1.038   3.636   0.349
 6185SOL    HW119454   1.014   3.713   0.409
 6185SOL    HW219455   0.987   3.643   0.264
 6186SOL     OW19456   5.651   6.965   3.734
 6186SOL    HW119457   5.585   6.976   3.808
 6186SOL    HW219458   5.718   6.894   3.759
 6187SOL     OW19459   5.127   4.533   3.847
 6187SOL    HW119460   5.044   4.565   3.801
 6187SOL    HW219461   5.139   4.435   3.831
 6188SOL     OW19462   2.675   5.680   1.270
 6188SOL    HW119463   2.772   5.660   1.255
 6188SOL    HW219464   2.646   5.639   1.356
 6189SOL     OW19465   4.718   4.715   3.827
 6189SOL    HW119466   4.754   4.805   3.850
 6189SOL    HW219467   4.792   4.655   3.796
 6190SOL     OW19468   5.699   3.514   6.096
 6190SOL    HW119469   5.687   3.592   6.035
 6190SOL    HW219470   5.794   3.509   6.127
 6191SOL     OW19471   5.279   2.750   1.053
 6191SOL    HW119472   5.355   2.686   1.039
 6191SOL    HW219473   5.281   2.785   1.147
 6192SOL     OW19474   3.755   3.801   0.460
 6192SOL    HW119475   3.716   3.864   0.392
 6192SOL    HW219476   3.682   3.745   0.498
 6193SOL     OW19477   3.646   0.565   2.490
 6193SOL    HW119478   3.743   0.587   2.482
 6193SOL    HW219479   3.636   0.467   2.506
 6194SOL     OW19480   2.187   6.888   0.330
 6194SOL    HW119481   2.217   6.873   0.236
 6194SOL    HW219482   2.176   6.987   0.346
 6195SOL     OW19483   3.719   5.842   5.906
 6195SOL    HW119484   3.638   5.791   5.879
 6195SOL    HW219485   3.788   5.778   5.942
 6196SOL     OW19486   6.825   2.509   0.524
 6196SOL    HW119487   6.911   2.476   0.565
 6196SOL    HW219488   6.828   2.609   0.518
 6197SOL     OW19489   4.581   3.542   0.402
 6197SOL    HW119490   4.678   3.565   0.408
 6197SOL    HW219491   4.549   3.511   0.492
 6198SOL     OW19492   3.502   5.802   3.094
 6198SOL    HW119493   3.532   5.794   2.999
 6198SOL    HW219494   3.575   5.845   3.148
 6199SOL     OW19495   0.126   0.070   1.251
 6199SOL    HW119496   0.198   0.016   1.208
 6199SOL    HW219497   0.038   0.045   1.212
 6200SOL     OW19498   2.608   1.320   6.167
 6200SOL    HW119499   2.630   1.225   6.189
 6200SOL    HW219500   2.509   1.334   6.169
 6201SOL     OW19501   1.966   4.724   5.430
 6201SOL    HW119502   1.949   4.745   5.526
 6201SOL    HW219503   2.047   4.666   5.422
 6202SOL     OW19504   3.484   1.709   1.442
 6202SOL    HW119505   3.412   1.678   1.504
 6202SOL    HW219506   3.507   1.804   1.463
 6203SOL     OW19507   5.134   0.294   3.743
 6203SOL    HW119508   5.087   0.307   3.831
 6203SOL    HW219509   5.164   0.199   3.735
 6204SOL     OW19510   0.460   5.098   5.037
 6204SOL    HW119511   0.483   5.012   4.991
 6204SOL    HW219512   0.393   5.080   5.109
 6205SOL     OW19513   5.627   6.205   0.093
 6205SOL    HW119514   5.580   6.132   0.142
 6205SOL    HW219515   5.602   6.202   7.016
 6206SOL     OW19516   6.631   0.524   2.313
 6206SOL    HW119517   6.549   0.481   2.276
 6206SOL    HW219518   6.629   0.521   2.412
 6207SOL     OW19519   1.494   3.617   4.943
 6207SOL    HW119520   1.592   3.603   4.958
 6207SOL    HW219521   1.443   3.582   5.021
 6208SOL     OW19522   6.129   6.779   6.082
 6208SOL    HW119523   6.175   6.691   6.094
 6208SOL    HW219524   6.079   6.778   5.995
 6209SOL     OW19525   4.133   5.847   6.976
 6209SOL    HW119526   4.081   5.932   6.966
 6209SOL    HW219527   4.112   5.785   6.901
 6210SOL     OW19528   5.282   4.865   3.351
 6210SOL    HW119529   5.240   4.909   3.271
 6210SOL    HW219530   5.381   4.857   3.337
 6211SOL     OW19531   3.056   6.631   5.573
 6211SOL    HW119532   3.011   6.542   5.562
 6211SOL    HW219533   3.009   6.699   5.517
 6212SOL     OW19534   0.859   5.316   2.569
 6212SOL    HW119535   0.812   5.230   2.548
 6212SOL    HW219536   0.821   5.355   2.653
 6213SOL     OW19537   5.435   0.111   6.536
 6213SOL    HW119538   5.460   0.122   6.632
 6213SOL    HW219539   5.342   0.073   6.530
 6214SOL     OW19540   6.447   5.057   3.326
 6214SOL    HW119541   6.390   4.981   3.357
 6214SOL    HW219542   6.446   5.062   3.226
 6215SOL     OW19543   3.266   1.667   6.879
 6215SOL    HW119544   3.344   1.610   6.854
 6215SOL    HW219545   3.197   1.662   6.806
 6216SOL     OW19546   6.211   2.001   1.674
 6216SOL    HW119547   6.248   2.072   1.734
 6216SOL    HW219548   6.275   1.925   1.669
 6217SOL     OW19549   5.687   2.784   2.117
 6217SOL    HW119550   5.746   2.714   2.079
 6217SOL    HW219551   5.736   2.834   2.189
 6218SOL     OW19552   3.453   4.913   4.167
 6218SOL    HW119553   3.482   4.885   4.259
 6218SOL    HW219554   3.356   4.938   4.170
 6219SOL     OW19555   0.444   1.458   4.637
 6219SOL    HW119556   0.517   1.526   4.631
 6219SOL    HW219557   0.432   1.430   4.732
 6220SOL     OW19558   1.749   4.414   5.677
 6220SOL    HW119559   1.813   4.467   5.621
 6220SOL    HW219560   1.693   4.356   5.618
 6221SOL     OW19561   5.425   5.183   5.943
 6221SOL    HW119562   5.332   5.178   5.905
 6221SOL    HW219563   5.468   5.093   5.935
 6222SOL     OW19564   0.948   6.549   1.468
 6222SOL    HW119565   0.948   6.530   1.567
 6222SOL    HW219566   0.863   6.595   1.444
 6223SOL     OW19567   6.748   3.219   4.630
 6223SOL    HW119568   6.736   3.196   4.533
 6223SOL    HW219569   6.704   3.148   4.686
 6224SOL     OW19570   1.590   1.906   6.021
 6224SOL    HW119571   1.594   1.856   5.935
 6224SOL    HW219572   1.678   1.898   6.068
 6225SOL     OW19573   3.016   3.144   1.352
 6225SOL    HW119574   2.953   3.071   1.377
 6225SOL    HW219575   3.099   3.105   1.312
 6226SOL     OW19576   5.523   1.696   3.971
 6226SOL    HW119577   5.522   1.646   3.885
 6226SOL    HW219578   5.454   1.656   4.033
 6227SOL     OW19579   3.397   4.625   6.393
 6227SOL    HW119580   3.393   4.542   6.449
 6227SOL    HW219581   3.466   4.687   6.431
 6228SOL     OW19582   0.345   2.184   2.482
 6228SOL    HW119583   0.360   2.097   2.528
 6228SOL    HW219584   0.413   2.196   2.410
 6229SOL     OW19585   1.230   2.514   2.992
 6229SOL    HW119586   1.293   2.591   2.985
 6229SOL    HW219587   1.281   2.428   2.995
 6230SOL     OW19588   1.340   1.567   4.580
 6230SOL    HW119589   1.344   1.609   4.489
 6230SOL    HW219590   1.254   1.518   4.591
 6231SOL     OW19591   6.858   5.074   1.665
 6231SOL    HW119592   6.902   5.163   1.680
 6231SOL    HW219593   6.810   5.076   1.577
 6232SOL     OW19594   6.591   1.703   0.195
 6232SOL    HW119595   6.578   1.605   0.178
 6232SOL    HW219596   6.520   1.736   0.257
 6233SOL     OW19597   5.655   1.455   6.972
 6233SOL    HW119598   5.743   1.441   6.926
 6233SOL    HW219599   5.666   1.440   0.050
 6234SOL     OW19600   0.321   1.380   5.430
 6234SOL    HW119601   0.374   1.460   5.401
 6234SOL    HW219602   0.297   1.389   5.527
 6235SOL     OW19603   1.148   0.213   2.607
 6235SOL    HW119604   1.077   0.247   2.669
 6235SOL    HW219605   1.111   0.206   2.515
 6236SOL     OW19606   0.912   5.361   0.540
 6236SOL    HW119607   0.942   5.456   0.554
 6236SOL    HW219608   0.961   5.301   0.604
 6237SOL     OW19609   3.960   6.302   0.445
 6237SOL    HW119610   3.896   6.369   0.409
 6237SOL    HW219611   3.937   6.211   0.409
 6238SOL     OW19612   4.216   4.799   3.041
 6238SOL    HW119613   4.314   4.819   3.049
 6238SOL    HW219614   4.166   4.883   3.023
 6239SOL     OW19615   2.750   6.835   1.375
 6239SOL    HW119616   2.689   6.782   1.434
 6239SOL    HW219617   2.745   6.801   1.281
 6240SOL     OW19618   2.404   2.453   0.328
 6240SOL    HW119619   2.413   2.361   0.291
 6240SOL    HW219620   2.335   2.454   0.399
 6241SOL     OW19621   2.722   1.193   2.623
 6241SOL    HW119622   2.689   1.208   2.530
 6241SOL    HW219623   2.745   1.280   2.665
 6242SOL     OW19624   5.272   1.113   3.413
 6242SOL    HW119625   5.212   1.038   3.442
 6242SOL    HW219626   5.368   1.087   3.428
 6243SOL     OW19627   5.977   6.957   2.761
 6243SOL    HW119628   6.043   7.019   2.718
 6243SOL    HW219629   5.893   7.006   2.782
 6244SOL     OW19630   1.681   2.545   1.530
 6244SOL    HW119631   1.646   2.520   1.440
 6244SOL    HW219632   1.646   2.636   1.555
 6245SOL     OW19633   2.992   4.445   1.588
 6245SOL    HW119634   2.980   4.361   1.535
 6245SOL    HW219635   2.947   4.436   1.677
 6246SOL     OW19636   2.672   2.705   6.475
 6246SOL    HW119637   2.713   2.624   6.432
 6246SOL    HW219638   2.742   2.775   6.488
 6247SOL     OW19639   0.566   6.375   3.321
 6247SOL    HW119640   0.494   6.308   3.341
 6247SOL    HW219641   0.626   6.383   3.400
 6248SOL     OW19642   1.870   3.680   1.652
 6248SOL    HW119643   1.818   3.745   1.597
 6248SOL    HW219644   1.856   3.700   1.749
 6249SOL     OW19645   0.930   4.636   0.480
 6249SOL    HW119646   1.008   4.697   0.493
 6249SOL    HW219647   0.960   4.541   0.488
 6250SOL     OW19648   6.513   5.957   0.505
 6250SOL    HW119649   6.558   6.046   0.495
 6250SOL    HW219650   6.568   5.898   0.564
 6251SOL     OW19651   3.652   6.981   0.785
 6251SOL    HW119652   3.606   0.045   0.757
 6251SOL    HW219653   3.707   6.998   0.867
 6252SOL     OW19654   2.050   6.530   4.510
 6252SOL    HW119655   2.012   6.477   4.434
 6252SOL    HW219656   2.111   6.601   4.474
 6253SOL     OW19657   2.228   4.016   2.519
 6253SOL    HW119658   2.226   3.925   2.477
 6253SOL    HW219659   2.224   4.086   2.447
 6254SOL     OW19660   5.395   0.923   0.169
 6254SOL    HW119661   5.480   0.972   0.186
 6254SOL    HW219662   5.321   0.966   0.221
 6255SOL     OW19663   1.748   0.973   1.370
 6255SOL    HW119664   1.680   1.045   1.367
 6255SOL    HW219665   1.718   0.896   1.313
 6256SOL     OW19666   4.042   5.253   2.991
 6256SOL    HW119667   4.005   5.161   3.002
 6256SOL    HW219668   4.136   5.256   3.025
 6257SOL     OW19669   5.795   2.249   1.022
 6257SOL    HW119670   5.868   2.298   1.069
 6257SOL    HW219671   5.815   2.151   1.023
 6258SOL     OW19672   4.569   0.350   3.682
 6258SOL    HW119673   4.629   0.357   3.762
 6258SOL    HW219674   4.625   0.334   3.600
 6259SOL     OW19675   2.834   1.454   1.043
 6259SOL    HW119676   2.864   1.544   1.012
 6259SOL    HW219677   2.909   1.406   1.088
 6260SOL     OW19678   3.488   3.958   0.122
 6260SOL    HW119679   3.585   3.934   0.114
 6260SOL    HW219680   3.475   4.054   0.095
 6261SOL     OW19681   2.851   6.623   6.615
 6261SOL    HW119682   2.910   6.544   6.599
 6261SOL    HW219683   2.893   6.705   6.577
 6262SOL     OW19684   2.075   4.174   0.730
 6262SOL    HW119685   2.175   4.178   0.736
 6262SOL    HW219686   2.047   4.165   0.635
 6263SOL     OW19687   0.414   0.122   5.764
 6263SOL    HW119688   0.350   0.127   5.687
 6263SOL    HW219689   0.407   0.033   5.808
 6264SOL     OW19690   1.616   6.605   0.925
 6264SOL    HW119691   1.621   6.678   0.993
 6264SOL    HW219692   1.576   6.524   0.967
 6265SOL     OW19693   3.275   4.046   1.210
 6265SOL    HW119694   3.207   4.042   1.137
 6265SOL    HW219695   3.288   3.954   1.249
 6266SOL     OW19696   4.309   1.027   4.670
 6266SOL    HW119697   4.404   0.998   4.686
 6266SOL    HW219698   4.252   0.997   4.746
 6267SOL     OW19699   3.147   0.389   0.064
 6267SOL    HW119700   3.242   0.420   0.058
 6267SOL    HW219701   3.097   0.446   0.129
 6268SOL     OW19702   2.728   6.112   2.855
 6268SOL    HW119703   2.641   6.076   2.888
 6268SOL    HW219704   2.794   6.112   2.930
 6269SOL     OW19705   6.947   5.844   2.490
 6269SOL    HW119706   0.001   5.826   2.555
 6269SOL    HW219707   6.940   5.942   2.474
 6270SOL     OW19708   2.002   0.104   5.474
 6270SOL    HW119709   2.091   0.057   5.471
 6270SOL    HW219710   1.980   0.138   5.382
 6271SOL     OW19711   6.463   2.398   5.767
 6271SOL    HW119712   6.524   2.384   5.845
 6271SOL    HW219713   6.408   2.316   5.752
 6272SOL     OW19714   0.692   3.093   4.960
 6272SOL    HW119715   0.634   3.152   5.018
 6272SOL    HW219716   0.640   3.063   4.881
 6273SOL     OW19717   1.051   1.096   2.323
 6273SOL    HW119718   0.982   1.045   2.271
 6273SOL    HW219719   1.042   1.193   2.302
 6274SOL     OW19720   2.208   6.016   5.909
 6274SOL    HW119721   2.248   5.938   5.861
 6274SOL    HW219722   2.155   6.071   5.845
 6275SOL     OW19723   2.988   6.587   5.043
 6275SOL    HW119724   2.926   6.563   4.969
 6275SOL    HW219725   2.986   6.515   5.113
 6276SOL     OW19726   1.486   4.714   3.634
 6276SOL    HW119727   1.531   4.802   3.627
 6276SOL    HW219728   1.430   4.711   3.717
 6277SOL     OW19729   5.187   2.845   2.367
 6277SOL    HW119730   5.161   2.785   2.443
 6277SOL    HW219731   5.138   2.818   2.285
 6278SOL     OW19732   4.517   0.738   4.852
 6278SOL    HW119733   4.584   0.664   4.864
 6278SOL    HW219734   4.557   0.824   4.884
 6279SOL     OW19735   3.793   0.963   6.475
 6279SOL    HW119736   3.786   0.899   6.552
 6279SOL    HW219737   3.887   0.963   6.441
 6280SOL     OW19738   0.419   2.921   5.363
 6280SOL    HW119739   0.396   2.953   5.455
 6280SOL    HW219740   0.345   2.863   5.328
 6281SOL     OW19741   2.733   6.381   5.246
 6281SOL    HW119742   2.686   6.294   5.231
 6281SOL    HW219743   2.830   6.364   5.263
 6282SOL     OW19744   1.718   0.162   4.843
 6282SOL    HW119745   1.709   0.146   4.941
 6282SOL    HW219746   1.752   0.080   4.798
 6283SOL     OW19747   6.385   2.754   4.527
 6283SOL    HW119748   6.293   2.754   4.487
 6283SOL    HW219749   6.447   2.705   4.466
 6284SOL     OW19750   2.398   5.575   4.726
 6284SOL    HW119751   2.434   5.667   4.741
 6284SOL    HW219752   2.373   5.534   4.814
 6285SOL     OW19753   1.450   2.985   3.928
 6285SOL    HW119754   1.507   2.967   3.848
 6285SOL    HW219755   1.498   2.952   4.010
 6286SOL     OW19756   6.358   1.984   3.929
 6286SOL    HW119757   6.314   2.004   3.841
 6286SOL    HW219758   6.441   2.039   3.939
 6287SOL     OW19759   4.317   4.622   2.356
 6287SOL    HW119760   4.218   4.633   2.344
 6287SOL    HW219761   4.358   4.592   2.269
 6288SOL     OW19762   5.698   4.129   2.090
 6288SOL    HW119763   5.754   4.211   2.086
 6288SOL    HW219764   5.667   4.115   2.184
 6289SOL     OW19765   1.566   3.454   2.610
 6289SOL    HW119766   1.542   3.425   2.517
 6289SOL    HW219767   1.486   3.495   2.654
 6290SOL     OW19768   5.562   3.794   4.099
 6290SOL    HW119769   5.660   3.797   4.116
 6290SOL    HW219770   5.515   3.765   4.182
 6291SOL     OW19771   3.869   2.960   3.668
 6291SOL    HW119772   3.890   2.915   3.581
 6291SOL    HW219773   3.772   2.947   3.689
 6292SOL     OW19774   0.431   2.746   3.279
 6292SOL    HW119775   0.382   2.792   3.205
 6292SOL    HW219776   0.525   2.726   3.251
 6293SOL     OW19777   4.170   6.765   7.015
 6293SOL    HW119778   4.102   6.727   0.057
 6293SOL    HW219779   4.233   6.823   0.047
 6294SOL     OW19780   3.735   4.906   3.747
 6294SOL    HW119781   3.720   4.869   3.838
 6294SOL    HW219782   3.827   4.881   3.715
 6295SOL     OW19783   5.062   5.331   5.671
 6295SOL    HW119784   4.998   5.299   5.601
 6295SOL    HW219785   5.134   5.385   5.628
 6296SOL     OW19786   6.586   6.399   4.420
 6296SOL    HW119787   6.493   6.365   4.406
 6296SOL    HW219788   6.603   6.412   4.517
 6297SOL     OW19789   4.737   0.050   5.216
 6297SOL    HW119790   4.727   0.119   5.144
 6297SOL    HW219791   4.830   0.015   5.214
 6298SOL     OW19792   1.639   3.151   6.252
 6298SOL    HW119793   1.677   3.170   6.343
 6298SOL    HW219794   1.584   3.067   6.256
 6299SOL     OW19795   5.817   2.378   0.145
 6299SOL    HW119796   5.755   2.454   0.164
 6299SOL    HW219797   5.908   2.400   0.178
 6300SOL     OW19798   5.373   1.020   4.842
 6300SOL    HW119799   5.369   1.068   4.755
 6300SOL    HW219800   5.359   1.086   4.917
 6301SOL     OW19801   2.744   0.187   1.060
 6301SOL    HW119802   2.654   0.178   1.018
 6301SOL    HW219803   2.753   0.278   1.101
 6302SOL     OW19804   1.223   1.931   4.316
 6302SOL    HW119805   1.251   1.922   4.411
 6302SOL    HW219806   1.290   1.986   4.266
 6303SOL     OW19807   2.829   1.113   4.667
 6303SOL    HW119808   2.748   1.079   4.713
 6303SOL    HW219809   2.811   1.204   4.628
 6304SOL     OW19810   2.250   1.242   1.044
 6304SOL    HW119811   2.221   1.174   1.111
 6304SOL    HW219812   2.230   1.208   0.952
 6305SOL     OW19813   6.386   6.912   0.861
 6305SOL    HW119814   6.391   6.866   0.949
 6305SOL    HW219815   6.347   7.003   0.874
 6306SOL     OW19816   0.131   3.926   4.573
 6306SOL    HW119817   0.141   3.884   4.663
 6306SOL    HW219818   0.221   3.947   4.535
 6307SOL     OW19819   4.027   3.987   6.035
 6307SOL    HW119820   3.999   4.043   6.112
 6307SOL    HW219821   4.127   3.981   6.033
 6308SOL     OW19822   1.424   1.793   4.744
 6308SOL    HW119823   1.516   1.753   4.750
 6308SOL    HW219824   1.358   1.720   4.726
 6309SOL     OW19825   4.921   3.757   4.479
 6309SOL    HW119826   4.945   3.753   4.576
 6309SOL    HW219827   4.849   3.825   4.465
 6310SOL     OW19828   1.939   4.813   4.402
 6310SOL    HW119829   1.920   4.828   4.499
 6310SOL    HW219830   1.884   4.737   4.368
 6311SOL     OW19831   5.786   0.930   5.635
 6311SOL    HW119832   5.829   0.845   5.605
 6311SOL    HW219833   5.810   0.948   5.730
 6312SOL     OW19834   5.195   5.100   5.795
 6312SOL    HW119835   5.207   5.052   5.709
 6312SOL    HW219836   5.146   5.186   5.779
 6313SOL     OW19837   1.703   5.809   3.090
 6313SOL    HW119838   1.680   5.769   3.001
 6313SOL    HW219839   1.643   5.887   3.107
 6314SOL     OW19840   3.662   6.813   2.016
 6314SOL    HW119841   3.683   6.851   1.925
 6314SOL    HW219842   3.673   6.885   2.085
 6315SOL     OW19843   3.977   2.730   6.930
 6315SOL    HW119844   3.900   2.700   6.873
 6315SOL    HW219845   4.063   2.700   6.888
 6316SOL     OW19846   4.793   2.534   6.197
 6316SOL    HW119847   4.774   2.497   6.288
 6316SOL    HW219848   4.843   2.466   6.143
 6317SOL     OW19849   5.366   5.789   3.636
 6317SOL    HW119850   5.306   5.811   3.713
 6317SOL    HW219851   5.428   5.715   3.664
 6318SOL     OW19852   2.935   2.066   5.003
 6318SOL    HW119853   3.009   2.133   4.995
 6318SOL    HW219854   2.973   1.974   5.000
 6319SOL     OW19855   0.107   2.792   3.513
 6319SOL    HW119856   0.155   2.714   3.473
 6319SOL    HW219857   0.091   2.861   3.442
 6320SOL     OW19858   5.782   4.475   4.209
 6320SOL    HW119859   5.827   4.387   4.192
 6320SOL    HW219860   5.830   4.522   4.283
 6321SOL     OW19861   3.545   5.296   1.406
 6321SOL    HW119862   3.459   5.245   1.407
 6321SOL    HW219863   3.575   5.307   1.312
 6322SOL     OW19864   1.504   2.132   6.388
 6322SOL    HW119865   1.492   2.034   6.404
 6322SOL    HW219866   1.548   2.147   6.300
 6323SOL     OW19867   3.320   2.553   1.247
 6323SOL    HW119868   3.332   2.488   1.321
 6323SOL    HW219869   3.397   2.616   1.244
 6324SOL     OW19870   4.613   0.562   6.147
 6324SOL    HW119871   4.661   0.648   6.165
 6324SOL    HW219872   4.578   0.563   6.054
 6325SOL     OW19873   1.392   1.793   1.573
 6325SOL    HW119874   1.472   1.789   1.513
 6325SOL    HW219875   1.373   1.702   1.609
 6326SOL     OW19876   5.431   6.196   1.258
 6326SOL    HW119877   5.367   6.256   1.209
 6326SOL    HW219878   5.516   6.189   1.206
 6327SOL     OW19879   6.995   0.318   5.042
 6327SOL    HW119880   0.015   0.236   5.083
 6327SOL    HW219881   0.045   0.388   5.032
 6328SOL     OW19882   1.915   3.716   0.365
 6328SOL    HW119883   1.959   3.759   0.286
 6328SOL    HW219884   1.829   3.674   0.336
 6329SOL     OW19885   1.461   2.413   3.411
 6329SOL    HW119886   1.526   2.483   3.384
 6329SOL    HW219887   1.368   2.449   3.403
 6330SOL     OW19888   4.669   1.018   1.203
 6330SOL    HW119889   4.652   1.019   1.301
 6330SOL    HW219890   4.610   0.949   1.160
 6331SOL     OW19891   6.127   2.819   0.772
 6331SOL    HW119892   6.132   2.768   0.857
 6331SOL    HW219893   6.219   2.847   0.744
 6332SOL     OW19894   6.670   4.348   2.279
 6332SOL    HW119895   6.642   4.309   2.191
 6332SOL    HW219896   6.730   4.426   2.264
 6333SOL     OW19897   3.696   4.897   4.055
 6333SOL    HW119898   3.604   4.914   4.090
 6333SOL    HW219899   3.756   4.872   4.131
 6334SOL     OW19900   1.790   0.257   2.561
 6334SOL    HW119901   1.829   0.253   2.652
 6334SOL    HW219902   1.806   0.348   2.521
 6335SOL     OW19903   5.711   1.400   0.853
 6335SOL    HW119904   5.620   1.440   0.842
 6335SOL    HW219905   5.718   1.318   0.796
 6336SOL     OW19906   6.970   2.254   5.677
 6336SOL    HW119907   6.922   2.181   5.725
 6336SOL    HW219908   0.048   2.250   5.699
 6337SOL     OW19909   4.835   3.493   6.375
 6337SOL    HW119910   4.850   3.482   6.276
 6337SOL    HW219911   4.799   3.585   6.393
 6338SOL     OW19912   2.837   2.279   2.360
 6338SOL    HW119913   2.913   2.228   2.401
 6338SOL    HW219914   2.861   2.305   2.267
 6339SOL     OW19915   0.547   2.641   3.799
 6339SOL    HW119916   0.557   2.588   3.714
 6339SOL    HW219917   0.628   2.697   3.812
 6340SOL     OW19918   2.754   5.573   3.241
 6340SOL    HW119919   2.710   5.657   3.210
 6340SOL    HW219920   2.697   5.494   3.216
 6341SOL     OW19921   0.261   4.826   3.463
 6341SOL    HW119922   0.332   4.888   3.428
 6341SOL    HW219923   0.209   4.872   3.534
 6342SOL     OW19924   2.585   1.548   1.886
 6342SOL    HW119925   2.633   1.614   1.827
 6342SOL    HW219926   2.489   1.573   1.892
 6343SOL     OW19927   4.735   2.447   6.953
 6343SOL    HW119928   4.698   2.410   6.867
 6343SOL    HW219929   4.661   2.463   7.018
 6344SOL     OW19930   6.260   3.460   5.893
 6344SOL    HW119931   6.253   3.427   5.799
 6344SOL    HW219932   6.327   3.405   5.943
 6345SOL     OW19933   4.284   0.947   1.868
 6345SOL    HW119934   4.293   0.882   1.793
 6345SOL    HW219935   4.309   1.039   1.837
 6346SOL     OW19936   6.504   3.887   3.303
 6346SOL    HW119937   6.406   3.901   3.291
 6346SOL    HW219938   6.533   3.806   3.253
 6347SOL     OW19939   2.378   0.724   1.916
 6347SOL    HW119940   2.370   0.787   1.993
 6347SOL    HW219941   2.432   0.766   1.843
 6348SOL     OW19942   1.050   3.647   5.306
 6348SOL    HW119943   0.987   3.599   5.245
 6348SOL    HW219944   1.030   3.745   5.303
 6349SOL     OW19945   2.557   0.655   1.469
 6349SOL    HW119946   2.530   0.560   1.452
 6349SOL    HW219947   2.601   0.692   1.387
 6350SOL     OW19948   2.219   4.711   3.707
 6350SOL    HW119949   2.228   4.721   3.806
 6350SOL    HW219950   2.138   4.656   3.686
 6351SOL     OW19951   6.433   2.570   2.267
 6351SOL    HW119952   6.528   2.547   2.250
 6351SOL    HW219953   6.414   2.567   2.365
 6352SOL     OW19954   1.826   5.333   4.360
 6352SOL    HW119955   1.862   5.291   4.277
 6352SOL    HW219956   1.901   5.348   4.425
 6353SOL     OW19957   6.401   0.770   6.402
 6353SOL    HW119958   6.420   0.799   6.496
 6353SOL    HW219959   6.437   0.678   6.387
 6354SOL     OW19960   1.154   6.927   2.560
 6354SOL    HW119961   1.054   6.926   2.550
 6354SOL    HW219962   1.179   6.878   2.644
 6355SOL     OW19963   0.824   4.980   5.116
 6355SOL    HW119964   0.909   4.973   5.062
 6355SOL    HW219965   0.827   5.063   5.172
 6356SOL     OW19966   4.842   5.015   1.885
 6356SOL    HW119967   4.816   5.007   1.981
 6356SOL    HW219968   4.942   5.015   1.877
 6357SOL     OW19969   4.943   2.494   1.598
 6357SOL    HW119970   4.849   2.524   1.619
 6357SOL    HW219971   4.986   2.561   1.538
 6358SOL     OW19972   0.644   2.245   4.983
 6358SOL    HW119973   0.668   2.200   4.896
 6358SOL    HW219974   0.728   2.267   5.032
 6359SOL     OW19975   6.128   0.191   5.927
 6359SOL    HW119976   6.049   0.161   5.874
 6359SOL    HW219977   6.104   0.191   6.024
 6360SOL     OW19978   2.201   4.269   4.241
 6360SOL    HW119979   2.107   4.304   4.237
 6360SOL    HW219980   2.205   4.195   4.308
 6361SOL     OW19981   5.593   6.895   6.887
 6361SOL    HW119982   5.594   6.829   6.962
 6361SOL    HW219983   5.580   6.847   6.800
 6362SOL     OW19984   5.916   5.296   6.861
 6362SOL    HW119985   5.820   5.322   6.863
 6362SOL    HW219986   5.966   5.355   6.797
 6363SOL     OW19987   2.374   5.080   3.358
 6363SOL    HW119988   2.425   4.994   3.351
 6363SOL    HW219989   2.317   5.078   3.440
 6364SOL     OW19990   2.945   1.188   5.822
 6364SOL    HW119991   3.021   1.124   5.822
 6364SOL    HW219992   2.963   1.262   5.756
 6365SOL     OW19993   4.884   6.737   4.216
 6365SOL    HW119994   4.886   6.784   4.304
 6365SOL    HW219995   4.923   6.645   4.226
 6366SOL     OW19996   0.469   6.154   5.794
 6366SOL    HW119997   0.497   6.232   5.849
 6366SOL    HW219998   0.391   6.108   5.837
 6367SOL     OW19999   4.188   0.512   3.965
 6367SOL    HW120000   4.138   0.598   3.964
 6367SOL    HW220001   4.125   0.436   3.954
 6368SOL     OW20002   3.162   6.762   3.796
 6368SOL    HW120003   3.222   6.841   3.783
 6368SOL    HW220004   3.189   6.690   3.731
 6369SOL     OW20005   2.886   4.970   4.689
 6369SOL    HW120006   2.909   4.928   4.777
 6369SOL    HW220007   2.803   4.929   4.653
 6370SOL     OW20008   1.500   2.990   3.173
 6370SOL    HW120009   1.584   2.950   3.212
 6370SOL    HW220010   1.520   3.082   3.140
 6371SOL     OW20011   4.844   3.195   3.878
 6371SOL    HW120012   4.827   3.290   3.902
 6371SOL    HW220013   4.843   3.140   3.962
 6372SOL     OW20014   2.910   0.072   1.840
 6372SOL    HW120015   2.921   0.145   1.908
 6372SOL    HW220016   2.893   0.112   1.750
 6373SOL     OW20017   6.041   4.561   4.066
 6373SOL    HW120018   5.945   4.581   4.083
 6373SOL    HW220019   6.096   4.643   4.079
 6374SOL     OW20020   3.160   3.924   4.007
 6374SOL    HW120021   3.143   3.937   4.105
 6374SOL    HW220022   3.232   3.987   3.977
 6375SOL     OW20023   0.770   1.426   3.880
 6375SOL    HW120024   0.718   1.403   3.798
 6375SOL    HW220025   0.767   1.348   3.943
 6376SOL     OW20026   6.169   1.859   5.393
 6376SOL    HW120027   6.072   1.857   5.368
 6376SOL    HW220028   6.216   1.928   5.338
 6377SOL     OW20029   6.659   1.425   6.178
 6377SOL    HW120030   6.750   1.431   6.219
 6377SOL    HW220031   6.663   1.451   6.082
 6378SOL     OW20032   5.720   4.985   3.350
 6378SOL    HW120033   5.765   4.902   3.382
 6378SOL    HW220034   5.711   5.050   3.425
 6379SOL     OW20035   2.429   4.938   4.902
 6379SOL    HW120036   2.415   4.858   4.843
 6379SOL    HW220037   2.357   5.005   4.885
 6380SOL     OW20038   1.052   1.359   5.208
 6380SOL    HW120039   0.962   1.370   5.252
 6380SOL    HW220040   1.120   1.332   5.276
 6381SOL     OW20041   3.832   3.270   2.833
 6381SOL    HW120042   3.817   3.180   2.873
 6381SOL    HW220043   3.749   3.325   2.841
 6382SOL     OW20044   1.313   2.591   0.411
 6382SOL    HW120045   1.392   2.647   0.437
 6382SOL    HW220046   1.247   2.590   0.486
 6383SOL     OW20047   2.038   2.310   3.321
 6383SOL    HW120048   1.987   2.280   3.241
 6383SOL    HW220049   2.070   2.403   3.308
 6384SOL     OW20050   5.558   4.689   1.564
 6384SOL    HW120051   5.462   4.718   1.558
 6384SOL    HW220052   5.605   4.746   1.631
 6385SOL     OW20053   6.571   5.083   4.322
 6385SOL    HW120054   6.490   5.121   4.278
 6385SOL    HW220055   6.648   5.088   4.259
 6386SOL     OW20056   2.317   4.153   0.323
 6386SOL    HW120057   2.366   4.240   0.314
 6386SOL    HW220058   2.373   4.089   0.376
 6387SOL     OW20059   0.689   1.966   6.517
 6387SOL    HW120060   0.738   2.020   6.450
 6387SOL    HW220061   0.721   1.989   6.609
 6388SOL     OW20062   4.586   4.648   1.548
 6388SOL    HW120063   4.528   4.600   1.614
 6388SOL    HW220064   4.682   4.631   1.570
 6389SOL     OW20065   0.740   5.486   1.979
 6389SOL    HW120066   0.657   5.542   1.979
 6389SOL    HW220067   0.819   5.544   1.963
 6390SOL     OW20068   0.890   2.488   3.932
 6390SOL    HW120069   0.823   2.421   3.900
 6390SOL    HW220070   0.981   2.445   3.936
 6391SOL     OW20071   3.063   0.423   6.170
 6391SOL    HW120072   3.085   0.514   6.205
 6391SOL    HW220073   3.142   0.363   6.183
 6392SOL     OW20074   2.432   6.603   3.659
 6392SOL    HW120075   2.472   6.520   3.619
 6392SOL    HW220076   2.333   6.601   3.647
 6393SOL     OW20077   6.080   6.489   1.536
 6393SOL    HW120078   6.019   6.568   1.548
 6393SOL    HW220079   6.026   6.411   1.503
 6394SOL     OW20080   2.333   4.229   0.628
 6394SOL    HW120081   2.301   4.273   0.544
 6394SOL    HW220082   2.362   4.299   0.693
 6395SOL     OW20083   5.740   2.288   2.039
 6395SOL    HW120084   5.715   2.384   2.052
 6395SOL    HW220085   5.782   2.277   1.948
 6396SOL     OW20086   5.560   2.753   6.106
 6396SOL    HW120087   5.524   2.847   6.100
 6396SOL    HW220088   5.635   2.751   6.172
 6397SOL     OW20089   6.328   1.896   0.056
 6397SOL    HW120090   6.341   1.845   0.141
 6397SOL    HW220091   6.405   1.878   7.014
 6398SOL     OW20092   3.632   0.708   0.782
 6398SOL    HW120093   3.623   0.806   0.797
 6398SOL    HW220094   3.602   0.685   0.689
 6399SOL     OW20095   2.074   5.455   6.408
 6399SOL    HW120096   2.146   5.406   6.458
 6399SOL    HW220097   2.116   5.526   6.350
 6400SOL     OW20098   2.147   5.559   3.297
 6400SOL    HW120099   2.090   5.628   3.341
 6400SOL    HW220100   2.205   5.514   3.365
 6401SOL     OW20101   6.987   4.446   3.445
 6401SOL    HW120102   0.044   4.488   3.398
 6401SOL    HW220103   7.014   4.355   3.477
 6402SOL     OW20104   2.865   0.792   2.995
 6402SOL    HW120105   2.844   0.858   2.923
 6402SOL    HW220106   2.780   0.756   3.033
 6403SOL     OW20107   0.870   6.283   6.430
 6403SOL    HW120108   0.820   6.208   6.388
 6403SOL    HW220109   0.906   6.254   6.518
 6404SOL     OW20110   4.080   1.215   2.940
 6404SOL    HW120111   4.098   1.140   3.003
 6404SOL    HW220112   3.994   1.260   2.964
 6405SOL     OW20113   1.601   1.721   3.283
 6405SOL    HW120114   1.648   1.759   3.363
 6405SOL    HW220115   1.604   1.621   3.288
 6406SOL     OW20116   1.720   2.893   3.786
 6406SOL    HW120117   1.760   2.810   3.747
 6406SOL    HW220118   1.745   2.971   3.728
 6407SOL     OW20119   3.020   6.665   3.192
 6407SOL    HW120120   2.954   6.708   3.131
 6407SOL    HW220121   3.077   6.601   3.141
 6408SOL     OW20122   6.516   2.543   0.104
 6408SOL    HW120123   6.614   2.536   0.084
 6408SOL    HW220124   6.501   2.617   0.170
 6409SOL     OW20125   6.663   4.397   3.389
 6409SOL    HW120126   6.692   4.343   3.469
 6409SOL    HW220127   6.743   4.444   3.351
 6410SOL     OW20128   1.712   1.678   0.585
 6410SOL    HW120129   1.722   1.606   0.654
 6410SOL    HW220130   1.671   1.759   0.627
 6411SOL     OW20131   1.112   2.778   3.331
 6411SOL    HW120132   1.069   2.732   3.253
 6411SOL    HW220133   1.079   2.872   3.337
 6412SOL     OW20134   6.926   3.035   5.192
 6412SOL    HW120135   6.873   3.000   5.115
 6412SOL    HW220136   6.914   3.134   5.200
 6413SOL     OW20137   5.492   4.551   2.383
 6413SOL    HW120138   5.450   4.486   2.447
 6413SOL    HW220139   5.426   4.621   2.358
 6414SOL     OW20140   5.895   0.949   1.969
 6414SOL    HW120141   5.897   1.048   1.961
 6414SOL    HW220142   5.876   0.908   1.880
 6415SOL     OW20143   3.294   2.136   2.517
 6415SOL    HW120144   3.308   2.097   2.426
 6415SOL    HW220145   3.372   2.195   2.540
 6416SOL     OW20146   0.834   0.613   6.154
 6416SOL    HW120147   0.751   0.610   6.098
 6416SOL    HW220148   0.846   0.526   6.201
 6417SOL     OW20149   0.552   5.074   2.892
 6417SOL    HW120150   0.502   5.082   2.978
 6417SOL    HW220151   0.510   5.002   2.836
 6418SOL     OW20152   6.785   4.842   2.387
 6418SOL    HW120153   6.736   4.762   2.351
 6418SOL    HW220154   6.883   4.826   2.380
 6419SOL     OW20155   2.937   5.184   2.274
 6419SOL    HW120156   2.851   5.212   2.316
 6419SOL    HW220157   2.923   5.101   2.221
 6420SOL     OW20158   3.053   3.415   5.962
 6420SOL    HW120159   3.035   3.430   6.060
 6420SOL    HW220160   3.151   3.408   5.947
 6421SOL     OW20161   6.068   1.465   1.709
 6421SOL    HW120162   6.144   1.496   1.652
 6421SOL    HW220163   6.095   1.471   1.805
 6422SOL     OW20164   6.464   0.049   3.959
 6422SOL    HW120165   6.514   0.047   4.046
 6422SOL    HW220166   6.498   0.123   3.902
 6423SOL     OW20167   4.757   4.287   1.848
 6423SOL    HW120168   4.705   4.217   1.800
 6423SOL    HW220169   4.703   4.320   1.926
 6424SOL     OW20170   6.788   4.821   5.965
 6424SOL    HW120171   6.769   4.914   5.933
 6424SOL    HW220172   6.842   4.773   5.897
 6425SOL     OW20173   0.080   5.300   4.406
 6425SOL    HW120174   0.067   5.209   4.447
 6425SOL    HW220175   7.015   5.353   4.414
 6426SOL     OW20176   0.668   3.790   4.086
 6426SOL    HW120177   0.649   3.886   4.109
 6426SOL    HW220178   0.591   3.752   4.035
 6427SOL     OW20179   1.731   3.209   0.082
 6427SOL    HW120180   1.735   3.201   0.182
 6427SOL    HW220181   1.751   3.121   0.040
 6428SOL     OW20182   6.276   3.320   1.131
 6428SOL    HW120183   6.337   3.248   1.100
 6428SOL    HW220184   6.330   3.401   1.156
 6429SOL     OW20185   0.819   1.268   4.774
 6429SOL    HW120186   0.771   1.262   4.687
 6429SOL    HW220187   0.851   1.177   4.801
 6430SOL     OW20188   4.697   1.465   1.737
 6430SOL    HW120189   4.667   1.532   1.668
 6430SOL    HW220190   4.660   1.375   1.714
 6431SOL     OW20191   5.815   7.003   3.055
 6431SOL    HW120192   5.818   6.999   3.155
 6431SOL    HW220193   5.902   6.973   3.018
 6432SOL     OW20194   4.572   4.668   0.279
 6432SOL    HW120195   4.629   4.744   0.248
 6432SOL    HW220196   4.624   4.583   0.272
 6433SOL     OW20197   3.152   4.532   1.224
 6433SOL    HW120198   3.200   4.454   1.264
 6433SOL    HW220199   3.061   4.540   1.266
 6434SOL     OW20200   1.086   3.627   1.550
 6434SOL    HW120201   1.153   3.580   1.493
 6434SOL    HW220202   1.087   3.725   1.529
 6435SOL     OW20203   3.680   5.211   6.952
 6435SOL    HW120204   3.711   5.121   6.923
 6435SOL    HW220205   3.759   5.265   6.982
 6436SOL     OW20206   2.056   3.176   4.160
 6436SOL    HW120207   1.998   3.252   4.131
 6436SOL    HW220208   2.069   3.179   4.259
 6437SOL     OW20209   1.445   1.304   0.444
 6437SOL    HW120210   1.500   1.240   0.497
 6437SOL    HW220211   1.396   1.255   0.372
 6438SOL     OW20212   6.577   4.358   5.356
 6438SOL    HW120213   6.531   4.326   5.273
 6438SOL    HW220214   6.575   4.285   5.425
 6439SOL     OW20215   0.294   6.473   1.260
 6439SOL    HW120216   0.254   6.418   1.187
 6439SOL    HW220217   0.239   6.462   1.343
 6440SOL     OW20218   2.075   1.580   2.010
 6440SOL    HW120219   2.010   1.534   1.949
 6440SOL    HW220220   2.168   1.551   1.987
 6441SOL     OW20221   0.892   6.882   2.532
 6441SOL    HW120222   0.882   6.956   2.465
 6441SOL    HW220223   0.886   6.794   2.485
 6442SOL     OW20224   1.687   1.450   3.600
 6442SOL    HW120225   1.757   1.450   3.672
 6442SOL    HW220226   1.603   1.491   3.635
 6443SOL     OW20227   3.160   2.830   0.781
 6443SOL    HW120228   3.195   2.737   0.785
 6443SOL    HW220229   3.161   2.870   0.873
 6444SOL     OW20230   0.663   2.603   3.176
 6444SOL    HW120231   0.681   2.608   3.078
 6444SOL    HW220232   0.700   2.518   3.212
 6445SOL     OW20233   5.040   2.501   5.411
 6445SOL    HW120234   5.071   2.438   5.482
 6445SOL    HW220235   5.016   2.589   5.454
 6446SOL     OW20236   0.523   2.156   5.933
 6446SOL    HW120237   0.434   2.158   5.979
 6446SOL    HW220238   0.595   2.141   6.000
 6447SOL     OW20239   0.486   6.249   2.411
 6447SOL    HW120240   0.539   6.178   2.458
 6447SOL    HW220241   0.538   6.285   2.334
 6448SOL     OW20242   6.423   4.366   2.667
 6448SOL    HW120243   6.382   4.326   2.584
 6448SOL    HW220244   6.446   4.293   2.731
 6449SOL     OW20245   3.961   4.313   1.400
 6449SOL    HW120246   3.959   4.336   1.303
 6449SOL    HW220247   3.869   4.286   1.429
 6450SOL     OW20248   6.935   3.042   1.438
 6450SOL    HW120249   6.836   3.047   1.427
 6450SOL    HW220250   6.979   3.072   1.353
 6451SOL     OW20251   3.249   6.268   5.575
 6451SOL    HW120252   3.221   6.173   5.563
 6451SOL    HW220253   3.224   6.299   5.667
 6452SOL     OW20254   3.712   6.360   5.242
 6452SOL    HW120255   3.768   6.331   5.320
 6452SOL    HW220256   3.653   6.284   5.214
 6453SOL     OW20257   2.071   6.482   6.692
 6453SOL    HW120258   2.024   6.483   6.781
 6453SOL    HW220259   2.077   6.387   6.659
 6454SOL     OW20260   3.156   0.832   3.770
 6454SOL    HW120261   3.235   0.863   3.823
 6454SOL    HW220262   3.168   0.855   3.674
 6455SOL     OW20263   0.960   2.400   4.321
 6455SOL    HW120264   0.999   2.486   4.355
 6455SOL    HW220265   1.017   2.324   4.351
 6456SOL     OW20266   1.197   0.176   3.370
 6456SOL    HW120267   1.228   0.094   3.419
 6456SOL    HW220268   1.262   0.199   3.298
 6457SOL     OW20269   5.311   1.187   0.987
 6457SOL    HW120270   5.219   1.160   1.016
 6457SOL    HW220271   5.355   1.238   1.060
 6458SOL     OW20272   1.310   6.152   2.996
 6458SOL    HW120273   1.370   6.164   2.917
 6458SOL    HW220274   1.316   6.232   3.055
 6459SOL     OW20275   5.676   5.910   0.835
 6459SOL    HW120276   5.688   5.996   0.785
 6459SOL    HW220277   5.578   5.891   0.845
 6460SOL     OW20278   4.179   5.373   6.158
 6460SOL    HW120279   4.242   5.338   6.089
 6460SOL    HW220280   4.222   5.370   6.248
 6461SOL     OW20281   3.037   5.329   4.949
 6461SOL    HW120282   3.091   5.256   4.991
 6461SOL    HW220283   2.957   5.290   4.903
 6462SOL     OW20284   2.474   2.684   5.141
 6462SOL    HW120285   2.478   2.783   5.126
 6462SOL    HW220286   2.562   2.653   5.178
 6463SOL     OW20287   1.539   4.327   6.336
 6463SOL    HW120288   1.462   4.268   6.362
 6463SOL    HW220289   1.589   4.285   6.260
 6464SOL     OW20290   0.821   4.904   4.358
 6464SOL    HW120291   0.733   4.950   4.366
 6464SOL    HW220292   0.828   4.832   4.427
 6465SOL     OW20293   6.017   2.844   4.061
 6465SOL    HW120294   5.967   2.758   4.051
 6465SOL    HW220295   5.972   2.915   4.007
 6466SOL     OW20296   0.247   2.223   5.780
 6466SOL    HW120297   0.318   2.202   5.712
 6466SOL    HW220298   0.278   2.192   5.870
 6467SOL     OW20299   2.970   0.916   6.895
 6467SOL    HW120300   2.955   0.904   6.797
 6467SOL    HW220301   3.001   0.830   6.936
 6468SOL     OW20302   4.223   6.203   1.314
 6468SOL    HW120303   4.309   6.239   1.279
 6468SOL    HW220304   4.230   6.104   1.324
 6469SOL     OW20305   5.009   0.872   5.120
 6469SOL    HW120306   4.963   0.793   5.160
 6469SOL    HW220307   4.950   0.952   5.127
 6470SOL     OW20308   6.324   5.045   6.539
 6470SOL    HW120309   6.237   5.080   6.504
 6470SOL    HW220310   6.392   5.119   6.538
 6471SOL     OW20311   6.294   5.615   5.906
 6471SOL    HW120312   6.213   5.621   5.964
 6471SOL    HW220313   6.319   5.706   5.874
 6472SOL     OW20314   0.325   4.902   0.689
 6472SOL    HW120315   0.423   4.901   0.708
 6472SOL    HW220316   0.280   4.968   0.749
 6473SOL     OW20317   1.826   1.798   5.330
 6473SOL    HW120318   1.841   1.895   5.352
 6473SOL    HW220319   1.735   1.771   5.362
 6474SOL     OW20320   1.547   3.940   5.674
 6474SOL    HW120321   1.612   3.885   5.727
 6474SOL    HW220322   1.454   3.920   5.704
 6475SOL     OW20323   6.175   5.760   4.579
 6475SOL    HW120324   6.144   5.678   4.530
 6475SOL    HW220325   6.098   5.801   4.627
 6476SOL     OW20326   4.720   3.627   1.724
 6476SOL    HW120327   4.645   3.689   1.700
 6476SOL    HW220328   4.770   3.603   1.641
 6477SOL     OW20329   0.009   5.045   1.097
 6477SOL    HW120330   7.003   4.948   1.087
 6477SOL    HW220331   6.963   5.090   1.158
 6478SOL     OW20332   3.311   6.420   2.359
 6478SOL    HW120333   3.352   6.382   2.442
 6478SOL    HW220334   3.215   6.441   2.377
 6479SOL     OW20335   4.155   5.200   2.626
 6479SOL    HW120336   4.237   5.209   2.683
 6479SOL    HW220337   4.082   5.259   2.663
 6480SOL     OW20338   3.785   2.959   5.571
 6480SOL    HW120339   3.845   3.037   5.556
 6480SOL    HW220340   3.766   2.915   5.483
 6481SOL     OW20341   3.404   2.384   1.754
 6481SOL    HW120342   3.403   2.455   1.684
 6481SOL    HW220343   3.493   2.380   1.798
 6482SOL     OW20344   0.116   0.773   6.154
 6482SOL    HW120345   0.172   0.781   6.236
 6482SOL    HW220346   0.023   0.744   6.179
 6483SOL     OW20347   2.580   6.127   2.002
 6483SOL    HW120348   2.492   6.081   2.009
 6483SOL    HW220349   2.587   6.174   1.914
 6484SOL     OW20350   3.753   0.549   3.154
 6484SOL    HW120351   3.731   0.646   3.156
 6484SOL    HW220352   3.699   0.504   3.083
 6485SOL     OW20353   1.186   3.668   3.494
 6485SOL    HW120354   1.165   3.728   3.571
 6485SOL    HW220355   1.234   3.587   3.527
 6486SOL     OW20356   0.778   4.776   3.456
 6486SOL    HW120357   0.738   4.686   3.473
 6486SOL    HW220358   0.814   4.780   3.363
 6487SOL     OW20359   5.988   5.814   5.349
 6487SOL    HW120360   5.913   5.772   5.400
 6487SOL    HW220361   5.950   5.869   5.274
 6488SOL     OW20362   3.120   6.035   5.227
 6488SOL    HW120363   3.192   5.966   5.223
 6488SOL    HW220364   3.031   5.992   5.208
 6489SOL     OW20365   2.070   3.273   6.951
 6489SOL    HW120366   2.024   3.305   0.015
 6489SOL    HW220367   2.124   3.348   6.912
 6490SOL     OW20368   4.149   2.350   6.535
 6490SOL    HW120369   4.214   2.318   6.465
 6490SOL    HW220370   4.067   2.386   6.490
 6491SOL     OW20371   4.137   0.703   6.386
 6491SOL    HW120372   4.163   0.753   6.469
 6491SOL    HW220373   4.084   0.623   6.411
 6492SOL     OW20374   6.025   6.302   6.736
 6492SOL    HW120375   5.952   6.370   6.746
 6492SOL    HW220376   5.993   6.213   6.770
 6493SOL     OW20377   1.297   6.014   5.109
 6493SOL    HW120378   1.252   6.063   5.034
 6493SOL    HW220379   1.242   6.024   5.192
 6494SOL     OW20380   0.463   0.651   3.622
 6494SOL    HW120381   0.473   0.593   3.542
 6494SOL    HW220382   0.431   0.741   3.594
 6495SOL     OW20383   5.205   6.095   3.716
 6495SOL    HW120384   5.305   6.096   3.713
 6495SOL    HW220385   5.175   6.039   3.793
 6496SOL     OW20386   6.886   6.465   2.265
 6496SOL    HW120387   6.824   6.405   2.317
 6496SOL    HW220388   6.953   6.410   2.216
 6497SOL     OW20389   2.343   3.005   0.115
 6497SOL    HW120390   2.359   2.986   0.211
 6497SOL    HW220391   2.396   2.942   0.059
 6498SOL     OW20392   2.628   4.626   4.472
 6498SOL    HW120393   2.694   4.631   4.396
 6498SOL    HW220394   2.578   4.539   4.467
 6499SOL     OW20395   5.322   1.210   5.054
 6499SOL    HW120396   5.244   1.266   5.083
 6499SOL    HW220397   5.362   1.164   5.133
 6500SOL     OW20398   0.234   4.600   3.851
 6500SOL    HW120399   0.244   4.686   3.900
 6500SOL    HW220400   0.184   4.615   3.765
 6501SOL     OW20401   6.359   2.958   1.216
 6501SOL    HW120402   6.285   2.900   1.250
 6501SOL    HW220403   6.422   2.903   1.161
 6502SOL     OW20404   6.968   3.815   3.504
 6502SOL    HW120405   0.033   3.849   3.461
 6502SOL    HW220406   6.977   3.822   3.603
 6503SOL     OW20407   5.722   6.860   3.309
 6503SOL    HW120408   5.750   6.917   3.386
 6503SOL    HW220409   5.638   6.811   3.332
 6504SOL     OW20410   4.317   6.741   6.451
 6504SOL    HW120411   4.388   6.697   6.395
 6504SOL    HW220412   4.340   6.837   6.464
 6505SOL     OW20413   6.344   4.577   1.415
 6505SOL    HW120414   6.275   4.593   1.486
 6505SOL    HW220415   6.384   4.665   1.388
 6506SOL     OW20416   0.636   3.078   0.692
 6506SOL    HW120417   0.663   3.059   0.787
 6506SOL    HW220418   0.704   3.038   0.630
 6507SOL     OW20419   1.481   5.774   6.746
 6507SOL    HW120420   1.503   5.869   6.725
 6507SOL    HW220421   1.392   5.769   6.790
 6508SOL     OW20422   1.745   2.133   3.517
 6508SOL    HW120423   1.776   2.225   3.494
 6508SOL    HW220424   1.799   2.098   3.594
 6509SOL     OW20425   1.955   2.413   4.731
 6509SOL    HW120426   2.038   2.389   4.680
 6509SOL    HW220427   1.928   2.507   4.709
 6510SOL     OW20428   0.586   5.480   6.989
 6510SOL    HW120429   0.544   5.403   6.941
 6510SOL    HW220430   0.586   5.462   0.068
 6511SOL     OW20431   5.779   0.520   4.500
 6511SOL    HW120432   5.778   0.582   4.421
 6511SOL    HW220433   5.874   0.504   4.528
 6512SOL     OW20434   4.305   0.193   2.884
 6512SOL    HW120435   4.395   0.231   2.861
 6512SOL    HW220436   4.253   0.259   2.938
 6513SOL     OW20437   3.569   6.407   4.141
 6513SOL    HW120438   3.472   6.394   4.117
 6513SOL    HW220439   3.581   6.396   4.239
 6514SOL     OW20440   5.284   0.121   3.493
 6514SOL    HW120441   5.383   0.138   3.486
 6514SOL    HW220442   5.257   0.054   3.425
 6515SOL     OW20443   0.307   5.523   4.075
 6515SOL    HW120444   0.299   5.613   4.119
 6515SOL    HW220445   0.388   5.522   4.016
 6516SOL     OW20446   0.362   1.838   0.034
 6516SOL    HW120447   0.349   1.823   0.132
 6516SOL    HW220448   0.291   1.791   7.003
 6517SOL     OW20449   6.297   1.514   0.815
 6517SOL    HW120450   6.297   1.535   0.717
 6517SOL    HW220451   6.221   1.564   0.859
 6518SOL     OW20452   0.485   6.357   6.965
 6518SOL    HW120453   0.511   6.273   7.012
 6518SOL    HW220454   0.564   6.393   6.915
 6519SOL     OW20455   2.013   1.893   3.453
 6519SOL    HW120456   1.998   1.952   3.373
 6519SOL    HW220457   2.103   1.849   3.446
 6520SOL     OW20458   6.426   5.451   3.641
 6520SOL    HW120459   6.379   5.440   3.553
 6520SOL    HW220460   6.366   5.499   3.704
 6521SOL     OW20461   0.743   1.071   4.551
 6521SOL    HW120462   0.820   1.112   4.503
 6521SOL    HW220463   0.658   1.102   4.509
 6522SOL     OW20464   3.348   4.875   6.700
 6522SOL    HW120465   3.309   4.783   6.692
 6522SOL    HW220466   3.274   4.942   6.707
 6523SOL     OW20467   2.796   1.746   6.450
 6523SOL    HW120468   2.888   1.778   6.474
 6523SOL    HW220469   2.803   1.661   6.397
 6524SOL     OW20470   3.326   2.959   3.329
 6524SOL    HW120471   3.259   3.008   3.274
 6524SOL    HW220472   3.318   2.988   3.425
 6525SOL     OW20473   2.221   2.942   2.776
 6525SOL    HW120474   2.127   2.910   2.770
 6525SOL    HW220475   2.274   2.904   2.700
 6526SOL     OW20476   0.917   6.421   4.688
 6526SOL    HW120477   0.927   6.514   4.651
 6526SOL    HW220478   0.835   6.379   4.650
 6527SOL     OW20479   0.480   1.484   4.910
 6527SOL    HW120480   0.443   1.395   4.936
 6527SOL    HW220481   0.466   1.550   4.985
 6528SOL     OW20482   6.865   0.694   3.753
 6528SOL    HW120483   6.769   0.712   3.733
 6528SOL    HW220484   6.873   0.651   3.844
 6529SOL     OW20485   5.640   1.800   3.585
 6529SOL    HW120486   5.595   1.741   3.653
 6529SOL    HW220487   5.631   1.758   3.495
 6530SOL     OW20488   6.775   3.192   1.075
 6530SOL    HW120489   6.739   3.269   1.129
 6530SOL    HW220490   6.869   3.213   1.047
 6531SOL     OW20491   5.166   3.081   4.092
 6531SOL    HW120492   5.244   3.027   4.126
 6531SOL    HW220493   5.083   3.052   4.139
 6532SOL     OW20494   5.683   1.375   1.129
 6532SOL    HW120495   5.691   1.467   1.168
 6532SOL    HW220496   5.723   1.374   1.037
 6533SOL     OW20497   5.256   5.851   1.622
 6533SOL    HW120498   5.244   5.905   1.538
 6533SOL    HW220499   5.299   5.908   1.692
 6534SOL     OW20500   2.671   4.112   1.605
 6534SOL    HW120501   2.753   4.112   1.548
 6534SOL    HW220502   2.653   4.205   1.637
 6535SOL     OW20503   0.341   2.870   4.851
 6535SOL    HW120504   0.370   2.852   4.945
 6535SOL    HW220505   0.414   2.844   4.788
 6536SOL     OW20506   6.945   2.859   6.004
 6536SOL    HW120507   0.011   2.808   6.011
 6536SOL    HW220508   6.868   2.795   5.998
 6537SOL     OW20509   6.553   6.011   0.040
 6537SOL    HW120510   6.484   6.069   7.015
 6537SOL    HW220511   6.508   5.948   0.103
 6538SOL     OW20512   3.848   4.177   0.189
 6538SOL    HW120513   3.799   4.151   0.272
 6538SOL    HW220514   3.839   4.275   0.174
 6539SOL     OW20515   2.319   2.166   6.231
 6539SOL    HW120516   2.330   2.067   6.224
 6539SOL    HW220517   2.239   2.187   6.287
 6540SOL     OW20518   3.899   1.725   4.970
 6540SOL    HW120519   3.811   1.755   4.934
 6540SOL    HW220520   3.969   1.793   4.949
 6541SOL     OW20521   3.090   2.204   4.757
 6541SOL    HW120522   3.051   2.284   4.712
 6541SOL    HW220523   3.111   2.226   4.852
 6542SOL     OW20524   6.493   4.506   3.178
 6542SOL    HW120525   6.537   4.452   3.251
 6542SOL    HW220526   6.496   4.603   3.202
 6543SOL     OW20527   6.539   5.201   0.129
 6543SOL    HW120528   6.573   5.294   0.119
 6543SOL    HW220529   6.552   5.171   0.224
 6544SOL     OW20530   0.821   6.449   3.612
 6544SOL    HW120531   0.847   6.475   3.519
 6544SOL    HW220532   0.725   6.420   3.613
 6545SOL     OW20533   4.795   1.569   6.271
 6545SOL    HW120534   4.826   1.483   6.312
 6545SOL    HW220535   4.808   1.564   6.172
 6546SOL     OW20536   4.695   4.058   6.429
 6546SOL    HW120537   4.758   4.136   6.427
 6546SOL    HW220538   4.603   4.089   6.406
 6547SOL     OW20539   4.099   1.378   5.420
 6547SOL    HW120540   4.134   1.287   5.399
 6547SOL    HW220541   4.044   1.373   5.504
 6548SOL     OW20542   0.858   4.298   6.400
 6548SOL    HW120543   0.758   4.302   6.400
 6548SOL    HW220544   0.893   4.362   6.468
 6549SOL     OW20545   3.160   1.167   0.977
 6549SOL    HW120546   3.136   1.216   1.061
 6549SOL    HW220547   3.188   1.074   1.000
 6550SOL     OW20548   0.261   5.958   3.109
 6550SOL    HW120549   0.307   6.047   3.099
 6550SOL    HW220550   0.256   5.933   3.205
 6551SOL     OW20551   1.986   4.135   2.575
 6551SOL    HW120552   2.062   4.070   2.577
 6551SOL    HW220553   1.942   4.132   2.485
 6552SOL     OW20554   2.828   6.083   4.565
 6552SOL    HW120555   2.766   6.120   4.495
 6552SOL    HW220556   2.805   6.122   4.654
 6553SOL     OW20557   0.341   2.510   1.372
 6553SOL    HW120558   0.384   2.596   1.401
 6553SOL    HW220559   0.257   2.531   1.322
 6554SOL     OW20560   5.884   1.678   5.837
 6554SOL    HW120561   5.929   1.657   5.750
 6554SOL    HW220562   5.895   1.775   5.857
 6555SOL     OW20563   1.896   1.088   2.440
 6555SOL    HW120564   1.976   1.132   2.480
 6555SOL    HW220565   1.856   1.147   2.370
 6556SOL     OW20566   4.595   4.823   5.074
 6556SOL    HW120567   4.643   4.872   5.147
 6556SOL    HW220568   4.574   4.886   5.000
 6557SOL     OW20569   5.251   5.864   1.152
 6557SOL    HW120570   5.272   5.904   1.241
 6557SOL    HW220571   5.291   5.773   1.146
 6558SOL     OW20572   6.539   5.523   1.286
 6558SOL    HW120573   6.626   5.545   1.241
 6558SOL    HW220574   6.468   5.510   1.217
 6559SOL     OW20575   6.014   3.793   1.047
 6559SOL    HW120576   6.045   3.707   1.088
 6559SOL    HW220577   6.023   3.867   1.114
 6560SOL     OW20578   3.928   2.800   1.589
 6560SOL    HW120579   3.906   2.703   1.584
 6560SOL    HW220580   3.844   2.851   1.610
 6561SOL     OW20581   3.741   4.055   2.432
 6561SOL    HW120582   3.766   4.043   2.336
 6561SOL    HW220583   3.770   3.975   2.484
 6562SOL     OW20584   6.040   4.451   6.608
 6562SOL    HW120585   5.997   4.383   6.550
 6562SOL    HW220586   6.097   4.512   6.553
 6563SOL     OW20587   0.830   6.143   6.889
 6563SOL    HW120588   0.748   6.091   6.866
 6563SOL    HW220589   0.822   6.237   6.855
 6564SOL     OW20590   1.461   3.446   1.967
 6564SOL    HW120591   1.441   3.446   1.869
 6564SOL    HW220592   1.557   3.423   1.981
 6565SOL     OW20593   6.338   1.770   5.084
 6565SOL    HW120594   6.432   1.791   5.056
 6565SOL    HW220595   6.339   1.704   5.159
 6566SOL     OW20596   3.133   6.800   1.699
 6566SOL    HW120597   3.123   6.892   1.660
 6566SOL    HW220598   3.210   6.799   1.762
 6567SOL     OW20599   4.176   2.578   1.421
 6567SOL    HW120600   4.161   2.488   1.380
 6567SOL    HW220601   4.148   2.649   1.357
 6568SOL     OW20602   4.813   5.151   2.137
 6568SOL    HW120603   4.845   5.212   2.210
 6568SOL    HW220604   4.724   5.182   2.104
 6569SOL     OW20605   3.110   4.596   0.824
 6569SOL    HW120606   3.141   4.531   0.755
 6569SOL    HW220607   3.185   4.616   0.887
 6570SOL     OW20608   4.903   6.942   1.272
 6570SOL    HW120609   4.895   6.844   1.258
 6570SOL    HW220610   4.880   6.965   1.366
 6571SOL     OW20611   2.009   6.458   2.938
 6571SOL    HW120612   2.070   6.421   3.007
 6571SOL    HW220613   2.022   6.408   2.852
 6572SOL     OW20614   6.128   4.725   4.777
 6572SOL    HW120615   6.199   4.746   4.844
 6572SOL    HW220616   6.041   4.763   4.808
 6573SOL     OW20617   3.274   0.886   3.199
 6573SOL    HW120618   3.182   0.854   3.223
 6573SOL    HW220619   3.322   0.814   3.148
 6574SOL     OW20620   2.509   6.408   2.228
 6574SOL    HW120621   2.447   6.482   2.203
 6574SOL    HW220622   2.545   6.366   2.145
 6575SOL     OW20623   0.574   1.340   1.406
 6575SOL    HW120624   0.538   1.269   1.466
 6575SOL    HW220625   0.673   1.345   1.414
 6576SOL     OW20626   1.348   6.351   5.989
 6576SOL    HW120627   1.335   6.270   6.045
 6576SOL    HW220628   1.347   6.433   6.047
 6577SOL     OW20629   0.013   1.037   3.632
 6577SOL    HW120630   0.012   0.940   3.609
 6577SOL    HW220631   6.997   1.050   3.725
 6578SOL     OW20632   6.620   5.430   3.219
 6578SOL    HW120633   6.558   5.508   3.213
 6578SOL    HW220634   6.600   5.378   3.302
 6579SOL     OW20635   0.171   4.299   4.581
 6579SOL    HW120636   0.249   4.352   4.549
 6579SOL    HW220637   0.171   4.209   4.536
 6580SOL     OW20638   6.277   1.239   1.124
 6580SOL    HW120639   6.229   1.306   1.180
 6580SOL    HW220640   6.374   1.262   1.121
 6581SOL     OW20641   3.841   1.009   5.627
 6581SOL    HW120642   3.841   0.922   5.579
 6581SOL    HW220643   3.876   0.996   5.720
 6582SOL     OW20644   1.272   6.916   2.311
 6582SOL    HW120645   1.257   6.817   2.310
 6582SOL    HW220646   1.225   6.956   2.391
 6583SOL     OW20647   4.332   1.004   6.176
 6583SOL    HW120648   4.255   1.056   6.212
 6583SOL    HW220649   4.391   1.064   6.121
 6584SOL     OW20650   5.292   1.444   6.752
 6584SOL    HW120651   5.200   1.482   6.744
 6584SOL    HW220652   5.296   1.355   6.706
 6585SOL     OW20653   6.906   1.122   0.570
 6585SOL    HW120654   6.924   1.200   0.510
 6585SOL    HW220655   6.808   1.105   0.574
 6586SOL     OW20656   6.328   2.170   5.769
 6586SOL    HW120657   6.245   2.123   5.798
 6586SOL    HW220658   6.407   2.132   5.816
 6587SOL     OW20659   3.078   5.822   4.742
 6587SOL    HW120660   3.063   5.909   4.695
 6587SOL    HW220661   3.022   5.751   4.699
 6588SOL     OW20662   1.953   4.034   1.517
 6588SOL    HW120663   1.961   4.058   1.614
 6588SOL    HW220664   1.970   4.115   1.461
 6589SOL     OW20665   4.534   0.556   6.998
 6589SOL    HW120666   4.562   0.552   0.074
 6589SOL    HW220667   4.566   0.642   6.958
 6590SOL     OW20668   0.383   1.921   5.436
 6590SOL    HW120669   0.297   1.911   5.486
 6590SOL    HW220670   0.364   1.953   5.343
 6591SOL     OW20671   5.724   6.176   2.398
 6591SOL    HW120672   5.682   6.213   2.315
 6591SOL    HW220673   5.706   6.078   2.403
 6592SOL     OW20674   4.642   6.771   4.055
 6592SOL    HW120675   4.720   6.755   4.115
 6592SOL    HW220676   4.577   6.832   4.100
 6593SOL     OW20677   2.044   2.633   3.442
 6593SOL    HW120678   1.987   2.554   3.461
 6593SOL    HW220679   2.019   2.708   3.504
 6594SOL     OW20680   4.145   1.176   0.209
 6594SOL    HW120681   4.161   1.109   0.137
 6594SOL    HW220682   4.055   1.218   0.197
 6595SOL     OW20683   0.454   3.691   1.549
 6595SOL    HW120684   0.463   3.625   1.623
 6595SOL    HW220685   0.361   3.688   1.512
 6596SOL     OW20686   4.098   0.078   5.464
 6596SOL    HW120687   4.158   0.157   5.450
 6596SOL    HW220688   4.014   0.109   5.510
 6597SOL     OW20689   0.825   6.378   3.868
 6597SOL    HW120690   0.806   6.445   3.939
 6597SOL    HW220691   0.825   6.423   3.779
 6598SOL     OW20692   1.996   5.928   5.344
 6598SOL    HW120693   1.906   5.964   5.368
 6598SOL    HW220694   2.036   5.882   5.423
 6599SOL     OW20695   3.809   5.183   5.637
 6599SOL    HW120696   3.739   5.220   5.576
 6599SOL    HW220697   3.898   5.187   5.591
 6600SOL     OW20698   4.911   5.068   5.041
 6600SOL    HW120699   5.003   5.076   5.002
 6600SOL    HW220700   4.917   5.035   5.135
 6601SOL     OW20701   0.805   0.180   0.659
 6601SOL    HW120702   0.830   0.251   0.725
 6601SOL    HW220703   0.706   0.167   0.659
 6602SOL     OW20704   0.152   2.008   1.340
 6602SOL    HW120705   0.233   1.987   1.395
 6602SOL    HW220706   0.070   1.996   1.397
 6603SOL     OW20707   1.608   2.899   4.132
 6603SOL    HW120708   1.677   2.971   4.136
 6603SOL    HW220709   1.653   2.810   4.125
 6604SOL     OW20710   2.654   6.066   1.544
 6604SOL    HW120711   2.634   6.038   1.450
 6604SOL    HW220712   2.718   6.001   1.585
 6605SOL     OW20713   4.569   4.706   0.750
 6605SOL    HW120714   4.664   4.699   0.722
 6605SOL    HW220715   4.513   4.645   0.694
 6606SOL     OW20716   4.504   6.893   2.176
 6606SOL    HW120717   4.563   6.895   2.257
 6606SOL    HW220718   4.503   6.800   2.139
 6607SOL     OW20719   1.838   1.439   1.907
 6607SOL    HW120720   1.863   1.452   1.810
 6607SOL    HW220721   1.739   1.435   1.915
 6608SOL     OW20722   5.254   4.084   2.251
 6608SOL    HW120723   5.330   4.140   2.219
 6608SOL    HW220724   5.188   4.072   2.177
 6609SOL     OW20725   5.064   1.071   6.658
 6609SOL    HW120726   5.012   0.995   6.620
 6609SOL    HW220727   5.162   1.052   6.650
 6610SOL     OW20728   2.399   0.407   6.842
 6610SOL    HW120729   2.314   0.460   6.837
 6610SOL    HW220730   2.420   0.385   6.937
 6611SOL     OW20731   6.963   2.322   2.800
 6611SOL    HW120732   6.943   2.310   2.897
 6611SOL    HW220733   0.037   2.294   2.781
 6612SOL     OW20734   1.113   4.174   7.010
 6612SOL    HW120735   1.076   4.232   6.938
 6612SOL    HW220736   1.068   4.196   0.077
 6613SOL     OW20737   5.883   6.032   3.341
 6613SOL    HW120738   5.783   6.030   3.339
 6613SOL    HW220739   5.913   6.101   3.407
 6614SOL     OW20740   4.802   6.624   6.366
 6614SOL    HW120741   4.868   6.690   6.401
 6614SOL    HW220742   4.848   6.561   6.304
 6615SOL     OW20743   0.714   3.971   4.707
 6615SOL    HW120744   0.695   3.992   4.611
 6615SOL    HW220745   0.685   3.878   4.727
 6616SOL     OW20746   3.960   1.590   5.905
 6616SOL    HW120747   3.939   1.687   5.912
 6616SOL    HW220748   3.983   1.567   5.810
 6617SOL     OW20749   3.471   6.480   3.559
 6617SOL    HW120750   3.456   6.415   3.634
 6617SOL    HW220751   3.526   6.436   3.488
 6618SOL     OW20752   1.549   3.002   2.164
 6618SOL    HW120753   1.468   3.061   2.163
 6618SOL    HW220754   1.631   3.057   2.155
 6619SOL     OW20755   5.200   6.639   4.416
 6619SOL    HW120756   5.183   6.642   4.515
 6619SOL    HW220757   5.218   6.732   4.383
 6620SOL     OW20758   1.771   2.894   5.551
 6620SOL    HW120759   1.774   2.889   5.451
 6620SOL    HW220760   1.676   2.894   5.582
 6621SOL     OW20761   3.461   3.992   0.387
 6621SOL    HW120762   3.491   3.967   0.295
 6621SOL    HW220763   3.399   3.922   0.423
 6622SOL     OW20764   6.162   5.629   1.274
 6622SOL    HW120765   6.114   5.686   1.341
 6622SOL    HW220766   6.205   5.551   1.321
 6623SOL     OW20767   3.466   3.128   2.091
 6623SOL    HW120768   3.490   3.154   1.998
 6623SOL    HW220769   3.501   3.196   2.155
 6624SOL     OW20770   2.364   6.438   4.215
 6624SOL    HW120771   2.308   6.479   4.143
 6624SOL    HW220772   2.361   6.496   4.297
 6625SOL     OW20773   5.899   1.916   6.037
 6625SOL    HW120774   5.807   1.887   6.061
 6625SOL    HW220775   5.953   1.929   6.120
 6626SOL     OW20776   3.630   4.937   3.090
 6626SOL    HW120777   3.631   4.920   2.991
 6626SOL    HW220778   3.721   4.923   3.127
 6627SOL     OW20779   2.085   1.040   5.676
 6627SOL    HW120780   2.082   0.963   5.612
 6627SOL    HW220781   1.993   1.056   5.712
 6628SOL     OW20782   5.048   5.389   2.785
 6628SOL    HW120783   5.027   5.293   2.805
 6628SOL    HW220784   4.986   5.448   2.836
 6629SOL     OW20785   3.490   6.330   0.901
 6629SOL    HW120786   3.418   6.374   0.955
 6629SOL    HW220787   3.534   6.259   0.957
 6630SOL     OW20788   3.570   1.842   0.628
 6630SOL    HW120789   3.667   1.858   0.609
 6630SOL    HW220790   3.523   1.813   0.545
 6631SOL     OW20791   4.498   6.783   2.613
 6631SOL    HW120792   4.529   6.689   2.625
 6631SOL    HW220793   4.410   6.784   2.566
 6632SOL     OW20794   6.857   1.061   2.057
 6632SOL    HW120795   6.760   1.082   2.041
 6632SOL    HW220796   6.879   0.975   2.010
 6633SOL     OW20797   1.371   5.694   6.361
 6633SOL    HW120798   1.334   5.772   6.411
 6633SOL    HW220799   1.369   5.713   6.263
 6634SOL     OW20800   5.972   3.382   5.894
 6634SOL    HW120801   5.972   3.290   5.933
 6634SOL    HW220802   6.041   3.438   5.940
 6635SOL     OW20803   4.598   5.018   3.474
 6635SOL    HW120804   4.533   5.012   3.398
 6635SOL    HW220805   4.561   5.077   3.545
 6636SOL     OW20806   2.100   2.867   5.481
 6636SOL    HW120807   2.006   2.894   5.504
 6636SOL    HW220808   2.132   2.919   5.402
 6637SOL     OW20809   1.008   0.527   6.777
 6637SOL    HW120810   1.028   0.517   6.680
 6637SOL    HW220811   1.030   0.442   6.825
 6638SOL     OW20812   3.998   4.850   5.176
 6638SOL    HW120813   4.055   4.833   5.095
 6638SOL    HW220814   3.958   4.764   5.208
 6639SOL     OW20815   5.813   5.933   5.763
 6639SOL    HW120816   5.863   5.847   5.752
 6639SOL    HW220817   5.835   5.994   5.687
 6640SOL     OW20818   6.929   1.843   4.847
 6640SOL    HW120819   6.857   1.815   4.911
 6640SOL    HW220820   6.990   1.908   4.892
 6641SOL     OW20821   2.870   3.358   6.650
 6641SOL    HW120822   2.860   3.450   6.612
 6641SOL    HW220823   2.783   3.328   6.688
 6642SOL     OW20824   2.904   5.261   0.040
 6642SOL    HW120825   2.933   5.354   0.061
 6642SOL    HW220826   2.967   5.196   0.080
 6643SOL     OW20827   6.894   4.516   0.081
 6643SOL    HW120828   6.800   4.527   0.114
 6643SOL    HW220829   6.893   4.499   7.002
 6644SOL     OW20830   3.062   4.763   2.031
 6644SOL    HW120831   2.997   4.690   2.011
 6644SOL    HW220832   3.129   4.770   1.957
 6645SOL     OW20833   6.634   4.989   1.135
 6645SOL    HW120834   6.693   4.949   1.065
 6645SOL    HW220835   6.686   5.005   1.218
 6646SOL     OW20836   4.602   5.744   4.548
 6646SOL    HW120837   4.681   5.782   4.597
 6646SOL    HW220838   4.608   5.644   4.547
 6647SOL     OW20839   3.162   1.679   2.699
 6647SOL    HW120840   3.217   1.746   2.749
 6647SOL    HW220841   3.138   1.716   2.609
 6648SOL     OW20842   3.572   6.388   2.270
 6648SOL    HW120843   3.590   6.456   2.199
 6648SOL    HW220844   3.476   6.391   2.297
 6649SOL     OW20845   5.687   2.087   6.529
 6649SOL    HW120846   5.650   2.178   6.514
 6649SOL    HW220847   5.617   2.019   6.507
 6650SOL     OW20848   4.120   1.126   3.439
 6650SOL    HW120849   4.182   1.198   3.467
 6650SOL    HW220850   4.039   1.166   3.395
 6651SOL     OW20851   1.332   1.797   0.492
 6651SOL    HW120852   1.346   1.698   0.493
 6651SOL    HW220853   1.418   1.843   0.513
 6652SOL     OW20854   6.596   4.228   0.142
 6652SOL    HW120855   6.677   4.196   0.094
 6652SOL    HW220856   6.623   4.284   0.221
 6653SOL     OW20857   4.095   3.483   3.077
 6653SOL    HW120858   4.078   3.443   2.987
 6653SOL    HW220859   4.125   3.411   3.140
 6654SOL     OW20860   2.144   2.699   1.329
 6654SOL    HW120861   2.216   2.740   1.272
 6654SOL    HW220862   2.065   2.677   1.271
 6655SOL     OW20863   2.392   0.129   1.660
 6655SOL    HW120864   2.470   0.137   1.598
 6655SOL    HW220865   2.419   0.155   1.752
 6656SOL     OW20866   6.404   1.209   2.772
 6656SOL    HW120867   6.369   1.188   2.681
 6656SOL    HW220868   6.390   1.306   2.792
 6657SOL     OW20869   4.481   6.611   6.247
 6657SOL    HW120870   4.577   6.588   6.266
 6657SOL    HW220871   4.433   6.530   6.214
 6658SOL     OW20872   5.704   1.343   5.306
 6658SOL    HW120873   5.674   1.408   5.237
 6658SOL    HW220874   5.626   1.312   5.360
 6659SOL     OW20875   2.333   2.055   6.679
 6659SOL    HW120876   2.378   1.966   6.675
 6659SOL    HW220877   2.396   2.123   6.717
 6660SOL     OW20878   7.003   6.033   1.170
 6660SOL    HW120879   0.072   6.066   1.204
 6660SOL    HW220880   7.015   5.992   1.080
 6661SOL     OW20881   0.517   4.829   3.874
 6661SOL    HW120882   0.428   4.784   3.880
 6661SOL    HW220883   0.566   4.794   3.794
 6662SOL     OW20884   1.218   1.026   6.855
 6662SOL    HW120885   1.202   0.927   6.846
 6662SOL    HW220886   1.158   1.075   6.792
 6663SOL     OW20887   0.040   5.617   3.220
 6663SOL    HW120888   0.058   5.688   3.153
 6663SOL    HW220889   6.982   5.644   3.277
 6664SOL     OW20890   1.462   0.071   1.420
 6664SOL    HW120891   1.435   0.137   1.350
 6664SOL    HW220892   1.385   0.053   1.481
 6665SOL     OW20893   1.463   0.227   3.274
 6665SOL    HW120894   1.491   0.146   3.223
 6665SOL    HW220895   1.516   0.233   3.358
 6666SOL     OW20896   5.914   1.822   5.334
 6666SOL    HW120897   5.870   1.831   5.244
 6666SOL    HW220898   5.845   1.832   5.406
 6667SOL     OW20899   5.971   5.118   4.668
 6667SOL    HW120900   6.039   5.049   4.643
 6667SOL    HW220901   5.916   5.085   4.744
 6668SOL     OW20902   7.013   6.250   2.197
 6668SOL    HW120903   7.003   6.182   2.270
 6668SOL    HW220904   0.072   6.225   2.140
 6669SOL     OW20905   2.098   3.450   3.793
 6669SOL    HW120906   2.063   3.519   3.729
 6669SOL    HW220907   2.111   3.491   3.883
 6670SOL     OW20908   3.596   3.849   6.845
 6670SOL    HW120909   3.581   3.822   6.749
 6670SOL    HW220910   3.509   3.877   6.886
 6671SOL     OW20911   6.244   5.115   0.495
 6671SOL    HW120912   6.258   5.024   0.456
 6671SOL    HW220913   6.216   5.178   0.423
 6672SOL     OW20914   0.818   1.120   5.441
 6672SOL    HW120915   0.767   1.198   5.405
 6672SOL    HW220916   0.875   1.149   5.518
 6673SOL     OW20917   4.823   5.691   2.626
 6673SOL    HW120918   4.747   5.746   2.662
 6673SOL    HW220919   4.909   5.720   2.668
 6674SOL     OW20920   0.745   5.423   6.049
 6674SOL    HW120921   0.770   5.395   6.142
 6674SOL    HW220922   0.825   5.417   5.989
 6675SOL     OW20923   5.521   4.164   1.595
 6675SOL    HW120924   5.609   4.186   1.552
 6675SOL    HW220925   5.478   4.089   1.545
 6676SOL     OW20926   0.682   3.691   5.690
 6676SOL    HW120927   0.595   3.667   5.733
 6676SOL    HW220928   0.681   3.665   5.594
 6677SOL     OW20929   6.914   3.321   6.842
 6677SOL    HW120930   6.994   3.352   6.893
 6677SOL    HW220931   6.838   3.383   6.858
 6678SOL     OW20932   1.349   2.333   0.157
 6678SOL    HW120933   1.259   2.294   0.138
 6678SOL    HW220934   1.356   2.354   0.255
 6679SOL     OW20935   1.593   1.594   4.741
 6679SOL    HW120936   1.555   1.584   4.648
 6679SOL    HW220937   1.552   1.525   4.800
 6680SOL     OW20938   4.512   6.034   5.841
 6680SOL    HW120939   4.562   6.051   5.926
 6680SOL    HW220940   4.438   6.100   5.832
 6681SOL     OW20941   5.102   5.969   6.933
 6681SOL    HW120942   5.194   6.006   6.920
 6681SOL    HW220943   5.103   5.870   6.915
 6682SOL     OW20944   0.766   4.379   2.613
 6682SOL    HW120945   0.860   4.359   2.640
 6682SOL    HW220946   0.761   4.391   2.514
 6683SOL     OW20947   4.857   1.914   5.485
 6683SOL    HW120948   4.757   1.905   5.487
 6683SOL    HW220949   4.884   1.994   5.538
 6684SOL     OW20950   1.956   6.697   1.264
 6684SOL    HW120951   1.956   6.744   1.352
 6684SOL    HW220952   1.906   6.611   1.273
 6685SOL     OW20953   5.183   1.986   6.199
 6685SOL    HW120954   5.260   2.045   6.222
 6685SOL    HW220955   5.138   1.956   6.283
 6686SOL     OW20956   5.971   4.522   3.791
 6686SOL    HW120957   5.996   4.524   3.888
 6686SOL    HW220958   5.879   4.561   3.780
 6687SOL     OW20959   0.805   1.518   0.664
 6687SOL    HW120960   0.833   1.459   0.589
 6687SOL    HW220961   0.734   1.581   0.633
 6688SOL     OW20962   0.679   4.541   2.128
 6688SOL    HW120963   0.593   4.518   2.083
 6688SOL    HW220964   0.717   4.624   2.087
 6689SOL     OW20965   4.332   2.621   0.706
 6689SOL    HW120966   4.303   2.709   0.669
 6689SOL    HW220967   4.310   2.618   0.804
 6690SOL     OW20968   2.386   1.089   1.806
 6690SOL    HW120969   2.424   1.149   1.877
 6690SOL    HW220970   2.375   1.141   1.721
 6691SOL     OW20971   2.818   5.893   0.749
 6691SOL    HW120972   2.780   5.864   0.661
 6691SOL    HW220973   2.771   5.845   0.822
 6692SOL     OW20974   2.557   4.613   5.177
 6692SOL    HW120975   2.533   4.520   5.205
 6692SOL    HW220976   2.638   4.610   5.118
 6693SOL     OW20977   4.950   3.491   6.133
 6693SOL    HW120978   4.891   3.427   6.082
 6693SOL    HW220979   4.970   3.570   6.076
 6694SOL     OW20980   4.290   5.474   0.069
 6694SOL    HW120981   4.261   5.419   0.147
 6694SOL    HW220982   4.323   5.562   0.101
 6695SOL     OW20983   0.756   2.109   6.790
 6695SOL    HW120984   0.693   2.072   6.858
 6695SOL    HW220985   0.850   2.105   6.825
 6696SOL     OW20986   1.887   2.610   1.208
 6696SOL    HW120987   1.801   2.652   1.237
 6696SOL    HW220988   1.902   2.525   1.259
 6697SOL     OW20989   4.740   2.227   2.858
 6697SOL    HW120990   4.837   2.209   2.876
 6697SOL    HW220991   4.693   2.246   2.944
 6698SOL     OW20992   3.494   2.562   0.623
 6698SOL    HW120993   3.508   2.659   0.599
 6698SOL    HW220994   3.411   2.554   0.679
 6699SOL     OW20995   3.806   4.107   6.643
 6699SOL    HW120996   3.853   4.023   6.616
 6699SOL    HW220997   3.811   4.118   6.742
 6700SOL     OW20998   0.688   5.889   0.425
 6700SOL    HW120999   0.598   5.930   0.441
 6700SOL    HW221000   0.713   5.832   0.504
 6701SOL     OW21001   5.998   2.791   1.530
 6701SOL    HW121002   5.931   2.811   1.602
 6701SOL    HW221003   6.054   2.714   1.558
 6702SOL     OW21004   2.767   2.050   0.007
 6702SOL    HW121005   2.806   2.099   6.949
 6702SOL    HW221006   2.837   1.994   0.050
 6703SOL     OW21007   6.288   2.170   6.934
 6703SOL    HW121008   6.370   2.226   6.922
 6703SOL    HW221009   6.310   2.090   6.990
 6704SOL     OW21010   4.487   2.308   2.513
 6704SOL    HW121011   4.453   2.399   2.534
 6704SOL    HW221012   4.455   2.243   2.582
 6705SOL     OW21013   0.176   2.376   1.743
 6705SOL    HW121014   0.274   2.380   1.723
 6705SOL    HW221015   0.150   2.282   1.763
 6706SOL     OW21016   1.169   4.077   0.539
 6706SOL    HW121017   1.252   4.131   0.535
 6706SOL    HW221018   1.103   4.121   0.600
 6707SOL     OW21019   5.988   5.908   4.702
 6707SOL    HW121020   6.001   5.995   4.748
 6707SOL    HW221021   5.904   5.911   4.646
 6708SOL     OW21022   1.840   6.016   2.423
 6708SOL    HW121023   1.744   6.011   2.451
 6708SOL    HW221024   1.860   5.942   2.359
 6709SOL     OW21025   3.690   6.363   1.533
 6709SOL    HW121026   3.776   6.410   1.515
 6709SOL    HW221027   3.646   6.403   1.613
 6710SOL     OW21028   1.898   1.783   5.669
 6710SOL    HW121029   1.926   1.836   5.589
 6710SOL    HW221030   1.978   1.765   5.726
 6711SOL     OW21031   5.780   3.999   6.418
 6711SOL    HW121032   5.725   4.077   6.389
 6711SOL    HW221033   5.721   3.930   6.461
 6712SOL     OW21034   3.927   5.443   0.273
 6712SOL    HW121035   3.829   5.439   0.293
 6712SOL    HW221036   3.979   5.420   0.355
 6713SOL     OW21037   2.645   1.794   1.767
 6713SOL    HW121038   2.580   1.849   1.714
 6713SOL    HW221039   2.707   1.855   1.817
 6714SOL     OW21040   5.521   0.108   5.375
 6714SOL    HW121041   5.512   0.143   5.468
 6714SOL    HW221042   5.476   0.171   5.311
 6715SOL     OW21043   0.340   0.951   0.057
 6715SOL    HW121044   0.377   0.939   0.149
 6715SOL    HW221045   0.413   0.944   7.009
 6716SOL     OW21046   1.498   6.425   1.069
 6716SOL    HW121047   1.523   6.354   1.136
 6716SOL    HW221048   1.426   6.483   1.107
 6717SOL     OW21049   4.027   3.039   0.557
 6717SOL    HW121050   3.965   3.030   0.635
 6717SOL    HW221051   4.010   2.965   0.492
 6718SOL     OW21052   4.071   5.735   6.489
 6718SOL    HW121053   4.017   5.655   6.462
 6718SOL    HW221054   4.014   5.817   6.482
 6719SOL     OW21055   0.091   6.847   6.071
 6719SOL    HW121056   0.179   6.804   6.092
 6719SOL    HW221057   0.100   6.903   5.989
 6720SOL     OW21058   2.306   6.125   1.832
 6720SOL    HW121059   2.257   6.150   1.748
 6720SOL    HW221060   2.319   6.026   1.834
 6721SOL     OW21061   5.331   6.388   4.456
 6721SOL    HW121062   5.307   6.305   4.506
 6721SOL    HW221063   5.249   6.428   4.414
 6722SOL     OW21064   4.735   3.378   0.941
 6722SOL    HW121065   4.819   3.357   0.892
 6722SOL    HW221066   4.665   3.310   0.918
 6723SOL     OW21067   1.923   6.973   3.211
 6723SOL    HW121068   1.982   6.977   3.292
 6723SOL    HW221069   1.897   6.879   3.193
 6724SOL     OW21070   2.106   4.246   5.992
 6724SOL    HW121071   2.055   4.331   5.984
 6724SOL    HW221072   2.043   4.171   6.010
 6725SOL     OW21073   1.244   4.417   2.597
 6725SOL    HW121074   1.226   4.477   2.518
 6725SOL    HW221075   1.339   4.426   2.625
 6726SOL     OW21076   1.337   2.917   4.893
 6726SOL    HW121077   1.312   2.846   4.826
 6726SOL    HW221078   1.430   2.902   4.925
 6727SOL     OW21079   5.400   3.611   6.320
 6727SOL    HW121080   5.444   3.523   6.337
 6727SOL    HW221081   5.311   3.613   6.364
 6728SOL     OW21082   3.828   1.934   4.564
 6728SOL    HW121083   3.754   1.873   4.592
 6728SOL    HW221084   3.789   2.020   4.530
 6729SOL     OW21085   6.525   1.312   2.048
 6729SOL    HW121086   6.488   1.289   2.138
 6729SOL    HW221087   6.568   1.403   2.052
 6730SOL     OW21088   2.406   0.046   6.919
 6730SOL    HW121089   2.388   0.076   6.825
 6730SOL    HW221090   2.483   0.097   6.956
 6731SOL     OW21091   2.925   4.241   1.427
 6731SOL    HW121092   2.964   4.150   1.410
 6731SOL    HW221093   2.860   4.263   1.355
 6732SOL     OW21094   2.679   5.929   0.224
 6732SOL    HW121095   2.704   5.998   0.156
 6732SOL    HW221096   2.580   5.923   0.230
 6733SOL     OW21097   4.738   5.646   6.043
 6733SOL    HW121098   4.774   5.650   5.949
 6733SOL    HW221099   4.649   5.691   6.046
 6734SOL     OW21100   1.152   3.328   5.643
 6734SOL    HW121101   1.119   3.360   5.731
 6734SOL    HW221102   1.252   3.326   5.643
 6735SOL     OW21103   0.261   5.064   5.276
 6735SOL    HW121104   0.341   5.107   5.319
 6735SOL    HW221105   0.192   5.046   5.345
 6736SOL     OW21106   2.342   3.349   0.957
 6736SOL    HW121107   2.296   3.394   1.034
 6736SOL    HW221108   2.414   3.290   0.992
 6737SOL     OW21109   2.150   1.168   2.086
 6737SOL    HW121110   2.052   1.180   2.102
 6737SOL    HW221111   2.172   1.202   1.995
 6738SOL     OW21112   2.383   1.988   2.443
 6738SOL    HW121113   2.301   2.033   2.409
 6738SOL    HW221114   2.360   1.896   2.476
 6739SOL     OW21115   3.349   5.326   5.210
 6739SOL    HW121116   3.429   5.373   5.172
 6739SOL    HW221117   3.271   5.388   5.209
 6740SOL     OW21118   1.642   0.947   4.165
 6740SOL    HW121119   1.682   1.020   4.221
 6740SOL    HW221120   1.582   0.891   4.221
 6741SOL     OW21121   5.145   1.500   6.157
 6741SOL    HW121122   5.120   1.587   6.115
 6741SOL    HW221123   5.118   1.501   6.253
 6742SOL     OW21124   0.079   5.681   4.536
 6742SOL    HW121125   0.176   5.661   4.537
 6742SOL    HW221126   0.061   5.767   4.584
 6743SOL     OW21127   4.229   3.094   0.253
 6743SOL    HW121128   4.283   3.041   0.188
 6743SOL    HW221129   4.146   3.043   0.276
 6744SOL     OW21130   3.744   4.613   6.080
 6744SOL    HW121131   3.706   4.705   6.090
 6744SOL    HW221132   3.672   4.545   6.090
 6745SOL     OW21133   1.265   4.990   3.150
 6745SOL    HW121134   1.328   4.956   3.080
 6745SOL    HW221135   1.299   5.077   3.186
 6746SOL     OW21136   0.656   1.013   1.443
 6746SOL    HW121137   0.600   1.053   1.516
 6746SOL    HW221138   0.598   0.959   1.382
 6747SOL     OW21139   5.386   6.574   4.064
 6747SOL    HW121140   5.481   6.569   4.033
 6747SOL    HW221141   5.379   6.642   4.137
 6748SOL     OW21142   0.532   0.822   2.350
 6748SOL    HW121143   0.545   0.818   2.251
 6748SOL    HW221144   0.445   0.780   2.374
 6749SOL     OW21145   3.348   0.222   0.086
 6749SOL    HW121146   3.250   0.240   0.077
 6749SOL    HW221147   3.384   0.274   0.163
 6750SOL     OW21148   2.525   2.032   4.057
 6750SOL    HW121149   2.479   1.951   4.093
 6750SOL    HW221150   2.538   2.099   4.131
 6751SOL     OW21151   3.004   2.166   3.707
 6751SOL    HW121152   3.024   2.148   3.803
 6751SOL    HW221153   2.905   2.171   3.694
 6752SOL     OW21154   6.026   2.868   1.236
 6752SOL    HW121155   5.992   2.791   1.290
 6752SOL    HW221156   6.018   2.952   1.289
 6753SOL     OW21157   4.128   1.544   6.127
 6753SOL    HW121158   4.076   1.575   6.048
 6753SOL    HW221159   4.074   1.556   6.210
 6754SOL     OW21160   6.239   1.810   5.975
 6754SOL    HW121161   6.290   1.747   5.916
 6754SOL    HW221162   6.144   1.814   5.944
 6755SOL     OW21163   5.745   1.592   3.332
 6755SOL    HW121164   5.713   1.572   3.239
 6755SOL    HW221165   5.843   1.612   3.329
 6756SOL     OW21166   4.576   4.486   4.506
 6756SOL    HW121167   4.630   4.568   4.483
 6756SOL    HW221168   4.576   4.473   4.605
 6757SOL     OW21169   4.807   6.234   0.920
 6757SOL    HW121170   4.739   6.237   0.848
 6757SOL    HW221171   4.765   6.258   1.008
 6758SOL     OW21172   5.271   3.249   2.039
 6758SOL    HW121173   5.223   3.333   2.014
 6758SOL    HW221174   5.213   3.170   2.018
 6759SOL     OW21175   1.628   4.542   2.994
 6759SOL    HW121176   1.540   4.540   3.042
 6759SOL    HW221177   1.701   4.564   3.060
 6760SOL     OW21178   0.567   4.990   4.435
 6760SOL    HW121179   0.547   4.972   4.339
 6760SOL    HW221180   0.545   5.085   4.457
 6761SOL     OW21181   5.272   3.179   5.482
 6761SOL    HW121182   5.257   3.094   5.432
 6761SOL    HW221183   5.363   3.178   5.524
 6762SOL     OW21184   6.657   5.334   3.757
 6762SOL    HW121185   6.582   5.336   3.690
 6762SOL    HW221186   6.653   5.415   3.815
 6763SOL     OW21187   5.912   6.385   5.353
 6763SOL    HW121188   5.968   6.468   5.353
 6763SOL    HW221189   5.920   6.339   5.265
 6764SOL     OW21190   2.994   3.788   6.565
 6764SOL    HW121191   2.943   3.768   6.649
 6764SOL    HW221192   3.087   3.816   6.588
 6765SOL     OW21193   6.581   4.788   3.247
 6765SOL    HW121194   6.677   4.766   3.265
 6765SOL    HW221195   6.564   4.783   3.148
 6766SOL     OW21196   1.689   0.935   5.487
 6766SOL    HW121197   1.725   0.843   5.471
 6766SOL    HW221198   1.598   0.929   5.528
 6767SOL     OW21199   0.072   2.576   0.358
 6767SOL    HW121200   0.092   2.647   0.426
 6767SOL    HW221201   7.018   2.608   0.298
 6768SOL     OW21202   0.852   0.463   3.711
 6768SOL    HW121203   0.937   0.425   3.674
 6768SOL    HW221204   0.853   0.562   3.702
 6769SOL     OW21205   2.573   2.169   5.327
 6769SOL    HW121206   2.557   2.130   5.236
 6769SOL    HW221207   2.664   2.211   5.329
 6770SOL     OW21208   0.137   2.066   3.049
 6770SOL    HW121209   0.179   2.156   3.046
 6770SOL    HW221210   0.040   2.074   3.071
 6771SOL     OW21211   3.524   2.100   3.389
 6771SOL    HW121212   3.614   2.082   3.430
 6771SOL    HW221213   3.536   2.142   3.299
 6772SOL     OW21214   6.258   1.765   2.588
 6772SOL    HW121215   6.159   1.754   2.588
 6772SOL    HW221216   6.281   1.853   2.631
 6773SOL     OW21217   0.000   6.264   1.698
 6773SOL    HW121218   6.955   6.225   1.632
 6773SOL    HW221219   6.983   6.256   1.790
 6774SOL     OW21220   1.869   2.173   5.120
 6774SOL    HW121221   1.770   2.177   5.135
 6774SOL    HW221222   1.913   2.247   5.171
 6775SOL     OW21223   0.550   1.850   5.080
 6775SOL    HW121224   0.480   1.921   5.096
 6775SOL    HW221225   0.519   1.763   5.118
 6776SOL     OW21226   3.842   4.176   1.716
 6776SOL    HW121227   3.855   4.275   1.717
 6776SOL    HW221228   3.855   4.141   1.623
 6777SOL     OW21229   5.004   5.700   1.161
 6777SOL    HW121230   5.045   5.613   1.135
 6777SOL    HW221231   5.072   5.773   1.153
 6778SOL     OW21232   6.476   4.006   2.519
 6778SOL    HW121233   6.420   4.063   2.460
 6778SOL    HW221234   6.558   4.057   2.547
 6779SOL     OW21235   5.838   4.278   5.950
 6779SOL    HW121236   5.795   4.195   5.986
 6779SOL    HW221237   5.938   4.269   5.954
 6780SOL     OW21238   2.672   2.198   2.690
 6780SOL    HW121239   2.648   2.258   2.614
 6780SOL    HW221240   2.767   2.167   2.680
 6781SOL     OW21241   6.471   0.975   4.450
 6781SOL    HW121242   6.491   0.991   4.546
 6781SOL    HW221243   6.393   1.030   4.422
 6782SOL     OW21244   6.525   1.633   3.724
 6782SOL    HW121245   6.490   1.702   3.662
 6782SOL    HW221246   6.451   1.571   3.750
 6783SOL     OW21247   1.570   5.101   4.836
 6783SOL    HW121248   1.626   5.161   4.779
 6783SOL    HW221249   1.505   5.052   4.778
 6784SOL     OW21250   1.611   3.460   1.645
 6784SOL    HW121251   1.707   3.445   1.671
 6784SOL    HW221252   1.607   3.527   1.571
 6785SOL     OW21253   5.390   4.921   4.717
 6785SOL    HW121254   5.311   4.917   4.656
 6785SOL    HW221255   5.474   4.906   4.664
 6786SOL     OW21256   6.909   2.302   0.272
 6786SOL    HW121257   6.887   2.355   0.355
 6786SOL    HW221258   6.972   2.228   0.295
 6787SOL     OW21259   3.577   2.037   6.899
 6787SOL    HW121260   3.533   2.097   6.832
 6787SOL    HW221261   3.596   1.949   6.857
 6788SOL     OW21262   0.280   4.104   3.742
 6788SOL    HW121263   0.241   4.196   3.742
 6788SOL    HW221264   0.368   4.106   3.693
 6789SOL     OW21265   6.249   3.899   3.932
 6789SOL    HW121266   6.223   3.906   3.836
 6789SOL    HW221267   6.284   3.987   3.964
 6790SOL     OW21268   0.859   4.739   5.411
 6790SOL    HW121269   0.885   4.780   5.498
 6790SOL    HW221270   0.928   4.762   5.342
 6791SOL     OW21271   4.004   0.725   3.986
 6791SOL    HW121272   4.044   0.813   4.011
 6791SOL    HW221273   3.966   0.681   4.068
 6792SOL     OW21274   4.337   0.225   5.643
 6792SOL    HW121275   4.313   0.138   5.685
 6792SOL    HW221276   4.323   0.220   5.544
 6793SOL     OW21277   2.405   3.297   0.512
 6793SOL    HW121278   2.326   3.236   0.517
 6793SOL    HW221279   2.392   3.375   0.574
 6794SOL     OW21280   4.722   1.304   6.130
 6794SOL    HW121281   4.815   1.331   6.105
 6794SOL    HW221282   4.708   1.318   6.228
 6795SOL     OW21283   0.782   0.766   1.206
 6795SOL    HW121284   0.717   0.831   1.166
 6795SOL    HW221285   0.822   0.805   1.289
 6796SOL     OW21286   5.961   1.345   2.623
 6796SOL    HW121287   6.049   1.377   2.657
 6796SOL    HW221288   5.958   1.354   2.523
 6797SOL     OW21289   0.661   2.371   1.581
 6797SOL    HW121290   0.668   2.458   1.532
 6797SOL    HW221291   0.741   2.315   1.559
 6798SOL     OW21292   5.345   0.380   1.943
 6798SOL    HW121293   5.418   0.401   2.008
 6798SOL    HW221294   5.271   0.333   1.991
 6799SOL     OW21295   5.281   0.752   3.701
 6799SOL    HW121296   5.293   0.653   3.697
 6799SOL    HW221297   5.351   0.797   3.646
 6800SOL     OW21298   0.066   1.792   1.174
 6800SOL    HW121299   0.044   1.881   1.212
 6800SOL    HW221300   0.008   1.722   1.216
 6801SOL     OW21301   0.804   5.719   5.831
 6801SOL    HW121302   0.715   5.693   5.868
 6801SOL    HW221303   0.825   5.662   5.751
 6802SOL     OW21304   3.313   5.153   1.462
 6802SOL    HW121305   3.284   5.179   1.555
 6802SOL    HW221306   3.242   5.096   1.420
 6803SOL     OW21307   4.947   4.472   5.797
 6803SOL    HW121308   5.015   4.539   5.768
 6803SOL    HW221309   4.931   4.407   5.724
 6804SOL     OW21310   3.294   4.914   3.023
 6804SOL    HW121311   3.265   4.846   3.091
 6804SOL    HW221312   3.245   4.900   2.938
 6805SOL     OW21313   6.862   4.255   5.553
 6805SOL    HW121314   6.878   4.325   5.623
 6805SOL    HW221315   6.887   4.291   5.463
 6806SOL     OW21316   6.582   1.249   2.956
 6806SOL    HW121317   6.679   1.235   2.941
 6806SOL    HW221318   6.531   1.226   2.873
 6807SOL     OW21319   3.747   3.650   1.612
 6807SOL    HW121320   3.648   3.643   1.616
 6807SOL    HW221321   3.788   3.591   1.683
 6808SOL     OW21322   3.762   1.117   4.558
 6808SOL    HW121323   3.800   1.050   4.493
 6808SOL    HW221324   3.707   1.184   4.508
 6809SOL     OW21325   5.527   3.598   2.305
 6809SOL    HW121326   5.482   3.518   2.265
 6809SOL    HW221327   5.590   3.637   2.238
 6810SOL     OW21328   2.595   1.053   4.285
 6810SOL    HW121329   2.502   1.025   4.262
 6810SOL    HW221330   2.656   0.974   4.282
 6811SOL     OW21331   6.705   1.591   1.742
 6811SOL    HW121332   6.632   1.605   1.809
 6811SOL    HW221333   6.783   1.650   1.766
 6812SOL     OW21334   2.979   4.193   5.306
 6812SOL    HW121335   2.983   4.291   5.284
 6812SOL    HW221336   2.992   4.182   5.405
 6813SOL     OW21337   5.883   3.935   2.049
 6813SOL    HW121338   5.790   3.970   2.059
 6813SOL    HW221339   5.934   3.953   2.133
 6814SOL     OW21340   4.966   1.304   6.559
 6814SOL    HW121341   4.958   1.210   6.592
 6814SOL    HW221342   4.968   1.366   6.638
 6815SOL     OW21343   2.219   4.744   6.305
 6815SOL    HW121344   2.168   4.675   6.355
 6815SOL    HW221345   2.305   4.705   6.271
 6816SOL     OW21346   0.584   1.553   3.359
 6816SOL    HW121347   0.650   1.607   3.412
 6816SOL    HW221348   0.501   1.539   3.413
 6817SOL     OW21349   3.562   2.062   2.137
 6817SOL    HW121350   3.619   2.021   2.208
 6817SOL    HW221351   3.615   2.130   2.086
 6818SOL     OW21352   1.771   6.515   5.840
 6818SOL    HW121353   1.725   6.560   5.916
 6818SOL    HW221354   1.705   6.463   5.786
 6819SOL     OW21355   4.422   4.543   2.091
 6819SOL    HW121356   4.452   4.614   2.027
 6819SOL    HW221357   4.465   4.456   2.066
 6820SOL     OW21358   3.066   5.849   1.198
 6820SOL    HW121359   2.980   5.883   1.237
 6820SOL    HW221360   3.139   5.914   1.217
 6821SOL     OW21361   4.267   2.718   5.677
 6821SOL    HW121362   4.187   2.699   5.620
 6821SOL    HW221363   4.240   2.768   5.758
 6822SOL     OW21364   0.115   2.693   6.152
 6822SOL    HW121365   0.033   2.660   6.105
 6822SOL    HW221366   0.160   2.615   6.197
 6823SOL     OW21367   5.942   3.573   6.743
 6823SOL    HW121368   6.040   3.577   6.765
 6823SOL    HW221369   5.925   3.495   6.683
 6824SOL     OW21370   0.555   2.797   6.221
 6824SOL    HW121371   0.556   2.791   6.321
 6824SOL    HW221372   0.564   2.706   6.182
 6825SOL     OW21373   6.088   5.764   1.902
 6825SOL    HW121374   6.181   5.726   1.906
 6825SOL    HW221375   6.023   5.691   1.882
 6826SOL     OW21376   0.329   3.614   3.361
 6826SOL    HW121377   0.254   3.581   3.304
 6826SOL    HW221378   0.362   3.540   3.419
 6827SOL     OW21379   4.855   5.734   5.032
 6827SOL    HW121380   4.844   5.810   5.096
 6827SOL    HW221381   4.863   5.649   5.082
 6828SOL     OW21382   3.206   1.582   2.267
 6828SOL    HW121383   3.239   1.488   2.266
 6828SOL    HW221384   3.241   1.631   2.187
 6829SOL     OW21385   4.831   6.840   4.490
 6829SOL    HW121386   4.871   6.777   4.556
 6829SOL    HW221387   4.736   6.860   4.516
 6830SOL     OW21388   5.232   7.011   3.264
 6830SOL    HW121389   5.135   7.006   3.237
 6830SOL    HW221390   5.276   0.065   3.214
 6831SOL     OW21391   1.249   1.585   6.447
 6831SOL    HW121392   1.206   1.655   6.391
 6831SOL    HW221393   1.221   1.597   6.543
 6832SOL     OW21394   2.964   2.353   0.323
 6832SOL    HW121395   2.943   2.406   0.240
 6832SOL    HW221396   2.979   2.416   0.399
 6833SOL     OW21397   2.843   5.166   5.884
 6833SOL    HW121398   2.748   5.195   5.877
 6833SOL    HW221399   2.851   5.071   5.854
 6834SOL     OW21400   5.471   0.591   0.786
 6834SOL    HW121401   5.442   0.495   0.791
 6834SOL    HW221402   5.428   0.642   0.860
 6835SOL     OW21403   2.644   1.939   4.415
 6835SOL    HW121404   2.683   2.016   4.364
 6835SOL    HW221405   2.553   1.964   4.448
 6836SOL     OW21406   2.083   4.766   6.081
 6836SOL    HW121407   2.130   4.794   6.165
 6836SOL    HW221408   1.984   4.772   6.095
 6837SOL     OW21409   0.449   0.267   1.858
 6837SOL    HW121410   0.417   0.187   1.910
 6837SOL    HW221411   0.417   0.260   1.764
 6838SOL     OW21412   2.711   4.374   5.320
 6838SOL    HW121413   2.759   4.299   5.274
 6838SOL    HW221414   2.746   4.462   5.287
 6839SOL     OW21415   5.772   2.728   3.923
 6839SOL    HW121416   5.687   2.733   3.870
 6839SOL    HW221417   5.787   2.634   3.954
 6840SOL     OW21418   2.818   6.769   5.184
 6840SOL    HW121419   2.754   6.701   5.219
 6840SOL    HW221420   2.892   6.723   5.134
 6841SOL     OW21421   4.155   5.600   1.456
 6841SOL    HW121422   4.135   5.697   1.476
 6841SOL    HW221423   4.114   5.575   1.368
 6842SOL     OW21424   0.438   4.080   6.851
 6842SOL    HW121425   0.350   4.112   6.887
 6842SOL    HW221426   0.439   4.092   6.752
 6843SOL     OW21427   3.238   1.796   2.096
 6843SOL    HW121428   3.272   1.863   2.162
 6843SOL    HW221429   3.289   1.805   2.010
 6844SOL     OW21430   4.915   5.102   4.115
 6844SOL    HW121431   4.913   5.049   4.030
 6844SOL    HW221432   4.991   5.166   4.113
 6845SOL     OW21433   4.746   4.755   1.907
 6845SOL    HW121434   4.650   4.744   1.933
 6845SOL    HW221435   4.767   4.852   1.895
 6846SOL     OW21436   3.636   2.944   2.428
 6846SOL    HW121437   3.636   3.043   2.412
 6846SOL    HW221438   3.693   2.899   2.359
 6847SOL     OW21439   5.565   3.250   1.855
 6847SOL    HW121440   5.564   3.347   1.876
 6847SOL    HW221441   5.506   3.201   1.921
 6848SOL     OW21442   0.922   5.891   3.612
 6848SOL    HW121443   0.870   5.869   3.530
 6848SOL    HW221444   0.972   5.810   3.642
 6849SOL     OW21445   3.923   5.993   4.009
 6849SOL    HW121446   3.998   5.983   3.944
 6849SOL    HW221447   3.891   6.087   4.009
 6850SOL     OW21448   5.313   3.014   2.872
 6850SOL    HW121449   5.275   2.946   2.935
 6850SOL    HW221450   5.298   2.984   2.778
 6851SOL     OW21451   1.605   5.015   5.534
 6851SOL    HW121452   1.567   5.020   5.627
 6851SOL    HW221453   1.605   4.920   5.504
 6852SOL     OW21454   1.668   4.649   1.861
 6852SOL    HW121455   1.685   4.604   1.774
 6852SOL    HW221456   1.570   4.649   1.880
 6853SOL     OW21457   0.551   4.475   5.678
 6853SOL    HW121458   0.550   4.396   5.617
 6853SOL    HW221459   0.518   4.556   5.628
 6854SOL     OW21460   6.996   2.804   6.354
 6854SOL    HW121461   6.898   2.812   6.338
 6854SOL    HW221462   0.021   2.772   6.270
 6855SOL     OW21463   3.001   6.782   2.276
 6855SOL    HW121464   2.974   6.879   2.276
 6855SOL    HW221465   2.921   6.725   2.257
 6856SOL     OW21466   6.348   3.557   4.930
 6856SOL    HW121467   6.285   3.585   5.002
 6856SOL    HW221468   6.323   3.602   4.844
 6857SOL     OW21469   2.738   2.192   6.509
 6857SOL    HW121470   2.775   2.144   6.588
 6857SOL    HW221471   2.716   2.126   6.437
 6858SOL     OW21472   3.737   3.262   4.919
 6858SOL    HW121473   3.828   3.222   4.928
 6858SOL    HW221474   3.674   3.194   4.882
 6859SOL     OW21475   3.039   6.990   0.815
 6859SOL    HW121476   3.096   6.986   0.733
 6859SOL    HW221477   3.034   6.899   0.857
 6860SOL     OW21478   5.791   4.620   0.818
 6860SOL    HW121479   5.772   4.619   0.916
 6860SOL    HW221480   5.868   4.560   0.798
 6861SOL     OW21481   5.643   5.535   6.989
 6861SOL    HW121482   5.685   5.456   0.013
 6861SOL    HW221483   5.711   5.583   6.933
 6862SOL     OW21484   3.397   5.512   4.820
 6862SOL    HW121485   3.392   5.483   4.916
 6862SOL    HW221486   3.319   5.474   4.770
 6863SOL     OW21487   5.758   1.729   4.164
 6863SOL    HW121488   5.713   1.714   4.076
 6863SOL    HW221489   5.848   1.771   4.149
 6864SOL     OW21490   2.778   6.218   3.864
 6864SOL    HW121491   2.803   6.297   3.919
 6864SOL    HW221492   2.860   6.177   3.824
 6865SOL     OW21493   6.875   4.319   4.347
 6865SOL    HW121494   6.953   4.353   4.296
 6865SOL    HW221495   6.796   4.311   4.286
 6866SOL     OW21496   6.484   3.784   2.023
 6866SOL    HW121497   6.536   3.834   1.953
 6866SOL    HW221498   6.479   3.687   1.999
 6867SOL     OW21499   2.173   4.218   2.316
 6867SOL    HW121500   2.081   4.190   2.288
 6867SOL    HW221501   2.231   4.227   2.236
 6868SOL     OW21502   2.171   6.193   4.914
 6868SOL    HW121503   2.253   6.250   4.919
 6868SOL    HW221504   2.133   6.196   4.822
 6869SOL     OW21505   5.231   1.857   5.853
 6869SOL    HW121506   5.280   1.793   5.914
 6869SOL    HW221507   5.133   1.848   5.868
 6870SOL     OW21508   5.470   3.974   3.242
 6870SOL    HW121509   5.535   3.946   3.171
 6870SOL    HW221510   5.510   3.957   3.332
 6871SOL     OW21511   5.555   5.645   1.241
 6871SOL    HW121512   5.562   5.547   1.263
 6871SOL    HW221513   5.464   5.678   1.266
 6872SOL     OW21514   2.153   3.121   0.397
 6872SOL    HW121515   2.061   3.157   0.411
 6872SOL    HW221516   2.209   3.189   0.352
 6873SOL     OW21517   6.120   3.275   6.156
 6873SOL    HW121518   6.190   3.298   6.224
 6873SOL    HW221519   6.164   3.238   6.074
 6874SOL     OW21520   0.337   2.810   3.911
 6874SOL    HW121521   0.344   2.729   3.853
 6874SOL    HW221522   0.347   2.892   3.854
 6875SOL     OW21523   1.636   1.230   2.719
 6875SOL    HW121524   1.565   1.197   2.781
 6875SOL    HW221525   1.633   1.176   2.635
 6876SOL     OW21526   3.515   5.684   0.145
 6876SOL    HW121527   3.557   5.756   0.090
 6876SOL    HW221528   3.577   5.657   0.218
 6877SOL     OW21529   2.228   3.602   0.346
 6877SOL    HW121530   2.139   3.645   0.363
 6877SOL    HW221531   2.300   3.652   0.394
 6878SOL     OW21532   1.994   1.682   4.598
 6878SOL    HW121533   1.958   1.684   4.692
 6878SOL    HW221534   1.931   1.630   4.541
 6879SOL     OW21535   0.739   2.170   0.156
 6879SOL    HW121536   0.809   2.105   0.126
 6879SOL    HW221537   0.749   2.255   0.104
 6880SOL     OW21538   1.917   4.341   4.930
 6880SOL    HW121539   2.010   4.306   4.919
 6880SOL    HW221540   1.851   4.272   4.898
 6881SOL     OW21541   0.692   4.550   1.332
 6881SOL    HW121542   0.673   4.485   1.406
 6881SOL    HW221543   0.640   4.525   1.251
 6882SOL     OW21544   2.075   0.831   5.465
 6882SOL    HW121545   2.004   0.871   5.406
 6882SOL    HW221546   2.163   0.834   5.417
 6883SOL     OW21547   4.214   0.629   1.372
 6883SOL    HW121548   4.293   0.690   1.378
 6883SOL    HW221549   4.130   0.684   1.368
 6884SOL     OW21550   2.315   4.631   4.651
 6884SOL    HW121551   2.397   4.681   4.679
 6884SOL    HW221552   2.234   4.674   4.691
 6885SOL     OW21553   3.329   6.021   4.028
 6885SOL    HW121554   3.274   5.946   4.063
 6885SOL    HW221555   3.340   6.011   3.929
 6886SOL     OW21556   5.179   1.113   2.470
 6886SOL    HW121557   5.146   1.188   2.412
 6886SOL    HW221558   5.110   1.040   2.472
 6887SOL     OW21559   5.649   0.615   4.733
 6887SOL    HW121560   5.670   0.603   4.636
 6887SOL    HW221561   5.713   0.681   4.773
 6888SOL     OW21562   6.293   0.182   4.940
 6888SOL    HW121563   6.224   0.219   5.002
 6888SOL    HW221564   6.306   0.084   4.958
 6889SOL     OW21565   1.643   3.982   6.234
 6889SOL    HW121566   1.604   3.986   6.326
 6889SOL    HW221567   1.665   4.075   6.204
 6890SOL     OW21568   2.341   6.686   1.063
 6890SOL    HW121569   2.311   6.594   1.087
 6890SOL    HW221570   2.435   6.700   1.094
 6891SOL     OW21571   2.138   3.567   4.058
 6891SOL    HW121572   2.119   3.658   4.022
 6891SOL    HW221573   2.204   3.574   4.132
 6892SOL     OW21574   3.802   0.320   4.040
 6892SOL    HW121575   3.792   0.280   3.949
 6892SOL    HW221576   3.714   0.354   4.071
 6893SOL     OW21577   5.328   5.922   3.382
 6893SOL    HW121578   5.232   5.939   3.406
 6893SOL    HW221579   5.378   5.893   3.463
 6894SOL     OW21580   5.840   5.648   0.358
 6894SOL    HW121581   5.765   5.607   0.307
 6894SOL    HW221582   5.808   5.674   0.449
 6895SOL     OW21583   2.980   3.680   0.262
 6895SOL    HW121584   2.881   3.666   0.258
 6895SOL    HW221585   3.025   3.626   0.191
 6896SOL     OW21586   3.789   0.500   3.421
 6896SOL    HW121587   3.870   0.530   3.472
 6896SOL    HW221588   3.796   0.531   3.326
 6897SOL     OW21589   3.138   3.529   0.127
 6897SOL    HW121590   3.182   3.455   0.179
 6897SOL    HW221591   3.150   3.513   0.029
 6898SOL     OW21592   4.004   1.458   1.583
 6898SOL    HW121593   4.003   1.445   1.484
 6898SOL    HW221594   3.988   1.371   1.629
 6899SOL     OW21595   4.783   6.688   5.896
 6899SOL    HW121596   4.771   6.759   5.965
 6899SOL    HW221597   4.762   6.726   5.806
 6900SOL     OW21598   5.561   0.436   6.129
 6900SOL    HW121599   5.477   0.424   6.182
 6900SOL    HW221600   5.609   0.348   6.122
 6901SOL     OW21601   1.884   0.587   6.199
 6901SOL    HW121602   1.847   0.570   6.291
 6901SOL    HW221603   1.864   0.681   6.172
 6902SOL     OW21604   0.761   6.449   6.898
 6902SOL    HW121605   0.757   6.503   6.983
 6902SOL    HW221606   0.847   6.466   6.851
 6903SOL     OW21607   3.859   4.545   0.559
 6903SOL    HW121608   3.798   4.484   0.509
 6903SOL    HW221609   3.906   4.494   0.631
 6904SOL     OW21610   6.037   0.556   4.036
 6904SOL    HW121611   5.973   0.633   4.033
 6904SOL    HW221612   6.047   0.517   3.944
 6905SOL     OW21613   5.838   6.381   0.640
 6905SOL    HW121614   5.786   6.365   0.556
 6905SOL    HW221615   5.929   6.414   0.617
 6906SOL     OW21616   3.626   0.609   3.639
 6906SOL    HW121617   3.669   0.691   3.676
 6906SOL    HW221618   3.690   0.561   3.579
 6907SOL     OW21619   3.633   0.820   1.529
 6907SOL    HW121620   3.571   0.746   1.503
 6907SOL    HW221621   3.659   0.810   1.625
 6908SOL     OW21622   1.253   6.437   5.387
 6908SOL    HW121623   1.184   6.364   5.383
 6908SOL    HW221624   1.264   6.468   5.481
 6909SOL     OW21625   5.151   4.517   0.886
 6909SOL    HW121626   5.054   4.515   0.862
 6909SOL    HW221627   5.205   4.492   0.807
 6910SOL     OW21628   6.369   1.781   1.746
 6910SOL    HW121629   6.361   1.686   1.773
 6910SOL    HW221630   6.441   1.826   1.798
 6911SOL     OW21631   4.207   0.046   4.348
 6911SOL    HW121632   4.210   0.146   4.350
 6911SOL    HW221633   4.218   0.010   4.441
 6912SOL     OW21634   4.981   4.905   0.737
 6912SOL    HW121635   5.081   4.895   0.739
 6912SOL    HW221636   4.957   4.998   0.710
 6913SOL     OW21637   4.964   4.739   4.552
 6913SOL    HW121638   4.928   4.752   4.644
 6913SOL    HW221639   4.889   4.721   4.489
 6914SOL     OW21640   6.008   5.192   0.065
 6914SOL    HW121641   6.087   5.144   0.027
 6914SOL    HW221642   5.958   5.237   7.011
 6915SOL     OW21643   0.409   4.592   2.831
 6915SOL    HW121644   0.392   4.644   2.915
 6915SOL    HW221645   0.366   4.502   2.838
 6916SOL     OW21646   6.168   3.980   6.715
 6916SOL    HW121647   6.158   3.942   6.807
 6916SOL    HW221648   6.155   3.907   6.648
 6917SOL     OW21649   4.393   6.368   6.118
 6917SOL    HW121650   4.474   6.374   6.060
 6917SOL    HW221651   4.374   6.272   6.138
 6918SOL     OW21652   0.293   3.973   4.033
 6918SOL    HW121653   0.337   3.892   3.996
 6918SOL    HW221654   0.253   4.027   3.959
 6919SOL     OW21655   2.371   6.509   2.575
 6919SOL    HW121656   2.380   6.594   2.626
 6919SOL    HW221657   2.449   6.449   2.596
 6920SOL     OW21658   5.477   5.365   4.536
 6920SOL    HW121659   5.536   5.295   4.578
 6920SOL    HW221660   5.382   5.333   4.536
 6921SOL     OW21661   6.326   6.635   3.692
 6921SOL    HW121662   6.386   6.562   3.663
 6921SOL    HW221663   6.374   6.693   3.758
 6922SOL     OW21664   2.704   6.126   0.672
 6922SOL    HW121665   2.753   6.210   0.649
 6922SOL    HW221666   2.769   6.055   0.698
 6923SOL     OW21667   4.476   0.197   4.029
 6923SOL    HW121668   4.477   0.246   4.117
 6923SOL    HW221669   4.527   0.250   3.961
 6924SOL     OW21670   0.594   5.011   0.677
 6924SOL    HW121671   0.643   4.925   0.662
 6924SOL    HW221672   0.634   5.083   0.620
 6925SOL     OW21673   4.140   6.621   3.288
 6925SOL    HW121674   4.073   6.621   3.214
 6925SOL    HW221675   4.221   6.673   3.259
 6926SOL     OW21676   3.639   4.019   3.903
 6926SOL    HW121677   3.685   3.931   3.904
 6926SOL    HW221678   3.666   4.071   3.822
 6927SOL     OW21679   5.237   3.598   6.654
 6927SOL    HW121680   5.153   3.601   6.708
 6927SOL    HW221681   5.285   3.513   6.672
 6928SOL     OW21682   4.854   0.515   6.482
 6928SOL    HW121683   4.921   0.584   6.453
 6928SOL    HW221684   4.865   0.498   6.580
 6929SOL     OW21685   3.845   6.016   0.039
 6929SOL    HW121686   3.887   6.061   6.981
 6929SOL    HW221687   3.756   6.058   0.058
 6930SOL     OW21688   0.891   6.703   1.820
 6930SOL    HW121689   0.915   6.607   1.802
 6930SOL    HW221690   0.922   6.728   1.911
 6931SOL     OW21691   1.015   6.933   1.695
 6931SOL    HW121692   0.974   6.858   1.747
 6931SOL    HW221693   1.052   6.898   1.609
 6932SOL     OW21694   2.756   1.107   6.959
 6932SOL    HW121695   2.815   1.049   6.904
 6932SOL    HW221696   2.780   1.203   6.944
 6933SOL     OW21697   4.104   5.708   5.817
 6933SOL    HW121698   4.034   5.682   5.884
 6933SOL    HW221699   4.067   5.697   5.725
 6934SOL     OW21700   5.062   2.926   0.352
 6934SOL    HW121701   5.040   3.024   0.355
 6934SOL    HW221702   4.979   2.873   0.337
 6935SOL     OW21703   4.260   6.310   3.743
 6935SOL    HW121704   4.270   6.392   3.686
 6935SOL    HW221705   4.343   6.254   3.735
 6936SOL     OW21706   0.694   2.871   1.482
 6936SOL    HW121707   0.741   2.832   1.403
 6936SOL    HW221708   0.761   2.891   1.554
 6937SOL     OW21709   4.247   6.542   5.742
 6937SOL    HW121710   4.329   6.592   5.770
 6937SOL    HW221711   4.177   6.550   5.813
 6938SOL     OW21712   4.830   3.254   5.373
 6938SOL    HW121713   4.869   3.162   5.364
 6938SOL    HW221714   4.902   3.317   5.400
 6939SOL     OW21715   0.119   4.297   1.967
 6939SOL    HW121716   0.219   4.294   1.971
 6939SOL    HW221717   0.082   4.285   2.059
 6940SOL     OW21718   4.715   0.282   6.126
 6940SOL    HW121719   4.749   0.284   6.032
 6940SOL    HW221720   4.678   0.372   6.150
 6941SOL     OW21721   3.418   2.952   2.919
 6941SOL    HW121722   3.445   2.907   3.005
 6941SOL    HW221723   3.476   2.918   2.845
 6942SOL     OW21724   6.642   3.228   0.630
 6942SOL    HW121725   6.725   3.266   0.589
 6942SOL    HW221726   6.667   3.165   0.704
 6943SOL     OW21727   5.241   6.487   6.383
 6943SOL    HW121728   5.311   6.416   6.376
 6943SOL    HW221729   5.161   6.450   6.430
 6944SOL     OW21730   1.089   5.311   6.190
 6944SOL    HW121731   1.020   5.352   6.130
 6944SOL    HW221732   1.055   5.311   6.284
 6945SOL     OW21733   6.356   3.001   6.244
 6945SOL    HW121734   6.350   3.086   6.296
 6945SOL    HW221735   6.396   2.930   6.302
 6946SOL     OW21736   5.735   4.196   2.864
 6946SOL    HW121737   5.668   4.269   2.880
 6946SOL    HW221738   5.688   4.110   2.848
 6947SOL     OW21739   3.576   6.807   2.635
 6947SOL    HW121740   3.592   6.830   2.539
 6947SOL    HW221741   3.663   6.790   2.680
 6948SOL     OW21742   4.827   0.346   0.361
 6948SOL    HW121743   4.904   0.316   0.304
 6948SOL    HW221744   4.745   0.297   0.334
 6949SOL     OW21745   5.348   6.756   3.274
 6949SOL    HW121746   5.386   6.764   3.182
 6949SOL    HW221747   5.298   6.840   3.298
 6950SOL     OW21748   2.279   0.758   2.958
 6950SOL    HW121749   2.202   0.769   2.895
 6950SOL    HW221750   2.331   0.676   2.933
 6951SOL     OW21751   6.415   6.169   5.637
 6951SOL    HW121752   6.330   6.153   5.686
 6951SOL    HW221753   6.491   6.124   5.685
 6952SOL     OW21754   0.558   5.565   3.959
 6952SOL    HW121755   0.634   5.538   4.019
 6952SOL    HW221756   0.586   5.645   3.905
 6953SOL     OW21757   4.852   1.009   6.238
 6953SOL    HW121758   4.951   0.992   6.240
 6953SOL    HW221759   4.832   1.082   6.173
 6954SOL     OW21760   6.918   2.887   4.280
 6954SOL    HW121761   7.013   2.910   4.260
 6954SOL    HW221762   6.908   2.787   4.285
 6955SOL     OW21763   0.296   6.073   1.182
 6955SOL    HW121764   0.391   6.041   1.178
 6955SOL    HW221765   0.265   6.071   1.277
 6956SOL     OW21766   4.665   5.553   1.919
 6956SOL    HW121767   4.596   5.584   1.985
 6956SOL    HW221768   4.693   5.460   1.942
 6957SOL     OW21769   6.759   4.689   1.704
 6957SOL    HW121770   6.668   4.710   1.740
 6957SOL    HW221771   6.823   4.678   1.780
 6958SOL     OW21772   2.179   2.635   6.256
 6958SOL    HW121773   2.263   2.606   6.302
 6958SOL    HW221774   2.173   2.735   6.258
 6959SOL     OW21775   3.625   1.575   5.088
 6959SOL    HW121776   3.652   1.557   5.182
 6959SOL    HW221777   3.527   1.556   5.077
 6960SOL     OW21778   0.108   5.044   0.281
 6960SOL    HW121779   0.091   4.973   0.349
 6960SOL    HW221780   0.103   5.004   0.189
 6961SOL     OW21781   0.965   1.964   3.375
 6961SOL    HW121782   0.962   1.896   3.302
 6961SOL    HW221783   1.037   2.030   3.355
 6962SOL     OW21784   4.973   5.247   2.346
 6962SOL    HW121785   5.065   5.258   2.311
 6962SOL    HW221786   4.964   5.295   2.433
 6963SOL     OW21787   0.533   5.017   1.731
 6963SOL    HW121788   0.567   4.945   1.671
 6963SOL    HW221789   0.487   5.087   1.676
 6964SOL     OW21790   4.565   5.386   5.546
 6964SOL    HW121791   4.644   5.431   5.505
 6964SOL    HW221792   4.526   5.321   5.481
 6965SOL     OW21793   6.631   3.527   6.290
 6965SOL    HW121794   6.608   3.487   6.378
 6965SOL    HW221795   6.587   3.475   6.217
 6966SOL     OW21796   5.020   2.723   2.855
 6966SOL    HW121797   5.036   2.713   2.757
 6966SOL    HW221798   4.957   2.799   2.871
 6967SOL     OW21799   1.032   2.458   6.268
 6967SOL    HW121800   1.074   2.369   6.249
 6967SOL    HW221801   1.050   2.521   6.193
 6968SOL     OW21802   4.491   5.431   1.060
 6968SOL    HW121803   4.491   5.418   1.159
 6968SOL    HW221804   4.578   5.401   1.022
 6969SOL     OW21805   3.530   1.228   1.299
 6969SOL    HW121806   3.617   1.271   1.274
 6969SOL    HW221807   3.529   1.211   1.398
 6970SOL     OW21808   3.734   4.797   0.556
 6970SOL    HW121809   3.783   4.710   0.563
 6970SOL    HW221810   3.699   4.808   0.463
 6971SOL     OW21811   6.160   2.629   1.671
 6971SOL    HW121812   6.224   2.659   1.741
 6971SOL    HW221813   6.198   2.550   1.622
 6972SOL     OW21814   5.413   4.498   3.734
 6972SOL    HW121815   5.321   4.491   3.773
 6972SOL    HW221816   5.477   4.446   3.791
 6973SOL     OW21817   1.747   5.201   4.587
 6973SOL    HW121818   1.840   5.195   4.623
 6973SOL    HW221819   1.745   5.268   4.513
 6974SOL     OW21820   3.735   4.091   3.667
 6974SOL    HW121821   3.834   4.081   3.654
 6974SOL    HW221822   3.687   4.046   3.591
 6975SOL     OW21823   3.382   0.528   5.984
 6975SOL    HW121824   3.342   0.508   5.894
 6975SOL    HW221825   3.438   0.450   6.013
 6976SOL     OW21826   2.831   4.465   6.512
 6976SOL    HW121827   2.748   4.520   6.522
 6976SOL    HW221828   2.810   4.382   6.460
 6977SOL     OW21829   3.928   1.524   2.364
 6977SOL    HW121830   3.985   1.538   2.445
 6977SOL    HW221831   3.868   1.603   2.351
 6978SOL     OW21832   6.851   0.794   1.925
 6978SOL    HW121833   6.764   0.777   1.972
 6978SOL    HW221834   6.900   0.707   1.915
 6979SOL     OW21835   1.299   4.783   2.405
 6979SOL    HW121836   1.354   4.809   2.485
 6979SOL    HW221837   1.312   4.850   2.332
 6980SOL     OW21838   2.310   1.089   3.317
 6980SOL    HW121839   2.364   1.048   3.391
 6980SOL    HW221840   2.372   1.116   3.243
 6981SOL     OW21841   2.591   4.023   0.173
 6981SOL    HW121842   2.606   4.111   0.129
 6981SOL    HW221843   2.583   4.036   0.272
 6982SOL     OW21844   1.044   0.847   4.223
 6982SOL    HW121845   1.103   0.875   4.300
 6982SOL    HW221846   1.101   0.819   4.146
 6983SOL     OW21847   6.963   0.376   4.434
 6983SOL    HW121848   0.033   0.374   4.479
 6983SOL    HW221849   6.927   0.283   4.429
 6984SOL     OW21850   1.807   1.631   5.088
 6984SOL    HW121851   1.711   1.609   5.076
 6984SOL    HW221852   1.820   1.679   5.175
 6985SOL     OW21853   3.973   5.844   2.082
 6985SOL    HW121854   4.004   5.852   2.177
 6985SOL    HW221855   3.874   5.853   2.078
 6986SOL     OW21856   1.777   6.225   5.608
 6986SOL    HW121857   1.727   6.206   5.692
 6986SOL    HW221858   1.770   6.322   5.586
 6987SOL     OW21859   0.234   2.893   6.042
 6987SOL    HW121860   0.211   2.812   6.096
 6987SOL    HW221861   0.331   2.915   6.055
 6988SOL     OW21862   5.159   1.262   4.460
 6988SOL    HW121863   5.225   1.296   4.526
 6988SOL    HW221864   5.099   1.336   4.431
 6989SOL     OW21865   1.123   1.248   3.343
 6989SOL    HW121866   1.132   1.215   3.250
 6989SOL    HW221867   1.182   1.194   3.404
 6990SOL     OW21868   4.881   2.664   0.382
 6990SOL    HW121869   4.834   2.639   0.466
 6990SOL    HW221870   4.903   2.581   0.330
 6991SOL     OW21871   2.389   4.367   5.254
 6991SOL    HW121872   2.311   4.360   5.191
 6991SOL    HW221873   2.410   4.276   5.291
 6992SOL     OW21874   6.217   6.501   4.867
 6992SOL    HW121875   6.167   6.516   4.782
 6992SOL    HW221876   6.299   6.447   4.848
 6993SOL     OW21877   6.488   7.003   3.274
 6993SOL    HW121878   6.412   6.970   3.330
 6993SOL    HW221879   6.568   6.946   3.290
 6994SOL     OW21880   1.433   3.284   5.705
 6994SOL    HW121881   1.417   3.185   5.712
 6994SOL    HW221882   1.475   3.317   5.789
 6995SOL     OW21883   5.728   5.656   4.803
 6995SOL    HW121884   5.740   5.580   4.739
 6995SOL    HW221885   5.651   5.713   4.772
 6996SOL     OW21886   2.661   0.956   5.277
 6996SOL    HW121887   2.673   1.037   5.220
 6996SOL    HW221888   2.586   0.971   5.341
 6997SOL     OW21889   5.002   6.044   4.826
 6997SOL    HW121890   5.039   6.065   4.916
 6997SOL    HW221891   4.975   6.128   4.780
 6998SOL     OW21892   1.543   2.754   1.623
 6998SOL    HW121893   1.532   2.852   1.636
 6998SOL    HW221894   1.456   2.714   1.593
 6999SOL     OW21895   1.922   1.990   6.015
 6999SOL    HW121896   1.907   2.073   6.068
 6999SOL    HW221897   1.869   1.996   5.930
 7000SOL     OW21898   0.599   5.778   2.537
 7000SOL    HW121899   0.551   5.739   2.458
 7000SOL    HW221900   0.570   5.732   2.620
 7001SOL     OW21901   2.510   2.473   5.687
 7001SOL    HW121902   2.468   2.454   5.776
 7001SOL    HW221903   2.527   2.571   5.679
 7002SOL     OW21904   2.616   4.871   3.947
 7002SOL    HW121905   2.583   4.915   4.030
 7002SOL    HW221906   2.667   4.789   3.971
 7003SOL     OW21907   2.699   0.001   0.209
 7003SOL    HW121908   2.680   0.025   0.304
 7003SOL    HW221909   2.683   6.923   0.196
 7004SOL     OW21910   1.981   4.115   1.766
 7004SOL    HW121911   2.069   4.116   1.814
 7004SOL    HW221912   1.945   4.208   1.761
 7005SOL     OW21913   6.360   6.137   6.039
 7005SOL    HW121914   6.302   6.123   5.959
 7005SOL    HW221915   6.423   6.060   6.049
 7006SOL     OW21916   4.799   3.975   4.742
 7006SOL    HW121917   4.728   3.909   4.763
 7006SOL    HW221918   4.762   4.048   4.685
 7007SOL     OW21919   4.971   6.438   2.986
 7007SOL    HW121920   5.014   6.512   2.936
 7007SOL    HW221921   4.877   6.463   3.010
 7008SOL     OW21922   2.065   5.314   4.564
 7008SOL    HW121923   2.083   5.226   4.607
 7008SOL    HW221924   2.044   5.382   4.635
 7009SOL     OW21925   6.255   5.758   2.510
 7009SOL    HW121926   6.298   5.826   2.450
 7009SOL    HW221927   6.326   5.702   2.552
 7010SOL     OW21928   3.188   4.566   6.192
 7010SOL    HW121929   3.178   4.632   6.266
 7010SOL    HW221930   3.185   4.473   6.230
 7011SOL     OW21931   2.134   6.780   5.343
 7011SOL    HW121932   2.199   6.745   5.275
 7011SOL    HW221933   2.056   6.821   5.296
 7012SOL     OW21934   0.927   6.841   2.057
 7012SOL    HW121935   1.022   6.875   2.059
 7012SOL    HW221936   0.897   6.823   2.151
 7013SOL     OW21937   1.122   6.775   1.495
 7013SOL    HW121938   1.183   6.815   1.427
 7013SOL    HW221939   1.103   6.680   1.471
 7014SOL     OW21940   3.539   4.539   0.928
 7014SOL    HW121941   3.577   4.618   0.880
 7014SOL    HW221942   3.451   4.563   0.967
 7015SOL     OW21943   5.278   3.280   2.504
 7015SOL    HW121944   5.309   3.186   2.513
 7015SOL    HW221945   5.355   3.342   2.515
 7016SOL     OW21946   4.553   5.144   2.071
 7016SOL    HW121947   4.478   5.174   2.130
 7016SOL    HW221948   4.517   5.125   1.980
 7017SOL     OW21949   2.970   1.563   3.273
 7017SOL    HW121950   3.048   1.596   3.327
 7017SOL    HW221951   3.003   1.504   3.200
 7018SOL     OW21952   0.166   4.252   4.850
 7018SOL    HW121953   0.095   4.182   4.842
 7018SOL    HW221954   0.175   4.300   4.763
 7019SOL     OW21955   2.390   4.484   6.824
 7019SOL    HW121956   2.340   4.412   6.776
 7019SOL    HW221957   2.343   4.506   6.909
 7020SOL     OW21958   6.120   0.050   0.168
 7020SOL    HW121959   6.084   0.108   0.095
 7020SOL    HW221960   6.192   0.100   0.217
 7021SOL     OW21961   2.792   1.392   4.619
 7021SOL    HW121962   2.793   1.443   4.533
 7021SOL    HW221963   2.704   1.404   4.665
 7022SOL     OW21964   5.266   3.295   0.975
 7022SOL    HW121965   5.206   3.340   0.909
 7022SOL    HW221966   5.353   3.343   0.979
 7023SOL     OW21967   5.934   2.543   2.775
 7023SOL    HW121968   5.991   2.537   2.692
 7023SOL    HW221969   5.904   2.451   2.801
 7024SOL     OW21970   1.785   6.122   6.619
 7024SOL    HW121971   1.793   6.040   6.561
 7024SOL    HW221972   1.862   6.124   6.683
 7025SOL     OW21973   2.829   1.993   6.719
 7025SOL    HW121974   2.894   1.949   6.658
 7025SOL    HW221975   2.736   1.964   6.696
 7026SOL     OW21976   3.245   1.273   2.203
 7026SOL    HW121977   3.152   1.263   2.167
 7026SOL    HW221978   3.246   1.249   2.300
 7027SOL     OW21979   4.051   5.342   3.605
 7027SOL    HW121980   4.029   5.333   3.507
 7027SOL    HW221981   4.074   5.438   3.625
 7028SOL     OW21982   4.752   6.742   3.702
 7028SOL    HW121983   4.741   6.737   3.603
 7028SOL    HW221984   4.718   6.830   3.735
 7029SOL     OW21985   3.411   6.636   6.581
 7029SOL    HW121986   3.510   6.646   6.593
 7029SOL    HW221987   3.387   6.539   6.582
 7030SOL     OW21988   0.216   3.769   5.321
 7030SOL    HW121989   0.186   3.853   5.366
 7030SOL    HW221990   0.136   3.711   5.302
 7031SOL     OW21991   2.137   5.913   4.153
 7031SOL    HW121992   2.196   5.833   4.167
 7031SOL    HW221993   2.192   5.996   4.157
 7032SOL     OW21994   4.549   6.966   2.919
 7032SOL    HW121995   4.513   6.873   2.911
 7032SOL    HW221996   4.475   0.012   2.907
 7033SOL     OW21997   6.725   0.983   4.335
 7033SOL    HW121998   6.628   0.978   4.358
 7033SOL    HW221999   6.765   1.064   4.378
 7034SOL     OW22000   4.787   0.115   2.860
 7034SOL    HW122001   4.857   0.071   2.804
 7034SOL    HW222002   4.721   0.046   2.890
 7035SOL     OW22003   1.037   6.312   2.727
 7035SOL    HW122004   1.112   6.327   2.663
 7035SOL    HW222005   0.950   6.314   2.678
 7036SOL     OW22006   6.825   5.559   1.841
 7036SOL    HW122007   6.753   5.626   1.823
 7036SOL    HW222008   6.875   5.584   1.924
 7037SOL     OW22009   0.527   6.288   5.314
 7037SOL    HW122010   0.445   6.261   5.365
 7037SOL    HW222011   0.594   6.328   5.377
 7038SOL     OW22012   1.098   4.331   3.540
 7038SOL    HW122013   1.080   4.382   3.455
 7038SOL    HW222014   1.031   4.257   3.549
 7039SOL     OW22015   3.791   6.970   0.037
 7039SOL    HW122016   3.696   6.972   0.069
 7039SOL    HW222017   3.819   0.043   0.012
 7040SOL     OW22018   4.805   2.812   6.124
 7040SOL    HW122019   4.836   2.738   6.183
 7040SOL    HW222020   4.711   2.795   6.096
 7041SOL     OW22021   1.227   0.906   3.082
 7041SOL    HW122022   1.223   0.948   2.991
 7041SOL    HW222023   1.263   0.813   3.074
 7042SOL     OW22024   4.906   5.542   6.493
 7042SOL    HW122025   4.909   5.564   6.396
 7042SOL    HW222026   4.847   5.463   6.508
 7043SOL     OW22027   1.842   3.165   3.257
 7043SOL    HW122028   1.765   3.201   3.204
 7043SOL    HW222029   1.887   3.241   3.305
 7044SOL     OW22030   4.485   4.906   2.470
 7044SOL    HW122031   4.539   4.982   2.507
 7044SOL    HW222032   4.396   4.903   2.514
 7045SOL     OW22033   5.040   6.695   1.087
 7045SOL    HW122034   5.023   6.755   1.009
 7045SOL    HW222035   4.959   6.692   1.145
 7046SOL     OW22036   3.708   0.964   4.774
 7046SOL    HW122037   3.696   0.872   4.738
 7046SOL    HW222038   3.727   1.027   4.699
 7047SOL     OW22039   0.683   1.998   3.248
 7047SOL    HW122040   0.592   1.987   3.208
 7047SOL    HW222041   0.737   1.915   3.232
 7048SOL     OW22042   1.140   6.122   1.094
 7048SOL    HW122043   1.052   6.166   1.078
 7048SOL    HW222044   1.173   6.144   1.185
 7049SOL     OW22045   1.840   0.918   0.840
 7049SOL    HW122046   1.776   0.861   0.788
 7049SOL    HW222047   1.923   0.866   0.858
 7050SOL     OW22048   3.635   3.812   4.490
 7050SOL    HW122049   3.726   3.836   4.523
 7050SOL    HW222050   3.567   3.863   4.541
 7051SOL     OW22051   7.007   0.601   1.284
 7051SOL    HW122052   6.997   0.545   1.366
 7051SOL    HW222053   6.973   0.693   1.302
 7052SOL     OW22054   6.800   2.032   4.702
 7052SOL    HW122055   6.811   2.130   4.685
 7052SOL    HW222056   6.875   2.000   4.760
 7053SOL     OW22057   0.407   3.847   6.230
 7053SOL    HW122058   0.434   3.764   6.279
 7053SOL    HW222059   0.481   3.877   6.171
 7054SOL     OW22060   6.841   6.222   1.122
 7054SOL    HW122061   6.896   6.140   1.136
 7054SOL    HW222062   6.896   6.293   1.079
 7055SOL     OW22063   4.512   0.286   5.858
 7055SOL    HW122064   4.528   0.193   5.890
 7055SOL    HW222065   4.448   0.284   5.782
 7056SOL     OW22066   5.560   4.693   3.257
 7056SOL    HW122067   5.623   4.763   3.225
 7056SOL    HW222068   5.597   4.602   3.237
 7057SOL     OW22069   0.046   4.096   4.385
 7057SOL    HW122070   0.044   4.034   4.464
 7057SOL    HW222071   7.011   4.178   4.406
 7058SOL     OW22072   0.438   5.629   4.967
 7058SOL    HW122073   0.465   5.591   5.056
 7058SOL    HW222074   0.389   5.559   4.915
 7059SOL     OW22075   0.495   6.907   1.935
 7059SOL    HW122076   0.430   6.907   2.011
 7059SOL    HW222077   0.457   6.958   1.858
 7060SOL     OW22078   3.052   0.370   1.643
 7060SOL    HW122079   3.016   0.318   1.565
 7060SOL    HW222080   2.978   0.424   1.684
 7061SOL     OW22081   0.199   1.834   2.878
 7061SOL    HW122082   0.143   1.751   2.881
 7061SOL    HW222083   0.148   1.911   2.916
 7062SOL     OW22084   5.665   2.045   5.487
 7062SOL    HW122085   5.593   2.004   5.431
 7062SOL    HW222086   5.721   1.973   5.528
 7063SOL     OW22087   1.630   5.936   1.134
 7063SOL    HW122088   1.717   5.895   1.105
 7063SOL    HW222089   1.585   5.976   1.054
 7064SOL     OW22090   4.227   2.050   1.588
 7064SOL    HW122091   4.193   2.135   1.629
 7064SOL    HW222092   4.230   2.060   1.488
 7065SOL     OW22093   4.657   4.160   1.408
 7065SOL    HW122094   4.612   4.204   1.487
 7065SOL    HW222095   4.588   4.138   1.339
 7066SOL     OW22096   3.570   0.748   0.440
 7066SOL    HW122097   3.494   0.786   0.492
 7066SOL    HW222098   3.603   0.665   0.485
 7067SOL     OW22099   0.927   3.909   5.349
 7067SOL    HW122100   0.831   3.883   5.352
 7067SOL    HW222101   0.966   3.902   5.441
 7068SOL     OW22102   1.040   3.081   3.264
 7068SOL    HW122103   0.988   3.024   3.200
 7068SOL    HW222104   0.991   3.167   3.280
 7069SOL     OW22105   6.568   3.761   5.157
 7069SOL    HW122106   6.534   3.822   5.229
 7069SOL    HW222107   6.564   3.809   5.069
 7070SOL     OW22108   6.367   4.842   5.339
 7070SOL    HW122109   6.378   4.746   5.367
 7070SOL    HW222110   6.449   4.871   5.289
 7071SOL     OW22111   0.969   6.317   4.931
 7071SOL    HW122112   0.887   6.318   4.990
 7071SOL    HW222113   0.950   6.370   4.848
 7072SOL     OW22114   6.720   6.354   5.984
 7072SOL    HW122115   6.751   6.448   5.976
 7072SOL    HW222116   6.787   6.301   6.035
 7073SOL     OW22117   6.647   0.992   5.220
 7073SOL    HW122118   6.662   1.056   5.295
 7073SOL    HW222119   6.676   1.034   5.134
 7074SOL     OW22120   3.126   2.954   2.052
 7074SOL    HW122121   3.118   2.972   2.150
 7074SOL    HW222122   3.196   2.884   2.037
 7075SOL     OW22123   1.768   6.099   4.705
 7075SOL    HW122124   1.721   6.074   4.621
 7075SOL    HW222125   1.865   6.078   4.696
 7076SOL     OW22126   3.239   1.936   6.715
 7076SOL    HW122127   3.154   1.934   6.663
 7076SOL    HW222128   3.270   1.843   6.731
 7077SOL     OW22129   2.095   5.553   5.434
 7077SOL    HW122130   1.999   5.578   5.416
 7077SOL    HW222131   2.099   5.490   5.511
 7078SOL     OW22132   6.321   6.957   2.600
 7078SOL    HW122133   6.336   0.018   2.656
 7078SOL    HW222134   6.291   6.881   2.659
 7079SOL     OW22135   6.806   5.810   5.518
 7079SOL    HW122136   6.896   5.832   5.480
 7079SOL    HW222137   6.735   5.852   5.461
 7080SOL     OW22138   4.057   2.285   3.686
 7080SOL    HW122139   4.021   2.280   3.593
 7080SOL    HW222140   3.985   2.262   3.752
 7081SOL     OW22141   3.478   1.509   5.583
 7081SOL    HW122142   3.449   1.589   5.530
 7081SOL    HW222143   3.479   1.533   5.681
 7082SOL     OW22144   5.389   0.466   0.340
 7082SOL    HW122145   5.400   0.490   0.243
 7082SOL    HW222146   5.425   0.540   0.397
 7083SOL     OW22147   2.913   1.280   6.621
 7083SOL    HW122148   2.844   1.215   6.591
 7083SOL    HW222149   2.984   1.233   6.674
 7084SOL     OW22150   0.069   6.577   5.263
 7084SOL    HW122151   0.164   6.580   5.230
 7084SOL    HW222152   0.061   6.508   5.335
 7085SOL     OW22153   2.264   2.121   3.127
 7085SOL    HW122154   2.300   2.111   3.220
 7085SOL    HW222155   2.305   2.053   3.068
 7086SOL     OW22156   5.532   0.941   6.294
 7086SOL    HW122157   5.567   0.898   6.210
 7086SOL    HW222158   5.552   0.882   6.372
 7087SOL     OW22159   1.038   2.955   4.645
 7087SOL    HW122160   1.104   2.910   4.586
 7087SOL    HW222161   1.024   2.901   4.727
 7088SOL     OW22162   4.774   2.814   4.262
 7088SOL    HW122163   4.867   2.778   4.250
 7088SOL    HW222164   4.712   2.765   4.200
 7089SOL     OW22165   3.392   2.630   6.201
 7089SOL    HW122166   3.316   2.644   6.264
 7089SOL    HW222167   3.362   2.570   6.126
 7090SOL     OW22168   1.850   1.372   5.600
 7090SOL    HW122169   1.754   1.392   5.576
 7090SOL    HW222170   1.909   1.442   5.560
 7091SOL     OW22171   0.253   1.502   6.359
 7091SOL    HW122172   0.195   1.475   6.282
 7091SOL    HW222173   0.200   1.499   6.444
 7092SOL     OW22174   4.206   3.690   0.231
 7092SOL    HW122175   4.166   3.662   0.318
 7092SOL    HW222176   4.192   3.618   0.163
 7093SOL     OW22177   3.306   4.120   4.498
 7093SOL    HW122178   3.381   4.153   4.555
 7093SOL    HW222179   3.330   4.131   4.402
 7094SOL     OW22180   0.306   6.544   5.600
 7094SOL    HW122181   0.268   6.574   5.687
 7094SOL    HW222182   0.276   6.450   5.581
 7095SOL     OW22183   2.103   2.977   6.663
 7095SOL    HW122184   2.128   3.059   6.610
 7095SOL    HW222185   2.186   2.930   6.693
 7096SOL     OW22186   5.306   2.352   3.597
 7096SOL    HW122187   5.243   2.275   3.594
 7096SOL    HW222188   5.363   2.352   3.515
 7097SOL     OW22189   7.007   0.541   1.973
 7097SOL    HW122190   0.058   0.525   1.905
 7097SOL    HW222191   7.010   0.470   2.043
 7098SOL     OW22192   1.695   6.078   4.947
 7098SOL    HW122193   1.726   6.091   4.853
 7098SOL    HW222194   1.732   6.150   5.005
 7099SOL     OW22195   1.394   1.156   4.957
 7099SOL    HW122196   1.439   1.149   5.046
 7099SOL    HW222197   1.298   1.128   4.966
 7100SOL     OW22198   4.973   3.809   1.148
 7100SOL    HW122199   4.925   3.896   1.151
 7100SOL    HW222200   4.918   3.743   1.097
 7101SOL     OW22201   3.174   0.259   4.519
 7101SOL    HW122202   3.253   0.318   4.534
 7101SOL    HW222203   3.098   0.290   4.574
 7102SOL     OW22204   4.441   1.094   0.874
 7102SOL    HW122205   4.372   1.128   0.938
 7102SOL    HW222206   4.502   1.168   0.847
 7103SOL     OW22207   3.528   5.652   6.534
 7103SOL    HW122208   3.611   5.597   6.542
 7103SOL    HW222209   3.466   5.632   6.610
 7104SOL     OW22210   1.380   3.432   3.636
 7104SOL    HW122211   1.399   3.392   3.546
 7104SOL    HW222212   1.450   3.401   3.701
 7105SOL     OW22213   3.471   3.084   4.873
 7105SOL    HW122214   3.494   3.051   4.965
 7105SOL    HW222215   3.545   3.062   4.810
 7106SOL     OW22216   3.901   3.010   3.988
 7106SOL    HW122217   3.921   2.979   3.895
 7106SOL    HW222218   3.819   2.963   4.021
 7107SOL     OW22219   2.596   1.061   0.187
 7107SOL    HW122220   2.505   1.027   0.164
 7107SOL    HW222221   2.657   1.049   0.109
 7108SOL     OW22222   4.200   6.449   1.625
 7108SOL    HW122223   4.234   6.506   1.700
 7108SOL    HW222224   4.273   6.389   1.593
 7109SOL     OW22225   3.536   6.991   5.954
 7109SOL    HW122226   3.631   6.980   5.986
 7109SOL    HW222227   3.528   6.954   5.862
 7110SOL     OW22228   5.170   5.357   3.904
 7110SOL    HW122229   5.268   5.354   3.886
 7110SOL    HW222230   5.120   5.325   3.823
 7111SOL     OW22231   1.291   3.204   4.268
 7111SOL    HW122232   1.297   3.192   4.367
 7111SOL    HW222233   1.228   3.136   4.231
 7112SOL     OW22234   1.743   5.639   4.435
 7112SOL    HW122235   1.764   5.542   4.424
 7112SOL    HW222236   1.738   5.683   4.345
 7113SOL     OW22237   3.746   4.060   4.779
 7113SOL    HW122238   3.762   4.098   4.870
 7113SOL    HW222239   3.730   3.961   4.786
 7114SOL     OW22240   4.226   0.135   1.558
 7114SOL    HW122241   4.323   0.161   1.564
 7114SOL    HW222242   4.169   0.213   1.584
 7115SOL     OW22243   5.205   2.093   1.491
 7115SOL    HW122244   5.121   2.147   1.480
 7115SOL    HW222245   5.283   2.146   1.459
 7116SOL     OW22246   5.567   4.273   3.606
 7116SOL    HW122247   5.596   4.205   3.674
 7116SOL    HW222248   5.593   4.365   3.637
 7117SOL     OW22249   0.121   6.494   3.917
 7117SOL    HW122250   0.096   6.576   3.969
 7117SOL    HW222251   0.147   6.421   3.981
 7118SOL     OW22252   5.199   3.650   1.030
 7118SOL    HW122253   5.195   3.661   0.930
 7118SOL    HW222254   5.156   3.728   1.074
 7119SOL     OW22255   5.160   0.951   3.164
 7119SOL    HW122256   5.128   0.950   3.069
 7119SOL    HW222257   5.221   1.029   3.179
 7120SOL     OW22258   4.318   1.753   2.399
 7120SOL    HW122259   4.415   1.742   2.379
 7120SOL    HW222260   4.270   1.783   2.316
 7121SOL     OW22261   2.151   0.121   3.671
 7121SOL    HW122262   2.064   0.119   3.622
 7121SOL    HW222263   2.216   0.179   3.622
 7122SOL     OW22264   7.001   0.739   0.278
 7122SOL    HW122265   0.048   0.689   0.222
 7122SOL    HW222266   7.017   0.837   0.269
 7123SOL     OW22267   3.259   5.552   1.330
 7123SOL    HW122268   3.299   5.499   1.404
 7123SOL    HW222269   3.224   5.639   1.365
 7124SOL     OW22270   1.339   4.516   0.957
 7124SOL    HW122271   1.361   4.600   1.008
 7124SOL    HW222272   1.402   4.443   0.985
 7125SOL     OW22273   6.585   6.207   1.197
 7125SOL    HW122274   6.683   6.210   1.181
 7125SOL    HW222275   6.550   6.300   1.209
 7126SOL     OW22276   2.332   3.471   0.719
 7126SOL    HW122277   2.322   3.419   0.804
 7126SOL    HW222278   2.258   3.537   0.712
 7127SOL     OW22279   2.917   5.412   4.431
 7127SOL    HW122280   3.001   5.466   4.430
 7127SOL    HW222281   2.932   5.329   4.485
 7128SOL     OW22282   3.314   4.799   0.417
 7128SOL    HW122283   3.217   4.815   0.397
 7128SOL    HW222284   3.344   4.864   0.486
 7129SOL     OW22285   2.930   0.769   1.175
 7129SOL    HW122286   2.998   0.816   1.119
 7129SOL    HW222287   2.973   0.693   1.223
 7130SOL     OW22288   3.352   5.180   4.365
 7130SOL    HW122289   3.368   5.270   4.327
 7130SOL    HW222290   3.255   5.158   4.359
 7131SOL     OW22291   2.539   1.649   1.070
 7131SOL    HW122292   2.575   1.724   1.126
 7131SOL    HW222293   2.571   1.660   0.976
 7132SOL     OW22294   3.981   3.535   2.334
 7132SOL    HW122295   3.978   3.599   2.410
 7132SOL    HW222296   3.991   3.442   2.368
 7133SOL     OW22297   5.153   5.127   3.474
 7133SOL    HW122298   5.109   5.178   3.399
 7133SOL    HW222299   5.214   5.058   3.436
 7134SOL     OW22300   6.214   6.068   4.144
 7134SOL    HW122301   6.186   6.081   4.049
 7134SOL    HW222302   6.310   6.095   4.154
 7135SOL     OW22303   1.334   1.290   4.217
 7135SOL    HW122304   1.303   1.240   4.136
 7135SOL    HW222305   1.351   1.226   4.292
 7136SOL     OW22306   1.750   1.497   0.786
 7136SOL    HW122307   1.656   1.520   0.813
 7136SOL    HW222308   1.761   1.398   0.781
 7137SOL     OW22309   3.963   1.256   4.699
 7137SOL    HW122310   3.913   1.318   4.760
 7137SOL    HW222311   3.899   1.211   4.637
 7138SOL     OW22312   3.197   2.539   1.561
 7138SOL    HW122313   3.283   2.585   1.582
 7138SOL    HW222314   3.211   2.472   1.489
 7139SOL     OW22315   4.896   3.210   2.171
 7139SOL    HW122316   4.815   3.163   2.137
 7139SOL    HW222317   4.978   3.163   2.140
 7140SOL     OW22318   6.287   2.889   5.175
 7140SOL    HW122319   6.323   2.819   5.238
 7140SOL    HW222320   6.254   2.967   5.227
 7141SOL     OW22321   3.243   6.868   1.065
 7141SOL    HW122322   3.183   6.838   1.139
 7141SOL    HW222323   3.231   6.966   1.050
 7142SOL     OW22324   4.337   6.885   3.656
 7142SOL    HW122325   4.352   6.974   3.699
 7142SOL    HW222326   4.283   6.896   3.573
 7143SOL     OW22327   1.666   3.123   5.952
 7143SOL    HW122328   1.629   3.146   6.042
 7143SOL    HW222329   1.765   3.108   5.959
 7144SOL     OW22330   0.977   1.003   3.175
 7144SOL    HW122331   0.962   1.089   3.126
 7144SOL    HW222332   1.072   0.975   3.166
 7145SOL     OW22333   4.122   6.467   6.133
 7145SOL    HW122334   4.213   6.427   6.124
 7145SOL    HW222335   4.054   6.393   6.135
 7146SOL     OW22336   2.162   6.931   0.721
 7146SOL    HW122337   2.261   6.920   0.713
 7146SOL    HW222338   2.142   6.997   0.793
 7147SOL     OW22339   6.444   6.829   3.830
 7147SOL    HW122340   6.515   6.797   3.893
 7147SOL    HW222341   6.429   6.927   3.843
 7148SOL     OW22342   1.006   6.024   1.643
 7148SOL    HW122343   1.005   5.927   1.665
 7148SOL    HW222344   0.924   6.047   1.590
 7149SOL     OW22345   6.533   0.266   3.789
 7149SOL    HW122346   6.567   0.334   3.853
 7149SOL    HW222347   6.498   0.312   3.707
 7150SOL     OW22348   4.801   3.032   1.451
 7150SOL    HW122349   4.722   3.007   1.394
 7150SOL    HW222350   4.769   3.082   1.532
 7151SOL     OW22351   1.454   5.633   1.029
 7151SOL    HW122352   1.507   5.635   0.944
 7151SOL    HW222353   1.411   5.722   1.044
 7152SOL     OW22354   0.404   3.425   5.427
 7152SOL    HW122355   0.336   3.428   5.354
 7152SOL    HW222356   0.475   3.494   5.410
 7153SOL     OW22357   3.988   6.490   5.115
 7153SOL    HW122358   3.945   6.489   5.205
 7153SOL    HW222359   3.919   6.469   5.045
 7154SOL     OW22360   4.342   5.692   4.673
 7154SOL    HW122361   4.263   5.662   4.620
 7154SOL    HW222362   4.415   5.721   4.612
 7155SOL     OW22363   1.764   6.043   1.850
 7155SOL    HW122364   1.812   5.963   1.814
 7155SOL    HW222365   1.690   6.068   1.788
 7156SOL     OW22366   0.277   4.596   4.237
 7156SOL    HW122367   0.308   4.501   4.243
 7156SOL    HW222368   0.349   4.653   4.197
 7157SOL     OW22369   6.336   5.411   0.816
 7157SOL    HW122370   6.284   5.429   0.733
 7157SOL    HW222371   6.415   5.473   0.820
 7158SOL     OW22372   0.064   7.004   3.579
 7158SOL    HW122373   0.124   6.924   3.568
 7158SOL    HW222374   6.996   6.985   3.536
 7159SOL     OW22375   0.379   4.455   1.499
 7159SOL    HW122376   0.346   4.546   1.526
 7159SOL    HW222377   0.478   4.450   1.513
 7160SOL     OW22378   6.526   0.753   2.171
 7160SOL    HW122379   6.543   0.686   2.243
 7160SOL    HW222380   6.455   0.718   2.109
 7161SOL     OW22381   3.428   3.880   4.230
 7161SOL    HW122382   3.482   3.950   4.276
 7161SOL    HW222383   3.471   3.856   4.143
 7162SOL     OW22384   3.028   5.617   5.378
 7162SOL    HW122385   3.023   5.535   5.436
 7162SOL    HW222386   3.077   5.594   5.294
 7163SOL     OW22387   3.832   7.009   4.083
 7163SOL    HW122388   3.922   6.974   4.055
 7163SOL    HW222389   3.819   0.081   4.044
 7164SOL     OW22390   1.803   1.668   2.816
 7164SOL    HW122391   1.808   1.587   2.875
 7164SOL    HW222392   1.845   1.647   2.728
 7165SOL     OW22393   5.977   0.666   0.358
 7165SOL    HW122394   6.039   0.587   0.353
 7165SOL    HW222395   5.888   0.636   0.391
 7166SOL     OW22396   4.887   4.665   1.602
 7166SOL    HW122397   4.914   4.598   1.533
 7166SOL    HW222398   4.907   4.629   1.693
 7167SOL     OW22399   5.142   3.651   4.940
 7167SOL    HW122400   5.219   3.622   4.998
 7167SOL    HW222401   5.173   3.722   4.876
 7168SOL     OW22402   1.222   1.980   3.979
 7168SOL    HW122403   1.308   1.929   3.986
 7168SOL    HW222404   1.214   2.042   4.057
 7169SOL     OW22405   1.748   3.187   5.607
 7169SOL    HW122406   1.704   3.111   5.656
 7169SOL    HW222407   1.682   3.229   5.545
 7170SOL     OW22408   4.400   5.055   3.237
 7170SOL    HW122409   4.376   5.094   3.148
 7170SOL    HW222410   4.319   5.051   3.295
 7171SOL     OW22411   5.164   3.329   6.063
 7171SOL    HW122412   5.163   3.248   6.120
 7171SOL    HW222413   5.110   3.402   6.107
 7172SOL     OW22414   1.596   6.863   6.709
 7172SOL    HW122415   1.689   6.830   6.694
 7172SOL    HW222416   1.532   6.786   6.712
 7173SOL     OW22417   6.792   5.303   4.833
 7173SOL    HW122418   6.808   5.360   4.913
 7173SOL    HW222419   6.701   5.321   4.796
 7174SOL     OW22420   1.104   5.428   0.012
 7174SOL    HW122421   1.073   5.508   0.064
 7174SOL    HW222422   1.108   5.349   0.073
 7175SOL     OW22423   5.081   3.087   1.141
 7175SOL    HW122424   5.059   3.125   1.231
 7175SOL    HW222425   5.174   3.114   1.115
 7176SOL     OW22426   0.425   5.329   2.297
 7176SOL    HW122427   0.492   5.379   2.351
 7176SOL    HW222428   0.447   5.338   2.200
 7177SOL     OW22429   1.776   6.140   4.172
 7177SOL    HW122430   1.809   6.058   4.218
 7177SOL    HW222431   1.799   6.134   4.074
 7178SOL     OW22432   2.434   2.491   5.945
 7178SOL    HW122433   2.362   2.436   5.986
 7178SOL    HW222434   2.424   2.586   5.974
 7179SOL     OW22435   2.217   3.104   5.917
 7179SOL    HW122436   2.185   3.153   5.998
 7179SOL    HW222437   2.166   3.135   5.836
 7180SOL     OW22438   1.029   5.354   6.481
 7180SOL    HW122439   1.073   5.434   6.523
 7180SOL    HW222440   1.053   5.272   6.532
 7181SOL     OW22441   3.858   0.265   0.474
 7181SOL    HW122442   3.833   0.188   0.414
 7181SOL    HW222443   3.856   0.234   0.569
 7182SOL     OW22444   1.729   3.815   5.818
 7182SOL    HW122445   1.751   3.901   5.865
 7182SOL    HW222446   1.814   3.765   5.799
 7183SOL     OW22447   1.917   5.141   2.706
 7183SOL    HW122448   2.011   5.108   2.721
 7183SOL    HW222449   1.918   5.241   2.697
 7184SOL     OW22450   0.650   6.958   3.434
 7184SOL    HW122451   0.675   7.011   3.353
 7184SOL    HW222452   0.595   7.014   3.495
 7185SOL     OW22453   4.944   2.642   6.876
 7185SOL    HW122454   5.018   2.628   6.941
 7185SOL    HW222455   4.870   2.578   6.895
 7186SOL     OW22456   7.013   6.836   5.265
 7186SOL    HW122457   0.043   6.750   5.279
 7186SOL    HW222458   6.930   6.836   5.320
 7187SOL     OW22459   1.895   4.370   1.771
 7187SOL    HW122460   1.858   4.426   1.697
 7187SOL    HW222461   1.860   4.403   1.859
 7188SOL     OW22462   5.870   0.026   1.315
 7188SOL    HW122463   5.807   0.095   1.351
 7188SOL    HW222464   5.954   0.071   1.284
 7189SOL     OW22465   6.446   1.875   6.330
 7189SOL    HW122466   6.359   1.832   6.355
 7189SOL    HW222467   6.450   1.967   6.369
 7190SOL     OW22468   5.362   3.825   3.614
 7190SOL    HW122469   5.426   3.764   3.661
 7190SOL    HW222470   5.413   3.893   3.562
 7191SOL     OW22471   1.165   3.995   2.403
 7191SOL    HW122472   1.115   4.033   2.482
 7191SOL    HW222473   1.099   3.957   2.338
 7192SOL     OW22474   2.252   6.223   5.627
 7192SOL    HW122475   2.167   6.173   5.645
 7192SOL    HW222476   2.296   6.246   5.714
 7193SOL     OW22477   3.111   2.207   4.092
 7193SOL    HW122478   3.163   2.214   4.177
 7193SOL    HW222479   3.172   2.179   4.018
 7194SOL     OW22480   2.111   1.789   1.249
 7194SOL    HW122481   2.107   1.692   1.271
 7194SOL    HW222482   2.021   1.830   1.261
 7195SOL     OW22483   0.513   4.836   0.398
 7195SOL    HW122484   0.543   4.865   0.307
 7195SOL    HW222485   0.577   4.872   0.466
 7196SOL     OW22486   3.114   3.044   3.162
 7196SOL    HW122487   3.064   2.959   3.181
 7196SOL    HW222488   3.120   3.058   3.064
 7197SOL     OW22489   6.808   2.013   5.632
 7197SOL    HW122490   6.795   1.927   5.682
 7197SOL    HW222491   6.794   1.996   5.534
 7198SOL     OW22492   1.256   0.030   6.200
 7198SOL    HW122493   1.208   0.113   6.172
 7198SOL    HW222494   1.329   0.009   6.135
 7199SOL     OW22495   0.798   0.978   2.204
 7199SOL    HW122496   0.757   0.921   2.133
 7199SOL    HW222497   0.729   1.039   2.242
 7200SOL     OW22498   2.583   0.516   0.578
 7200SOL    HW122499   2.572   0.615   0.591
 7200SOL    HW222500   2.591   0.472   0.667
 7201SOL     OW22501   1.947   5.156   3.090
 7201SOL    HW122502   1.924   5.059   3.096
 7201SOL    HW222503   1.896   5.198   3.015
 7202SOL     OW22504   3.877   0.125   6.216
 7202SOL    HW122505   3.895   0.218   6.248
 7202SOL    HW222506   3.793   0.091   6.257
 7203SOL     OW22507   6.262   0.687   0.692
 7203SOL    HW122508   6.219   0.729   0.612
 7203SOL    HW222509   6.318   0.754   0.740
 7204SOL     OW22510   6.239   6.902   4.258
 7204SOL    HW122511   6.243   6.851   4.344
 7204SOL    HW222512   6.309   6.867   4.195
 7205SOL     OW22513   1.324   5.665   3.112
 7205SOL    HW122514   1.342   5.737   3.044
 7205SOL    HW222515   1.371   5.688   3.197
 7206SOL     OW22516   0.393   1.275   1.209
 7206SOL    HW122517   0.465   1.300   1.273
 7206SOL    HW222518   0.414   1.313   1.119
 7207SOL     OW22519   3.973   0.449   1.097
 7207SOL    HW122520   3.914   0.456   1.017
 7207SOL    HW222521   4.015   0.538   1.115
 7208SOL     OW22522   4.198   6.763   4.507
 7208SOL    HW122523   4.118   6.721   4.465
 7208SOL    HW222524   4.272   6.768   4.440
 7209SOL     OW22525   2.962   3.223   3.992
 7209SOL    HW122526   2.906   3.140   3.999
 7209SOL    HW222527   2.957   3.259   3.899
 7210SOL     OW22528   4.475   1.172   3.252
 7210SOL    HW122529   4.533   1.144   3.329
 7210SOL    HW222530   4.405   1.102   3.237
 7211SOL     OW22531   1.086   6.148   3.618
 7211SOL    HW122532   1.013   6.080   3.616
 7211SOL    HW222533   1.165   6.111   3.667
 7212SOL     OW22534   0.733   6.126   4.351
 7212SOL    HW122535   0.652   6.069   4.359
 7212SOL    HW222536   0.718   6.213   4.399
 7213SOL     OW22537   5.328   6.719   5.130
 7213SOL    HW122538   5.388   6.662   5.187
 7213SOL    HW222539   5.313   6.674   5.043
 7214SOL     OW22540   2.541   5.838   4.420
 7214SOL    HW122541   2.492   5.759   4.457
 7214SOL    HW222542   2.624   5.807   4.374
 7215SOL     OW22543   0.846   3.027   4.462
 7215SOL    HW122544   0.926   3.028   4.521
 7215SOL    HW222545   0.875   3.011   4.367
 7216SOL     OW22546   2.922   4.919   6.798
 7216SOL    HW122547   2.937   4.880   6.708
 7216SOL    HW222548   2.884   5.012   6.788
 7217SOL     OW22549   1.849   4.550   2.020
 7217SOL    HW122550   1.752   4.570   2.026
 7217SOL    HW222551   1.893   4.615   1.958
 7218SOL     OW22552   4.749   2.435   5.324
 7218SOL    HW122553   4.716   2.342   5.312
 7218SOL    HW222554   4.849   2.436   5.317
 7219SOL     OW22555   4.591   6.753   3.467
 7219SOL    HW122556   4.560   6.703   3.386
 7219SOL    HW222557   4.547   6.714   3.548
 7220SOL     OW22558   6.634   0.504   3.324
 7220SOL    HW122559   6.580   0.553   3.256
 7220SOL    HW222560   6.698   0.442   3.278
 7221SOL     OW22561   5.496   4.759   5.757
 7221SOL    HW122562   5.451   4.676   5.724
 7221SOL    HW222563   5.446   4.839   5.725
 7222SOL     OW22564   6.655   6.982   0.826
 7222SOL    HW122565   6.557   6.976   0.846
 7222SOL    HW222566   6.708   6.955   0.906
 7223SOL     OW22567   2.885   2.032   0.852
 7223SOL    HW122568   2.984   2.027   0.846
 7223SOL    HW222569   2.859   2.064   0.943
 7224SOL     OW22570   5.747   1.399   4.681
 7224SOL    HW122571   5.711   1.315   4.642
 7224SOL    HW222572   5.706   1.478   4.635
 7225SOL     OW22573   1.777   5.960   0.335
 7225SOL    HW122574   1.734   6.042   0.375
 7225SOL    HW222575   1.828   5.912   0.406
 7226SOL     OW22576   0.271   6.963   0.190
 7226SOL    HW122577   0.192   6.986   0.247
 7226SOL    HW222578   0.355   6.982   0.240
 7227SOL     OW22579   0.462   2.216   0.090
 7227SOL    HW122580   0.553   2.200   0.127
 7227SOL    HW222581   0.456   2.311   0.058
 7228SOL     OW22582   0.279   6.870   2.129
 7228SOL    HW122583   0.300   6.782   2.085
 7228SOL    HW222584   0.329   6.877   2.215
 7229SOL     OW22585   1.009   0.613   4.350
 7229SOL    HW122586   1.001   0.700   4.301
 7229SOL    HW222587   1.103   0.580   4.345
 7230SOL     OW22588   4.042   5.321   4.454
 7230SOL    HW122589   4.021   5.248   4.390
 7230SOL    HW222590   3.970   5.390   4.451
 7231SOL     OW22591   5.452   1.943   6.474
 7231SOL    HW122592   5.457   1.976   6.380
 7231SOL    HW222593   5.377   1.878   6.483
 7232SOL     OW22594   3.813   5.345   3.150
 7232SOL    HW122595   3.728   5.296   3.132
 7232SOL    HW222596   3.867   5.351   3.067
 7233SOL     OW22597   0.429   2.800   5.087
 7233SOL    HW122598   0.484   2.735   5.140
 7233SOL    HW222599   0.447   2.893   5.120
 7234SOL     OW22600   5.779   2.566   1.966
 7234SOL    HW122601   5.871   2.537   1.991
 7234SOL    HW222602   5.775   2.588   1.869
 7235SOL     OW22603   5.840   3.986   4.398
 7235SOL    HW122604   5.926   3.985   4.347
 7235SOL    HW222605   5.778   4.053   4.357
 7236SOL     OW22606   3.546   1.817   3.146
 7236SOL    HW122607   3.447   1.828   3.142
 7236SOL    HW222608   3.580   1.788   3.056
 7237SOL     OW22609   6.538   6.246   5.276
 7237SOL    HW122610   6.627   6.279   5.245
 7237SOL    HW222611   6.498   6.313   5.338
 7238SOL     OW22612   2.574   1.309   2.434
 7238SOL    HW122613   2.540   1.310   2.528
 7238SOL    HW222614   2.497   1.304   2.370
 7239SOL     OW22615   1.980   1.854   3.000
 7239SOL    HW122616   1.956   1.893   3.090
 7239SOL    HW222617   1.896   1.840   2.947
 7240SOL     OW22618   3.106   4.179   0.576
 7240SOL    HW122619   3.048   4.097   0.574
 7240SOL    HW222620   3.048   4.261   0.573
 7241SOL     OW22621   3.548   0.832   5.752
 7241SOL    HW122622   3.641   0.824   5.716
 7241SOL    HW222623   3.551   0.825   5.852
 7242SOL     OW22624   5.783   4.240   0.174
 7242SOL    HW122625   5.861   4.230   0.113
 7242SOL    HW222626   5.752   4.150   0.204
 7243SOL     OW22627   1.454   4.916   6.397
 7243SOL    HW122628   1.402   5.000   6.381
 7243SOL    HW222629   1.458   4.863   6.313
 7244SOL     OW22630   5.419   1.451   0.818
 7244SOL    HW122631   5.384   1.359   0.836
 7244SOL    HW222632   5.342   1.514   0.804
 7245SOL     OW22633   0.081   2.242   4.769
 7245SOL    HW122634   0.159   2.303   4.779
 7245SOL    HW222635   0.086   2.170   4.838
 7246SOL     OW22636   6.043   6.973   4.649
 7246SOL    HW122637   5.971   0.020   4.669
 7246SOL    HW222638   6.118   7.019   4.603
 7247SOL     OW22639   2.556   6.236   1.755
 7247SOL    HW122640   2.464   6.204   1.776
 7247SOL    HW222641   2.599   6.173   1.689
 7248SOL     OW22642   3.882   0.972   4.370
 7248SOL    HW122643   3.878   1.023   4.285
 7248SOL    HW222644   3.975   0.974   4.406
 7249SOL     OW22645   5.368   4.459   1.060
 7249SOL    HW122646   5.273   4.446   1.034
 7249SOL    HW222647   5.427   4.445   0.981
 7250SOL     OW22648   2.080   4.861   6.672
 7250SOL    HW122649   2.009   4.797   6.704
 7250SOL    HW222650   2.053   4.899   6.584
 7251SOL     OW22651   6.784   6.329   5.167
 7251SOL    HW122652   6.829   6.297   5.250
 7251SOL    HW222653   6.795   6.261   5.094
 7252SOL     OW22654   3.269   3.332   4.893
 7252SOL    HW122655   3.176   3.368   4.899
 7252SOL    HW222656   3.334   3.407   4.888
 7253SOL     OW22657   2.894   6.315   0.965
 7253SOL    HW122658   2.885   6.316   1.065
 7253SOL    HW222659   2.847   6.395   0.927
 7254SOL     OW22660   3.798   5.163   4.027
 7254SOL    HW122661   3.734   5.087   4.039
 7254SOL    HW222662   3.849   5.151   3.942
 7255SOL     OW22663   2.986   3.171   1.925
 7255SOL    HW122664   3.033   3.086   1.949
 7255SOL    HW222665   2.956   3.167   1.830
 7256SOL     OW22666   4.273   4.987   4.533
 7256SOL    HW122667   4.357   4.948   4.569
 7256SOL    HW222668   4.209   4.914   4.511
 7257SOL     OW22669   5.792   2.211   3.273
 7257SOL    HW122670   5.878   2.257   3.253
 7257SOL    HW222671   5.764   2.233   3.367
 7258SOL     OW22672   3.940   0.443   4.510
 7258SOL    HW122673   3.843   0.436   4.533
 7258SOL    HW222674   3.981   0.516   4.564
 7259SOL     OW22675   2.608   3.733   6.778
 7259SOL    HW122676   2.654   3.704   6.862
 7259SOL    HW222677   2.594   3.832   6.780
 7260SOL     OW22678   3.813   2.083   2.738
 7260SOL    HW122679   3.822   2.004   2.798
 7260SOL    HW222680   3.718   2.090   2.706
 7261SOL     OW22681   2.369   3.279   1.620
 7261SOL    HW122682   2.468   3.271   1.623
 7261SOL    HW222683   2.337   3.332   1.699
 7262SOL     OW22684   5.357   2.052   4.445
 7262SOL    HW122685   5.260   2.060   4.421
 7262SOL    HW222686   5.410   2.027   4.364
 7263SOL     OW22687   1.069   5.814   1.408
 7263SOL    HW122688   1.100   5.722   1.385
 7263SOL    HW222689   1.146   5.869   1.439
 7264SOL     OW22690   6.930   1.137   6.565
 7264SOL    HW122691   6.985   1.072   6.513
 7264SOL    HW222692   6.925   1.224   6.517
 7265SOL     OW22693   5.095   4.856   5.921
 7265SOL    HW122694   5.113   4.773   5.869
 7265SOL    HW222695   5.138   4.934   5.877
 7266SOL     OW22696   5.086   0.570   1.745
 7266SOL    HW122697   5.095   0.474   1.717
 7266SOL    HW222698   4.992   0.587   1.773
 7267SOL     OW22699   0.459   3.831   4.893
 7267SOL    HW122700   0.379   3.847   4.952
 7267SOL    HW222701   0.436   3.765   4.822
 7268SOL     OW22702   4.231   5.934   1.337
 7268SOL    HW122703   4.148   5.886   1.366
 7268SOL    HW222704   4.300   5.866   1.311
 7269SOL     OW22705   0.860   5.316   1.564
 7269SOL    HW122706   0.946   5.265   1.557
 7269SOL    HW222707   0.829   5.314   1.658
 7270SOL     OW22708   2.517   1.760   2.731
 7270SOL    HW122709   2.469   1.738   2.646
 7270SOL    HW222710   2.504   1.685   2.797
 7271SOL     OW22711   6.975   3.578   2.717
 7271SOL    HW122712   0.023   3.600   2.788
 7271SOL    HW222713   6.934   3.489   2.736
 7272SOL     OW22714   4.741   2.894   2.871
 7272SOL    HW122715   4.663   2.832   2.872
 7272SOL    HW222716   4.761   2.926   2.964
 7273SOL     OW22717   5.434   4.339   1.784
 7273SOL    HW122718   5.409   4.296   1.871
 7273SOL    HW222719   5.479   4.271   1.725
 7274SOL     OW22720   6.746   5.086   5.885
 7274SOL    HW122721   6.685   5.108   5.809
 7274SOL    HW222722   6.805   5.165   5.903
 7275SOL     OW22723   0.199   0.614   6.879
 7275SOL    HW122724   0.192   0.520   6.845
 7275SOL    HW222725   0.204   0.677   6.801
 7276SOL     OW22726   1.861   2.180   3.992
 7276SOL    HW122727   1.882   2.107   4.057
 7276SOL    HW222728   1.763   2.183   3.976
 7277SOL     OW22729   4.946   1.516   4.918
 7277SOL    HW122730   4.999   1.516   4.834
 7277SOL    HW222731   4.989   1.577   4.985
 7278SOL     OW22732   3.799   1.387   3.589
 7278SOL    HW122733   3.711   1.435   3.599
 7278SOL    HW222734   3.787   1.308   3.528
 7279SOL     OW22735   4.327   4.706   0.195
 7279SOL    HW122736   4.418   4.687   0.233
 7279SOL    HW222737   4.336   4.763   0.114
 7280SOL     OW22738   5.228   1.827   5.337
 7280SOL    HW122739   5.276   1.770   5.271
 7280SOL    HW222740   5.148   1.869   5.293
 7281SOL     OW22741   3.555   6.420   1.765
 7281SOL    HW122742   3.481   6.407   1.831
 7281SOL    HW222743   3.556   6.516   1.736
 7282SOL     OW22744   6.701   5.330   2.431
 7282SOL    HW122745   6.609   5.363   2.454
 7282SOL    HW222746   6.757   5.327   2.514
 7283SOL     OW22747   3.375   5.518   2.706
 7283SOL    HW122748   3.418   5.430   2.683
 7283SOL    HW222749   3.278   5.515   2.681
 7284SOL     OW22750   6.644   2.028   3.838
 7284SOL    HW122751   6.723   2.060   3.890
 7284SOL    HW222752   6.660   2.043   3.740
 7285SOL     OW22753   4.858   2.853   1.842
 7285SOL    HW122754   4.796   2.774   1.842
 7285SOL    HW222755   4.823   2.922   1.905
 7286SOL     OW22756   0.712   0.930   0.497
 7286SOL    HW122757   0.643   0.860   0.517
 7286SOL    HW222758   0.783   0.928   0.568
 7287SOL     OW22759   1.158   2.345   3.499
 7287SOL    HW122760   1.142   2.433   3.545
 7287SOL    HW222761   1.183   2.277   3.568
 7288SOL     OW22762   2.911   2.239   3.008
 7288SOL    HW122763   2.855   2.320   3.026
 7288SOL    HW222764   2.861   2.175   2.950
 7289SOL     OW22765   6.571   2.405   1.670
 7289SOL    HW122766   6.569   2.382   1.768
 7289SOL    HW222767   6.636   2.479   1.655
 7290SOL     OW22768   4.061   1.818   4.636
 7290SOL    HW122769   4.002   1.749   4.678
 7290SOL    HW222770   4.007   1.900   4.617
 7291SOL     OW22771   3.673   0.506   0.010
 7291SOL    HW122772   3.700   0.441   0.082
 7291SOL    HW222773   3.648   0.455   6.948
 7292SOL     OW22774   2.189   0.174   3.240
 7292SOL    HW122775   2.219   0.208   3.151
 7292SOL    HW222776   2.209   0.076   3.246
 7293SOL     OW22777   1.321   0.639   5.274
 7293SOL    HW122778   1.282   0.693   5.349
 7293SOL    HW222779   1.306   0.542   5.292
 7294SOL     OW22780   3.153   4.907   1.451
 7294SOL    HW122781   3.116   4.918   1.359
 7294SOL    HW222782   3.245   4.867   1.445
 7295SOL     OW22783   6.442   5.378   2.475
 7295SOL    HW122784   6.438   5.462   2.529
 7295SOL    HW222785   6.419   5.399   2.380
 7296SOL     OW22786   4.054   4.730   2.291
 7296SOL    HW122787   4.059   4.706   2.194
 7296SOL    HW222788   4.071   4.828   2.301
 7297SOL     OW22789   3.335   6.120   1.573
 7297SOL    HW122790   3.287   6.207   1.556
 7297SOL    HW222791   3.303   6.081   1.659
 7298SOL     OW22792   4.940   5.775   6.676
 7298SOL    HW122793   4.921   5.707   6.606
 7298SOL    HW222794   5.010   5.838   6.642
 7299SOL     OW22795   1.215   2.903   0.526
 7299SOL    HW122796   1.225   3.002   0.531
 7299SOL    HW222797   1.302   2.862   0.498
 7300SOL     OW22798   0.728   4.801   1.358
 7300SOL    HW122799   0.700   4.709   1.330
 7300SOL    HW222800   0.746   4.801   1.457
 7301SOL     OW22801   5.476   6.577   5.582
 7301SOL    HW122802   5.516   6.654   5.532
 7301SOL    HW222803   5.545   6.507   5.596
 7302SOL     OW22804   5.088   3.063   5.669
 7302SOL    HW122805   5.018   3.126   5.702
 7302SOL    HW222806   5.126   3.097   5.583
 7303SOL     OW22807   2.604   1.143   1.232
 7303SOL    HW122808   2.603   1.234   1.191
 7303SOL    HW222809   2.524   1.134   1.292
 7304SOL     OW22810   2.948   5.268   1.846
 7304SOL    HW122811   2.896   5.216   1.779
 7304SOL    HW222812   2.980   5.206   1.918
 7305SOL     OW22813   5.939   2.457   0.408
 7305SOL    HW122814   6.023   2.423   0.365
 7305SOL    HW222815   5.960   2.494   0.498
 7306SOL     OW22816   2.391   1.382   1.727
 7306SOL    HW122817   2.477   1.354   1.769
 7306SOL    HW222818   2.409   1.415   1.634
 7307SOL     OW22819   1.799   6.525   1.422
 7307SOL    HW122820   1.789   6.452   1.489
 7307SOL    HW222821   1.714   6.577   1.417
 7308SOL     OW22822   4.726   0.786   1.663
 7308SOL    HW122823   4.666   0.711   1.690
 7308SOL    HW222824   4.803   0.792   1.726
 7309SOL     OW22825   2.263   5.341   2.895
 7309SOL    HW122826   2.247   5.272   2.965
 7309SOL    HW222827   2.305   5.422   2.936
 7310SOL     OW22828   1.735   2.579   0.148
 7310SOL    HW122829   1.748   2.597   0.246
 7310SOL    HW222830   1.638   2.584   0.126
 7311SOL     OW22831   0.400   6.690   6.741
 7311SOL    HW122832   0.387   6.772   6.686
 7311SOL    HW222833   0.498   6.674   6.753
 7312SOL     OW22834   0.162   2.584   5.557
 7312SOL    HW122835   0.104   2.650   5.605
 7312SOL    HW222836   0.248   2.574   5.607
 7313SOL     OW22837   2.397   0.891   2.131
 7313SOL    HW122838   2.471   0.951   2.099
 7313SOL    HW222839   2.416   0.862   2.225
 7314SOL     OW22840   0.240   4.251   6.972
 7314SOL    HW122841   0.170   4.211   0.011
 7314SOL    HW222842   0.298   4.312   0.006
 7315SOL     OW22843   0.756   5.057   2.452
 7315SOL    HW122844   0.772   5.076   2.355
 7315SOL    HW222845   0.753   4.958   2.467
 7316SOL     OW22846   3.243   2.109   6.941
 7316SOL    HW122847   3.260   2.054   6.859
 7316SOL    HW222848   3.330   2.143   6.978
 7317SOL     OW22849   3.587   1.250   1.852
 7317SOL    HW122850   3.548   1.242   1.944
 7317SOL    HW222851   3.621   1.343   1.839
 7318SOL     OW22852   3.692   0.306   2.020
 7318SOL    HW122853   3.628   0.329   1.946
 7318SOL    HW222854   3.684   0.373   2.093
 7319SOL     OW22855   6.522   4.784   0.313
 7319SOL    HW122856   6.609   4.818   0.349
 7319SOL    HW222857   6.498   4.836   0.231
 7320SOL     OW22858   6.879   3.538   1.125
 7320SOL    HW122859   6.964   3.487   1.133
 7320SOL    HW222860   6.811   3.501   1.189
 7321SOL     OW22861   2.336   6.290   6.486
 7321SOL    HW122862   2.267   6.223   6.460
 7321SOL    HW222863   2.341   6.296   6.585
 7322SOL     OW22864   0.396   2.324   2.133
 7322SOL    HW122865   0.463   2.290   2.199
 7322SOL    HW222866   0.428   2.410   2.094
 7323SOL     OW22867   1.062   1.578   1.048
 7323SOL    HW122868   0.998   1.654   1.036
 7323SOL    HW222869   1.103   1.583   1.139
 7324SOL     OW22870   5.845   4.745   3.152
 7324SOL    HW122871   5.857   4.650   3.123
 7324SOL    HW222872   5.865   4.752   3.250
 7325SOL     OW22873   4.028   1.142   6.047
 7325SOL    HW122874   4.018   1.239   6.071
 7325SOL    HW222875   3.938   1.102   6.030
 7326SOL     OW22876   2.623   0.758   0.040
 7326SOL    HW122877   2.617   0.805   6.972
 7326SOL    HW222878   2.661   0.667   0.027
 7327SOL     OW22879   5.903   3.906   3.088
 7327SOL    HW122880   5.937   3.851   3.164
 7327SOL    HW222881   5.963   3.984   3.073
 7328SOL     OW22882   4.013   4.886   5.451
 7328SOL    HW122883   3.996   4.901   5.354
 7328SOL    HW222884   4.064   4.963   5.488
 7329SOL     OW22885   2.580   3.056   0.769
 7329SOL    HW122886   2.622   3.133   0.721
 7329SOL    HW222887   2.596   2.972   0.717
 7330SOL     OW22888   3.697   2.934   1.671
 7330SOL    HW122889   3.654   2.870   1.735
 7330SOL    HW222890   3.629   2.963   1.603
 7331SOL     OW22891   4.260   0.769   1.669
 7331SOL    HW122892   4.287   0.685   1.715
 7331SOL    HW222893   4.163   0.764   1.644
 7332SOL     OW22894   3.125   4.040   0.020
 7332SOL    HW122895   3.182   3.970   6.996
 7332SOL    HW222896   3.058   3.995   0.079
 7333SOL     OW22897   6.527   2.400   1.934
 7333SOL    HW122898   6.620   2.406   1.969
 7333SOL    HW222899   6.483   2.490   1.939
 7334SOL     OW22900   3.350   6.700   5.871
 7334SOL    HW122901   3.409   6.620   5.883
 7334SOL    HW222902   3.315   6.729   5.960
 7335SOL     OW22903   6.478   3.118   2.669
 7335SOL    HW122904   6.443   3.082   2.583
 7335SOL    HW222905   6.401   3.143   2.728
 7336SOL     OW22906   1.526   5.907   1.389
 7336SOL    HW122907   1.436   5.866   1.401
 7336SOL    HW222908   1.550   5.907   1.292
 7337SOL     OW22909   2.322   2.295   2.354
 7337SOL    HW122910   2.400   2.354   2.376
 7337SOL    HW222911   2.238   2.349   2.354
 7338SOL     OW22912   5.425   2.981   1.667
 7338SOL    HW122913   5.327   2.976   1.648
 7338SOL    HW222914   5.444   2.944   1.758
 7339SOL     OW22915   6.435   5.596   5.087
 7339SOL    HW122916   6.361   5.645   5.133
 7339SOL    HW222917   6.402   5.507   5.055
 7340SOL     OW22918   2.422   0.374   0.376
 7340SOL    HW122919   2.361   0.435   0.324
 7340SOL    HW222920   2.439   0.414   0.466
 7341SOL     OW22921   0.474   5.020   4.173
 7341SOL    HW122922   0.481   4.957   4.096
 7341SOL    HW222923   0.522   5.105   4.151
 7342SOL     OW22924   6.609   0.180   0.449
 7342SOL    HW122925   6.595   0.231   0.364
 7342SOL    HW222926   6.520   0.166   0.494
 7343SOL     OW22927   5.805   3.808   2.830
 7343SOL    HW122928   5.763   3.718   2.839
 7343SOL    HW222929   5.845   3.836   2.917
 7344SOL     OW22930   2.098   6.652   0.060
 7344SOL    HW122931   2.140   6.567   0.090
 7344SOL    HW222932   2.166   6.726   0.063
 7345SOL     OW22933   4.350   5.324   5.950
 7345SOL    HW122934   4.339   5.226   5.970
 7345SOL    HW222935   4.432   5.338   5.896
 7346SOL     OW22936   3.748   4.670   1.358
 7346SOL    HW122937   3.811   4.642   1.286
 7346SOL    HW222938   3.669   4.715   1.317
 7347SOL     OW22939   6.086   1.585   1.966
 7347SOL    HW122940   6.017   1.656   1.981
 7347SOL    HW222941   6.177   1.626   1.964
 7348SOL     OW22942   1.519   2.376   3.665
 7348SOL    HW122943   1.488   2.387   3.570
 7348SOL    HW222944   1.481   2.292   3.703
 7349SOL     OW22945   3.465   1.945   0.851
 7349SOL    HW122946   3.509   2.033   0.868
 7349SOL    HW222947   3.477   1.920   0.755
 7350SOL     OW22948   0.794   2.466   2.737
 7350SOL    HW122949   0.883   2.466   2.691
 7350SOL    HW222950   0.766   2.372   2.755
 7351SOL     OW22951   4.312   4.877   6.498
 7351SOL    HW122952   4.354   4.913   6.581
 7351SOL    HW222953   4.294   4.952   6.434
 7352SOL     OW22954   1.328   2.025   2.114
 7352SOL    HW122955   1.237   2.021   2.073
 7352SOL    HW222956   1.332   1.961   2.190
 7353SOL     OW22957   6.175   1.766   4.778
 7353SOL    HW122958   6.196   1.850   4.729
 7353SOL    HW222959   6.154   1.787   4.874
 7354SOL     OW22960   6.419   6.397   5.460
 7354SOL    HW122961   6.393   6.308   5.499
 7354SOL    HW222962   6.338   6.440   5.420
 7355SOL     OW22963   1.061   5.551   1.661
 7355SOL    HW122964   1.038   5.638   1.705
 7355SOL    HW222965   0.985   5.523   1.602
 7356SOL     OW22966   6.458   1.872   6.797
 7356SOL    HW122967   6.534   1.921   6.753
 7356SOL    HW222968   6.374   1.890   6.746
 7357SOL     OW22969   5.314   1.750   7.012
 7357SOL    HW122970   5.327   1.848   6.997
 7357SOL    HW222971   5.393   1.700   6.975
 7358SOL     OW22972   3.450   1.764   3.946
 7358SOL    HW122973   3.414   1.765   3.852
 7358SOL    HW222974   3.375   1.780   4.010
 7359SOL     OW22975   3.878   3.283   2.444
 7359SOL    HW122976   3.841   3.309   2.533
 7359SOL    HW222977   3.804   3.255   2.384
 7360SOL     OW22978   1.164   2.390   5.181
 7360SOL    HW122979   1.134   2.413   5.273
 7360SOL    HW222980   1.095   2.332   5.137
 7361SOL     OW22981   5.236   6.342   1.118
 7361SOL    HW122982   5.194   6.310   1.033
 7361SOL    HW222983   5.165   6.382   1.177
 7362SOL     OW22984   1.804   6.294   5.090
 7362SOL    HW122985   1.893   6.302   5.137
 7362SOL    HW222986   1.743   6.367   5.122
 7363SOL     OW22987   5.541   2.935   6.964
 7363SOL    HW122988   5.588   2.984   0.019
 7363SOL    HW222989   5.444   2.927   6.987
 7364SOL     OW22990   4.449   6.630   1.330
 7364SOL    HW122991   4.493   6.717   1.352
 7364SOL    HW222992   4.458   6.612   1.232
 7365SOL     OW22993   2.875   0.327   2.594
 7365SOL    HW122994   2.836   0.321   2.686
 7365SOL    HW222995   2.802   0.331   2.526
 7366SOL     OW22996   0.468   5.290   6.774
 7366SOL    HW122997   0.547   5.245   6.732
 7366SOL    HW222998   0.401   5.220   6.800
 7367SOL     OW22999   4.811   3.572   1.489
 7367SOL    HW123000   4.794   3.622   1.404
 7367SOL    HW223001   4.865   3.490   1.471
 7368SOL     OW23002   2.996   3.185   4.733
 7368SOL    HW123003   2.990   3.231   4.644
 7368SOL    HW223004   2.911   3.135   4.750
 7369SOL     OW23005   5.032   4.371   1.135
 7369SOL    HW123006   5.053   4.300   1.068
 7369SOL    HW223007   5.086   4.356   1.218
 7370SOL     OW23008   2.458   6.932   0.755
 7370SOL    HW123009   2.522   6.946   0.680
 7370SOL    HW223010   2.466   7.007   0.821
 7371SOL     OW23011   3.012   5.013   4.044
 7371SOL    HW123012   2.922   5.049   4.069
 7371SOL    HW223013   3.072   5.088   4.017
 7372SOL     OW23014   3.801   0.456   5.698
 7372SOL    HW123015   3.892   0.413   5.696
 7372SOL    HW223016   3.764   0.450   5.791
 7373SOL     OW23017   3.743   0.754   3.844
 7373SOL    HW123018   3.675   0.710   3.902
 7373SOL    HW223019   3.835   0.732   3.878
 7374SOL     OW23020   1.901   3.007   6.040
 7374SOL    HW123021   1.873   2.932   6.101
 7374SOL    HW223022   1.986   2.983   5.993
 7375SOL     OW23023   1.417   1.113   4.439
 7375SOL    HW123024   1.354   1.122   4.517
 7375SOL    HW223025   1.421   1.016   4.412
 7376SOL     OW23026   2.813   2.929   6.844
 7376SOL    HW123027   2.747   2.938   6.769
 7376SOL    HW223028   2.840   2.833   6.852
 7377SOL     OW23029   4.900   4.540   1.839
 7377SOL    HW123030   4.869   4.450   1.868
 7377SOL    HW223031   4.830   4.608   1.861
 7378SOL     OW23032   0.422   2.001   4.772
 7378SOL    HW123033   0.513   1.964   4.753
 7378SOL    HW223034   0.418   2.097   4.745
 7379SOL     OW23035   3.703   0.851   1.847
 7379SOL    HW123036   3.789   0.896   1.870
 7379SOL    HW223037   3.640   0.859   1.924
 7380SOL     OW23038   6.684   3.067   5.615
 7380SOL    HW123039   6.682   3.129   5.537
 7380SOL    HW223040   6.771   3.077   5.663
 7381SOL     OW23041   4.792   2.832   2.180
 7381SOL    HW123042   4.772   2.917   2.131
 7381SOL    HW223043   4.809   2.853   2.276
 7382SOL     OW23044   0.424   4.654   4.683
 7382SOL    HW123045   0.438   4.564   4.644
 7382SOL    HW223046   0.505   4.711   4.667
 7383SOL     OW23047   0.273   6.433   2.502
 7383SOL    HW123048   0.322   6.381   2.432
 7383SOL    HW223049   0.317   6.419   2.591
 7384SOL     OW23050   4.715   6.768   2.396
 7384SOL    HW123051   4.770   6.714   2.459
 7384SOL    HW223052   4.626   6.789   2.438
 7385SOL     OW23053   4.626   6.186   1.796
 7385SOL    HW123054   4.635   6.236   1.710
 7385SOL    HW223055   4.690   6.109   1.796
 7386SOL     OW23056   1.219   2.807   5.564
 7386SOL    HW123057   1.196   2.904   5.577
 7386SOL    HW223058   1.184   2.754   5.641
 7387SOL     OW23059   4.709   5.567   3.991
 7387SOL    HW123060   4.786   5.578   4.055
 7387SOL    HW223061   4.687   5.471   3.982
 7388SOL     OW23062   6.791   5.182   4.173
 7388SOL    HW123063   6.735   5.263   4.158
 7388SOL    HW223064   6.859   5.201   4.244
 7389SOL     OW23065   1.328   3.828   6.891
 7389SOL    HW123066   1.255   3.850   6.955
 7389SOL    HW223067   1.376   3.912   6.865
 7390SOL     OW23068   0.029   1.801   6.569
 7390SOL    HW123069   0.116   1.769   6.606
 7390SOL    HW223070   0.026   1.783   6.471
 7391SOL     OW23071   5.937   3.753   5.993
 7391SOL    HW123072   5.958   3.819   6.065
 7391SOL    HW223073   5.975   3.663   6.017
 7392SOL     OW23074   1.467   5.201   4.573
 7392SOL    HW123075   1.564   5.196   4.598
 7392SOL    HW223076   1.441   5.296   4.558
 7393SOL     OW23077   6.096   5.456   2.669
 7393SOL    HW123078   6.056   5.536   2.626
 7393SOL    HW223079   6.073   5.374   2.617
 7394SOL     OW23080   4.063   3.378   6.363
 7394SOL    HW123081   3.990   3.312   6.383
 7394SOL    HW223082   4.150   3.329   6.351
 7395SOL     OW23083   0.551   0.016   6.148
 7395SOL    HW123084   0.515   0.054   6.062
 7395SOL    HW223085   0.639   0.058   6.168
 7396SOL     OW23086   1.050   0.629   5.761
 7396SOL    HW123087   1.139   0.607   5.800
 7396SOL    HW223088   0.996   0.545   5.752
 7397SOL     OW23089   6.312   4.637   4.584
 7397SOL    HW123090   6.375   4.566   4.618
 7397SOL    HW223091   6.258   4.673   4.660
 7398SOL     OW23092   4.598   5.061   4.312
 7398SOL    HW123093   4.670   5.119   4.273
 7398SOL    HW223094   4.612   5.053   4.410
 7399SOL     OW23095   6.275   3.731   5.834
 7399SOL    HW123096   6.287   3.772   5.925
 7399SOL    HW223097   6.263   3.632   5.844
 7400SOL     OW23098   2.979   4.536   6.963
 7400SOL    HW123099   2.987   4.522   6.864
 7400SOL    HW223100   3.014   4.455   7.011
 7401SOL     OW23101   0.108   1.488   4.123
 7401SOL    HW123102   0.186   1.431   4.148
 7401SOL    HW223103   0.059   1.445   4.047
 7402SOL     OW23104   2.151   0.183   3.971
 7402SOL    HW123105   2.222   0.198   4.040
 7402SOL    HW223106   2.157   0.255   3.901
 7403SOL     OW23107   1.808   3.175   3.708
 7403SOL    HW123108   1.799   3.169   3.807
 7403SOL    HW223109   1.900   3.207   3.685
 7404SOL     OW23110   1.443   0.484   1.159
 7404SOL    HW123111   1.501   0.539   1.100
 7404SOL    HW223112   1.350   0.522   1.160
 7405SOL     OW23113   2.257   5.430   5.217
 7405SOL    HW123114   2.203   5.453   5.297
 7405SOL    HW223115   2.300   5.341   5.230
 7406SOL     OW23116   1.742   3.430   2.272
 7406SOL    HW123117   1.650   3.412   2.307
 7406SOL    HW223118   1.808   3.373   2.323
 7407SOL     OW23119   0.503   6.275   4.731
 7407SOL    HW123120   0.488   6.374   4.727
 7407SOL    HW223121   0.503   6.238   4.638
 7408SOL     OW23122   1.818   4.094   5.856
 7408SOL    HW123123   1.865   4.083   5.769
 7408SOL    HW223124   1.754   4.170   5.851
 7409SOL     OW23125   0.846   0.765   5.116
 7409SOL    HW123126   0.748   0.774   5.102
 7409SOL    HW223127   0.892   0.765   5.027
 7410SOL     OW23128   0.560   4.444   1.109
 7410SOL    HW123129   0.470   4.405   1.125
 7410SOL    HW223130   0.605   4.394   1.035
 7411SOL     OW23131   2.891   6.489   4.793
 7411SOL    HW123132   2.860   6.521   4.704
 7411SOL    HW223133   2.982   6.449   4.784
 7412SOL     OW23134   2.097   0.824   0.881
 7412SOL    HW123135   2.184   0.872   0.892
 7412SOL    HW223136   2.084   0.800   0.785
 7413SOL     OW23137   6.548   3.148   4.424
 7413SOL    HW123138   6.606   3.067   4.434
 7413SOL    HW223139   6.486   3.154   4.502
 7414SOL     OW23140   6.770   0.264   2.307
 7414SOL    HW123141   6.713   0.345   2.310
 7414SOL    HW223142   6.744   0.206   2.230
 7415SOL     OW23143   1.825   3.087   2.834
 7415SOL    HW123144   1.919   3.115   2.851
 7415SOL    HW223145   1.798   3.112   2.741
 7416SOL     OW23146   3.770   1.477   4.547
 7416SOL    HW123147   3.759   1.548   4.477
 7416SOL    HW223148   3.859   1.433   4.535
 7417SOL     OW23149   1.672   6.946   5.811
 7417SOL    HW123150   1.624   6.876   5.758
 7417SOL    HW223151   1.765   6.915   5.830
 7418SOL     OW23152   2.307   4.036   1.178
 7418SOL    HW123153   2.256   4.095   1.115
 7418SOL    HW223154   2.395   4.013   1.137
 7419SOL     OW23155   5.571   1.558   4.867
 7419SOL    HW123156   5.556   1.466   4.902
 7419SOL    HW223157   5.668   1.571   4.847
 7420SOL     OW23158   6.384   6.516   1.799
 7420SOL    HW123159   6.311   6.448   1.795
 7420SOL    HW223160   6.473   6.471   1.806
 7421SOL     OW23161   3.903   4.025   1.488
 7421SOL    HW123162   3.847   3.942   1.493
 7421SOL    HW223163   3.867   4.084   1.416
 7422SOL     OW23164   0.156   3.452   0.868
 7422SOL    HW123165   0.136   3.461   0.770
 7422SOL    HW223166   0.141   3.540   0.913
 7423SOL     OW23167   2.165   4.547   5.935
 7423SOL    HW123168   2.147   4.633   5.983
 7423SOL    HW223169   2.081   4.513   5.893
 7424SOL     OW23170   5.929   1.767   4.627
 7424SOL    HW123171   5.910   1.693   4.563
 7424SOL    HW223172   6.025   1.764   4.655
 7425SOL     OW23173   3.391   4.314   6.057
 7425SOL    HW123174   3.321   4.320   5.986
 7425SOL    HW223175   3.476   4.282   6.016
 7426SOL     OW23176   0.327   1.946   6.736
 7426SOL    HW123177   0.316   1.848   6.720
 7426SOL    HW223178   0.263   1.977   6.806
 7427SOL     OW23179   3.426   6.035   4.873
 7427SOL    HW123180   3.390   5.947   4.843
 7427SOL    HW223181   3.353   6.089   4.915
 7428SOL     OW23182   3.936   2.580   5.875
 7428SOL    HW123183   3.963   2.574   5.779
 7428SOL    HW223184   3.952   2.673   5.909
 7429SOL     OW23185   0.155   0.419   2.619
 7429SOL    HW123186   0.148   0.329   2.576
 7429SOL    HW223187   0.074   0.473   2.597
 7430SOL     OW23188   6.775   3.854   4.872
 7430SOL    HW123189   6.701   3.921   4.860
 7430SOL    HW223190   6.754   3.773   4.818
 7431SOL     OW23191   0.662   3.544   2.016
 7431SOL    HW123192   0.725   3.605   2.064
 7431SOL    HW223193   0.572   3.587   2.010
 7432SOL     OW23194   0.525   6.412   3.606
 7432SOL    HW123195   0.457   6.408   3.679
 7432SOL    HW223196   0.532   6.506   3.572
 7433SOL     OW23197   6.372   5.427   1.096
 7433SOL    HW123198   6.348   5.440   1.000
 7433SOL    HW223199   6.347   5.334   1.125
 7434SOL     OW23200   2.112   1.904   6.825
 7434SOL    HW123201   2.110   1.923   6.727
 7434SOL    HW223202   2.190   1.844   6.846
 7435SOL     OW23203   3.611   6.754   6.304
 7435SOL    HW123204   3.571   6.710   6.224
 7435SOL    HW223205   3.627   6.685   6.375
 7436SOL     OW23206   5.777   3.187   6.883
 7436SOL    HW123207   5.846   3.245   6.925
 7436SOL    HW223208   5.799   3.091   6.898
 7437SOL     OW23209   0.525   4.909   6.510
 7437SOL    HW123210   0.500   5.000   6.477
 7437SOL    HW223211   0.470   4.886   6.590
 7438SOL     OW23212   0.806   4.426   2.345
 7438SOL    HW123213   0.894   4.381   2.330
 7438SOL    HW223214   0.775   4.469   2.260
 7439SOL     OW23215   2.262   0.162   4.301
 7439SOL    HW123216   2.162   0.165   4.289
 7439SOL    HW223217   2.303   0.241   4.256
 7440SOL     OW23218   1.371   2.857   4.600
 7440SOL    HW123219   1.458   2.852   4.550
 7440SOL    HW223220   1.340   2.764   4.621
 7441SOL     OW23221   4.921   0.910   4.278
 7441SOL    HW123222   4.878   0.890   4.366
 7441SOL    HW223223   4.952   1.005   4.277
 7442SOL     OW23224   1.064   1.586   6.681
 7442SOL    HW123225   1.052   1.631   6.769
 7442SOL    HW223226   1.014   1.638   6.611
 7443SOL     OW23227   0.112   2.045   6.885
 7443SOL    HW123228   0.032   1.986   6.887
 7443SOL    HW223229   0.144   2.061   6.978
 7444SOL     OW23230   6.800   3.306   6.568
 7444SOL    HW123231   6.803   3.241   6.643
 7444SOL    HW223232   6.735   3.275   6.499
 7445SOL     OW23233   5.412   1.479   1.454
 7445SOL    HW123234   5.424   1.401   1.393
 7445SOL    HW223235   5.337   1.460   1.517
 7446SOL     OW23236   6.484   3.923   0.207
 7446SOL    HW123237   6.499   3.936   0.109
 7446SOL    HW223238   6.478   3.825   0.227
 7447SOL     OW23239   1.884   4.405   0.686
 7447SOL    HW123240   1.931   4.374   0.769
 7447SOL    HW223241   1.945   4.396   0.607
 7448SOL     OW23242   5.397   0.053   5.873
 7448SOL    HW123243   5.378   6.983   5.913
 7448SOL    HW223244   5.367   0.124   5.937
 7449SOL     OW23245   4.627   2.219   1.940
 7449SOL    HW123246   4.679   2.142   1.902
 7449SOL    HW223247   4.581   2.190   2.024
 7450SOL     OW23248   4.670   2.742   3.151
 7450SOL    HW123249   4.709   2.803   3.219
 7450SOL    HW223250   4.587   2.700   3.187
 7451SOL     OW23251   1.649   1.164   4.792
 7451SOL    HW123252   1.568   1.146   4.847
 7451SOL    HW223253   1.713   1.220   4.846
 7452SOL     OW23254   1.645   0.651   5.036
 7452SOL    HW123255   1.725   0.679   4.984
 7452SOL    HW223256   1.628   0.716   5.110
 7453SOL     OW23257   5.656   6.726   4.837
 7453SOL    HW123258   5.610   6.803   4.881
 7453SOL    HW223259   5.729   6.759   4.777
 7454SOL     OW23260   0.757   3.514   1.384
 7454SOL    HW123261   0.834   3.477   1.332
 7454SOL    HW223262   0.763   3.614   1.386
 7455SOL     OW23263   5.560   2.312   0.613
 7455SOL    HW123264   5.585   2.266   0.528
 7455SOL    HW223265   5.476   2.272   0.650
 7456SOL     OW23266   1.617   3.132   4.566
 7456SOL    HW123267   1.645   3.188   4.644
 7456SOL    HW223268   1.523   3.155   4.540
 7457SOL     OW23269   5.432   1.109   5.265
 7457SOL    HW123270   5.515   1.053   5.264
 7457SOL    HW223271   5.443   1.184   5.331
 7458SOL     OW23272   3.048   7.016   0.158
 7458SOL    HW123273   2.963   0.019   0.203
 7458SOL    HW223274   3.125   0.030   0.211
 7459SOL     OW23275   4.898   0.092   5.679
 7459SOL    HW123276   4.992   0.104   5.646
 7459SOL    HW223277   4.839   0.064   5.604
 7460SOL     OW23278   2.175   4.474   0.842
 7460SOL    HW123279   2.092   4.487   0.897
 7460SOL    HW223280   2.202   4.561   0.800
 7461SOL     OW23281   5.578   1.376   6.055
 7461SOL    HW123282   5.657   1.344   6.107
 7461SOL    HW223283   5.541   1.458   6.099
 7462SOL     OW23284   1.873   2.247   1.705
 7462SOL    HW123285   1.788   2.258   1.757
 7462SOL    HW223286   1.942   2.309   1.741
 7463SOL     OW23287   3.527   2.980   1.469
 7463SOL    HW123288   3.428   2.986   1.474
 7463SOL    HW223289   3.565   3.071   1.451
 7464SOL     OW23290   3.729   6.035   0.736
 7464SOL    HW123291   3.646   5.988   0.766
 7464SOL    HW223292   3.728   6.043   0.636
 7465SOL     OW23293   1.916   0.020   1.284
 7465SOL    HW123294   1.961   6.979   1.220
 7465SOL    HW223295   1.881   6.987   1.362
 7466SOL     OW23296   0.268   0.501   6.334
 7466SOL    HW123297   0.328   0.547   6.269
 7466SOL    HW223298   0.279   0.402   6.324
 7467SOL     OW23299   0.047   2.490   1.044
 7467SOL    HW123300   0.043   2.493   1.143
 7467SOL    HW223301   0.029   2.397   1.012
 7468SOL     OW23302   5.118   2.179   2.080
 7468SOL    HW123303   5.089   2.192   1.986
 7468SOL    HW223304   5.039   2.156   2.137
 7469SOL     OW23305   1.232   6.789   6.292
 7469SOL    HW123306   1.212   6.806   6.388
 7469SOL    HW223307   1.233   6.876   6.242
 7470SOL     OW23308   0.692   1.992   2.375
 7470SOL    HW123309   0.701   1.894   2.359
 7470SOL    HW223310   0.766   2.040   2.329
 7471SOL     OW23311   6.345   6.902   4.958
 7471SOL    HW123312   6.378   6.843   4.884
 7471SOL    HW223313   6.411   6.899   5.033
 7472SOL     OW23314   3.680   0.432   4.555
 7472SOL    HW123315   3.647   0.438   4.649
 7472SOL    HW223316   3.663   0.341   4.519
 7473SOL     OW23317   7.015   3.305   4.590
 7473SOL    HW123318   0.052   3.238   4.542
 7473SOL    HW223319   6.922   3.269   4.601
 7474SOL     OW23320   3.233   0.648   4.162
 7474SOL    HW123321   3.134   0.655   4.153
 7474SOL    HW223322   3.278   0.704   4.093
 7475SOL     OW23323   4.520   0.400   1.911
 7475SOL    HW123324   4.506   0.487   1.959
 7475SOL    HW223325   4.561   0.334   1.974
 7476SOL     OW23326   4.638   6.056   4.702
 7476SOL    HW123327   4.586   6.034   4.619
 7476SOL    HW223328   4.715   5.993   4.711
 7477SOL     OW23329   4.119   1.293   4.400
 7477SOL    HW123330   4.215   1.271   4.382
 7477SOL    HW223331   4.088   1.242   4.481
 7478SOL     OW23332   3.030   3.547   6.371
 7478SOL    HW123333   3.098   3.604   6.326
 7478SOL    HW223334   2.987   3.598   6.445
 7479SOL     OW23335   4.006   1.475   0.344
 7479SOL    HW123336   4.051   1.431   0.422
 7479SOL    HW223337   3.948   1.408   0.297
 7480SOL     OW23338   5.803   5.717   1.711
 7480SOL    HW123339   5.836   5.808   1.685
 7480SOL    HW223340   5.862   5.679   1.782
 7481SOL     OW23341   5.274   5.172   0.740
 7481SOL    HW123342   5.229   5.168   0.829
 7481SOL    HW223343   5.325   5.258   0.732
 7482SOL     OW23344   3.849   0.967   2.099
 7482SOL    HW123345   3.872   1.017   2.015
 7482SOL    HW223346   3.930   0.918   2.132
 7483SOL     OW23347   3.472   1.803   4.317
 7483SOL    HW123348   3.553   1.746   4.329
 7483SOL    HW223349   3.405   1.755   4.259
 7484SOL     OW23350   1.475   6.534   1.481
 7484SOL    HW123351   1.382   6.499   1.467
 7484SOL    HW223352   1.535   6.458   1.508
 7485SOL     OW23353   3.175   6.160   6.055
 7485SOL    HW123354   3.212   6.153   5.962
 7485SOL    HW223355   3.080   6.191   6.050
 7486SOL     OW23356   3.172   6.725   5.255
 7486SOL    HW123357   3.136   6.752   5.166
 7486SOL    HW223358   3.183   6.807   5.312
 7487SOL     OW23359   2.648   6.599   3.241
 7487SOL    HW123360   2.587   6.657   3.295
 7487SOL    HW223361   2.713   6.657   3.191
 7488SOL     OW23362   2.995   6.783   5.785
 7488SOL    HW123363   3.007   6.882   5.777
 7488SOL    HW223364   3.014   6.740   5.697
 7489SOL     OW23365   4.535   2.070   4.373
 7489SOL    HW123366   4.555   1.994   4.311
 7489SOL    HW223367   4.565   2.047   4.465
 7490SOL     OW23368   0.216   0.704   0.909
 7490SOL    HW123369   0.300   0.717   0.962
 7490SOL    HW223370   0.235   0.644   0.831
 7491SOL     OW23371   0.399   5.384   6.315
 7491SOL    HW123372   0.313   5.340   6.340
 7491SOL    HW223373   0.398   5.479   6.345
 7492SOL     OW23374   1.629   2.247   5.255
 7492SOL    HW123375   1.657   2.301   5.334
 7492SOL    HW223376   1.580   2.305   5.190
 7493SOL     OW23377   6.060   4.567   6.185
 7493SOL    HW123378   5.968   4.536   6.210
 7493SOL    HW223379   6.117   4.573   6.267
 7494SOL     OW23380   5.417   1.082   2.550
 7494SOL    HW123381   5.430   1.155   2.616
 7494SOL    HW223382   5.326   1.092   2.508
 7495SOL     OW23383   1.942   1.394   1.051
 7495SOL    HW123384   1.957   1.305   1.095
 7495SOL    HW223385   1.942   1.383   0.952
 7496SOL     OW23386   1.542   5.058   5.824
 7496SOL    HW123387   1.572   5.016   5.910
 7496SOL    HW223388   1.454   5.103   5.838
 7497SOL     OW23389   2.652   5.325   2.103
 7497SOL    HW123390   2.602   5.247   2.066
 7497SOL    HW223391   2.657   5.317   2.203
 7498SOL     OW23392   2.907   0.887   4.544
 7498SOL    HW123393   2.864   0.976   4.556
 7498SOL    HW223394   2.979   0.893   4.475
 7499SOL     OW23395   5.697   6.596   3.582
 7499SOL    HW123396   5.630   6.528   3.610
 7499SOL    HW223397   5.650   6.676   3.544
 7500SOL     OW23398   3.975   5.742   2.347
 7500SOL    HW123399   3.904   5.719   2.413
 7500SOL    HW223400   4.039   5.807   2.389
 7501SOL     OW23401   0.844   2.962   4.153
 7501SOL    HW123402   0.869   2.865   4.156
 7501SOL    HW223403   0.747   2.970   4.131
 7502SOL     OW23404   2.034   1.004   5.259
 7502SOL    HW123405   2.032   1.003   5.159
 7502SOL    HW223406   1.959   1.060   5.293
 7503SOL     OW23407   2.822   0.749   6.302
 7503SOL    HW123408   2.830   0.749   6.203
 7503SOL    HW223409   2.896   0.803   6.342
 7504SOL     OW23410   4.232   6.336   4.005
 7504SOL    HW123411   4.254   6.322   3.908
 7504SOL    HW223412   4.148   6.389   4.012
 7505SOL     OW23413   2.410   1.095   5.076
 7505SOL    HW123414   2.503   1.132   5.082
 7505SOL    HW223415   2.349   1.163   5.034
 7506SOL     OW23416   3.579   0.630   2.784
 7506SOL    HW123417   3.539   0.609   2.695
 7506SOL    HW223418   3.591   0.729   2.793
 7507SOL     OW23419   0.503   6.255   6.232
 7507SOL    HW123420   0.479   6.322   6.161
 7507SOL    HW223421   0.597   6.225   6.218
 7508SOL     OW23422   5.450   6.593   2.425
 7508SOL    HW123423   5.466   6.497   2.447
 7508SOL    HW223424   5.537   6.642   2.422
 7509SOL     OW23425   5.462   4.295   0.317
 7509SOL    HW123426   5.433   4.207   0.354
 7509SOL    HW223427   5.552   4.318   0.352
 7510SOL     OW23428   2.971   3.983   4.844
 7510SOL    HW123429   3.030   3.978   4.925
 7510SOL    HW223430   2.888   4.034   4.867
 7511SOL     OW23431   1.343   0.491   2.380
 7511SOL    HW123432   1.428   0.499   2.328
 7511SOL    HW223433   1.277   0.557   2.346
 7512SOL     OW23434   2.729   3.754   1.379
 7512SOL    HW123435   2.712   3.735   1.476
 7512SOL    HW223436   2.655   3.717   1.324
 7513SOL     OW23437   1.370   2.725   6.511
 7513SOL    HW123438   1.364   2.652   6.443
 7513SOL    HW223439   1.449   2.783   6.491
 7514SOL     OW23440   3.050   6.105   1.816
 7514SOL    HW123441   3.035   6.201   1.840
 7514SOL    HW223442   3.146   6.082   1.831
 7515SOL     OW23443   0.453   0.317   2.826
 7515SOL    HW123444   0.439   0.343   2.730
 7515SOL    HW223445   0.483   0.397   2.878
 7516SOL     OW23446   6.777   6.102   4.070
 7516SOL    HW123447   6.787   6.163   4.148
 7516SOL    HW223448   6.826   6.141   3.992
 7517SOL     OW23449   6.479   3.560   1.469
 7517SOL    HW123450   6.417   3.628   1.508
 7517SOL    HW223451   6.525   3.511   1.542
 7518SOL     OW23452   3.806   5.578   3.562
 7518SOL    HW123453   3.819   5.676   3.544
 7518SOL    HW223454   3.869   5.549   3.634
 7519SOL     OW23455   1.337   6.807   4.526
 7519SOL    HW123456   1.366   6.781   4.618
 7519SOL    HW223457   1.310   6.903   4.525
 7520SOL     OW23458   1.701   0.000   2.544
 7520SOL    HW123459   1.761   0.078   2.560
 7520SOL    HW223460   1.608   0.023   2.574
 7521SOL     OW23461   4.619   4.572   5.326
 7521SOL    HW123462   4.679   4.521   5.389
 7521SOL    HW223463   4.568   4.641   5.377
 7522SOL     OW23464   2.511   1.224   6.938
 7522SOL    HW123465   2.593   1.170   6.957
 7522SOL    HW223466   2.492   1.223   6.840
 7523SOL     OW23467   6.257   6.953   5.436
 7523SOL    HW123468   6.193   6.891   5.391
 7523SOL    HW223469   6.222   6.975   5.528
 7524SOL     OW23470   7.018   1.799   5.880
 7524SOL    HW123471   0.033   1.765   5.967
 7524SOL    HW223472   6.980   1.891   5.894
 7525SOL     OW23473   1.992   0.181   0.395
 7525SOL    HW123474   2.019   0.264   0.443
 7525SOL    HW223475   2.030   0.182   0.302
 7526SOL     OW23476   3.414   2.981   4.066
 7526SOL    HW123477   3.363   3.054   4.020
 7526SOL    HW223478   3.383   2.972   4.160
 7527SOL     OW23479   5.137   4.255   2.432
 7527SOL    HW123480   5.055   4.301   2.398
 7527SOL    HW223481   5.181   4.204   2.357
 7528SOL     OW23482   4.488   2.408   0.646
 7528SOL    HW123483   4.560   2.387   0.712
 7528SOL    HW223484   4.431   2.483   0.681
 7529SOL     OW23485   4.207   0.768   4.240
 7529SOL    HW123486   4.153   0.765   4.156
 7529SOL    HW223487   4.303   0.789   4.218
 7530SOL     OW23488   0.022   3.243   2.464
 7530SOL    HW123489   0.054   3.338   2.476
 7530SOL    HW223490   7.006   3.231   2.371
 7531SOL     OW23491   4.161   1.835   3.814
 7531SOL    HW123492   4.186   1.744   3.782
 7531SOL    HW223493   4.137   1.892   3.736
 7532SOL     OW23494   5.278   5.511   1.687
 7532SOL    HW123495   5.189   5.515   1.642
 7532SOL    HW223496   5.311   5.417   1.688
 7533SOL     OW23497   2.370   1.535   3.569
 7533SOL    HW123498   2.342   1.445   3.600
 7533SOL    HW223499   2.367   1.538   3.469
 7534SOL     OW23500   4.039   6.067   5.148
 7534SOL    HW123501   3.944   6.035   5.143
 7534SOL    HW223502   4.101   5.989   5.149
 7535SOL     OW23503   2.241   1.707   5.237
 7535SOL    HW123504   2.201   1.737   5.323
 7535SOL    HW223505   2.321   1.764   5.216
 7536SOL     OW23506   4.862   4.955   5.269
 7536SOL    HW123507   4.816   4.998   5.346
 7536SOL    HW223508   4.869   4.856   5.285
 7537SOL     OW23509   2.133   4.406   4.734
 7537SOL    HW123510   2.108   4.371   4.644
 7537SOL    HW223511   2.073   4.483   4.758
 7538SOL     OW23512   3.344   3.505   2.857
 7538SOL    HW123513   3.431   3.502   2.906
 7538SOL    HW223514   3.278   3.446   2.904
 7539SOL     OW23515   2.209   2.671   5.241
 7539SOL    HW123516   2.307   2.687   5.224
 7539SOL    HW223517   2.199   2.594   5.305
 7540SOL     OW23518   3.065   0.659   6.966
 7540SOL    HW123519   3.025   0.623   0.030
 7540SOL    HW223520   3.163   0.638   6.964
 7541SOL     OW23521   6.353   3.034   5.465
 7541SOL    HW123522   6.374   3.121   5.419
 7541SOL    HW223523   6.254   3.024   5.472
 7542SOL     OW23524   1.234   6.845   5.558
 7542SOL    HW123525   1.139   6.821   5.536
 7542SOL    HW223526   1.245   6.945   5.551
 7543SOL     OW23527   4.035   2.111   0.724
 7543SOL    HW123528   4.129   2.128   0.753
 7543SOL    HW223529   4.013   2.015   0.737
 7544SOL     OW23530   0.452   2.282   2.858
 7544SOL    HW123531   0.551   2.284   2.851
 7544SOL    HW223532   0.418   2.192   2.829
 7545SOL     OW23533   4.729   6.566   2.974
 7545SOL    HW123534   4.640   6.568   3.019
 7545SOL    HW223535   4.717   6.566   2.875
 7546SOL     OW23536   4.797   1.149   0.099
 7546SOL    HW123537   4.842   1.150   0.010
 7546SOL    HW223538   4.803   1.057   0.139
 7547SOL     OW23539   4.238   0.337   0.330
 7547SOL    HW123540   4.264   0.369   0.239
 7547SOL    HW223541   4.197   0.246   0.323
 7548SOL     OW23542   2.133   1.831   0.971
 7548SOL    HW123543   2.112   1.822   1.069
 7548SOL    HW223544   2.138   1.928   0.947
 7549SOL     OW23545   5.626   1.701   2.276
 7549SOL    HW123546   5.617   1.759   2.195
 7549SOL    HW223547   5.634   1.606   2.247
 7550SOL     OW23548   2.140   5.938   2.469
 7550SOL    HW123549   2.050   5.955   2.429
 7550SOL    HW223550   2.205   6.006   2.435
 7551SOL     OW23551   4.596   3.705   0.136
 7551SOL    HW123552   4.584   3.774   0.207
 7551SOL    HW223553   4.597   3.614   0.178
 7552SOL     OW23554   2.683   5.602   4.553
 7552SOL    HW123555   2.613   5.577   4.620
 7552SOL    HW223556   2.676   5.541   4.473
 7553SOL     OW23557   4.003   4.684   6.025
 7553SOL    HW123558   4.025   4.660   5.931
 7553SOL    HW223559   3.910   4.652   6.047
 7554SOL     OW23560   4.696   2.193   0.642
 7554SOL    HW123561   4.651   2.149   0.565
 7554SOL    HW223562   4.695   2.132   0.721
 7555SOL     OW23563   0.848   5.693   5.396
 7555SOL    HW123564   0.845   5.638   5.313
 7555SOL    HW223565   0.758   5.734   5.412
 7556SOL     OW23566   0.672   3.339   5.167
 7556SOL    HW123567   0.605   3.275   5.204
 7556SOL    HW223568   0.723   3.381   5.242
 7557SOL     OW23569   5.516   3.996   6.274
 7557SOL    HW123570   5.520   3.919   6.338
 7557SOL    HW223571   5.461   3.970   6.194
 7558SOL     OW23572   2.251   2.408   3.737
 7558SOL    HW123573   2.211   2.498   3.721
 7558SOL    HW223574   2.350   2.416   3.746
 7559SOL     OW23575   6.396   5.031   1.002
 7559SOL    HW123576   6.448   4.984   0.931
 7559SOL    HW223577   6.458   5.065   1.073
 7560SOL     OW23578   4.754   6.991   0.222
 7560SOL    HW123579   4.768   6.900   0.183
 7560SOL    HW223580   4.801   6.998   0.309
 7561SOL     OW23581   0.685   3.834   0.850
 7561SOL    HW123582   0.722   3.823   0.758
 7561SOL    HW223583   0.745   3.894   0.903
 7562SOL     OW23584   5.750   5.975   4.601
 7562SOL    HW123585   5.734   5.921   4.518
 7562SOL    HW223586   5.720   6.069   4.586
 7563SOL     OW23587   2.607   0.374   1.650
 7563SOL    HW123588   2.555   0.340   1.728
 7563SOL    HW223589   2.545   0.398   1.575
 7564SOL     OW23590   5.299   0.212   3.054
 7564SOL    HW123591   5.373   0.265   3.013
 7564SOL    HW223592   5.257   0.265   3.128
 7565SOL     OW23593   4.761   4.951   6.579
 7565SOL    HW123594   4.685   5.016   6.569
 7565SOL    HW223595   4.844   4.990   6.539
 7566SOL     OW23596   0.472   5.133   3.788
 7566SOL    HW123597   0.383   5.177   3.795
 7566SOL    HW223598   0.467   5.042   3.830
 7567SOL     OW23599   2.448   4.123   6.197
 7567SOL    HW123600   2.403   4.155   6.114
 7567SOL    HW223601   2.465   4.200   6.258
 7568SOL     OW23602   5.866   5.630   4.092
 7568SOL    HW123603   5.947   5.586   4.052
 7568SOL    HW223604   5.816   5.563   4.147
 7569SOL     OW23605   4.251   6.036   6.670
 7569SOL    HW123606   4.238   6.101   6.595
 7569SOL    HW223607   4.245   5.942   6.635
 7570SOL     OW23608   5.579   4.210   4.765
 7570SOL    HW123609   5.512   4.261   4.821
 7570SOL    HW223610   5.554   4.218   4.669
 7571SOL     OW23611   5.233   3.788   2.120
 7571SOL    HW123612   5.177   3.705   2.115
 7571SOL    HW223613   5.219   3.832   2.209
 7572SOL     OW23614   5.143   0.270   4.068
 7572SOL    HW123615   5.135   0.172   4.088
 7572SOL    HW223616   5.070   0.320   4.113
 7573SOL     OW23617   6.863   6.039   4.497
 7573SOL    HW123618   6.804   5.964   4.464
 7573SOL    HW223619   6.956   6.005   4.508
 7574SOL     OW23620   5.856   1.165   3.696
 7574SOL    HW123621   5.878   1.144   3.600
 7574SOL    HW223622   5.887   1.257   3.718
 7575SOL     OW23623   4.166   0.778   6.123
 7575SOL    HW123624   4.246   0.836   6.108
 7575SOL    HW223625   4.176   0.729   6.209
 7576SOL     OW23626   5.646   5.144   0.334
 7576SOL    HW123627   5.728   5.132   0.389
 7576SOL    HW223628   5.609   5.054   0.310
 7577SOL     OW23629   6.526   0.214   4.783
 7577SOL    HW123630   6.580   0.297   4.794
 7577SOL    HW223631   6.446   0.217   4.842
 7578SOL     OW23632   2.013   6.396   4.065
 7578SOL    HW123633   2.000   6.360   4.157
 7578SOL    HW223634   2.095   6.454   4.062
 7579SOL     OW23635   4.330   2.190   2.036
 7579SOL    HW123636   4.260   2.211   2.105
 7579SOL    HW223637   4.415   2.238   2.058
 7580SOL     OW23638   1.137   3.635   2.870
 7580SOL    HW123639   1.092   3.699   2.808
 7580SOL    HW223640   1.094   3.640   2.960
 7581SOL     OW23641   5.146   2.175   0.422
 7581SOL    HW123642   5.183   2.256   0.377
 7581SOL    HW223643   5.079   2.203   0.491
 7582SOL     OW23644   3.624   1.463   0.735
 7582SOL    HW123645   3.679   1.487   0.655
 7582SOL    HW223646   3.685   1.447   0.813
 7583SOL     OW23647   5.947   4.255   2.079
 7583SOL    HW123648   5.926   4.263   2.177
 7583SOL    HW223649   6.039   4.289   2.062
 7584SOL     OW23650   2.592   6.682   1.140
 7584SOL    HW123651   2.610   6.594   1.095
 7584SOL    HW223652   2.638   6.755   1.090
 7585SOL     OW23653   1.069   4.225   6.252
 7585SOL    HW123654   0.984   4.233   6.303
 7585SOL    HW223655   1.104   4.316   6.231
 7586SOL     OW23656   2.707   0.309   2.389
 7586SOL    HW123657   2.680   0.404   2.372
 7586SOL    HW223658   2.696   0.256   2.305
 7587SOL     OW23659   2.216   1.541   7.006
 7587SOL    HW123660   2.304   1.521   0.031
 7587SOL    HW223661   2.229   1.609   6.935
 7588SOL     OW23662   1.004   4.658   2.132
 7588SOL    HW123663   0.910   4.692   2.129
 7588SOL    HW223664   1.037   4.659   2.226
 7589SOL     OW23665   5.850   6.076   0.410
 7589SOL    HW123666   5.782   6.105   0.477
 7589SOL    HW223667   5.882   6.155   0.359
 7590SOL     OW23668   2.652   1.662   5.440
 7590SOL    HW123669   2.653   1.725   5.363
 7590SOL    HW223670   2.615   1.708   5.521
 7591SOL     OW23671   0.312   5.084   0.495
 7591SOL    HW123672   0.339   5.008   0.554
 7591SOL    HW223673   0.268   5.049   0.412
 7592SOL     OW23674   6.982   4.918   0.053
 7592SOL    HW123675   0.010   4.996   0.014
 7592SOL    HW223676   7.016   4.833   0.013
 7593SOL     OW23677   5.509   2.662   6.956
 7593SOL    HW123678   5.572   2.623   0.004
 7593SOL    HW223679   5.529   2.759   6.944
 7594SOL     OW23680   0.602   4.789   3.011
 7594SOL    HW123681   0.639   4.852   3.079
 7594SOL    HW223682   0.614   4.827   2.919
 7595SOL     OW23683   0.283   3.045   6.370
 7595SOL    HW123684   0.226   3.093   6.303
 7595SOL    HW223685   0.226   3.006   6.441
 7596SOL     OW23686   5.208   5.022   2.473
 7596SOL    HW123687   5.218   5.018   2.573
 7596SOL    HW223688   5.141   4.954   2.444
 7597SOL     OW23689   3.325   5.964   1.870
 7597SOL    HW123690   3.326   6.032   1.944
 7597SOL    HW223691   3.416   5.925   1.860
 7598SOL     OW23692   6.437   0.470   3.118
 7598SOL    HW123693   6.468   0.377   3.100
 7598SOL    HW223694   6.339   0.470   3.135
 7599SOL     OW23695   5.219   1.321   3.645
 7599SOL    HW123696   5.164   1.386   3.593
 7599SOL    HW223697   5.166   1.237   3.661
 7600SOL     OW23698   1.154   0.682   2.347
 7600SOL    HW123699   1.201   0.770   2.350
 7600SOL    HW223700   1.128   0.661   2.252
 7601SOL     OW23701   1.694   5.464   3.560
 7601SOL    HW123702   1.709   5.490   3.464
 7601SOL    HW223703   1.758   5.393   3.586
 7602SOL     OW23704   2.325   4.525   4.893
 7602SOL    HW123705   2.401   4.574   4.851
 7602SOL    HW223706   2.263   4.492   4.822
 7603SOL     OW23707   1.477   6.453   6.522
 7603SOL    HW123708   1.414   6.376   6.512
 7603SOL    HW223709   1.567   6.419   6.548
 7604SOL     OW23710   3.409   6.006   3.760
 7604SOL    HW123711   3.363   5.921   3.733
 7604SOL    HW223712   3.499   6.010   3.717
 7605SOL     OW23713   1.358   5.773   0.234
 7605SOL    HW123714   1.284   5.707   0.237
 7605SOL    HW223715   1.336   5.845   0.168
 7606SOL     OW23716   0.226   2.945   2.140
 7606SOL    HW123717   0.227   2.862   2.195
 7606SOL    HW223718   0.289   3.012   2.180
 7607SOL     OW23719   4.357   6.973   0.094
 7607SOL    HW123720   4.438   0.009   0.084
 7607SOL    HW223721   4.363   6.920   0.179
 7608SOL     OW23722   3.385   4.055   3.977
 7608SOL    HW123723   3.481   4.051   3.951
 7608SOL    HW223724   3.371   4.128   4.044
 7609SOL     OW23725   6.870   3.531   3.493
 7609SOL    HW123726   6.836   3.598   3.426
 7609SOL    HW223727   6.885   3.576   3.581
 7610SOL     OW23728   5.926   0.596   1.240
 7610SOL    HW123729   5.991   0.665   1.273
 7610SOL    HW223730   5.931   0.590   1.141
 7611SOL     OW23731   1.080   1.998   0.316
 7611SOL    HW123732   1.037   1.931   0.377
 7611SOL    HW223733   1.129   1.950   0.243
 7612SOL     OW23734   3.713   1.659   4.328
 7612SOL    HW123735   3.716   1.636   4.231
 7612SOL    HW223736   3.798   1.704   4.354
 7613SOL     OW23737   4.889   1.953   1.351
 7613SOL    HW123738   4.988   1.937   1.349
 7613SOL    HW223739   4.863   1.990   1.440
 7614SOL     OW23740   3.881   2.509   1.679
 7614SOL    HW123741   3.973   2.507   1.717
 7614SOL    HW223742   3.816   2.474   1.747
 7615SOL     OW23743   5.213   4.631   6.793
 7615SOL    HW123744   5.124   4.639   6.837
 7615SOL    HW223745   5.262   4.552   6.831
 7616SOL     OW23746   0.674   4.262   4.245
 7616SOL    HW123747   0.645   4.358   4.244
 7616SOL    HW223748   0.701   4.237   4.338
 7617SOL     OW23749   2.979   5.942   3.943
 7617SOL    HW123750   2.982   5.983   3.852
 7617SOL    HW223751   2.890   5.898   3.957
 7618SOL     OW23752   1.206   2.350   6.477
 7618SOL    HW123753   1.153   2.267   6.490
 7618SOL    HW223754   1.146   2.430   6.490
 7619SOL     OW23755   5.774   3.303   5.503
 7619SOL    HW123756   5.690   3.262   5.469
 7619SOL    HW223757   5.753   3.371   5.573
 7620SOL     OW23758   3.735   0.180   1.046
 7620SOL    HW123759   3.763   0.088   1.017
 7620SOL    HW223760   3.637   0.192   1.031
 7621SOL     OW23761   0.888   0.811   0.317
 7621SOL    HW123762   0.824   0.842   0.388
 7621SOL    HW223763   0.873   0.714   0.299
 7622SOL     OW23764   5.540   2.802   1.860
 7622SOL    HW123765   5.521   2.717   1.810
 7622SOL    HW223766   5.603   2.782   1.935
 7623SOL     OW23767   4.547   5.183   6.448
 7623SOL    HW123768   4.530   5.250   6.520
 7623SOL    HW223769   4.558   5.231   6.361
 7624SOL     OW23770   0.410   2.112   3.963
 7624SOL    HW123771   0.405   2.209   3.941
 7624SOL    HW223772   0.484   2.070   3.911
 7625SOL     OW23773   5.129   0.983   0.281
 7625SOL    HW123774   5.040   0.947   0.252
 7625SOL    HW223775   5.118   1.078   0.309
 7626SOL     OW23776   0.023   6.457   4.676
 7626SOL    HW123777   6.949   6.465   4.711
 7626SOL    HW223778   0.088   6.469   4.751
 7627SOL     OW23779   6.055   3.341   0.496
 7627SOL    HW123780   6.079   3.323   0.591
 7627SOL    HW223781   5.956   3.345   0.486
 7628SOL     OW23782   3.126   1.010   1.471
 7628SOL    HW123783   3.207   1.069   1.465
 7628SOL    HW223784   3.044   1.067   1.481
 7629SOL     OW23785   6.373   6.448   2.958
 7629SOL    HW123786   6.440   6.498   2.903
 7629SOL    HW223787   6.368   6.353   2.926
 7630SOL     OW23788   5.993   6.538   2.218
 7630SOL    HW123789   6.033   6.525   2.127
 7630SOL    HW223790   6.064   6.527   2.287
 7631SOL     OW23791   1.113   2.111   5.339
 7631SOL    HW123792   1.066   2.109   5.250
 7631SOL    HW223793   1.210   2.086   5.325
 7632SOL     OW23794   3.623   1.950   1.155
 7632SOL    HW123795   3.659   1.859   1.137
 7632SOL    HW223796   3.666   2.016   1.094
 7633SOL     OW23797   5.454   3.011   0.509
 7633SOL    HW123798   5.439   2.917   0.542
 7633SOL    HW223799   5.376   3.068   0.536
 7634SOL     OW23800   0.952   1.364   2.183
 7634SOL    HW123801   1.015   1.426   2.135
 7634SOL    HW223802   0.977   1.359   2.279
 7635SOL     OW23803   2.533   5.638   5.339
 7635SOL    HW123804   2.590   5.627   5.258
 7635SOL    HW223805   2.561   5.572   5.409
 7636SOL     OW23806   0.905   1.510   3.651
 7636SOL    HW123807   0.919   1.423   3.603
 7636SOL    HW223808   0.874   1.492   3.744
 7637SOL     OW23809   1.992   6.775   3.591
 7637SOL    HW123810   2.020   6.688   3.633
 7637SOL    HW223811   1.898   6.796   3.617
 7638SOL     OW23812   5.564   5.600   1.752
 7638SOL    HW123813   5.481   5.636   1.711
 7638SOL    HW223814   5.639   5.664   1.738
 7639SOL     OW23815   1.526   2.087   6.811
 7639SOL    HW123816   1.496   1.999   6.773
 7639SOL    HW223817   1.581   2.136   6.744
 7640SOL     OW23818   2.298   1.927   0.052
 7640SOL    HW123819   2.215   1.925   7.015
 7640SOL    HW223820   2.290   2.001   0.119
 7641SOL     OW23821   0.908   4.493   1.930
 7641SOL    HW123822   0.927   4.562   1.999
 7641SOL    HW223823   0.982   4.426   1.928
 7642SOL     OW23824   2.787   1.844   2.790
 7642SOL    HW123825   2.789   1.848   2.890
 7642SOL    HW223826   2.693   1.825   2.760
 7643SOL     OW23827   4.786   2.265   3.382
 7643SOL    HW123828   4.812   2.231   3.472
 7643SOL    HW223829   4.726   2.344   3.392
 7644SOL     OW23830   6.106   2.193   2.612
 7644SOL    HW123831   6.108   2.283   2.657
 7644SOL    HW223832   6.115   2.205   2.514
 7645SOL     OW23833   4.906   5.113   6.008
 7645SOL    HW123834   4.865   5.102   6.098
 7645SOL    HW223835   4.979   5.045   5.996
 7646SOL     OW23836   1.821   2.284   2.387
 7646SOL    HW123837   1.834   2.228   2.469
 7646SOL    HW223838   1.724   2.304   2.375
 7647SOL     OW23839   0.871   3.438   1.612
 7647SOL    HW123840   0.965   3.472   1.615
 7647SOL    HW223841   0.831   3.458   1.523
 7648SOL     OW23842   4.470   2.299   3.528
 7648SOL    HW123843   4.549   2.294   3.467
 7648SOL    HW223844   4.482   2.235   3.603
 7649SOL     OW23845   0.879   0.510   2.417
 7649SOL    HW123846   0.885   0.606   2.389
 7649SOL    HW223847   0.795   0.469   2.379
 7650SOL     OW23848   5.910   3.249   2.206
 7650SOL    HW123849   5.865   3.194   2.135
 7650SOL    HW223850   5.843   3.304   2.254
 7651SOL     OW23851   2.037   6.989   6.429
 7651SOL    HW123852   1.967   6.930   6.470
 7651SOL    HW223853   2.061   0.043   6.492
 7652SOL     OW23854   6.579   3.994   4.070
 7652SOL    HW123855   6.642   3.930   4.115
 7652SOL    HW223856   6.583   3.981   3.971
 7653SOL     OW23857   1.995   1.074   1.009
 7653SOL    HW123858   1.916   1.018   0.985
 7653SOL    HW223859   2.034   1.115   0.926
 7654SOL     OW23860   4.858   2.552   3.015
 7654SOL    HW123861   4.784   2.595   3.067
 7654SOL    HW223862   4.858   2.587   2.921
 7655SOL     OW23863   3.812   0.194   3.809
 7655SOL    HW123864   3.726   0.197   3.757
 7655SOL    HW223865   3.869   0.120   3.772
 7656SOL     OW23866   0.656   5.848   6.228
 7656SOL    HW123867   0.724   5.777   6.249
 7656SOL    HW223868   0.600   5.817   6.151
 7657SOL     OW23869   3.177   2.105   2.768
 7657SOL    HW123870   3.080   2.095   2.749
 7657SOL    HW223871   3.228   2.102   2.682
 7658SOL     OW23872   4.530   0.018   5.959
 7658SOL    HW123873   4.467   6.984   6.014
 7658SOL    HW223874   4.507   0.008   5.862
 7659SOL     OW23875   5.541   6.708   0.051
 7659SOL    HW123876   5.446   6.730   0.031
 7659SOL    HW223877   5.548   6.616   0.088
 7660SOL     OW23878   5.909   5.812   4.354
 7660SOL    HW123879   5.904   5.795   4.256
 7660SOL    HW223880   5.868   5.736   4.404
 7661SOL     OW23881   5.924   2.087   4.510
 7661SOL    HW123882   5.855   2.138   4.459
 7661SOL    HW223883   5.879   2.032   4.580
 7662SOL     OW23884   1.573   2.516   1.949
 7662SOL    HW123885   1.582   2.432   2.003
 7662SOL    HW223886   1.651   2.576   1.967
 7663SOL     OW23887   6.566   5.751   6.511
 7663SOL    HW123888   6.576   5.843   6.472
 7663SOL    HW223889   6.598   5.683   6.444
 7664SOL     OW23890   3.111   6.613   2.753
 7664SOL    HW123891   3.095   6.668   2.671
 7664SOL    HW223892   3.126   6.673   2.832
 7665SOL     OW23893   3.319   6.901   3.494
 7665SOL    HW123894   3.310   6.936   3.587
 7665SOL    HW223895   3.417   6.895   3.471
 7666SOL     OW23896   6.893   6.984   1.522
 7666SOL    HW123897   6.833   0.044   1.518
 7666SOL    HW223898   6.950   6.981   1.439
 7667SOL     OW23899   5.472   5.770   0.527
 7667SOL    HW123900   5.570   5.749   0.529
 7667SOL    HW223901   5.429   5.720   0.453
 7668SOL     OW23902   3.080   3.877   1.514
 7668SOL    HW123903   3.123   3.795   1.476
 7668SOL    HW223904   3.024   3.921   1.444
 7669SOL     OW23905   5.337   1.424   4.593
 7669SOL    HW123906   5.415   1.481   4.570
 7669SOL    HW223907   5.280   1.469   4.662
 7670SOL     OW23908   1.353   6.046   6.447
 7670SOL    HW123909   1.320   6.137   6.469
 7670SOL    HW223910   1.420   6.017   6.515
 7671SOL     OW23911   4.388   1.259   4.356
 7671SOL    HW123912   4.438   1.268   4.442
 7671SOL    HW223913   4.409   1.336   4.296
 7672SOL     OW23914   6.047   0.054   3.607
 7672SOL    HW123915   6.060   7.001   3.540
 7672SOL    HW223916   6.077   0.022   3.697
 7673SOL     OW23917   2.025   5.130   0.597
 7673SOL    HW123918   2.047   5.080   0.513
 7673SOL    HW223919   1.928   5.119   0.618
 7674SOL     OW23920   6.764   1.985   4.167
 7674SOL    HW123921   6.780   1.925   4.245
 7674SOL    HW223922   6.848   1.994   4.114
 7675SOL     OW23923   5.036   0.542   2.075
 7675SOL    HW123924   5.038   0.467   2.009
 7675SOL    HW223925   5.043   0.506   2.168
 7676SOL     OW23926   0.552   1.941   6.904
 7676SOL    HW123927   0.482   1.907   6.968
 7676SOL    HW223928   0.510   1.958   6.815
 7677SOL     OW23929   1.475   2.884   1.934
 7677SOL    HW123930   1.496   2.913   2.028
 7677SOL    HW223931   1.405   2.813   1.936
 7678SOL     OW23932   1.179   0.956   6.141
 7678SOL    HW123933   1.245   0.884   6.161
 7678SOL    HW223934   1.158   0.955   6.043
 7679SOL     OW23935   1.488   5.911   4.936
 7679SOL    HW123936   1.566   5.973   4.943
 7679SOL    HW223937   1.428   5.924   5.015
 7680SOL     OW23938   2.338   3.184   6.772
 7680SOL    HW123939   2.239   3.186   6.790
 7680SOL    HW223940   2.366   3.092   6.747
 7681SOL     OW23941   3.182   0.171   0.314
 7681SOL    HW123942   3.138   0.260   0.324
 7681SOL    HW223943   3.266   0.169   0.369
 7682SOL     OW23944   2.105   0.253   1.473
 7682SOL    HW123945   2.187   0.225   1.423
 7682SOL    HW223946   2.126   0.335   1.527
 7683SOL     OW23947   6.407   2.464   3.385
 7683SOL    HW123948   6.422   2.495   3.291
 7683SOL    HW223949   6.364   2.374   3.384
 7684SOL     OW23950   5.885   2.409   6.812
 7684SOL    HW123951   5.799   2.420   6.763
 7684SOL    HW223952   5.868   2.364   6.900
 7685SOL     OW23953   3.897   2.399   6.970
 7685SOL    HW123954   3.861   2.386   0.042
 7685SOL    HW223955   3.833   2.454   6.917
 7686SOL     OW23956   4.174   0.291   3.109
 7686SOL    HW123957   4.087   0.304   3.157
 7686SOL    HW223958   4.246   0.341   3.156
 7687SOL     OW23959   5.540   5.868   5.702
 7687SOL    HW123960   5.490   5.944   5.662
 7687SOL    HW223961   5.627   5.901   5.740
 7688SOL     OW23962   6.891   6.687   6.561
 7688SOL    HW123963   6.854   6.753   6.496
 7688SOL    HW223964   6.914   6.734   6.647
 7689SOL     OW23965   4.947   5.899   3.969
 7689SOL    HW123966   5.035   5.877   3.927
 7689SOL    HW223967   4.881   5.920   3.898
 7690SOL     OW23968   5.786   5.470   2.673
 7690SOL    HW123969   5.791   5.546   2.739
 7690SOL    HW223970   5.868   5.414   2.680
 7691SOL     OW23971   4.858   3.057   4.117
 7691SOL    HW123972   4.795   2.985   4.144
 7691SOL    HW223973   4.882   3.112   4.196
 7692SOL     OW23974   0.620   6.884   1.336
 7692SOL    HW123975   0.675   6.965   1.317
 7692SOL    HW223976   0.648   6.844   1.423
 7693SOL     OW23977   4.356   1.002   7.019
 7693SOL    HW123978   4.389   0.984   6.927
 7693SOL    HW223979   4.256   1.001   0.000
 7694SOL     OW23980   1.037   4.446   3.795
 7694SOL    HW123981   1.075   4.381   3.860
 7694SOL    HW223982   1.075   4.429   3.704
 7695SOL     OW23983   4.121   0.101   0.874
 7695SOL    HW123984   4.216   0.098   0.904
 7695SOL    HW223985   4.113   0.060   0.783
 7696SOL     OW23986   6.654   2.214   4.328
 7696SOL    HW123987   6.654   2.118   4.303
 7696SOL    HW223988   6.640   2.270   4.246
 7697SOL     OW23989   2.621   1.031   3.076
 7697SOL    HW123990   2.717   1.059   3.069
 7697SOL    HW223991   2.569   1.078   3.005
 7698SOL     OW23992   0.276   3.158   4.267
 7698SOL    HW123993   0.334   3.238   4.250
 7698SOL    HW223994   0.250   3.156   4.363
 7699SOL     OW23995   2.697   5.769   6.811
 7699SOL    HW123996   2.749   5.781   6.895
 7699SOL    HW223997   2.720   5.841   6.746
 7700SOL     OW23998   4.668   6.589   5.349
 7700SOL    HW123999   4.664   6.670   5.408
 7700SOL    HW224000   4.668   6.618   5.254
 7701SOL     OW24001   6.280   1.613   6.509
 7701SOL    HW124002   6.335   1.592   6.428
 7701SOL    HW224003   6.311   1.557   6.586
 7702SOL     OW24004   3.964   6.226   6.172
 7702SOL    HW124005   3.955   6.132   6.139
 7702SOL    HW224006   3.877   6.256   6.211
 7703SOL     OW24007   6.528   1.414   5.217
 7703SOL    HW124008   6.485   1.485   5.273
 7703SOL    HW224009   6.526   1.442   5.121
 7704SOL     OW24010   4.367   4.689   6.005
 7704SOL    HW124011   4.447   4.746   5.989
 7704SOL    HW224012   4.336   4.701   6.099
 7705SOL     OW24013   3.467   4.672   5.521
 7705SOL    HW124014   3.390   4.736   5.527
 7705SOL    HW224015   3.514   4.668   5.609
 7706SOL     OW24016   5.591   1.114   5.627
 7706SOL    HW124017   5.666   1.048   5.619
 7706SOL    HW224018   5.585   1.147   5.721
 7707SOL     OW24019   0.310   5.637   6.429
 7707SOL    HW124020   0.401   5.680   6.428
 7707SOL    HW224021   0.292   5.600   6.520
 7708SOL     OW24022   5.044   6.074   5.082
 7708SOL    HW124023   5.013   6.164   5.112
 7708SOL    HW224024   4.989   6.003   5.125
 7709SOL     OW24025   5.337   2.994   2.538
 7709SOL    HW124026   5.430   2.958   2.543
 7709SOL    HW224027   5.286   2.945   2.468
 7710SOL     OW24028   2.075   0.523   0.853
 7710SOL    HW124029   1.995   0.552   0.800
 7710SOL    HW224030   2.046   0.500   0.946
 7711SOL     OW24031   6.241   6.425   5.227
 7711SOL    HW124032   6.299   6.473   5.161
 7711SOL    HW224033   6.201   6.344   5.185
 7712SOL     OW24034   6.613   5.243   1.363
 7712SOL    HW124035   6.541   5.249   1.432
 7712SOL    HW224036   6.625   5.332   1.320
 7713SOL     OW24037   2.140   3.761   0.971
 7713SOL    HW124038   2.085   3.842   0.953
 7713SOL    HW224039   2.125   3.730   1.065
 7714SOL     OW24040   6.202   4.959   4.643
 7714SOL    HW124041   6.183   4.866   4.677
 7714SOL    HW224042   6.301   4.973   4.638
 7715SOL     OW24043   5.077   1.132   1.107
 7715SOL    HW124044   5.101   1.118   1.203
 7715SOL    HW224045   5.014   1.059   1.078
 7716SOL     OW24046   4.897   3.055   3.491
 7716SOL    HW124047   4.901   3.130   3.424
 7716SOL    HW224048   4.801   3.038   3.515
 7717SOL     OW24049   2.549   1.553   4.994
 7717SOL    HW124050   2.632   1.607   5.011
 7717SOL    HW224051   2.496   1.548   5.079
 7718SOL     OW24052   1.634   1.849   3.519
 7718SOL    HW124053   1.568   1.833   3.592
 7718SOL    HW224054   1.679   1.937   3.533
 7719SOL     OW24055   6.813   3.322   3.754
 7719SOL    HW124056   6.867   3.250   3.712
 7719SOL    HW224057   6.728   3.334   3.704
 7720SOL     OW24058   6.599   6.661   0.834
 7720SOL    HW124059   6.634   6.747   0.796
 7720SOL    HW224060   6.664   6.588   0.815
 7721SOL     OW24061   1.934   4.278   2.846
 7721SOL    HW124062   1.981   4.266   2.759
 7721SOL    HW224063   1.868   4.205   2.860
 7722SOL     OW24064   0.312   5.131   2.653
 7722SOL    HW124065   0.403   5.151   2.615
 7722SOL    HW224066   0.317   5.051   2.712
 7723SOL     OW24067   6.869   3.892   0.754
 7723SOL    HW124068   6.897   3.819   0.816
 7723SOL    HW224069   6.835   3.853   0.669
 7724SOL     OW24070   2.187   4.730   2.043
 7724SOL    HW124071   2.238   4.664   1.988
 7724SOL    HW224072   2.096   4.745   2.003
 7725SOL     OW24073   5.087   2.406   2.808
 7725SOL    HW124074   5.042   2.494   2.799
 7725SOL    HW224075   5.092   2.380   2.904
 7726SOL     OW24076   0.433   4.435   3.969
 7726SOL    HW124077   0.362   4.474   3.910
 7726SOL    HW224078   0.503   4.392   3.912
 7727SOL     OW24079   6.043   1.716   3.995
 7727SOL    HW124080   6.130   1.729   4.043
 7727SOL    HW224081   6.055   1.649   3.922
 7728SOL     OW24082   1.152   3.195   2.822
 7728SOL    HW124083   1.083   3.255   2.862
 7728SOL    HW224084   1.130   3.100   2.842
 7729SOL     OW24085   6.031   2.584   1.327
 7729SOL    HW124086   5.987   2.621   1.409
 7729SOL    HW224087   6.131   2.595   1.334
 7730SOL     OW24088   6.122   5.884   2.146
 7730SOL    HW124089   6.157   5.871   2.053
 7730SOL    HW224090   6.125   5.981   2.170
 7731SOL     OW24091   5.972   0.936   0.945
 7731SOL    HW124092   5.879   0.917   0.914
 7731SOL    HW224093   6.012   1.008   0.888
 7732SOL     OW24094   4.602   5.993   0.760
 7732SOL    HW124095   4.536   5.923   0.733
 7732SOL    HW224096   4.621   5.986   0.858
 7733SOL     OW24097   4.182   6.707   1.405
 7733SOL    HW124098   4.155   6.659   1.488
 7733SOL    HW224099   4.275   6.681   1.380
 7734SOL     OW24100   1.284   3.530   3.282
 7734SOL    HW124101   1.310   3.575   3.197
 7734SOL    HW224102   1.241   3.596   3.343
 7735SOL     OW24103   4.729   4.572   6.846
 7735SOL    HW124104   4.672   4.502   6.889
 7735SOL    HW224105   4.687   4.599   6.759
 7736SOL     OW24106   5.402   4.627   0.685
 7736SOL    HW124107   5.420   4.528   0.687
 7736SOL    HW224108   5.484   4.675   0.652
 7737SOL     OW24109   4.690   1.619   0.799
 7737SOL    HW124110   4.705   1.706   0.752
 7737SOL    HW224111   4.684   1.545   0.731
 7738SOL     OW24112   2.487   6.018   0.762
 7738SOL    HW124113   2.574   6.051   0.725
 7738SOL    HW224114   2.464   6.070   0.844
 7739SOL     OW24115   0.378   2.240   0.809
 7739SOL    HW124116   0.402   2.272   0.901
 7739SOL    HW224117   0.414   2.305   0.742
 7740SOL     OW24118   0.193   0.190   2.917
 7740SOL    HW124119   0.270   0.227   2.864
 7740SOL    HW224120   0.224   0.167   3.009
 7741SOL     OW24121   1.622   5.662   4.881
 7741SOL    HW124122   1.685   5.685   4.807
 7741SOL    HW224123   1.550   5.732   4.885
 7742SOL     OW24124   6.483   1.751   3.278
 7742SOL    HW124125   6.390   1.784   3.261
 7742SOL    HW224126   6.539   1.766   3.197
 7743SOL     OW24127   4.534   3.259   5.846
 7743SOL    HW124128   4.459   3.306   5.799
 7743SOL    HW224129   4.551   3.171   5.801
 7744SOL     OW24130   0.198   6.263   4.025
 7744SOL    HW124131   0.288   6.228   4.001
 7744SOL    HW224132   0.190   6.269   4.125
 7745SOL     OW24133   3.778   2.177   6.109
 7745SOL    HW124134   3.822   2.099   6.153
 7745SOL    HW224135   3.813   2.262   6.148
 7746SOL     OW24136   2.152   0.191   0.166
 7746SOL    HW124137   2.240   0.177   0.121
 7746SOL    HW224138   2.104   0.266   0.121
 7747SOL     OW24139   4.884   6.449   0.693
 7747SOL    HW124140   4.967   6.395   0.707
 7747SOL    HW224141   4.807   6.387   0.677
 7748SOL     OW24142   3.135   3.707   5.876
 7748SOL    HW124143   3.090   3.791   5.847
 7748SOL    HW224144   3.157   3.652   5.795
 7749SOL     OW24145   4.634   3.050   5.703
 7749SOL    HW124146   4.609   2.978   5.768
 7749SOL    HW224147   4.731   3.071   5.712
 7750SOL     OW24148   0.709   6.238   1.303
 7750SOL    HW124149   0.771   6.312   1.277
 7750SOL    HW224150   0.620   6.276   1.327
 7751SOL     OW24151   1.180   1.789   2.209
 7751SOL    HW124152   1.206   1.694   2.190
 7751SOL    HW224153   1.106   1.817   2.148
 7752SOL     OW24154   4.938   0.577   4.477
 7752SOL    HW124155   4.969   0.538   4.564
 7752SOL    HW224156   4.848   0.541   4.454
 7753SOL     OW24157   2.005   1.286   4.358
 7753SOL    HW124158   1.960   1.367   4.397
 7753SOL    HW224159   2.104   1.294   4.371
 7754SOL     OW24160   3.659   6.184   1.827
 7754SOL    HW124161   3.631   6.125   1.751
 7754SOL    HW224162   3.619   6.275   1.814
 7755SOL     OW24163   1.637   4.155   6.742
 7755SOL    HW124164   1.658   4.077   6.801
 7755SOL    HW224165   1.707   4.226   6.755
 7756SOL     OW24166   2.270   5.997   1.384
 7756SOL    HW124167   2.368   5.978   1.384
 7756SOL    HW224168   2.220   5.912   1.369
 7757SOL     OW24169   0.279   4.760   1.829
 7757SOL    HW124170   0.336   4.827   1.877
 7757SOL    HW224171   0.193   4.803   1.803
 7758SOL     OW24172   1.467   0.831   5.963
 7758SOL    HW124173   1.454   0.904   5.897
 7758SOL    HW224174   1.431   0.745   5.926
 7759SOL     OW24175   2.523   2.329   6.192
 7759SOL    HW124176   2.514   2.343   6.094
 7759SOL    HW224177   2.445   2.277   6.226
 7760SOL     OW24178   4.299   1.975   1.862
 7760SOL    HW124179   4.332   2.032   1.937
 7760SOL    HW224180   4.266   2.033   1.788
 7761SOL     OW24181   5.417   5.383   4.229
 7761SOL    HW124182   5.412   5.386   4.329
 7761SOL    HW224183   5.346   5.322   4.194
 7762SOL     OW24184   0.130   0.276   3.799
 7762SOL    HW124185   0.056   0.286   3.865
 7762SOL    HW224186   0.156   0.367   3.765
 7763SOL     OW24187   2.622   0.494   5.284
 7763SOL    HW124188   2.578   0.537   5.205
 7763SOL    HW224189   2.552   0.455   5.343
 7764SOL     OW24190   3.238   3.869   5.518
 7764SOL    HW124191   3.263   3.933   5.446
 7764SOL    HW224192   3.141   3.845   5.510
 7765SOL     OW24193   6.855   3.247   4.045
 7765SOL    HW124194   6.897   3.156   4.048
 7765SOL    HW224195   6.869   3.287   3.955
 7766SOL     OW24196   0.791   4.696   0.252
 7766SOL    HW124197   0.803   4.615   0.193
 7766SOL    HW224198   0.843   4.683   0.336
 7767SOL     OW24199   3.483   0.327   2.535
 7767SOL    HW124200   3.550   0.303   2.604
 7767SOL    HW224201   3.392   0.296   2.564
 7768SOL     OW24202   4.498   4.844   2.781
 7768SOL    HW124203   4.472   4.771   2.718
 7768SOL    HW224204   4.560   4.907   2.734
 7769SOL     OW24205   3.840   2.012   5.444
 7769SOL    HW124206   3.755   2.063   5.432
 7769SOL    HW224207   3.857   1.956   5.363
 7770SOL     OW24208   1.320   3.135   4.531
 7770SOL    HW124209   1.312   3.173   4.624
 7770SOL    HW224210   1.324   3.035   4.536
 7771SOL     OW24211   3.140   2.706   5.822
 7771SOL    HW124212   3.190   2.623   5.845
 7771SOL    HW224213   3.178   2.783   5.873
 7772SOL     OW24214   5.365   0.897   1.270
 7772SOL    HW124215   5.429   0.853   1.207
 7772SOL    HW224216   5.392   0.877   1.365
 7773SOL     OW24217   3.286   5.724   0.311
 7773SOL    HW124218   3.338   5.681   0.237
 7773SOL    HW224219   3.247   5.653   0.369
 7774SOL     OW24220   5.108   1.747   2.614
 7774SOL    HW124221   5.089   1.825   2.674
 7774SOL    HW224222   5.125   1.666   2.669
 7775SOL     OW24223   3.708   0.768   6.975
 7775SOL    HW124224   3.710   0.676   7.014
 7775SOL    HW224225   3.717   0.836   0.028
 7776SOL     OW24226   1.016   6.620   5.084
 7776SOL    HW124227   1.020   6.543   5.147
 7776SOL    HW224228   1.065   6.698   5.124
 7777SOL     OW24229   5.889   4.845   4.111
 7777SOL    HW124230   5.986   4.833   4.130
 7777SOL    HW224231   5.835   4.814   4.190
 7778SOL     OW24232   6.215   4.284   2.942
 7778SOL    HW124233   6.120   4.275   2.911
 7778SOL    HW224234   6.246   4.378   2.927
 7779SOL     OW24235   3.020   6.309   2.155
 7779SOL    HW124236   3.067   6.322   2.243
 7779SOL    HW224237   2.946   6.243   2.167
 7780SOL     OW24238   6.455   5.560   5.463
 7780SOL    HW124239   6.554   5.547   5.465
 7780SOL    HW224240   6.409   5.472   5.479
 7781SOL     OW24241   1.830   2.903   0.451
 7781SOL    HW124242   1.922   2.910   0.488
 7781SOL    HW224243   1.830   2.836   0.376
 7782SOL     OW24244   6.456   4.745   3.482
 7782SOL    HW124245   6.374   4.799   3.502
 7782SOL    HW224246   6.469   4.738   3.383
 7783SOL     OW24247   1.034   0.017   5.289
 7783SOL    HW124248   1.045   0.114   5.312
 7783SOL    HW224249   0.964   0.008   5.218
 7784SOL     OW24250   2.519   2.420   2.113
 7784SOL    HW124251   2.532   2.329   2.151
 7784SOL    HW224252   2.590   2.439   2.046
 7785SOL     OW24253   1.754   6.269   2.678
 7785SOL    HW124254   1.731   6.173   2.668
 7785SOL    HW224255   1.853   6.281   2.669
 7786SOL     OW24256   4.118   0.479   6.947
 7786SOL    HW124257   4.139   0.562   6.997
 7786SOL    HW224258   4.178   0.405   6.977
 7787SOL     OW24259   2.592   3.220   1.065
 7787SOL    HW124260   2.617   3.136   1.113
 7787SOL    HW224261   2.659   3.239   0.993
 7788SOL     OW24262   1.508   4.583   1.238
 7788SOL    HW124263   1.430   4.524   1.258
 7788SOL    HW224264   1.503   4.665   1.294
 7789SOL     OW24265   3.400   0.521   6.721
 7789SOL    HW124266   3.495   0.550   6.719
 7789SOL    HW224267   3.393   0.436   6.774
 7790SOL     OW24268   5.902   4.849   2.367
 7790SOL    HW124269   5.873   4.763   2.326
 7790SOL    HW224270   5.969   4.894   2.308
 7791SOL     OW24271   2.119   5.681   1.596
 7791SOL    HW124272   2.199   5.683   1.655
 7791SOL    HW224273   2.071   5.594   1.606
 7792SOL     OW24274   0.700   1.417   2.859
 7792SOL    HW124275   0.732   1.438   2.951
 7792SOL    HW224276   0.768   1.360   2.812
 7793SOL     OW24277   3.931   1.703   0.226
 7793SOL    HW124278   3.987   1.758   0.165
 7793SOL    HW224279   3.986   1.630   0.267
 7794SOL     OW24280   1.040   5.555   2.835
 7794SOL    HW124281   1.071   5.640   2.878
 7794SOL    HW224282   1.119   5.504   2.801
 7795SOL     OW24283   2.749   5.412   5.756
 7795SOL    HW124284   2.681   5.403   5.829
 7795SOL    HW224285   2.833   5.365   5.783
 7796SOL     OW24286   3.703   3.010   6.240
 7796SOL    HW124287   3.745   2.921   6.222
 7796SOL    HW224288   3.608   3.008   6.210
 7797SOL     OW24289   0.876   5.452   3.217
 7797SOL    HW124290   0.800   5.387   3.213
 7797SOL    HW224291   0.902   5.479   3.124
 7798SOL     OW24292   0.644   2.010   1.526
 7798SOL    HW124293   0.713   2.017   1.598
 7798SOL    HW224294   0.672   1.941   1.460
 7799SOL     OW24295   2.696   6.348   3.185
 7799SOL    HW124296   2.665   6.433   3.228
 7799SOL    HW224297   2.638   6.272   3.216
 7800SOL     OW24298   0.830   5.990   0.802
 7800SOL    HW124299   0.923   5.958   0.821
 7800SOL    HW224300   0.820   6.007   0.704
 7801SOL     OW24301   1.356   2.509   2.590
 7801SOL    HW124302   1.274   2.462   2.623
 7801SOL    HW224303   1.383   2.579   2.656
 7802SOL     OW24304   6.542   4.035   5.778
 7802SOL    HW124305   6.589   4.123   5.790
 7802SOL    HW224306   6.449   4.042   5.812
 7803SOL     OW24307   5.164   2.372   5.645
 7803SOL    HW124308   5.117   2.322   5.717
 7803SOL    HW224309   5.226   2.310   5.597
 7804SOL     OW24310   2.391   2.006   4.493
 7804SOL    HW124311   2.328   1.941   4.536
 7804SOL    HW224312   2.358   2.099   4.509
 7805SOL     OW24313   5.487   2.557   1.710
 7805SOL    HW124314   5.468   2.615   1.631
 7805SOL    HW224315   5.582   2.527   1.707
 7806SOL     OW24316   6.348   2.012   5.222
 7806SOL    HW124317   6.350   1.934   5.159
 7806SOL    HW224318   6.415   2.080   5.193
 7807SOL     OW24319   2.288   4.748   5.809
 7807SOL    HW124320   2.324   4.743   5.716
 7807SOL    HW224321   2.256   4.658   5.838
 7808SOL     OW24322   5.092   4.086   2.891
 7808SOL    HW124323   5.052   4.176   2.872
 7808SOL    HW224324   5.135   4.050   2.809
 7809SOL     OW24325   5.047   5.303   3.653
 7809SOL    HW124326   5.096   5.239   3.594
 7809SOL    HW224327   4.949   5.303   3.629
 7810SOL     OW24328   4.474   6.074   4.909
 7810SOL    HW124329   4.491   5.989   4.960
 7810SOL    HW224330   4.526   6.072   4.823
 7811SOL     OW24331   1.089   5.520   2.136
 7811SOL    HW124332   1.182   5.552   2.118
 7811SOL    HW224333   1.091   5.440   2.195
 7812SOL     OW24334   2.514   2.746   5.666
 7812SOL    HW124335   2.585   2.800   5.712
 7812SOL    HW224336   2.424   2.778   5.694
 7813SOL     OW24337   5.744   2.577   1.438
 7813SOL    HW124338   5.714   2.658   1.387
 7813SOL    HW224339   5.687   2.499   1.413
 7814SOL     OW24340   6.296   3.096   2.212
 7814SOL    HW124341   6.291   3.112   2.113
 7814SOL    HW224342   6.207   3.114   2.253
 7815SOL     OW24343   6.218   2.631   5.649
 7815SOL    HW124344   6.132   2.682   5.647
 7815SOL    HW224345   6.200   2.533   5.644
 7816SOL     OW24346   0.597   1.918   5.619
 7816SOL    HW124347   0.652   1.999   5.598
 7816SOL    HW224348   0.530   1.903   5.546
 7817SOL     OW24349   3.093   3.327   6.235
 7817SOL    HW124350   3.000   3.289   6.233
 7817SOL    HW224351   3.095   3.406   6.297
 7818SOL     OW24352   5.365   1.341   2.127
 7818SOL    HW124353   5.462   1.359   2.143
 7818SOL    HW224354   5.328   1.289   2.204
 7819SOL     OW24355   0.891   3.878   4.225
 7819SOL    HW124356   0.961   3.806   4.230
 7819SOL    HW224357   0.833   3.862   4.145
 7820SOL     OW24358   1.416   0.883   5.603
 7820SOL    HW124359   1.465   0.801   5.632
 7820SOL    HW224360   1.323   0.858   5.575
 7821SOL     OW24361   6.340   5.736   0.471
 7821SOL    HW124362   6.337   5.836   0.466
 7821SOL    HW224363   6.351   5.698   0.379
 7822SOL     OW24364   1.233   1.133   4.619
 7822SOL    HW124365   1.193   1.216   4.658
 7822SOL    HW224366   1.242   1.064   4.691
 7823SOL     OW24367   1.384   4.120   6.826
 7823SOL    HW124368   1.388   4.148   6.922
 7823SOL    HW224369   1.468   4.150   6.780
 7824SOL     OW24370   5.489   2.401   2.536
 7824SOL    HW124371   5.566   2.422   2.477
 7824SOL    HW224372   5.428   2.337   2.490
 7825SOL     OW24373   2.864   2.938   1.400
 7825SOL    HW124374   2.792   2.875   1.371
 7825SOL    HW224375   2.943   2.886   1.432
 7826SOL     OW24376   5.999   1.354   0.250
 7826SOL    HW124377   5.989   1.435   0.308
 7826SOL    HW224378   6.043   1.281   0.302
 7827SOL     OW24379   4.767   5.216   1.712
 7827SOL    HW124380   4.778   5.158   1.793
 7827SOL    HW224381   4.682   5.191   1.665
 7828SOL     OW24382   1.000   6.264   0.515
 7828SOL    HW124383   1.011   6.327   0.438
 7828SOL    HW224384   1.007   6.315   0.601
 7829SOL     OW24385   2.968   2.936   1.711
 7829SOL    HW124386   3.012   2.883   1.639
 7829SOL    HW224387   2.980   2.890   1.799
 7830SOL     OW24388   6.104   3.412   6.519
 7830SOL    HW124389   6.124   3.388   6.614
 7830SOL    HW224390   6.077   3.330   6.469
 7831SOL     OW24391   1.111   3.374   0.643
 7831SOL    HW124392   1.033   3.435   0.658
 7831SOL    HW224393   1.127   3.319   0.725
 7832SOL     OW24394   2.691   1.897   5.287
 7832SOL    HW124395   2.755   1.939   5.351
 7832SOL    HW224396   2.738   1.825   5.236
 7833SOL     OW24397   0.737   6.571   0.242
 7833SOL    HW124398   0.768   6.604   0.153
 7833SOL    HW224399   0.642   6.598   0.256
 7834SOL     OW24400   0.617   0.791   2.096
 7834SOL    HW124401   0.572   0.783   2.008
 7834SOL    HW224402   0.698   0.732   2.097
 7835SOL     OW24403   2.282   2.828   4.823
 7835SOL    HW124404   2.266   2.886   4.743
 7835SOL    HW224405   2.330   2.880   4.893
 7836SOL     OW24406   2.967   6.852   6.502
 7836SOL    HW124407   3.020   6.936   6.492
 7836SOL    HW224408   3.001   6.783   6.437
 7837SOL     OW24409   6.093   6.482   2.481
 7837SOL    HW124410   6.051   6.565   2.520
 7837SOL    HW224411   6.056   6.402   2.527
 7838SOL     OW24412   4.131   7.004   4.638
 7838SOL    HW124413   4.034   0.006   4.653
 7838SOL    HW224414   4.143   6.905   4.633
 7839SOL     OW24415   5.709   4.615   4.658
 7839SOL    HW124416   5.782   4.605   4.590
 7839SOL    HW224417   5.682   4.524   4.691
 7840SOL     OW24418   4.895   2.842   3.953
 7840SOL    HW124419   4.913   2.919   4.015
 7840SOL    HW224420   4.862   2.764   4.006
 7841SOL     OW24421   6.828   2.289   6.863
 7841SOL    HW124422   6.833   2.229   6.943
 7841SOL    HW224423   6.918   2.331   6.848
 7842SOL     OW24424   2.162   1.636   3.077
 7842SOL    HW124425   2.121   1.723   3.049
 7842SOL    HW224426   2.143   1.567   3.007
 7843SOL     OW24427   5.841   4.230   1.519
 7843SOL    HW124428   5.930   4.264   1.486
 7843SOL    HW224429   5.779   4.307   1.531
 7844SOL     OW24430   4.332   0.662   3.445
 7844SOL    HW124431   4.407   0.675   3.380
 7844SOL    HW224432   4.252   0.714   3.414
 7845SOL     OW24433   6.760   0.766   4.173
 7845SOL    HW124434   6.755   0.833   4.247
 7845SOL    HW224435   6.854   0.732   4.164
 7846SOL     OW24436   2.109   0.545   1.494
 7846SOL    HW124437   2.196   0.565   1.537
 7846SOL    HW224438   2.045   0.620   1.511
 7847SOL     OW24439   0.274   0.568   0.672
 7847SOL    HW124440   0.225   0.544   0.587
 7847SOL    HW224441   0.351   0.506   0.685
 7848SOL     OW24442   4.100   3.900   1.332
 7848SOL    HW124443   4.045   3.819   1.352
 7848SOL    HW224444   4.082   3.971   1.400
 7849SOL     OW24445   4.999   2.981   4.457
 7849SOL    HW124446   4.956   3.068   4.434
 7849SOL    HW224447   4.977   2.956   4.551
 7850SOL     OW24448   6.965   0.988   5.099
 7850SOL    HW124449   6.931   1.028   5.184
 7850SOL    HW224450   6.899   0.921   5.065
 7851SOL     OW24451   5.889   0.313   0.320
 7851SOL    HW124452   5.844   0.234   0.278
 7851SOL    HW224453   5.888   0.390   0.256
 7852SOL     OW24454   3.163   6.516   0.020
 7852SOL    HW124455   3.237   6.528   6.974
 7852SOL    HW224456   3.109   6.601   0.026
 7853SOL     OW24457   2.675   1.939   0.589
 7853SOL    HW124458   2.706   2.026   0.552
 7853SOL    HW224459   2.722   1.864   0.542
 7854SOL     OW24460   3.281   4.105   2.239
 7854SOL    HW124461   3.265   4.018   2.287
 7854SOL    HW224462   3.304   4.176   2.305
 7855SOL     OW24463   4.249   5.062   6.287
 7855SOL    HW124464   4.160   5.102   6.308
 7855SOL    HW224465   4.253   5.038   6.190
 7856SOL     OW24466   5.864   3.665   5.162
 7856SOL    HW124467   5.959   3.688   5.144
 7856SOL    HW224468   5.824   3.624   5.080
 7857SOL     OW24469   6.068   2.086   5.875
 7857SOL    HW124470   6.058   2.178   5.913
 7857SOL    HW224471   6.029   2.020   5.939
 7858SOL     OW24472   6.469   4.246   3.708
 7858SOL    HW124473   6.438   4.251   3.803
 7858SOL    HW224474   6.478   4.338   3.671
 7859SOL     OW24475   1.200   4.971   5.967
 7859SOL    HW124476   1.101   4.971   5.954
 7859SOL    HW224477   1.243   5.032   5.900
 7860SOL     OW24478   4.305   7.015   1.807
 7860SOL    HW124479   4.355   6.959   1.741
 7860SOL    HW224480   4.210   0.006   1.776
 7861SOL     OW24481   4.165   5.124   1.247
 7861SOL    HW124482   4.086   5.081   1.291
 7861SOL    HW224483   4.219   5.173   1.316
 7862SOL     OW24484   3.050   4.181   1.781
 7862SOL    HW124485   2.979   4.121   1.744
 7862SOL    HW224486   3.012   4.272   1.794
 7863SOL     OW24487   6.681   5.987   2.476
 7863SOL    HW124488   6.702   5.890   2.488
 7863SOL    HW224489   6.587   5.997   2.445
 7864SOL     OW24490   0.615   5.828   5.357
 7864SOL    HW124491   0.575   5.887   5.286
 7864SOL    HW224492   0.590   5.864   5.447
 7865SOL     OW24493   3.573   6.470   3.266
 7865SOL    HW124494   3.659   6.442   3.307
 7865SOL    HW224495   3.579   6.565   3.234
 7866SOL     OW24496   2.588   1.942   3.354
 7866SOL    HW124497   2.633   1.937   3.444
 7866SOL    HW224498   2.631   2.013   3.299
 7867SOL     OW24499   6.554   5.867   2.107
 7867SOL    HW124500   6.597   5.952   2.078
 7867SOL    HW224501   6.563   5.799   2.035
 7868SOL     OW24502   5.074   6.253   0.935
 7868SOL    HW124503   5.091   6.312   0.856
 7868SOL    HW224504   4.977   6.231   0.940
 7869SOL     OW24505   6.930   3.019   1.863
 7869SOL    HW124506   6.834   3.014   1.837
 7869SOL    HW224507   6.967   3.109   1.839
 7870SOL     OW24508   0.024   5.520   3.732
 7870SOL    HW124509   0.002   5.543   3.826
 7870SOL    HW224510   6.963   5.535   3.674
 7871SOL     OW24511   5.907   3.145   3.015
 7871SOL    HW124512   5.970   3.106   3.083
 7871SOL    HW224513   5.847   3.074   2.981
 7872SOL     OW24514   0.063   3.715   2.948
 7872SOL    HW124515   0.136   3.755   2.892
 7872SOL    HW224516   0.011   3.788   2.992
 7873SOL     OW24517   6.894   6.211   6.201
 7873SOL    HW124518   6.932   6.146   6.267
 7873SOL    HW224519   6.920   6.304   6.227
 7874SOL     OW24520   5.918   1.739   7.016
 7874SOL    HW124521   5.836   1.790   6.991
 7874SOL    HW224522   5.998   1.780   6.972
 7875SOL     OW24523   5.233   3.926   6.607
 7875SOL    HW124524   5.162   3.894   6.669
 7875SOL    HW224525   5.261   4.018   6.635
 7876SOL     OW24526   6.848   0.138   4.393
 7876SOL    HW124527   6.788   0.066   4.428
 7876SOL    HW224528   6.795   0.199   4.334
 7877SOL     OW24529   6.661   2.788   2.933
 7877SOL    HW124530   6.666   2.835   2.845
 7877SOL    HW224531   6.674   2.690   2.919
 7878SOL     OW24532   4.662   4.566   2.244
 7878SOL    HW124533   4.571   4.555   2.205
 7878SOL    HW224534   4.658   4.631   2.320
 7879SOL     OW24535   5.015   6.124   3.312
 7879SOL    HW124536   5.057   6.101   3.224
 7879SOL    HW224537   5.004   6.223   3.319
 7880SOL     OW24538   0.639   6.264   6.692
 7880SOL    HW124539   0.549   6.289   6.728
 7880SOL    HW224540   0.686   6.346   6.659
 7881SOL     OW24541   0.170   4.267   5.366
 7881SOL    HW124542   0.179   4.360   5.402
 7881SOL    HW224543   0.144   4.272   5.269
 7882SOL     OW24544   0.790   3.104   2.625
 7882SOL    HW124545   0.783   3.203   2.635
 7882SOL    HW224546   0.765   3.078   2.531
 7883SOL     OW24547   2.762   1.407   3.014
 7883SOL    HW124548   2.734   1.471   3.086
 7883SOL    HW224549   2.734   1.443   2.925
 7884SOL     OW24550   1.720   5.016   3.839
 7884SOL    HW124551   1.798   5.006   3.777
 7884SOL    HW224552   1.635   5.001   3.788
 7885SOL     OW24553   5.729   5.611   2.902
 7885SOL    HW124554   5.652   5.551   2.883
 7885SOL    HW224555   5.776   5.580   2.985
 7886SOL     OW24556   5.009   3.202   1.804
 7886SOL    HW124557   5.031   3.109   1.831
 7886SOL    HW224558   4.938   3.201   1.734
 7887SOL     OW24559   4.036   3.237   6.825
 7887SOL    HW124560   3.937   3.220   6.824
 7887SOL    HW224561   4.056   3.317   6.770
 7888SOL     OW24562   6.159   1.565   4.253
 7888SOL    HW124563   6.165   1.658   4.217
 7888SOL    HW224564   6.244   1.541   4.300
 7889SOL     OW24565   6.136   5.250   0.300
 7889SOL    HW124566   6.090   5.246   0.211
 7889SOL    HW224567   6.131   5.344   0.336
 7890SOL     OW24568   1.590   2.901   4.414
 7890SOL    HW124569   1.618   2.904   4.319
 7890SOL    HW224570   1.615   2.986   4.460
 7891SOL     OW24571   0.134   2.308   3.949
 7891SOL    HW124572   0.136   2.344   4.042
 7891SOL    HW224573   0.209   2.346   3.896
 7892SOL     OW24574   1.829   2.648   5.241
 7892SOL    HW124575   1.837   2.617   5.336
 7892SOL    HW224576   1.811   2.747   5.240
 7893SOL     OW24577   6.174   0.442   1.866
 7893SOL    HW124578   6.090   0.461   1.917
 7893SOL    HW224579   6.224   0.367   1.910
 7894SOL     OW24580   2.145   1.678   6.405
 7894SOL    HW124581   2.100   1.669   6.317
 7894SOL    HW224582   2.206   1.600   6.419
 7895SOL     OW24583   3.647   6.094   3.630
 7895SOL    HW124584   3.680   6.015   3.682
 7895SOL    HW224585   3.629   6.066   3.536
 7896SOL     OW24586   4.188   2.545   1.676
 7896SOL    HW124587   4.183   2.563   1.578
 7896SOL    HW224588   4.273   2.584   1.713
 7897SOL     OW24589   3.761   4.009   6.315
 7897SOL    HW124590   3.754   4.109   6.324
 7897SOL    HW224591   3.720   3.980   6.229
 7898SOL     OW24592   4.995   0.154   4.468
 7898SOL    HW124593   4.956   0.067   4.501
 7898SOL    HW224594   5.046   0.197   4.542
 7899SOL     OW24595   5.306   5.420   1.383
 7899SOL    HW124596   5.265   5.330   1.397
 7899SOL    HW224597   5.406   5.411   1.378
 7900SOL     OW24598   0.742   4.345   0.874
 7900SOL    HW124599   0.761   4.251   0.846
 7900SOL    HW224600   0.694   4.393   0.801
 7901SOL     OW24601   5.473   1.187   6.369
 7901SOL    HW124602   5.386   1.219   6.331
 7901SOL    HW224603   5.492   1.095   6.335
 7902SOL     OW24604   6.912   5.849   2.826
 7902SOL    HW124605   6.992   5.823   2.772
 7902SOL    HW224606   6.871   5.932   2.788
 7903SOL     OW24607   2.736   1.745   4.162
 7903SOL    HW124608   2.638   1.744   4.141
 7903SOL    HW224609   2.783   1.803   4.096
 7904SOL     OW24610   6.204   0.665   2.331
 7904SOL    HW124611   6.117   0.644   2.376
 7904SOL    HW224612   6.186   0.723   2.251
 7905SOL     OW24613   5.654   1.105   0.733
 7905SOL    HW124614   5.556   1.118   0.741
 7905SOL    HW224615   5.681   1.112   0.637
 7906SOL     OW24616   1.631   5.066   1.107
 7906SOL    HW124617   1.712   5.121   1.087
 7906SOL    HW224618   1.549   5.117   1.081
 7907SOL     OW24619   6.139   0.659   2.768
 7907SOL    HW124620   6.228   0.676   2.726
 7907SOL    HW224621   6.120   0.732   2.834
 7908SOL     OW24622   0.377   1.167   6.387
 7908SOL    HW124623   0.375   1.267   6.392
 7908SOL    HW224624   0.372   1.129   6.479
 7909SOL     OW24625   5.367   4.377   2.559
 7909SOL    HW124626   5.275   4.354   2.528
 7909SOL    HW224627   5.400   4.309   2.624
 7910SOL     OW24628   2.008   3.397   0.969
 7910SOL    HW124629   2.068   3.477   0.982
 7910SOL    HW224630   1.989   3.355   1.057
 7911SOL     OW24631   0.830   4.025   0.996
 7911SOL    HW124632   0.754   4.078   1.035
 7911SOL    HW224633   0.904   4.020   1.062
 7912SOL     OW24634   5.021   5.414   0.149
 7912SOL    HW124635   4.942   5.357   0.173
 7912SOL    HW224636   5.105   5.365   0.171
 7913SOL     OW24637   0.942   4.139   0.689
 7913SOL    HW124638   0.946   4.110   0.785
 7913SOL    HW224639   0.858   4.103   0.647
 7914SOL     OW24640   6.572   5.103   5.693
 7914SOL    HW124641   6.625   5.113   5.608
 7914SOL    HW224642   6.474   5.105   5.671
 7915SOL     OW24643   3.693   0.274   3.014
 7915SOL    HW124644   3.768   0.214   2.985
 7915SOL    HW224645   3.622   0.276   2.943
 7916SOL     OW24646   0.815   6.949   4.517
 7916SOL    HW124647   0.896   6.952   4.576
 7916SOL    HW224648   0.821   0.003   4.449
 7917SOL     OW24649   4.075   2.661   0.157
 7917SOL    HW124650   4.034   2.705   0.077
 7917SOL    HW224651   4.103   2.568   0.134
 7918SOL     OW24652   1.978   0.916   4.986
 7918SOL    HW124653   1.919   0.857   4.930
 7918SOL    HW224654   2.001   0.999   4.935
 7919SOL     OW24655   1.588   4.812   3.143
 7919SOL    HW124656   1.526   4.815   3.221
 7919SOL    HW224657   1.667   4.871   3.160
 7920SOL     OW24658   5.095   0.634   1.462
 7920SOL    HW124659   5.061   0.724   1.435
 7920SOL    HW224660   5.057   0.609   1.551
 7921SOL     OW24661   5.334   1.868   1.565
 7921SOL    HW124662   5.270   1.944   1.557
 7921SOL    HW224663   5.289   1.791   1.610
 7922SOL     OW24664   1.026   6.449   6.781
 7922SOL    HW124665   1.080   6.366   6.775
 7922SOL    HW224666   1.054   6.512   6.708
 7923SOL     OW24667   3.857   1.988   6.346
 7923SOL    HW124668   3.867   2.080   6.382
 7923SOL    HW224669   3.947   1.951   6.322
 7924SOL     OW24670   6.006   6.802   1.320
 7924SOL    HW124671   5.951   6.884   1.300
 7924SOL    HW224672   5.991   6.775   1.415
 7925SOL     OW24673   2.918   6.281   0.365
 7925SOL    HW124674   2.823   6.277   0.333
 7925SOL    HW224675   2.955   6.373   0.349
 7926SOL     OW24676   5.779   0.526   6.796
 7926SOL    HW124677   5.849   0.454   6.790
 7926SOL    HW224678   5.693   0.491   6.760
 7927SOL     OW24679   4.726   0.049   2.215
 7927SOL    HW124680   4.750   0.098   2.298
 7927SOL    HW224681   4.781   6.985   2.209
 7928SOL     OW24682   6.861   0.726   3.268
 7928SOL    HW124683   6.896   0.740   3.361
 7928SOL    HW224684   6.854   0.628   3.250
 7929SOL     OW24685   4.662   3.704   6.528
 7929SOL    HW124686   4.628   3.798   6.534
 7929SOL    HW224687   4.593   3.646   6.484
 7930SOL     OW24688   3.876   5.467   5.714
 7930SOL    HW124689   3.824   5.391   5.673
 7930SOL    HW224690   3.929   5.433   5.791
 7931SOL     OW24691   2.479   2.192   0.186
 7931SOL    HW124692   2.470   2.136   0.103
 7931SOL    HW224693   2.452   2.139   0.266
 7932SOL     OW24694   0.144   5.652   1.082
 7932SOL    HW124695   0.123   5.556   1.097
 7932SOL    HW224696   0.194   5.663   0.996
 7933SOL     OW24697   6.344   0.837   5.052
 7933SOL    HW124698   6.248   0.813   5.039
 7933SOL    HW224699   6.350   0.926   5.099
 7934SOL     OW24700   1.560   4.345   1.070
 7934SOL    HW124701   1.557   4.419   1.137
 7934SOL    HW224702   1.651   4.302   1.071
 7935SOL     OW24703   5.352   4.091   2.962
 7935SOL    HW124704   5.254   4.111   2.975
 7935SOL    HW224705   5.374   4.006   3.009
 7936SOL     OW24706   3.666   6.494   3.904
 7936SOL    HW124707   3.722   6.577   3.907
 7936SOL    HW224708   3.614   6.487   3.989
 7937SOL     OW24709   2.399   6.212   5.404
 7937SOL    HW124710   2.412   6.124   5.359
 7937SOL    HW224711   2.336   6.201   5.481
 7938SOL     OW24712   5.340   0.259   5.252
 7938SOL    HW124713   5.251   0.221   5.279
 7938SOL    HW224714   5.359   0.233   5.157
 7939SOL     OW24715   0.899   1.758   5.244
 7939SOL    HW124716   0.919   1.759   5.342
 7939SOL    HW224717   0.902   1.664   5.210
 7940SOL     OW24718   4.379   1.959   2.637
 7940SOL    HW124719   4.389   1.898   2.559
 7940SOL    HW224720   4.355   1.906   2.718
 7941SOL     OW24721   4.448   6.626   2.990
 7941SOL    HW124722   4.384   6.659   2.921
 7941SOL    HW224723   4.428   6.530   3.010
 7942SOL     OW24724   0.817   2.679   1.944
 7942SOL    HW124725   0.729   2.642   1.976
 7942SOL    HW224726   0.805   2.775   1.919
 7943SOL     OW24727   1.909   4.846   5.745
 7943SOL    HW124728   1.875   4.936   5.716
 7943SOL    HW224729   2.004   4.855   5.776
 7944SOL     OW24730   0.706   2.949   0.949
 7944SOL    HW124731   0.800   2.977   0.969
 7944SOL    HW224732   0.702   2.849   0.942
 7945SOL     OW24733   6.068   5.242   3.194
 7945SOL    HW124734   6.034   5.336   3.198
 7945SOL    HW224735   6.132   5.227   3.269
 7946SOL     OW24736   4.050   0.331   5.787
 7946SOL    HW124737   4.079   0.338   5.883
 7946SOL    HW224738   4.027   0.236   5.766
 7947SOL     OW24739   1.875   2.613   5.519
 7947SOL    HW124740   1.864   2.708   5.548
 7947SOL    HW224741   1.963   2.579   5.550
 7948SOL     OW24742   1.636   5.023   2.265
 7948SOL    HW124743   1.663   4.944   2.320
 7948SOL    HW224744   1.536   5.026   2.260
 7949SOL     OW24745   4.877   4.799   6.065
 7949SOL    HW124746   4.876   4.852   6.150
 7949SOL    HW224747   4.961   4.819   6.014
 7950SOL     OW24748   5.428   5.649   5.518
 7950SOL    HW124749   5.439   5.693   5.429
 7950SOL    HW224750   5.464   5.708   5.590
 7951SOL     OW24751   2.785   5.708   2.137
 7951SOL    HW124752   2.861   5.742   2.082
 7951SOL    HW224753   2.808   5.716   2.234
 7952SOL     OW24754   6.095   3.843   6.945
 7952SOL    HW124755   6.114   3.808   0.018
 7952SOL    HW224756   6.003   3.815   6.918
 7953SOL     OW24757   3.777   1.677   0.847
 7953SOL    HW124758   3.743   1.650   0.757
 7953SOL    HW224759   3.876   1.662   0.852
 7954SOL     OW24760   4.030   3.591   6.565
 7954SOL    HW124761   4.126   3.601   6.592
 7954SOL    HW224762   4.023   3.521   6.494
 7955SOL     OW24763   1.646   1.280   6.566
 7955SOL    HW124764   1.688   1.276   6.657
 7955SOL    HW224765   1.596   1.366   6.556
 7956SOL     OW24766   6.327   1.365   1.448
 7956SOL    HW124767   6.331   1.450   1.499
 7956SOL    HW224768   6.232   1.336   1.437
 7957SOL     OW24769   4.555   0.861   5.457
 7957SOL    HW124770   4.501   0.939   5.426
 7957SOL    HW224771   4.520   0.777   5.416
 7958SOL     OW24772   5.556   3.414   6.363
 7958SOL    HW124773   5.554   3.323   6.403
 7958SOL    HW224774   5.634   3.421   6.300
 7959SOL     OW24775   5.114   0.954   6.232
 7959SOL    HW124776   5.198   0.901   6.229
 7959SOL    HW224777   5.132   1.046   6.267
 7960SOL     OW24778   6.729   0.623   6.410
 7960SOL    HW124779   6.634   0.598   6.393
 7960SOL    HW224780   6.733   0.715   6.449
 7961SOL     OW24781   6.829   6.538   0.066
 7961SOL    HW124782   6.767   6.574   0.135
 7961SOL    HW224783   6.909   6.597   0.058
 7962SOL     OW24784   6.676   6.640   6.240
 7962SOL    HW124785   6.658   6.738   6.232
 7962SOL    HW224786   6.663   6.596   6.151
 7963SOL     OW24787   6.172   4.259   4.280
 7963SOL    HW124788   6.233   4.184   4.306
 7963SOL    HW224789   6.218   4.346   4.298
 7964SOL     OW24790   6.832   3.459   1.699
 7964SOL    HW124791   6.856   3.390   1.631
 7964SOL    HW224792   6.897   3.455   1.775
 7965SOL     OW24793   4.614   2.173   0.257
 7965SOL    HW124794   4.559   2.178   0.341
 7965SOL    HW224795   4.553   2.173   0.178
 7966SOL     OW24796   4.239   4.432   5.391
 7966SOL    HW124797   4.139   4.435   5.389
 7966SOL    HW224798   4.275   4.432   5.298
 7967SOL     OW24799   1.737   5.277   2.184
 7967SOL    HW124800   1.712   5.186   2.219
 7967SOL    HW224801   1.836   5.289   2.190
 7968SOL     OW24802   6.550   2.090   4.867
 7968SOL    HW124803   6.523   2.074   4.772
 7968SOL    HW224804   6.632   2.146   4.869
 7969SOL     OW24805   4.585   5.960   0.054
 7969SOL    HW124806   4.645   5.950   6.994
 7969SOL    HW224807   4.636   5.939   0.137
 7970SOL     OW24808   6.232   3.198   2.814
 7970SOL    HW124809   6.241   3.292   2.782
 7970SOL    HW224810   6.252   3.194   2.912
 7971SOL     OW24811   3.288   1.471   1.052
 7971SOL    HW124812   3.309   1.464   0.954
 7971SOL    HW224813   3.365   1.512   1.100
 7972SOL     OW24814   4.185   3.408   1.907
 7972SOL    HW124815   4.178   3.334   1.974
 7972SOL    HW224816   4.276   3.408   1.866
 7973SOL     OW24817   6.270   4.047   3.674
 7973SOL    HW124818   6.346   4.111   3.680
 7973SOL    HW224819   6.203   4.080   3.607
 7974SOL     OW24820   6.166   1.375   5.240
 7974SOL    HW124821   6.085   1.363   5.297
 7974SOL    HW224822   6.229   1.299   5.254
 7975SOL     OW24823   4.250   1.696   0.366
 7975SOL    HW124824   4.291   1.625   0.309
 7975SOL    HW224825   4.250   1.783   0.317
 7976SOL     OW24826   1.570   0.254   6.534
 7976SOL    HW124827   1.477   0.286   6.517
 7976SOL    HW224828   1.631   0.333   6.541
 7977SOL     OW24829   5.712   6.295   2.948
 7977SOL    HW124830   5.763   6.211   2.966
 7977SOL    HW224831   5.630   6.274   2.895
 7978SOL     OW24832   0.413   4.021   1.108
 7978SOL    HW124833   0.343   4.043   1.040
 7978SOL    HW224834   0.379   4.044   1.199
 7979SOL     OW24835   2.076   3.877   4.806
 7979SOL    HW124836   2.131   3.959   4.787
 7979SOL    HW224837   2.102   3.840   4.895
 7980SOL     OW24838   3.656   4.446   5.702
 7980SOL    HW124839   3.616   4.445   5.610
 7980SOL    HW224840   3.621   4.367   5.754
 7981SOL     OW24841   2.091   5.077   3.510
 7981SOL    HW124842   2.173   5.109   3.557
 7981SOL    HW224843   2.075   5.133   3.428
 7982SOL     OW24844   1.086   1.600   6.102
 7982SOL    HW124845   1.026   1.605   6.181
 7982SOL    HW224846   1.033   1.610   6.018
 7983SOL     OW24847   5.240   1.175   1.328
 7983SOL    HW124848   5.284   1.238   1.265
 7983SOL    HW224849   5.294   1.091   1.334
 7984SOL     OW24850   0.717   1.977   1.024
 7984SOL    HW124851   0.755   2.069   1.036
 7984SOL    HW224852   0.628   1.971   1.067
 7985SOL     OW24853   2.100   2.172   5.381
 7985SOL    HW124854   2.137   2.107   5.315
 7985SOL    HW224855   2.124   2.265   5.353
 7986SOL     OW24856   3.352   1.930   4.542
 7986SOL    HW124857   3.425   1.999   4.542
 7986SOL    HW224858   3.368   1.865   4.467
 7987SOL     OW24859   1.419   3.607   0.715
 7987SOL    HW124860   1.458   3.530   0.764
 7987SOL    HW224861   1.375   3.574   0.631
 7988SOL     OW24862   6.783   0.742   1.614
 7988SOL    HW124863   6.771   0.805   1.537
 7988SOL    HW224864   6.796   0.795   1.698
 7989SOL     OW24865   1.527   4.045   0.698
 7989SOL    HW124866   1.477   4.120   0.654
 7989SOL    HW224867   1.522   3.964   0.640
 7990SOL     OW24868   2.592   6.513   5.051
 7990SOL    HW124869   2.528   6.554   5.116
 7990SOL    HW224870   2.651   6.447   5.098
 7991SOL     OW24871   5.540   1.589   4.568
 7991SOL    HW124872   5.570   1.675   4.528
 7991SOL    HW224873   5.530   1.600   4.667
 7992SOL     OW24874   2.345   0.525   0.752
 7992SOL    HW124875   2.357   0.603   0.690
 7992SOL    HW224876   2.256   0.532   0.796
 7993SOL     OW24877   0.143   0.136   1.763
 7993SOL    HW124878   0.138   0.054   1.707
 7993SOL    HW224879   0.196   0.116   1.846
 7994SOL     OW24880   4.835   0.506   3.386
 7994SOL    HW124881   4.791   0.553   3.309
 7994SOL    HW224882   4.786   0.420   3.405
 7995SOL     OW24883   6.551   4.701   2.320
 7995SOL    HW124884   6.545   4.686   2.221
 7995SOL    HW224885   6.465   4.739   2.354
 7996SOL     OW24886   4.048   0.219   3.456
 7996SOL    HW124887   4.108   0.150   3.415
 7996SOL    HW224888   4.102   0.277   3.517
 7997SOL     OW24889   0.971   2.048   6.970
 7997SOL    HW124890   1.067   2.047   6.996
 7997SOL    HW224891   0.926   1.966   7.005
 7998SOL     OW24892   2.439   0.299   0.109
 7998SOL    HW124893   2.533   0.268   0.103
 7998SOL    HW224894   2.408   0.294   0.204
 7999SOL     OW24895   1.185   2.380   5.883
 7999SOL    HW124896   1.113   2.382   5.813
 7999SOL    HW224897   1.164   2.308   5.949
 8000SOL     OW24898   5.870   6.539   6.039
 8000SOL    HW124899   5.904   6.506   6.126
 8000SOL    HW224900   5.927   6.503   5.965
 8001SOL     OW24901   5.004   0.105   0.880
 8001SOL    HW124902   4.930   0.171   0.892
 8001SOL    HW224903   5.066   0.138   0.808
 8002SOL     OW24904   0.573   1.058   5.717
 8002SOL    HW124905   0.478   1.035   5.697
 8002SOL    HW224906   0.597   1.023   5.808
 8003SOL     OW24907   2.141   6.861   2.531
 8003SOL    HW124908   2.123   6.783   2.591
 8003SOL    HW224909   2.056   6.887   2.485
 8004SOL     OW24910   1.742   2.921   3.367
 8004SOL    HW124911   1.798   2.984   3.314
 8004SOL    HW224912   1.683   2.972   3.429
 8005SOL     OW24913   2.893   0.018   4.172
 8005SOL    HW124914   2.860   6.955   4.218
 8005SOL    HW224915   2.952   7.012   4.095
 8006SOL     OW24916   3.693   5.281   4.913
 8006SOL    HW124917   3.706   5.300   4.816
 8006SOL    HW224918   3.781   5.260   4.955
 8007SOL     OW24919   6.399   2.123   6.450
 8007SOL    HW124920   6.365   2.214   6.427
 8007SOL    HW224921   6.343   2.082   6.522
 8008SOL     OW24922   3.761   6.441   0.316
 8008SOL    HW124923   3.805   6.423   0.228
 8008SOL    HW224924   3.665   6.414   0.311
 8009SOL     OW24925   5.012   1.594   0.965
 8009SOL    HW124926   4.960   1.526   1.017
 8009SOL    HW224927   5.077   1.640   1.026
 8010SOL     OW24928   2.822   2.407   5.742
 8010SOL    HW124929   2.853   2.496   5.776
 8010SOL    HW224930   2.723   2.409   5.729
 8011SOL     OW24931   3.578   1.993   1.819
 8011SOL    HW124932   3.591   2.068   1.884
 8011SOL    HW224933   3.666   1.951   1.798
 8012SOL     OW24934   1.035   3.084   5.623
 8012SOL    HW124935   1.005   3.053   5.533
 8012SOL    HW224936   1.064   3.180   5.617
 8013SOL     OW24937   0.979   2.637   3.120
 8013SOL    HW124938   1.063   2.606   3.075
 8013SOL    HW224939   0.915   2.670   3.052
 8014SOL     OW24940   1.917   0.170   3.497
 8014SOL    HW124941   1.825   0.150   3.463
 8014SOL    HW224942   1.954   0.249   3.447
 8015SOL     OW24943   1.170   0.291   6.087
 8015SOL    HW124944   1.269   0.285   6.076
 8015SOL    HW224945   1.127   0.285   5.997
 8016SOL     OW24946   3.915   1.472   5.273
 8016SOL    HW124947   3.980   1.442   5.342
 8016SOL    HW224948   3.830   1.501   5.318
 8017SOL     OW24949   6.746   6.967   0.499
 8017SOL    HW124950   6.687   0.015   0.456
 8017SOL    HW224951   6.731   6.967   0.598
 8018SOL     OW24952   3.726   1.613   0.013
 8018SOL    HW124953   3.650   1.667   0.050
 8018SOL    HW224954   3.809   1.631   0.065
 8019SOL     OW24955   2.986   3.252   0.927
 8019SOL    HW124956   3.066   3.217   0.878
 8019SOL    HW224957   3.016   3.310   1.002
 8020SOL     OW24958   6.022   6.849   5.294
 8020SOL    HW124959   6.039   6.945   5.272
 8020SOL    HW224960   5.974   6.805   5.218
 8021SOL     OW24961   2.198   2.129   2.099
 8021SOL    HW124962   2.264   2.197   2.133
 8021SOL    HW224963   2.244   2.065   2.039
 8022SOL     OW24964   6.002   0.703   1.759
 8022SOL    HW124965   6.023   0.605   1.760
 8022SOL    HW224966   5.953   0.726   1.675
 8023SOL     OW24967   5.593   5.793   3.278
 8023SOL    HW124968   5.509   5.772   3.228
 8023SOL    HW224969   5.661   5.830   3.214
 8024SOL     OW24970   1.586   6.057   6.210
 8024SOL    HW124971   1.564   6.113   6.290
 8024SOL    HW224972   1.506   6.053   6.149
 8025SOL     OW24973   1.862   4.663   1.618
 8025SOL    HW124974   1.816   4.739   1.572
 8025SOL    HW224975   1.926   4.621   1.554
 8026SOL     OW24976   0.314   4.571   0.519
 8026SOL    HW124977   0.230   4.626   0.525
 8026SOL    HW224978   0.385   4.614   0.575
 8027SOL     OW24979   4.310   6.677   5.433
 8027SOL    HW124980   4.277   6.613   5.503
 8027SOL    HW224981   4.234   6.734   5.402
 8028SOL     OW24982   3.396   5.692   4.524
 8028SOL    HW124983   3.433   5.673   4.615
 8028SOL    HW224984   3.357   5.784   4.522
 8029SOL     OW24985   5.239   1.851   1.940
 8029SOL    HW124986   5.303   1.784   1.978
 8029SOL    HW224987   5.194   1.900   2.016
 8030SOL     OW24988   6.037   4.850   0.771
 8030SOL    HW124989   6.022   4.932   0.826
 8030SOL    HW224990   6.067   4.776   0.830
 8031SOL     OW24991   5.604   0.438   3.516
 8031SOL    HW124992   5.697   0.414   3.486
 8031SOL    HW224993   5.545   0.358   3.509
 8032SOL     OW24994   5.183   2.997   1.560
 8032SOL    HW124995   5.163   3.094   1.569
 8032SOL    HW224996   5.104   2.943   1.591
 8033SOL     OW24997   4.096   3.651   0.485
 8033SOL    HW124998   4.152   3.569   0.495
 8033SOL    HW224999   4.135   3.724   0.542
 8034SOL     OW25000   5.756   0.572   5.223
 8034SOL    HW125001   5.714   0.603   5.308
 8034SOL    HW225002   5.688   0.572   5.150
 8035SOL     OW25003   4.582   0.676   2.503
 8035SOL    HW125004   4.517   0.664   2.578
 8035SOL    HW225005   4.541   0.642   2.418
 8036SOL     OW25006   6.666   2.841   3.608
 8036SOL    HW125007   6.748   2.787   3.588
 8036SOL    HW225008   6.663   2.862   3.705
 8037SOL     OW25009   1.485   2.883   6.927
 8037SOL    HW125010   1.412   2.926   6.981
 8037SOL    HW225011   1.451   2.798   6.888
 8038SOL     OW25012   5.722   6.284   2.037
 8038SOL    HW125013   5.809   6.291   1.988
 8038SOL    HW225014   5.686   6.376   2.054
 8039SOL     OW25015   0.074   2.539   5.300
 8039SOL    HW125016   0.119   2.567   5.215
 8039SOL    HW225017   0.121   2.582   5.377
 8040SOL     OW25018   1.747   5.837   6.213
 8040SOL    HW125019   1.691   5.915   6.238
 8040SOL    HW225020   1.696   5.752   6.228
 8041SOL     OW25021   3.250   1.724   3.126
 8041SOL    HW125022   3.236   1.642   3.183
 8041SOL    HW225023   3.282   1.799   3.183
 8042SOL     OW25024   4.302   4.022   6.029
 8042SOL    HW125025   4.323   4.007   5.932
 8042SOL    HW225026   4.269   4.115   6.042
 8043SOL     OW25027   4.695   4.998   1.355
 8043SOL    HW125028   4.748   4.980   1.438
 8043SOL    HW225029   4.605   4.954   1.363
 8044SOL     OW25030   3.938   3.838   1.102
 8044SOL    HW125031   3.949   3.912   1.036
 8044SOL    HW225032   3.858   3.856   1.159
 8045SOL     OW25033   0.136   1.443   2.701
 8045SOL    HW125034   0.125   1.384   2.622
 8045SOL    HW225035   0.215   1.413   2.755
 8046SOL     OW25036   0.280   4.772   2.171
 8046SOL    HW125037   0.367   4.761   2.219
 8046SOL    HW225038   0.285   4.853   2.112
 8047SOL     OW25039   3.910   6.732   6.353
 8047SOL    HW125040   3.979   6.709   6.284
 8047SOL    HW225041   3.831   6.774   6.309
 8048SOL     OW25042   3.510   3.272   0.583
 8048SOL    HW125043   3.560   3.247   0.666
 8048SOL    HW225044   3.414   3.285   0.604
 8049SOL     OW25045   1.276   6.825   0.360
 8049SOL    HW125046   1.217   6.777   0.426
 8049SOL    HW225047   1.291   6.919   0.390
 8050SOL     OW25048   1.514   4.211   4.489
 8050SOL    HW125049   1.482   4.291   4.438
 8050SOL    HW225050   1.603   4.231   4.529
 8051SOL     OW25051   5.036   5.881   4.461
 8051SOL    HW125052   5.109   5.882   4.529
 8051SOL    HW225053   5.016   5.787   4.434
 8052SOL     OW25054   2.416   1.215   2.207
 8052SOL    HW125055   2.484   1.189   2.139
 8052SOL    HW225056   2.330   1.170   2.187
 8053SOL     OW25057   2.963   3.111   5.927
 8053SOL    HW125058   3.004   3.170   5.997
 8053SOL    HW225059   2.893   3.161   5.878
 8054SOL     OW25060   5.896   4.371   5.018
 8054SOL    HW125061   5.880   4.274   5.037
 8054SOL    HW225062   5.913   4.385   4.921
 8055SOL     OW25063   0.215   0.484   5.039
 8055SOL    HW125064   0.202   0.574   4.999
 8055SOL    HW225065   0.268   0.491   5.124
 8056SOL     OW25066   2.436   6.654   3.953
 8056SOL    HW125067   2.532   6.649   3.979
 8056SOL    HW225068   2.428   6.657   3.854
 8057SOL     OW25069   2.492   2.163   1.881
 8057SOL    HW125070   2.529   2.257   1.881
 8057SOL    HW225071   2.396   2.165   1.855
 8058SOL     OW25072   3.145   6.355   3.479
 8058SOL    HW125073   3.215   6.359   3.408
 8058SOL    HW225074   3.061   6.399   3.447
 8059SOL     OW25075   3.311   1.865   5.618
 8059SOL    HW125076   3.249   1.833   5.546
 8059SOL    HW225077   3.264   1.862   5.706
 8060SOL     OW25078   6.885   0.711   6.206
 8060SOL    HW125079   6.828   0.669   6.276
 8060SOL    HW225080   6.874   0.661   6.120
 8061SOL     OW25081   0.262   0.941   2.160
 8061SOL    HW125082   0.267   0.842   2.150
 8061SOL    HW225083   0.274   0.984   2.070
 8062SOL     OW25084   4.014   5.462   4.824
 8062SOL    HW125085   4.016   5.367   4.855
 8062SOL    HW225086   4.107   5.492   4.803
 8063SOL     OW25087   3.440   0.456   2.986
 8063SOL    HW125088   3.461   0.387   3.056
 8063SOL    HW225089   3.498   0.441   2.906
 8064SOL     OW25090   6.415   3.355   0.512
 8064SOL    HW125091   6.472   3.289   0.563
 8064SOL    HW225092   6.343   3.389   0.572
 8065SOL     OW25093   3.648   0.137   4.559
 8065SOL    HW125094   3.565   0.140   4.615
 8065SOL    HW225095   3.634   0.075   4.482
 8066SOL     OW25096   6.609   1.316   4.738
 8066SOL    HW125097   6.550   1.290   4.662
 8066SOL    HW225098   6.699   1.340   4.703
 8067SOL     OW25099   5.191   3.476   3.490
 8067SOL    HW125100   5.110   3.462   3.547
 8067SOL    HW225101   5.167   3.537   3.414
 8068SOL     OW25102   0.417   5.220   1.471
 8068SOL    HW125103   0.364   5.209   1.387
 8068SOL    HW225104   0.495   5.158   1.470
 8069SOL     OW25105   3.048   5.411   2.146
 8069SOL    HW125106   3.010   5.334   2.198
 8069SOL    HW225107   2.984   5.437   2.073
 8070SOL     OW25108   3.973   4.346   0.778
 8070SOL    HW125109   3.939   4.297   0.698
 8070SOL    HW225110   4.053   4.400   0.753
 8071SOL     OW25111   4.376   6.626   5.181
 8071SOL    HW125112   4.358   6.631   5.279
 8071SOL    HW225113   4.346   6.538   5.146
 8072SOL     OW25114   2.651   2.595   0.420
 8072SOL    HW125115   2.683   2.566   0.510
 8072SOL    HW225116   2.577   2.534   0.391
 8073SOL     OW25117   2.866   6.859   6.041
 8073SOL    HW125118   2.902   6.831   5.952
 8073SOL    HW225119   2.795   6.795   6.070
 8074SOL     OW25120   1.704   1.199   0.268
 8074SOL    HW125121   1.800   1.192   0.239
 8074SOL    HW225122   1.671   1.292   0.250
 8075SOL     OW25123   0.804   6.724   0.001
 8075SOL    HW125124   0.897   6.752   0.025
 8075SOL    HW225125   0.742   6.801   0.014
 8076SOL     OW25126   7.008   6.803   6.778
 8076SOL    HW125127   6.970   6.843   6.861
 8076SOL    HW225128   0.014   6.875   6.714
 8077SOL     OW25129   4.142   5.943   1.813
 8077SOL    HW125130   4.148   5.985   1.723
 8077SOL    HW225131   4.205   5.989   1.876
 8078SOL     OW25132   1.192   1.298   0.685
 8078SOL    HW125133   1.221   1.202   0.684
 8078SOL    HW225134   1.118   1.311   0.619
 8079SOL     OW25135   0.198   1.450   4.548
 8079SOL    HW125136   0.155   1.461   4.638
 8079SOL    HW225137   0.296   1.436   4.560
 8080SOL     OW25138   1.112   2.907   2.140
 8080SOL    HW125139   1.032   2.847   2.145
 8080SOL    HW225140   1.105   2.979   2.209
 8081SOL     OW25141   6.023   4.318   5.645
 8081SOL    HW125142   6.042   4.224   5.615
 8081SOL    HW225143   5.942   4.318   5.703
 8082SOL     OW25144   2.787   0.737   2.228
 8082SOL    HW125145   2.857   0.666   2.213
 8082SOL    HW225146   2.808   0.817   2.171
 8083SOL     OW25147   5.495   3.015   4.106
 8083SOL    HW125148   5.537   2.970   4.185
 8083SOL    HW225149   5.462   2.946   4.042
 8084SOL     OW25150   2.326   0.461   5.797
 8084SOL    HW125151   2.288   0.370   5.777
 8084SOL    HW225152   2.410   0.451   5.850
 8085SOL     OW25153   6.633   5.764   2.923
 8085SOL    HW125154   6.713   5.747   2.865
 8085SOL    HW225155   6.662   5.809   3.007
 8086SOL     OW25156   0.228   1.061   1.234
 8086SOL    HW125157   0.171   1.096   1.308
 8086SOL    HW225158   0.298   1.129   1.211
 8087SOL     OW25159   1.234   0.701   6.242
 8087SOL    HW125160   1.316   0.645   6.253
 8087SOL    HW225161   1.166   0.652   6.189
 8088SOL     OW25162   5.573   6.685   6.663
 8088SOL    HW125163   5.653   6.642   6.621
 8088SOL    HW225164   5.500   6.691   6.595
 8089SOL     OW25165   5.768   2.771   6.321
 8089SOL    HW125166   5.823   2.799   6.242
 8089SOL    HW225167   5.786   2.834   6.397
 8090SOL     OW25168   4.224   1.193   6.537
 8090SOL    HW125169   4.131   1.155   6.531
 8090SOL    HW225170   4.261   1.205   6.445
 8091SOL     OW25171   1.394   4.503   4.492
 8091SOL    HW125172   1.352   4.450   4.565
 8091SOL    HW225173   1.331   4.575   4.462
 8092SOL     OW25174   4.595   1.955   5.367
 8092SOL    HW125175   4.641   2.035   5.329
 8092SOL    HW225176   4.568   1.894   5.293
 8093SOL     OW25177   3.200   6.075   2.725
 8093SOL    HW125178   3.228   5.981   2.704
 8093SOL    HW225179   3.102   6.085   2.705
 8094SOL     OW25180   0.636   3.886   5.302
 8094SOL    HW125181   0.638   3.944   5.220
 8094SOL    HW225182   0.571   3.923   5.368
 8095SOL     OW25183   1.327   4.907   4.761
 8095SOL    HW125184   1.287   4.815   4.764
 8095SOL    HW225185   1.300   4.957   4.844
 8096SOL     OW25186   0.686   0.369   2.247
 8096SOL    HW125187   0.767   0.317   2.222
 8096SOL    HW225188   0.634   0.390   2.164
 8097SOL     OW25189   4.329   0.319   5.085
 8097SOL    HW125190   4.341   0.377   5.005
 8097SOL    HW225191   4.233   0.320   5.114
 8098SOL     OW25192   1.506   6.447   3.864
 8098SOL    HW125193   1.526   6.469   3.769
 8098SOL    HW225194   1.586   6.467   3.921
 8099SOL     OW25195   4.446   6.073   4.522
 8099SOL    HW125196   4.352   6.044   4.507
 8099SOL    HW225197   4.483   6.112   4.437
 8100SOL     OW25198   6.201   1.344   5.960
 8100SOL    HW125199   6.170   1.435   5.989
 8100SOL    HW225200   6.146   1.313   5.883
 8101SOL     OW25201   2.095   5.415   0.614
 8101SOL    HW125202   2.064   5.320   0.618
 8101SOL    HW225203   2.157   5.426   0.536
 8102SOL     OW25204   1.008   3.608   4.307
 8102SOL    HW125205   1.073   3.675   4.269
 8102SOL    HW225206   0.962   3.561   4.232
 8103SOL     OW25207   3.405   0.643   1.934
 8103SOL    HW125208   3.449   0.700   2.003
 8103SOL    HW225209   3.475   0.603   1.874
 8104SOL     OW25210   1.947   6.716   5.768
 8104SOL    HW125211   1.952   6.788   5.837
 8104SOL    HW225212   1.881   6.647   5.798
 8105SOL     OW25213   0.170   2.224   2.724
 8105SOL    HW125214   0.211   2.144   2.768
 8105SOL    HW225215   0.221   2.246   2.641
 8106SOL     OW25216   2.425   6.367   3.532
 8106SOL    HW125217   2.495   6.296   3.537
 8106SOL    HW225218   2.342   6.336   3.579
 8107SOL     OW25219   0.927   5.767   4.621
 8107SOL    HW125220   0.973   5.702   4.681
 8107SOL    HW225221   0.921   5.729   4.528
 8108SOL     OW25222   6.630   1.501   6.586
 8108SOL    HW125223   6.536   1.469   6.604
 8108SOL    HW225224   6.683   1.496   6.671
 8109SOL     OW25225   0.281   4.121   6.097
 8109SOL    HW125226   0.223   4.060   6.152
 8109SOL    HW225227   0.325   4.188   6.156
 8110SOL     OW25228   4.024   4.638   1.773
 8110SOL    HW125229   4.108   4.658   1.723
 8110SOL    HW225230   3.986   4.551   1.743
 8111SOL     OW25231   5.455   0.966   3.983
 8111SOL    HW125232   5.358   0.965   3.958
 8111SOL    HW225233   5.472   1.041   4.047
 8112SOL     OW25234   1.157   3.487   4.606
 8112SOL    HW125235   1.093   3.416   4.635
 8112SOL    HW225236   1.200   3.462   4.520
 8113SOL     OW25237   6.031   3.400   1.011
 8113SOL    HW125238   6.107   3.396   1.076
 8113SOL    HW225239   5.944   3.394   1.060
 8114SOL     OW25240   1.300   3.773   1.962
 8114SOL    HW125241   1.271   3.855   1.912
 8114SOL    HW225242   1.294   3.693   1.903
 8115SOL     OW25243   3.216   6.394   5.807
 8115SOL    HW125244   3.245   6.486   5.833
 8115SOL    HW225245   3.157   6.356   5.878
 8116SOL     OW25246   4.249   5.306   0.658
 8116SOL    HW125247   4.274   5.274   0.749
 8116SOL    HW225248   4.316   5.272   0.592
 8117SOL     OW25249   2.043   0.059   2.968
 8117SOL    HW125250   2.064   6.986   2.936
 8117SOL    HW225251   2.017   0.056   3.064
 8118SOL     OW25252   6.394   4.151   6.797
 8118SOL    HW125253   6.465   4.109   6.741
 8118SOL    HW225254   6.304   4.117   6.768
 8119SOL     OW25255   4.962   6.365   6.248
 8119SOL    HW125256   5.033   6.298   6.228
 8119SOL    HW225257   4.981   6.450   6.199
 8120SOL     OW25258   2.621   4.975   0.482
 8120SOL    HW125259   2.671   5.014   0.404
 8120SOL    HW225260   2.649   5.023   0.565
 8121SOL     OW25261   1.037   4.328   2.288
 8121SOL    HW125262   1.064   4.311   2.194
 8121SOL    HW225263   1.118   4.351   2.343
 8122SOL     OW25264   1.376   4.536   3.171
 8122SOL    HW125265   1.385   4.628   3.209
 8122SOL    HW225266   1.308   4.537   3.098
 8123SOL     OW25267   0.022   1.201   6.926
 8123SOL    HW125268   0.090   1.211   6.998
 8123SOL    HW225269   6.955   1.170   6.965
 8124SOL     OW25270   5.622   6.207   3.565
 8124SOL    HW125271   5.590   6.301   3.575
 8124SOL    HW225272   5.609   6.177   3.471
 8125SOL     OW25273   1.012   1.003   2.588
 8125SOL    HW125274   1.003   0.904   2.585
 8125SOL    HW225275   1.022   1.039   2.495
 8126SOL     OW25276   4.862   5.015   3.523
 8126SOL    HW125277   4.764   5.006   3.506
 8126SOL    HW225278   4.892   5.108   3.501
 8127SOL     OW25279   2.857   2.948   6.472
 8127SOL    HW125280   2.879   2.979   6.380
 8127SOL    HW225281   2.793   3.011   6.515
 8128SOL     OW25282   2.931   2.123   1.857
 8128SOL    HW125283   2.907   2.201   1.913
 8128SOL    HW225284   3.031   2.114   1.852
 8129SOL     OW25285   2.061   2.180   6.673
 8129SOL    HW125286   2.159   2.161   6.667
 8129SOL    HW225287   2.034   2.186   6.770
 8130SOL     OW25288   1.886   6.620   6.890
 8130SOL    HW125289   1.847   6.528   6.888
 8130SOL    HW225290   1.963   6.623   6.954
 8131SOL     OW25291   2.325   2.457   1.314
 8131SOL    HW125292   2.335   2.537   1.256
 8131SOL    HW225293   2.268   2.479   1.393
 8132SOL     OW25294   6.129   6.552   4.627
 8132SOL    HW125295   6.164   6.643   4.602
 8132SOL    HW225296   6.073   6.517   4.552
 8133SOL     OW25297   3.939   5.479   2.499
 8133SOL    HW125298   3.967   5.467   2.594
 8133SOL    HW225299   4.005   5.537   2.452
 8134SOL     OW25300   6.480   1.222   6.254
 8134SOL    HW125301   6.513   1.138   6.213
 8134SOL    HW225302   6.556   1.286   6.265
 8135SOL     OW25303   1.658   0.705   1.547
 8135SOL    HW125304   1.630   0.644   1.621
 8135SOL    HW225305   1.624   0.797   1.566
 8136SOL     OW25306   5.526   5.258   2.234
 8136SOL    HW125307   5.552   5.163   2.250
 8136SOL    HW225308   5.605   5.317   2.251
 8137SOL     OW25309   2.982   1.119   5.203
 8137SOL    HW125310   2.985   1.024   5.237
 8137SOL    HW225311   3.061   1.135   5.143
 8138SOL     OW25312   5.580   1.160   1.819
 8138SOL    HW125313   5.609   1.241   1.767
 8138SOL    HW225314   5.651   1.135   1.884
 8139SOL     OW25315   0.805   1.296   1.954
 8139SOL    HW125316   0.720   1.245   1.964
 8139SOL    HW225317   0.843   1.315   2.045
 8140SOL     OW25318   4.834   1.345   4.512
 8140SOL    HW125319   4.879   1.305   4.591
 8140SOL    HW225320   4.806   1.272   4.449
 8141SOL     OW25321   4.037   5.355   5.920
 8141SOL    HW125322   4.066   5.398   6.006
 8141SOL    HW225323   4.117   5.314   5.876
 8142SOL     OW25324   6.336   5.216   6.966
 8142SOL    HW125325   6.419   5.199   0.001
 8142SOL    HW225326   6.276   5.136   6.972
 8143SOL     OW25327   6.424   4.913   0.062
 8143SOL    HW125328   6.460   4.977   7.014
 8143SOL    HW225329   6.462   4.822   0.045
 8144SOL     OW25330   5.367   0.157   0.059
 8144SOL    HW125331   5.327   0.096   7.010
 8144SOL    HW225332   5.322   0.142   0.147
 8145SOL     OW25333   5.755   5.885   2.443
 8145SOL    HW125334   5.729   5.864   2.537
 8145SOL    HW225335   5.687   5.847   2.380
 8146SOL     OW25336   3.516   1.543   5.857
 8146SOL    HW125337   3.575   1.540   5.938
 8146SOL    HW225338   3.517   1.636   5.819
 8147SOL     OW25339   5.261   1.865   3.386
 8147SOL    HW125340   5.176   1.917   3.389
 8147SOL    HW225341   5.287   1.849   3.291
 8148SOL     OW25342   5.433   3.719   2.525
 8148SOL    HW125343   5.341   3.745   2.495
 8148SOL    HW225344   5.493   3.710   2.445
 8149SOL     OW25345   2.596   5.761   3.383
 8149SOL    HW125346   2.502   5.769   3.353
 8149SOL    HW225347   2.598   5.749   3.482
 8150SOL     OW25348   0.129   4.725   0.624
 8150SOL    HW125349   0.208   4.775   0.658
 8150SOL    HW225350   0.056   4.727   0.692
 8151SOL     OW25351   1.066   2.077   3.060
 8151SOL    HW125352   1.118   2.111   3.138
 8151SOL    HW225353   0.976   2.121   3.058
 8152SOL     OW25354   1.441   1.501   3.137
 8152SOL    HW125355   1.407   1.505   3.231
 8152SOL    HW225356   1.516   1.435   3.132
 8153SOL     OW25357   2.978   6.996   2.627
 8153SOL    HW125358   3.022   0.055   2.584
 8153SOL    HW225359   2.999   6.913   2.575
 8154SOL     OW25360   2.277   5.936   4.512
 8154SOL    HW125361   2.267   5.844   4.474
 8154SOL    HW225362   2.375   5.956   4.525
 8155SOL     OW25363   3.193   3.058   2.624
 8155SOL    HW125364   3.185   2.959   2.613
 8155SOL    HW225365   3.274   3.090   2.575
 8156SOL     OW25366   5.902   0.350   5.257
 8156SOL    HW125367   5.900   0.356   5.357
 8156SOL    HW225368   5.848   0.425   5.218
 8157SOL     OW25369   5.597   5.452   6.525
 8157SOL    HW125370   5.585   5.445   6.624
 8157SOL    HW225371   5.566   5.368   6.481
 8158SOL     OW25372   1.510   6.040   0.911
 8158SOL    HW125373   1.489   6.135   0.890
 8158SOL    HW225374   1.535   5.992   0.827
 8159SOL     OW25375   2.405   5.564   1.992
 8159SOL    HW125376   2.378   5.639   1.932
 8159SOL    HW225377   2.503   5.547   1.982
 8160SOL     OW25378   4.670   1.697   1.061
 8160SOL    HW125379   4.686   1.659   0.969
 8160SOL    HW225380   4.574   1.723   1.069
 8161SOL     OW25381   4.870   1.027   0.830
 8161SOL    HW125382   4.929   1.105   0.811
 8161SOL    HW225383   4.873   1.005   0.927
 8162SOL     OW25384   6.163   6.514   0.191
 8162SOL    HW125385   6.228   6.443   0.165
 8162SOL    HW225386   6.161   6.523   0.291
 8163SOL     OW25387   2.696   4.008   5.559
 8163SOL    HW125388   2.779   3.983   5.508
 8163SOL    HW225389   2.639   3.927   5.572
 8164SOL     OW25390   5.586   3.147   1.527
 8164SOL    HW125391   5.526   3.083   1.575
 8164SOL    HW225392   5.531   3.204   1.466
 8165SOL     OW25393   2.233   4.445   1.392
 8165SOL    HW125394   2.310   4.504   1.365
 8165SOL    HW225395   2.151   4.501   1.402
 8166SOL     OW25396   2.088   0.849   2.143
 8166SOL    HW125397   2.009   0.903   2.113
 8166SOL    HW225398   2.163   0.910   2.168
 8167SOL     OW25399   5.854   2.555   3.675
 8167SOL    HW125400   5.799   2.534   3.594
 8167SOL    HW225401   5.840   2.650   3.701
 8168SOL     OW25402   3.599   1.788   2.899
 8168SOL    HW125403   3.634   1.727   2.828
 8168SOL    HW225404   3.514   1.831   2.866
 8169SOL     OW25405   4.266   4.051   0.796
 8169SOL    HW125406   4.184   4.083   0.842
 8169SOL    HW225407   4.301   4.124   0.737
 8170SOL     OW25408   1.472   6.031   3.568
 8170SOL    HW125409   1.426   6.044   3.480
 8170SOL    HW225410   1.404   6.017   3.639
 8171SOL     OW25411   0.690   2.268   6.548
 8171SOL    HW125412   0.591   2.268   6.555
 8171SOL    HW225413   0.730   2.248   6.638
 8172SOL     OW25414   0.192   0.308   0.981
 8172SOL    HW125415   0.181   0.385   1.044
 8172SOL    HW225416   0.142   0.327   0.896
 8173SOL     OW25417   3.703   2.598   6.956
 8173SOL    HW125418   3.700   2.662   0.013
 8173SOL    HW225419   3.701   2.648   6.870
 8174SOL     OW25420   5.696   1.715   0.852
 8174SOL    HW125421   5.694   1.650   0.776
 8174SOL    HW225422   5.741   1.799   0.822
 8175SOL     OW25423   6.899   2.416   6.441
 8175SOL    HW125424   6.821   2.466   6.401
 8175SOL    HW225425   6.919   2.453   6.532
 8176SOL     OW25426   2.537   5.771   2.246
 8176SOL    HW125427   2.564   5.728   2.332
 8176SOL    HW225428   2.583   5.725   2.169
 8177SOL     OW25429   1.432   6.219   3.983
 8177SOL    HW125430   1.351   6.217   3.924
 8177SOL    HW225431   1.488   6.298   3.960
 8178SOL     OW25432   2.446   6.890   6.254
 8178SOL    HW125433   2.397   6.963   6.301
 8178SOL    HW225434   2.532   6.926   6.217
 8179SOL     OW25435   3.233   2.961   0.115
 8179SOL    HW125436   3.333   2.970   0.121
 8179SOL    HW225437   3.209   2.894   0.045
 8180SOL     OW25438   0.047   0.053   4.229
 8180SOL    HW125439   0.073   6.979   4.253
 8180SOL    HW225440   6.993   0.083   4.289
 8181SOL     OW25441   2.546   2.347   2.886
 8181SOL    HW125442   2.606   2.368   2.964
 8181SOL    HW225443   2.599   2.299   2.816
 8182SOL     OW25444   3.225   2.239   5.868
 8182SOL    HW125445   3.309   2.187   5.853
 8182SOL    HW225446   3.167   2.232   5.786
 8183SOL     OW25447   0.869   3.560   5.111
 8183SOL    HW125448   0.887   3.468   5.075
 8183SOL    HW225449   0.881   3.627   5.039
 8184SOL     OW25450   6.642   0.412   5.849
 8184SOL    HW125451   6.598   0.464   5.776
 8184SOL    HW225452   6.573   0.374   5.910
 8185SOL     OW25453   2.618   0.948   1.057
 8185SOL    HW125454   2.672   0.979   0.979
 8185SOL    HW225455   2.611   1.022   1.124
 8186SOL     OW25456   3.516   6.204   5.733
 8186SOL    HW125457   3.422   6.175   5.750
 8186SOL    HW225458   3.520   6.304   5.731
 8187SOL     OW25459   1.255   1.648   5.277
 8187SOL    HW125460   1.162   1.669   5.307
 8187SOL    HW225461   1.275   1.700   5.194
 8188SOL     OW25462   5.207   1.687   2.358
 8188SOL    HW125463   5.148   1.706   2.436
 8188SOL    HW225464   5.303   1.691   2.386
 8189SOL     OW25465   5.687   4.680   2.201
 8189SOL    HW125466   5.632   4.713   2.124
 8189SOL    HW225467   5.628   4.631   2.265
 8190SOL     OW25468   5.438   4.041   4.102
 8190SOL    HW125469   5.353   4.035   4.154
 8190SOL    HW225470   5.482   3.951   4.099
 8191SOL     OW25471   0.696   5.355   3.514
 8191SOL    HW125472   0.613   5.405   3.538
 8191SOL    HW225473   0.717   5.289   3.586
 8192SOL     OW25474   3.016   5.454   1.605
 8192SOL    HW125475   2.995   5.549   1.581
 8192SOL    HW225476   3.114   5.446   1.626
 8193SOL     OW25477   5.421   6.350   5.196
 8193SOL    HW125478   5.432   6.422   5.127
 8193SOL    HW225479   5.378   6.270   5.154
 8194SOL     OW25480   6.397   1.619   6.896
 8194SOL    HW125481   6.403   1.719   6.898
 8194SOL    HW225482   6.338   1.588   6.971
 8195SOL     OW25483   6.929   0.240   0.209
 8195SOL    HW125484   6.915   0.155   0.259
 8195SOL    HW225485   7.006   0.290   0.249
 8196SOL     OW25486   3.670   6.339   6.022
 8196SOL    HW125487   3.687   6.336   6.120
 8196SOL    HW225488   3.723   6.267   5.976
 8197SOL     OW25489   6.767   0.748   5.894
 8197SOL    HW125490   6.795   0.669   5.948
 8197SOL    HW225491   6.668   0.753   5.890
 8198SOL     OW25492   2.786   6.726   3.045
 8198SOL    HW125493   2.762   6.796   2.978
 8198SOL    HW225494   2.816   6.643   2.997
 8199SOL     OW25495   0.630   4.160   0.594
 8199SOL    HW125496   0.563   4.095   0.559
 8199SOL    HW225497   0.601   4.253   0.571
 8200SOL     OW25498   4.628   4.074   1.756
 8200SOL    HW125499   4.541   4.114   1.782
 8200SOL    HW225500   4.616   4.016   1.676
 8201SOL     OW25501   5.304   0.316   4.301
 8201SOL    HW125502   5.400   0.312   4.327
 8201SOL    HW225503   5.287   0.254   4.225
 8202SOL     OW25504   1.941   4.932   3.683
 8202SOL    HW125505   1.988   4.990   3.617
 8202SOL    HW225506   1.918   4.845   3.640
 8203SOL     OW25507   4.691   3.731   1.291
 8203SOL    HW125508   4.720   3.717   1.196
 8203SOL    HW225509   4.593   3.714   1.299
 8204SOL     OW25510   3.222   6.891   2.138
 8204SOL    HW125511   3.135   6.860   2.176
 8204SOL    HW225512   3.297   6.845   2.185
 8205SOL     OW25513   5.548   5.574   2.171
 8205SOL    HW125514   5.609   5.507   2.131
 8205SOL    HW225515   5.469   5.588   2.112
 8206SOL     OW25516   4.116   2.121   5.466
 8206SOL    HW125517   4.026   2.078   5.476
 8206SOL    HW225518   4.180   2.078   5.529
 8207SOL     OW25519   3.014   4.811   5.710
 8207SOL    HW125520   3.020   4.712   5.698
 8207SOL    HW225521   3.000   4.854   5.621
 8208SOL     OW25522   2.007   5.421   1.564
 8208SOL    HW125523   1.965   5.332   1.550
 8208SOL    HW225524   2.097   5.423   1.519
 8209SOL     OW25525   1.559   0.793   5.249
 8209SOL    HW125526   1.463   0.767   5.252
 8209SOL    HW225527   1.587   0.829   5.338
 8210SOL     OW25528   2.142   1.063   0.328
 8210SOL    HW125529   2.084   1.016   0.261
 8210SOL    HW225530   2.181   1.145   0.286
 8211SOL     OW25531   2.916   3.698   4.027
 8211SOL    HW125532   2.883   3.686   3.934
 8211SOL    HW225533   2.959   3.787   4.036
 8212SOL     OW25534   1.851   0.208   1.546
 8212SOL    HW125535   1.795   0.273   1.494
 8212SOL    HW225536   1.942   0.203   1.507
 8213SOL     OW25537   4.434   4.553   1.768
 8213SOL    HW125538   4.442   4.624   1.838
 8213SOL    HW225539   4.441   4.463   1.810
 8214SOL     OW25540   3.168   5.546   4.413
 8214SOL    HW125541   3.193   5.523   4.320
 8214SOL    HW225542   3.242   5.597   4.457
 8215SOL     OW25543   3.802   6.302   6.853
 8215SOL    HW125544   3.774   6.392   6.885
 8215SOL    HW225545   3.754   6.280   6.767
 8216SOL     OW25546   4.672   6.156   2.736
 8216SOL    HW125547   4.610   6.229   2.765
 8216SOL    HW225548   4.745   6.146   2.803
 8217SOL     OW25549   2.426   4.820   3.183
 8217SOL    HW125550   2.439   4.739   3.126
 8217SOL    HW225551   2.357   4.801   3.253
 8218SOL     OW25552   1.855   0.351   4.684
 8218SOL    HW125553   1.802   0.281   4.731
 8218SOL    HW225554   1.920   0.392   4.749
 8219SOL     OW25555   4.231   3.794   1.067
 8219SOL    HW125556   4.166   3.768   1.138
 8219SOL    HW225557   4.204   3.882   1.028
 8220SOL     OW25558   3.588   4.212   5.029
 8220SOL    HW125559   3.600   4.115   5.007
 8220SOL    HW225560   3.552   4.260   4.948
 8221SOL     OW25561   5.994   3.334   3.915
 8221SOL    HW125562   5.942   3.415   3.889
 8221SOL    HW225563   6.015   3.280   3.833
 8222SOL     OW25564   6.308   2.413   1.556
 8222SOL    HW125565   6.302   2.319   1.524
 8222SOL    HW225566   6.403   2.435   1.580
 8223SOL     OW25567   6.737   5.522   5.507
 8223SOL    HW125568   6.755   5.616   5.480
 8223SOL    HW225569   6.800   5.461   5.458
 8224SOL     OW25570   4.768   1.907   0.344
 8224SOL    HW125571   4.753   2.004   0.326
 8224SOL    HW225572   4.711   1.852   0.283
 8225SOL     OW25573   4.263   1.439   0.215
 8225SOL    HW125574   4.195   1.366   0.219
 8225SOL    HW225575   4.353   1.399   0.196
 8226SOL     OW25576   3.203   0.756   0.360
 8226SOL    HW125577   3.252   0.837   0.394
 8226SOL    HW225578   3.145   0.783   0.283
 8227SOL     OW25579   5.531   1.901   2.830
 8227SOL    HW125580   5.560   1.909   2.925
 8227SOL    HW225581   5.612   1.897   2.771
 8228SOL     OW25582   0.757   0.884   5.580
 8228SOL    HW125583   0.745   0.924   5.489
 8228SOL    HW225584   0.681   0.912   5.639
 8229SOL     OW25585   4.123   4.838   1.222
 8229SOL    HW125586   4.181   4.906   1.178
 8229SOL    HW225587   4.172   4.751   1.230
 8230SOL     OW25588   4.027   0.773   5.891
 8230SOL    HW125589   4.077   0.776   5.978
 8230SOL    HW225590   4.074   0.712   5.827
 8231SOL     OW25591   3.441   1.364   1.649
 8231SOL    HW125592   3.498   1.321   1.718
 8231SOL    HW225593   3.368   1.301   1.622
 8232SOL     OW25594   4.143   0.258   2.443
 8232SOL    HW125595   4.235   0.219   2.452
 8232SOL    HW225596   4.122   0.269   2.345
 8233SOL     OW25597   0.655   0.906   5.311
 8233SOL    HW125598   0.668   1.005   5.316
 8233SOL    HW225599   0.635   0.879   5.217
 8234SOL     OW25600   2.515   2.806   6.968
 8234SOL    HW125601   2.515   2.713   6.931
 8234SOL    HW225602   2.563   2.807   0.036
 8235SOL     OW25603   6.943   5.266   0.380
 8235SOL    HW125604   6.984   5.350   0.417
 8235SOL    HW225605   7.015   5.199   0.362
 8236SOL     OW25606   1.069   6.554   5.849
 8236SOL    HW125607   1.120   6.494   5.788
 8236SOL    HW225608   1.117   6.642   5.857
 8237SOL     OW25609   4.527   5.354   6.229
 8237SOL    HW125610   4.448   5.414   6.247
 8237SOL    HW225611   4.606   5.410   6.203
 8238SOL     OW25612   2.236   4.740   0.760
 8238SOL    HW125613   2.328   4.742   0.800
 8238SOL    HW225614   2.176   4.800   0.812
 8239SOL     OW25615   0.730   2.128   5.467
 8239SOL    HW125616   0.733   2.091   5.374
 8239SOL    HW225617   0.745   2.227   5.464
 8240SOL     OW25618   3.778   3.785   4.863
 8240SOL    HW125619   3.774   3.696   4.817
 8240SOL    HW225620   3.874   3.814   4.871
 8241SOL     OW25621   1.311   3.716   6.634
 8241SOL    HW125622   1.330   3.740   6.729
 8241SOL    HW225623   1.256   3.787   6.591
 8242SOL     OW25624   0.810   4.043   4.428
 8242SOL    HW125625   0.903   4.044   4.465
 8242SOL    HW225626   0.807   3.981   4.350
 8243SOL     OW25627   0.451   4.704   5.215
 8243SOL    HW125628   0.505   4.784   5.242
 8243SOL    HW225629   0.426   4.711   5.118
 8244SOL     OW25630   1.787   0.314   3.786
 8244SOL    HW125631   1.707   0.368   3.812
 8244SOL    HW225632   1.826   0.351   3.702
 8245SOL     OW25633   5.005   1.210   4.119
 8245SOL    HW125634   5.073   1.196   4.046
 8245SOL    HW225635   5.045   1.264   4.192
 8246SOL     OW25636   1.434   4.473   6.872
 8246SOL    HW125637   1.437   4.427   6.783
 8246SOL    HW225638   1.338   4.492   6.895
 8247SOL     OW25639   2.951   5.455   3.604
 8247SOL    HW125640   2.870   5.435   3.658
 8247SOL    HW225641   2.946   5.406   3.517
 8248SOL     OW25642   0.822   5.170   2.944
 8248SOL    HW125643   0.844   5.194   3.039
 8248SOL    HW225644   0.734   5.122   2.942
 8249SOL     OW25645   2.277   2.131   5.937
 8249SOL    HW125646   2.299   2.036   5.959
 8249SOL    HW225647   2.256   2.180   6.021
 8250SOL     OW25648   1.606   1.769   6.508
 8250SOL    HW125649   1.563   1.795   6.421
 8250SOL    HW225650   1.688   1.824   6.522
 8251SOL     OW25651   6.704   2.728   4.601
 8251SOL    HW125652   6.690   2.676   4.517
 8251SOL    HW225653   6.644   2.693   4.673
 8252SOL     OW25654   1.809   2.417   6.593
 8252SOL    HW125655   1.891   2.421   6.650
 8252SOL    HW225656   1.828   2.457   6.504
 8253SOL     OW25657   3.925   5.717   0.262
 8253SOL    HW125658   3.957   5.624   0.244
 8253SOL    HW225659   3.994   5.782   0.231
 8254SOL     OW25660   5.689   5.150   0.822
 8254SOL    HW125661   5.746   5.085   0.772
 8254SOL    HW225662   5.731   5.241   0.816
 8255SOL     OW25663   0.357   6.801   5.500
 8255SOL    HW125664   0.338   6.866   5.573
 8255SOL    HW225665   0.354   6.708   5.537
 8256SOL     OW25666   2.157   6.131   2.875
 8256SOL    HW125667   2.187   6.041   2.844
 8256SOL    HW225668   2.092   6.121   2.950
 8257SOL     OW25669   4.858   3.968   4.114
 8257SOL    HW125670   4.788   4.015   4.060
 8257SOL    HW225671   4.929   4.033   4.141
 8258SOL     OW25672   6.251   3.631   1.993
 8258SOL    HW125673   6.227   3.728   1.984
 8258SOL    HW225674   6.190   3.588   2.060
 8259SOL     OW25675   4.594   2.109   4.015
 8259SOL    HW125676   4.654   2.154   4.081
 8259SOL    HW225677   4.599   2.010   4.028
 8260SOL     OW25678   2.770   0.613   0.929
 8260SOL    HW125679   2.858   0.659   0.941
 8260SOL    HW225680   2.702   0.654   0.989
 8261SOL     OW25681   4.997   0.539   3.703
 8261SOL    HW125682   4.985   0.610   3.634
 8261SOL    HW225683   5.024   0.453   3.659
 8262SOL     OW25684   6.786   3.730   1.642
 8262SOL    HW125685   6.863   3.791   1.619
 8262SOL    HW225686   6.821   3.638   1.661
 8263SOL     OW25687   0.005   2.539   6.668
 8263SOL    HW125688   0.042   2.466   6.726
 8263SOL    HW225689   0.078   2.603   6.644
 8264SOL     OW25690   2.004   6.560   3.398
 8264SOL    HW125691   2.094   6.591   3.366
 8264SOL    HW225692   1.935   6.587   3.331
 8265SOL     OW25693   5.247   0.651   1.034
 8265SOL    HW125694   5.272   0.744   1.007
 8265SOL    HW225695   5.149   0.648   1.055
 8266SOL     OW25696   2.324   6.875   4.021
 8266SOL    HW125697   2.369   6.792   3.988
 8266SOL    HW225698   2.301   6.864   4.118
 8267SOL     OW25699   1.427   3.759   3.069
 8267SOL    HW125700   1.441   3.809   3.154
 8267SOL    HW225701   1.365   3.811   3.010
 8268SOL     OW25702   3.379   4.376   6.537
 8268SOL    HW125703   3.288   4.345   6.509
 8268SOL    HW225704   3.444   4.302   6.524
 8269SOL     OW25705   4.307   2.331   3.260
 8269SOL    HW125706   4.208   2.323   3.246
 8269SOL    HW225707   4.328   2.329   3.357
 8270SOL     OW25708   3.801   7.013   5.996
 8270SOL    HW125709   3.839   0.029   5.911
 8270SOL    HW225710   3.833   0.050   6.073
 8271SOL     OW25711   4.808   6.326   5.116
 8271SOL    HW125712   4.779   6.420   5.130
 8271SOL    HW225713   4.766   6.289   5.034
 8272SOL     OW25714   0.633   6.702   1.820
 8272SOL    HW125715   0.733   6.707   1.815
 8272SOL    HW225716   0.597   6.787   1.860
 8273SOL     OW25717   3.024   6.752   0.014
 8273SOL    HW125718   2.941   6.704   7.007
 8273SOL    HW225719   3.000   6.843   0.048
 8274SOL     OW25720   4.863   6.183   6.620
 8274SOL    HW125721   4.855   6.236   6.704
 8274SOL    HW225722   4.778   6.191   6.568
 8275SOL     OW25723   6.164   0.862   4.623
 8275SOL    HW125724   6.201   0.929   4.688
 8275SOL    HW225725   6.208   0.773   4.638
 8276SOL     OW25726   6.569   3.279   6.752
 8276SOL    HW125727   6.578   3.183   6.777
 8276SOL    HW225728   6.625   3.335   6.813
 8277SOL     OW25729   0.961   5.404   5.913
 8277SOL    HW125730   0.968   5.326   5.851
 8277SOL    HW225731   0.998   5.486   5.869
 8278SOL     OW25732   3.373   1.291   6.910
 8278SOL    HW125733   3.432   1.365   6.878
 8278SOL    HW225734   3.368   1.293   7.010
 8279SOL     OW25735   4.699   6.107   6.027
 8279SOL    HW125736   4.670   6.193   5.986
 8279SOL    HW225737   4.733   6.124   6.120
 8280SOL     OW25738   5.104   2.778   0.580
 8280SOL    HW125739   5.041   2.703   0.560
 8280SOL    HW225740   5.104   2.843   0.504
 8281SOL     OW25741   2.091   4.625   6.966
 8281SOL    HW125742   2.060   4.564   0.019
 8281SOL    HW225743   2.159   4.689   7.003
 8282SOL     OW25744   3.134   2.859   1.051
 8282SOL    HW125745   3.049   2.906   1.028
 8282SOL    HW225746   3.118   2.760   1.053
 8283SOL     OW25747   0.200   4.558   3.350
 8283SOL    HW125748   0.233   4.643   3.392
 8283SOL    HW225749   0.276   4.511   3.306
 8284SOL     OW25750   1.890   1.981   1.839
 8284SOL    HW125751   1.954   1.951   1.909
 8284SOL    HW225752   1.906   2.078   1.818
 8285SOL     OW25753   3.180   4.266   5.825
 8285SOL    HW125754   3.150   4.354   5.862
 8285SOL    HW225755   3.118   4.194   5.857
 8286SOL     OW25756   5.437   0.969   4.495
 8286SOL    HW125757   5.407   1.013   4.410
 8286SOL    HW225758   5.391   0.880   4.504
 8287SOL     OW25759   1.614   0.546   3.637
 8287SOL    HW125760   1.589   0.549   3.734
 8287SOL    HW225761   1.695   0.602   3.622
 8288SOL     OW25762   1.460   1.290   2.319
 8288SOL    HW125763   1.482   1.242   2.404
 8288SOL    HW225764   1.483   1.387   2.329
 8289SOL     OW25765   6.237   1.606   5.687
 8289SOL    HW125766   6.225   1.705   5.697
 8289SOL    HW225767   6.151   1.565   5.656
 8290SOL     OW25768   3.619   2.673   1.800
 8290SOL    HW125769   3.630   2.709   1.892
 8290SOL    HW225770   3.630   2.574   1.801
 8291SOL     OW25771   5.825   5.946   6.044
 8291SOL    HW125772   5.834   5.946   5.944
 8291SOL    HW225773   5.883   6.019   6.082
 8292SOL     OW25774   1.447   3.819   4.756
 8292SOL    HW125775   1.368   3.795   4.700
 8292SOL    HW225776   1.478   3.737   4.805
 8293SOL     OW25777   2.598   5.352   3.120
 8293SOL    HW125778   2.542   5.384   3.044
 8293SOL    HW225779   2.585   5.254   3.132
 8294SOL     OW25780   6.550   3.784   6.214
 8294SOL    HW125781   6.602   3.842   6.276
 8294SOL    HW225782   6.566   3.688   6.237
 8295SOL     OW25783   4.760   4.276   2.180
 8295SOL    HW125784   4.734   4.365   2.217
 8295SOL    HW225785   4.692   4.246   2.113
 8296SOL     OW25786   3.657   6.620   1.107
 8296SOL    HW125787   3.620   6.675   1.031
 8296SOL    HW225788   3.666   6.678   1.188
 8297SOL     OW25789   6.412   4.717   2.731
 8297SOL    HW125790   6.473   4.645   2.699
 8297SOL    HW225791   6.363   4.757   2.653
 8298SOL     OW25792   6.811   6.993   6.482
 8298SOL    HW125793   6.799   0.066   6.447
 8298SOL    HW225794   6.889   6.950   6.435
 8299SOL     OW25795   0.596   3.906   1.537
 8299SOL    HW125796   0.623   3.920   1.632
 8299SOL    HW225797   0.558   3.815   1.525
 8300SOL     OW25798   5.819   5.111   3.115
 8300SOL    HW125799   5.903   5.157   3.144
 8300SOL    HW225800   5.784   5.055   3.190
 8301SOL     OW25801   4.261   6.469   0.874
 8301SOL    HW125802   4.217   6.557   0.895
 8301SOL    HW225803   4.216   6.428   0.794
 8302SOL     OW25804   3.620   6.751   4.891
 8302SOL    HW125805   3.543   6.813   4.876
 8302SOL    HW225806   3.585   6.659   4.910
 8303SOL     OW25807   7.009   6.790   2.652
 8303SOL    HW125808   0.044   6.810   2.733
 8303SOL    HW225809   0.019   6.848   2.577
 8304SOL     OW25810   6.012   4.287   3.248
 8304SOL    HW125811   5.914   4.269   3.256
 8304SOL    HW225812   6.025   4.378   3.210
 8305SOL     OW25813   4.979   5.598   4.486
 8305SOL    HW125814   5.023   5.599   4.575
 8305SOL    HW225815   5.023   5.530   4.427
 8306SOL     OW25816   5.997   1.111   2.366
 8306SOL    HW125817   6.083   1.084   2.409
 8306SOL    HW225818   6.010   1.196   2.315
 8307SOL     OW25819   2.310   4.958   2.096
 8307SOL    HW125820   2.299   4.988   2.190
 8307SOL    HW225821   2.259   4.873   2.081
 8308SOL     OW25822   1.350   5.051   0.116
 8308SOL    HW125823   1.398   4.965   0.130
 8308SOL    HW225824   1.386   5.097   0.035
 8309SOL     OW25825   6.293   4.421   4.063
 8309SOL    HW125826   6.332   4.445   4.152
 8309SOL    HW225827   6.200   4.457   4.056
 8310SOL     OW25828   1.005   6.473   0.337
 8310SOL    HW125829   0.918   6.456   0.290
 8310SOL    HW225830   1.070   6.515   0.272
 8311SOL     OW25831   5.402   6.770   4.262
 8311SOL    HW125832   5.448   6.746   4.348
 8311SOL    HW225833   5.469   6.809   4.199
 8312SOL     OW25834   5.475   0.921   6.897
 8312SOL    HW125835   5.478   1.018   6.922
 8312SOL    HW225836   5.470   0.866   6.981
 8313SOL     OW25837   4.662   1.540   4.609
 8313SOL    HW125838   4.735   1.481   4.572
 8313SOL    HW225839   4.703   1.623   4.646
 8314SOL     OW25840   4.853   6.410   5.825
 8314SOL    HW125841   4.932   6.401   5.764
 8314SOL    HW225842   4.843   6.505   5.853
 8315SOL     OW25843   3.886   3.387   4.614
 8315SOL    HW125844   3.821   3.451   4.656
 8315SOL    HW225845   3.974   3.433   4.602
 8316SOL     OW25846   1.461   2.589   0.082
 8316SOL    HW125847   1.391   2.659   0.089
 8316SOL    HW225848   1.421   2.500   0.103
 8317SOL     OW25849   1.382   1.807   3.663
 8317SOL    HW125850   1.331   1.804   3.577
 8317SOL    HW225851   1.424   1.717   3.680
 8318SOL     OW25852   4.069   6.773   6.559
 8318SOL    HW125853   4.002   6.777   6.485
 8318SOL    HW225854   4.160   6.789   6.521
 8319SOL     OW25855   2.339   0.403   6.266
 8319SOL    HW125856   2.382   0.489   6.238
 8319SOL    HW225857   2.404   0.328   6.257
 8320SOL     OW25858   3.008   3.406   4.916
 8320SOL    HW125859   2.993   3.504   4.905
 8320SOL    HW225860   2.982   3.359   4.831
 8321SOL     OW25861   6.421   6.709   0.378
 8321SOL    HW125862   6.428   6.767   0.459
 8321SOL    HW225863   6.371   6.758   0.306
 8322SOL     OW25864   0.116   0.922   6.885
 8322SOL    HW125865   0.084   1.013   6.908
 8322SOL    HW225866   0.184   0.892   6.952
 8323SOL     OW25867   4.410   4.696   1.178
 8323SOL    HW125868   4.335   4.630   1.170
 8323SOL    HW225869   4.489   4.652   1.221
 8324SOL     OW25870   5.761   6.295   6.219
 8324SOL    HW125871   5.669   6.257   6.213
 8324SOL    HW225872   5.774   6.336   6.310
 8325SOL     OW25873   1.179   5.564   5.677
 8325SOL    HW125874   1.183   5.648   5.624
 8325SOL    HW225875   1.083   5.542   5.697
 8326SOL     OW25876   1.882   3.797   1.951
 8326SOL    HW125877   1.980   3.781   1.939
 8326SOL    HW225878   1.845   3.731   2.016
 8327SOL     OW25879   1.048   0.300   4.532
 8327SOL    HW125880   1.106   0.334   4.458
 8327SOL    HW225881   0.969   0.361   4.543
 8328SOL     OW25882   1.444   0.233   5.988
 8328SOL    HW125883   1.529   0.204   6.033
 8328SOL    HW225884   1.447   0.207   5.891
 8329SOL     OW25885   1.235   2.767   5.270
 8329SOL    HW125886   1.264   2.781   5.364
 8329SOL    HW225887   1.309   2.725   5.218
 8330SOL     OW25888   3.314   0.773   6.791
 8330SOL    HW125889   3.380   0.846   6.772
 8330SOL    HW225890   3.347   0.687   6.750
 8331SOL     OW25891   1.828   2.211   0.111
 8331SOL    HW125892   1.731   2.235   0.102
 8331SOL    HW225893   1.850   2.137   0.047
 8332SOL     OW25894   5.900   4.912   2.048
 8332SOL    HW125895   5.866   4.997   2.086
 8332SOL    HW225896   5.852   4.835   2.089
 8333SOL     OW25897   2.906   4.649   1.423
 8333SOL    HW125898   2.904   4.579   1.494
 8333SOL    HW225899   2.976   4.717   1.446
 8334SOL     OW25900   3.619   1.872   6.687
 8334SOL    HW125901   3.692   1.810   6.660
 8334SOL    HW225902   3.582   1.917   6.605
 8335SOL     OW25903   5.216   3.323   5.805
 8335SOL    HW125904   5.190   3.307   5.900
 8335SOL    HW225905   5.280   3.252   5.775
 8336SOL     OW25906   0.997   3.720   3.115
 8336SOL    HW125907   1.061   3.771   3.172
 8336SOL    HW225908   0.904   3.735   3.148
 8337SOL     OW25909   0.663   1.315   4.295
 8337SOL    HW125910   0.645   1.411   4.319
 8337SOL    HW225911   0.634   1.256   4.370
 8338SOL     OW25912   3.988   5.376   2.742
 8338SOL    HW125913   3.996   5.334   2.833
 8338SOL    HW225914   3.892   5.392   2.722
 8339SOL     OW25915   6.668   0.488   0.499
 8339SOL    HW125916   6.648   0.439   0.414
 8339SOL    HW225917   6.746   0.444   0.545
 8340SOL     OW25918   5.744   2.845   0.329
 8340SOL    HW125919   5.840   2.861   0.304
 8340SOL    HW225920   5.739   2.775   0.399
 8341SOL     OW25921   3.306   0.849   0.059
 8341SOL    HW125922   3.264   0.846   6.988
 8341SOL    HW225923   3.288   0.938   0.100
 8342SOL     OW25924   4.570   0.140   0.089
 8342SOL    HW125925   4.541   0.198   0.165
 8342SOL    HW225926   4.641   0.077   0.120
 8343SOL     OW25927   6.581   3.945   3.757
 8343SOL    HW125928   6.648   3.959   3.685
 8343SOL    HW225929   6.493   3.921   3.717
 8344SOL     OW25930   1.101   5.654   5.209
 8344SOL    HW125931   1.140   5.562   5.206
 8344SOL    HW225932   1.116   5.695   5.298
 8345SOL     OW25933   4.557   0.684   2.049
 8345SOL    HW125934   4.547   0.636   2.137
 8345SOL    HW225935   4.503   0.768   2.051
 8346SOL     OW25936   4.632   2.913   5.432
 8346SOL    HW125937   4.549   2.879   5.388
 8346SOL    HW225938   4.608   2.968   5.511
 8347SOL     OW25939   2.595   0.293   6.176
 8347SOL    HW125940   2.604   0.209   6.122
 8347SOL    HW225941   2.685   0.336   6.185
 8348SOL     OW25942   3.628   6.536   2.069
 8348SOL    HW125943   3.697   6.498   2.008
 8348SOL    HW225944   3.632   6.636   2.065
 8349SOL     OW25945   1.383   6.432   1.918
 8349SOL    HW125946   1.434   6.470   1.995
 8349SOL    HW225947   1.390   6.332   1.921
 8350SOL     OW25948   2.432   0.077   6.439
 8350SOL    HW125949   2.406   0.101   6.533
 8350SOL    HW225950   2.531   0.071   6.432
 8351SOL     OW25951   0.162   4.362   3.802
 8351SOL    HW125952   0.170   4.460   3.814
 8351SOL    HW225953   0.164   4.317   3.891
 8352SOL     OW25954   2.837   5.166   1.535
 8352SOL    HW125955   2.891   5.248   1.555
 8352SOL    HW225956   2.889   5.085   1.561
 8353SOL     OW25957   1.275   3.892   2.682
 8353SOL    HW125958   1.297   3.847   2.596
 8353SOL    HW225959   1.358   3.929   2.724
 8354SOL     OW25960   3.388   6.948   3.758
 8354SOL    HW125961   3.481   6.924   3.784
 8354SOL    HW225962   3.384   0.027   3.737
 8355SOL     OW25963   2.022   6.100   5.699
 8355SOL    HW125964   2.015   6.005   5.669
 8355SOL    HW225965   1.938   6.150   5.675
 8356SOL     OW25966   1.453   5.308   1.368
 8356SOL    HW125967   1.539   5.358   1.379
 8356SOL    HW225968   1.384   5.347   1.429
 8357SOL     OW25969   4.145   5.957   5.955
 8357SOL    HW125970   4.194   6.020   5.896
 8357SOL    HW225971   4.153   5.864   5.919
 8358SOL     OW25972   1.166   2.586   4.957
 8358SOL    HW125973   1.132   2.554   5.046
 8358SOL    HW225974   1.141   2.520   4.886
 8359SOL     OW25975   3.166   1.824   5.159
 8359SOL    HW125976   3.111   1.794   5.081
 8359SOL    HW225977   3.205   1.914   5.139
 8360SOL     OW25978   5.079   6.775   0.371
 8360SOL    HW125979   5.079   6.754   0.469
 8360SOL    HW225980   5.108   6.693   0.320
 8361SOL     OW25981   3.199   0.273   0.630
 8361SOL    HW125982   3.244   0.191   0.595
 8361SOL    HW225983   3.148   0.317   0.556
 8362SOL     OW25984   6.434   3.557   1.201
 8362SOL    HW125985   6.454   3.642   1.152
 8362SOL    HW225986   6.465   3.565   1.296
 8363SOL     OW25987   2.973   2.704   6.916
 8363SOL    HW125988   2.929   2.663   6.836
 8363SOL    HW225989   3.068   2.726   6.894
 8364SOL     OW25990   0.361   2.408   3.834
 8364SOL    HW125991   0.320   2.395   3.744
 8364SOL    HW225992   0.427   2.483   3.830
 8365SOL     OW25993   2.073   2.535   2.799
 8365SOL    HW125994   2.081   2.511   2.896
 8365SOL    HW225995   2.121   2.467   2.744
 8366SOL     OW25996   4.905   5.963   0.894
 8366SOL    HW125997   4.864   6.054   0.903
 8366SOL    HW225998   4.836   5.893   0.912
 8367SOL     OW25999   4.447   5.205   4.818
 8367SOL    HW126000   4.442   5.301   4.845
 8367SOL    HW226001   4.433   5.197   4.719
 8368SOL     OW26002   1.106   6.191   0.138
 8368SOL    HW126003   1.024   6.139   0.162
 8368SOL    HW226004   1.080   6.274   0.088
 8369SOL     OW26005   1.329   1.347   0.024
 8369SOL    HW126006   1.245   1.396   0.047
 8369SOL    HW226007   1.350   1.362   6.946
 8370SOL     OW26008   3.150   2.166   0.376
 8370SOL    HW126009   3.083   2.226   0.332
 8370SOL    HW226010   3.209   2.219   0.436
 8371SOL     OW26011   1.907   4.430   5.889
 8371SOL    HW126012   1.869   4.497   5.952
 8371SOL    HW226013   1.846   4.418   5.811
 8372SOL     OW26014   1.577   6.551   2.471
 8372SOL    HW126015   1.613   6.478   2.412
 8372SOL    HW226016   1.637   6.563   2.550
 8373SOL     OW26017   0.176   1.030   4.258
 8373SOL    HW126018   0.271   1.041   4.229
 8373SOL    HW226019   0.151   1.103   4.321
 8374SOL     OW26020   1.761   0.810   4.814
 8374SOL    HW126021   1.798   0.758   4.737
 8374SOL    HW226022   1.728   0.899   4.783
 8375SOL     OW26023   4.361   1.560   5.022
 8375SOL    HW126024   4.264   1.577   5.010
 8375SOL    HW226025   4.374   1.468   5.059
 8376SOL     OW26026   2.174   0.627   3.206
 8376SOL    HW126027   2.219   0.686   3.139
 8376SOL    HW226028   2.132   0.549   3.158
 8377SOL     OW26029   5.227   5.424   6.824
 8377SOL    HW126030   5.206   5.428   6.726
 8377SOL    HW226031   5.287   5.500   6.849
 8378SOL     OW26032   6.287   5.705   3.656
 8378SOL    HW126033   6.318   5.800   3.662
 8378SOL    HW226034   6.227   5.684   3.734
 8379SOL     OW26035   5.637   1.412   2.132
 8379SOL    HW126036   5.700   1.454   2.067
 8379SOL    HW226037   5.663   1.316   2.146
 8380SOL     OW26038   6.573   5.601   0.654
 8380SOL    HW126039   6.623   5.556   0.581
 8380SOL    HW226040   6.491   5.644   0.617
 8381SOL     OW26041   0.164   1.865   2.588
 8381SOL    HW126042   0.169   1.847   2.686
 8381SOL    HW226043   0.256   1.885   2.553
 8382SOL     OW26044   2.781   0.231   0.522
 8382SOL    HW126045   2.773   0.227   0.621
 8382SOL    HW226046   2.870   0.193   0.494
 8383SOL     OW26047   3.279   6.673   4.666
 8383SOL    HW126048   3.279   6.622   4.752
 8383SOL    HW226049   3.269   6.609   4.590
 8384SOL     OW26050   0.034   2.855   0.445
 8384SOL    HW126051   0.095   2.850   0.366
 8384SOL    HW226052   0.076   2.912   0.516
 8385SOL     OW26053   4.536   3.378   0.643
 8385SOL    HW126054   4.543   3.289   0.599
 8385SOL    HW226055   4.443   3.390   0.678
 8386SOL     OW26056   1.647   5.694   1.757
 8386SOL    HW126057   1.730   5.640   1.742
 8386SOL    HW226058   1.656   5.783   1.712
 8387SOL     OW26059   2.140   1.499   1.541
 8387SOL    HW126060   2.191   1.568   1.592
 8387SOL    HW226061   2.119   1.534   1.449
 8388SOL     OW26062   3.056   6.513   0.451
 8388SOL    HW126063   3.106   6.493   0.535
 8388SOL    HW226064   2.998   6.594   0.464
 8389SOL     OW26065   1.311   2.593   4.676
 8389SOL    HW126066   1.256   2.519   4.715
 8389SOL    HW226067   1.384   2.555   4.620
 8390SOL     OW26068   2.160   0.737   6.163
 8390SOL    HW126069   2.227   0.693   6.223
 8390SOL    HW226070   2.071   0.693   6.175
 8391SOL     OW26071   4.940   5.781   1.829
 8391SOL    HW126072   4.986   5.748   1.746
 8391SOL    HW226073   4.943   5.710   1.899
 8392SOL     OW26074   5.890   5.958   5.134
 8392SOL    HW126075   5.838   6.009   5.202
 8392SOL    HW226076   5.836   5.948   5.051
 8393SOL     OW26077   6.895   6.279   2.961
 8393SOL    HW126078   6.949   6.237   2.888
 8393SOL    HW226079   6.945   6.358   2.999
 8394SOL     OW26080   0.923   1.725   3.227
 8394SOL    HW126081   0.964   1.634   3.235
 8394SOL    HW226082   0.872   1.731   3.141
 8395SOL     OW26083   0.160   6.804   4.621
 8395SOL    HW126084   0.066   6.776   4.602
 8395SOL    HW226085   0.223   6.738   4.581
 8396SOL     OW26086   4.643   4.376   2.657
 8396SOL    HW126087   4.555   4.417   2.632
 8396SOL    HW226088   4.674   4.317   2.583
 8397SOL     OW26089   2.047   6.319   2.687
 8397SOL    HW126090   2.092   6.330   2.599
 8397SOL    HW226091   2.082   6.238   2.733
 8398SOL     OW26092   4.110   1.566   7.018
 8398SOL    HW126093   4.149   1.526   0.081
 8398SOL    HW226094   4.094   1.663   0.012
 8399SOL     OW26095   5.876   5.881   0.022
 8399SOL    HW126096   5.926   5.798   0.044
 8399SOL    HW226097   5.811   5.902   0.095
 8400SOL     OW26098   0.278   0.091   3.158
 8400SOL    HW126099   0.317   0.153   3.226
 8400SOL    HW226100   0.187   0.062   3.189
 8401SOL     OW26101   3.515   3.809   6.594
 8401SOL    HW126102   3.579   3.848   6.528
 8401SOL    HW226103   3.479   3.723   6.559
 8402SOL     OW26104   3.856   1.776   6.599
 8402SOL    HW126105   3.874   1.682   6.568
 8402SOL    HW226106   3.865   1.839   6.522
 8403SOL     OW26107   1.588   1.415   4.185
 8403SOL    HW126108   1.671   1.406   4.240
 8403SOL    HW226109   1.513   1.364   4.228
 8404SOL     OW26110   4.747   6.243   5.636
 8404SOL    HW126111   4.788   6.289   5.715
 8404SOL    HW226112   4.688   6.307   5.588
 8405SOL     OW26113   0.475   2.704   6.628
 8405SOL    HW126114   0.557   2.730   6.578
 8405SOL    HW226115   0.465   2.604   6.627
 8406SOL     OW26116   4.844   1.926   1.102
 8406SOL    HW126117   4.837   1.829   1.079
 8406SOL    HW226118   4.869   1.935   1.199
 8407SOL     OW26119   5.698   4.652   3.910
 8407SOL    HW126120   5.666   4.559   3.892
 8407SOL    HW226121   5.653   4.716   3.848
 8408SOL     OW26122   4.768   1.087   4.019
 8408SOL    HW126123   4.777   0.993   3.985
 8408SOL    HW226124   4.849   1.110   4.073
 8409SOL     OW26125   1.122   1.703   3.944
 8409SOL    HW126126   1.027   1.724   3.920
 8409SOL    HW226127   1.170   1.788   3.967
 8410SOL     OW26128   4.929   6.691   1.799
 8410SOL    HW126129   5.022   6.691   1.763
 8410SOL    HW226130   4.891   6.599   1.794
 8411SOL     OW26131   1.480   4.545   3.978
 8411SOL    HW126132   1.424   4.620   3.942
 8411SOL    HW226133   1.434   4.458   3.959
 8412SOL     OW26134   4.478   2.358   1.722
 8412SOL    HW126135   4.402   2.301   1.751
 8412SOL    HW226136   4.559   2.336   1.776
 8413SOL     OW26137   3.631   5.015   0.293
 8413SOL    HW126138   3.711   5.065   0.259
 8413SOL    HW226139   3.656   4.919   0.307
 8414SOL     OW26140   3.874   6.070   3.369
 8414SOL    HW126141   3.961   6.069   3.320
 8414SOL    HW226142   3.853   6.163   3.399
 8415SOL     OW26143   0.059   4.163   3.472
 8415SOL    HW126144   7.005   4.118   3.421
 8415SOL    HW226145   0.125   4.095   3.503
 8416SOL     OW26146   5.169   4.044   2.609
 8416SOL    HW126147   5.129   4.124   2.565
 8416SOL    HW226148   5.267   4.059   2.624
 8417SOL     OW26149   2.243   6.162   6.132
 8417SOL    HW126150   2.314   6.233   6.127
 8417SOL    HW226151   2.237   6.115   6.044
 8418SOL     OW26152   6.088   6.050   2.785
 8418SOL    HW126153   6.053   5.984   2.719
 8418SOL    HW226154   6.185   6.065   2.769
 8419SOL     OW26155   4.391   0.309   2.195
 8419SOL    HW126156   4.396   0.251   2.276
 8419SOL    HW226157   4.385   0.252   2.113
 8420SOL     OW26158   3.873   0.317   6.894
 8420SOL    HW126159   3.944   0.388   6.898
 8420SOL    HW226160   3.870   0.268   6.982
 8421SOL     OW26161   1.491   7.012   2.198
 8421SOL    HW126162   1.405   7.000   2.248
 8421SOL    HW226163   1.562   6.955   2.239
 8422SOL     OW26164   5.173   6.549   0.247
 8422SOL    HW126165   5.133   6.464   0.214
 8422SOL    HW226166   5.219   6.596   0.171
 8423SOL     OW26167   3.748   4.954   6.958
 8423SOL    HW126168   3.795   4.885   7.012
 8423SOL    HW226169   3.683   4.910   6.896
 8424SOL     OW26170   3.416   1.866   2.553
 8424SOL    HW126171   3.336   1.862   2.494
 8424SOL    HW226172   3.468   1.781   2.545
 8425SOL     OW26173   6.408   5.338   1.579
 8425SOL    HW126174   6.418   5.295   1.669
 8425SOL    HW226175   6.448   5.429   1.581
 8426SOL     OW26176   3.742   3.776   3.863
 8426SOL    HW126177   3.770   3.751   3.771
 8426SOL    HW226178   3.659   3.726   3.888
 8427SOL     OW26179   1.814   3.968   6.901
 8427SOL    HW126180   1.759   3.928   6.974
 8427SOL    HW226181   1.846   3.897   6.839
 8428SOL     OW26182   0.391   4.306   1.989
 8428SOL    HW126183   0.429   4.255   1.911
 8428SOL    HW226184   0.425   4.266   2.074
 8429SOL     OW26185   2.542   5.091   4.139
 8429SOL    HW126186   2.585   5.129   4.221
 8429SOL    HW226187   2.456   5.047   4.163
 8430SOL     OW26188   4.685   4.738   2.447
 8430SOL    HW126189   4.688   4.702   2.540
 8430SOL    HW226190   4.620   4.814   2.442
 8431SOL     OW26191   3.579   4.842   1.223
 8431SOL    HW126192   3.495   4.866   1.175
 8431SOL    HW226193   3.658   4.869   1.167
 8432SOL     OW26194   4.229   5.330   6.480
 8432SOL    HW126195   4.180   5.288   6.557
 8432SOL    HW226196   4.320   5.359   6.511
 8433SOL     OW26197   1.070   2.532   6.638
 8433SOL    HW126198   1.008   2.608   6.621
 8433SOL    HW226199   1.114   2.544   6.727
 8434SOL     OW26200   4.484   6.677   5.796
 8434SOL    HW126201   4.549   6.707   5.726
 8434SOL    HW226202   4.462   6.755   5.855
 8435SOL     OW26203   4.018   1.925   1.133
 8435SOL    HW126204   3.961   1.846   1.155
 8435SOL    HW226205   4.073   1.905   1.052
 8436SOL     OW26206   3.978   4.823   2.543
 8436SOL    HW126207   3.893   4.874   2.534
 8436SOL    HW226208   3.989   4.763   2.463
 8437SOL     OW26209   0.583   0.925   1.097
 8437SOL    HW126210   0.523   0.902   1.021
 8437SOL    HW226211   0.618   1.018   1.085
 8438SOL     OW26212   3.036   4.831   2.310
 8438SOL    HW126213   2.937   4.843   2.316
 8438SOL    HW226214   3.060   4.793   2.221
 8439SOL     OW26215   0.161   5.452   2.109
 8439SOL    HW126216   0.172   5.446   2.209
 8439SOL    HW226217   0.088   5.516   2.087
 8440SOL     OW26218   0.154   0.847   1.739
 8440SOL    HW126219   0.135   0.841   1.837
 8440SOL    HW226220   0.192   0.761   1.707
 8441SOL     OW26221   5.376   5.652   6.862
 8441SOL    HW126222   5.341   5.736   6.820
 8441SOL    HW226223   5.453   5.673   6.921
 8442SOL     OW26224   2.586   4.262   0.026
 8442SOL    HW126225   2.500   4.212   0.015
 8442SOL    HW226226   2.619   4.291   6.956
 8443SOL     OW26227   0.840   0.725   3.631
 8443SOL    HW126228   0.920   0.775   3.665
 8443SOL    HW226229   0.821   0.752   3.537
 8444SOL     OW26230   4.015   6.464   4.049
 8444SOL    HW126231   4.055   6.556   4.054
 8444SOL    HW226232   3.962   6.447   4.132
 8445SOL     OW26233   3.594   5.210   3.067
 8445SOL    HW126234   3.517   5.228   3.005
 8445SOL    HW226235   3.586   5.118   3.104
 8446SOL     OW26236   5.159   5.630   3.046
 8446SOL    HW126237   5.071   5.584   3.051
 8446SOL    HW226238   5.220   5.579   2.986
 8447SOL     OW26239   5.297   2.368   1.698
 8447SOL    HW126240   5.376   2.418   1.735
 8447SOL    HW226241   5.305   2.272   1.722
 8448SOL     OW26242   0.455   3.719   5.842
 8448SOL    HW126243   0.374   3.729   5.784
 8448SOL    HW226244   0.446   3.778   5.922
 8449SOL     OW26245   0.351   3.227   4.852
 8449SOL    HW126246   0.398   3.152   4.806
 8449SOL    HW226247   0.418   3.295   4.883
 8450SOL     OW26248   1.733   6.442   3.006
 8450SOL    HW126249   1.692   6.506   2.941
 8450SOL    HW226250   1.831   6.432   2.986
 8451SOL     OW26251   3.508   2.736   0.996
 8451SOL    HW126252   3.502   2.754   1.094
 8451SOL    HW226253   3.589   2.681   0.977
 8452SOL     OW26254   6.622   0.475   1.097
 8452SOL    HW126255   6.589   0.551   1.153
 8452SOL    HW226256   6.715   0.494   1.067
 8453SOL     OW26257   6.486   4.803   6.424
 8453SOL    HW126258   6.441   4.892   6.428
 8453SOL    HW226259   6.417   4.731   6.422
 8454SOL     OW26260   1.759   6.541   2.685
 8454SOL    HW126261   1.750   6.441   2.689
 8454SOL    HW226262   1.829   6.566   2.619
 8455SOL     OW26263   4.930   1.464   1.367
 8455SOL    HW126264   4.853   1.528   1.373
 8455SOL    HW226265   5.015   1.515   1.358
 8456SOL     OW26266   5.549   5.335   3.847
 8456SOL    HW126267   5.462   5.350   3.801
 8456SOL    HW226268   5.612   5.288   3.785
 8457SOL     OW26269   6.621   0.217   5.361
 8457SOL    HW126270   6.701   0.160   5.379
 8457SOL    HW226271   6.649   0.311   5.343
 8458SOL     OW26272   1.973   1.478   0.203
 8458SOL    HW126273   1.926   1.474   0.115
 8458SOL    HW226274   1.908   1.504   0.275
 8459SOL     OW26275   3.659   6.167   2.610
 8459SOL    HW126276   3.730   6.219   2.563
 8459SOL    HW226277   3.569   6.200   2.581
 8460SOL     OW26278   4.503   2.473   0.105
 8460SOL    HW126279   4.441   2.547   0.078
 8460SOL    HW226280   4.488   2.449   0.201
 8461SOL     OW26281   0.399   3.555   1.785
 8461SOL    HW126282   0.402   3.613   1.866
 8461SOL    HW226283   0.390   3.459   1.813
 8462SOL     OW26284   4.039   3.503   6.975
 8462SOL    HW126285   3.957   3.554   6.951
 8462SOL    HW226286   4.013   3.419   0.003
 8463SOL     OW26287   6.762   2.148   0.079
 8463SOL    HW126288   6.814   2.208   0.141
 8463SOL    HW226289   6.679   2.117   0.125
 8464SOL     OW26290   7.017   3.414   6.197
 8464SOL    HW126291   6.989   3.493   6.252
 8464SOL    HW226292   0.091   3.428   6.164
 8465SOL     OW26293   2.747   2.499   0.651
 8465SOL    HW126294   2.761   2.536   0.743
 8465SOL    HW226295   2.704   2.409   0.658
 8466SOL     OW26296   5.622   0.626   5.441
 8466SOL    HW126297   5.623   0.545   5.500
 8466SOL    HW226298   5.541   0.680   5.460
 8467SOL     OW26299   3.316   0.536   0.424
 8467SOL    HW126300   3.268   0.622   0.407
 8467SOL    HW226301   3.380   0.547   0.500
 8468SOL     OW26302   6.116   3.609   6.350
 8468SOL    HW126303   6.118   3.540   6.422
 8468SOL    HW226304   6.082   3.695   6.387
 8469SOL     OW26305   4.029   2.815   5.966
 8469SOL    HW126306   4.042   2.884   6.037
 8469SOL    HW226307   4.047   2.855   5.876
 8470SOL     OW26308   0.881   4.832   1.005
 8470SOL    HW126309   0.896   4.865   1.098
 8470SOL    HW226310   0.923   4.896   0.940
 8471SOL     OW26311   3.002   0.664   4.690
 8471SOL    HW126312   3.046   0.637   4.605
 8471SOL    HW226313   2.959   0.754   4.678
 8472SOL     OW26314   5.745   1.570   6.315
 8472SOL    HW126315   5.830   1.577   6.368
 8472SOL    HW226316   5.729   1.475   6.288
 8473SOL     OW26317   4.322   4.555   6.936
 8473SOL    HW126318   4.407   4.520   6.976
 8473SOL    HW226319   4.244   4.516   6.985
 8474SOL     OW26320   2.917   3.434   2.817
 8474SOL    HW126321   2.947   3.384   2.736
 8474SOL    HW226322   2.828   3.398   2.846
 8475SOL     OW26323   0.215   3.708   1.380
 8475SOL    HW126324   0.215   3.807   1.369
 8475SOL    HW226325   0.146   3.681   1.447
 8476SOL     OW26326   6.402   0.430   1.467
 8476SOL    HW126327   6.386   0.361   1.396
 8476SOL    HW226328   6.319   0.441   1.522
 8477SOL     OW26329   5.249   6.024   1.392
 8477SOL    HW126330   5.345   6.048   1.379
 8477SOL    HW226331   5.191   6.099   1.361
 8478SOL     OW26332   1.026   0.873   5.651
 8478SOL    HW126333   0.927   0.880   5.638
 8478SOL    HW226334   1.050   0.778   5.672
 8479SOL     OW26335   1.933   2.107   1.058
 8479SOL    HW126336   1.897   2.199   1.044
 8479SOL    HW226337   1.909   2.049   0.980
 8480SOL     OW26338   4.629   2.736   0.239
 8480SOL    HW126339   4.727   2.731   0.258
 8480SOL    HW226340   4.610   2.691   0.152
 8481SOL     OW26341   3.782   2.091   4.320
 8481SOL    HW126342   3.840   2.157   4.366
 8481SOL    HW226343   3.815   1.998   4.338
 8482SOL     OW26344   4.070   1.031   6.991
 8482SOL    HW126345   4.044   1.076   6.906
 8482SOL    HW226346   3.991   0.983   0.010
 8483SOL     OW26347   3.548   6.098   3.358
 8483SOL    HW126348   3.494   6.033   3.411
 8483SOL    HW226349   3.589   6.052   3.279
 8484SOL     OW26350   6.390   5.854   5.308
 8484SOL    HW126351   6.486   5.865   5.280
 8484SOL    HW226352   6.385   5.789   5.384
 8485SOL     OW26353   3.516   2.212   0.313
 8485SOL    HW126354   3.461   2.174   0.387
 8485SOL    HW226355   3.528   2.143   0.241
 8486SOL     OW26356   1.976   1.481   2.236
 8486SOL    HW126357   2.038   1.460   2.311
 8486SOL    HW226358   2.028   1.522   2.161
 8487SOL     OW26359   5.303   1.712   6.427
 8487SOL    HW126360   5.371   1.673   6.490
 8487SOL    HW226361   5.239   1.641   6.399
 8488SOL     OW26362   5.565   5.178   2.516
 8488SOL    HW126363   5.605   5.118   2.447
 8488SOL    HW226364   5.588   5.273   2.496
 8489SOL     OW26365   5.516   0.925   1.495
 8489SOL    HW126366   5.602   0.911   1.545
 8489SOL    HW226367   5.443   0.946   1.560
 8490SOL     OW26368   2.702   6.999   6.392
 8490SOL    HW126369   2.762   0.016   6.321
 8490SOL    HW226370   2.713   0.032   6.476
 8491SOL     OW26371   2.418   6.288   2.856
 8491SOL    HW126372   2.476   6.267   2.777
 8491SOL    HW226373   2.331   6.241   2.848
 8492SOL     OW26374   5.816   4.207   3.835
 8492SOL    HW126375   5.823   4.128   3.774
 8492SOL    HW226376   5.889   4.204   3.903
 8493SOL     OW26377   2.704   1.241   0.346
 8493SOL    HW126378   2.672   1.185   0.270
 8493SOL    HW226379   2.628   1.295   0.382
 8494SOL     OW26380   5.707   4.878   1.747
 8494SOL    HW126381   5.732   4.900   1.653
 8494SOL    HW226382   5.748   4.943   1.809
 8495SOL     OW26383   6.347   6.035   0.747
 8495SOL    HW126384   6.446   6.032   0.735
 8495SOL    HW226385   6.306   6.090   0.673
 8496SOL     OW26386   5.355   1.323   1.859
 8496SOL    HW126387   5.346   1.325   1.959
 8496SOL    HW226388   5.438   1.274   1.834
 8497SOL     OW26389   0.147   0.363   3.372
 8497SOL    HW126390   0.236   0.319   3.364
 8497SOL    HW226391   0.088   0.309   3.432
 8498SOL     OW26392   5.249   6.880   3.570
 8498SOL    HW126393   5.250   6.939   3.651
 8498SOL    HW226394   5.215   6.789   3.596
 8499SOL     OW26395   0.912   5.651   0.635
 8499SOL    HW126396   0.995   5.680   0.587
 8499SOL    HW226397   0.930   5.646   0.733
 8500SOL     OW26398   1.738   0.583   5.797
 8500SOL    HW126399   1.817   0.596   5.738
 8500SOL    HW226400   1.716   0.486   5.802
 8501SOL     OW26401   0.217   2.362   0.193
 8501SOL    HW126402   0.199   2.264   0.201
 8501SOL    HW226403   0.141   2.414   0.234
 8502SOL     OW26404   0.579   2.765   0.149
 8502SOL    HW126405   0.531   2.680   0.170
 8502SOL    HW226406   0.608   2.764   0.054
 8503SOL     OW26407   6.501   6.054   4.658
 8503SOL    HW126408   6.485   6.075   4.562
 8503SOL    HW226409   6.484   5.957   4.674
 8504SOL     OW26410   2.005   5.324   2.234
 8504SOL    HW126411   2.093   5.370   2.247
 8504SOL    HW226412   1.992   5.257   2.307
 8505SOL     OW26413   5.161   3.817   2.413
 8505SOL    HW126414   5.147   3.897   2.471
 8505SOL    HW226415   5.101   3.743   2.444
 8506SOL     OW26416   1.407   1.010   6.455
 8506SOL    HW126417   1.316   1.007   6.415
 8506SOL    HW226418   1.470   1.055   6.392
 8507SOL     OW26419   4.427   0.093   5.233
 8507SOL    HW126420   4.394   0.101   5.139
 8507SOL    HW226421   4.526   0.107   5.235
 8508SOL     OW26422   4.120   1.961   6.268
 8508SOL    HW126423   4.187   1.891   6.240
 8508SOL    HW226424   4.128   2.040   6.208
 8509SOL     OW26425   5.533   0.174   3.421
 8509SOL    HW126426   5.546   0.200   3.325
 8509SOL    HW226427   5.607   0.113   3.449
 8510SOL     OW26428   5.511   2.651   3.850
 8510SOL    HW126429   5.484   2.558   3.872
 8510SOL    HW226430   5.460   2.715   3.907
 8511SOL     OW26431   5.880   3.455   2.666
 8511SOL    HW126432   5.911   3.360   2.668
 8511SOL    HW226433   5.846   3.480   2.757
 8512SOL     OW26434   2.290   0.340   3.547
 8512SOL    HW126435   2.379   0.326   3.503
 8512SOL    HW226436   2.254   0.430   3.523
 8513SOL     OW26437   6.049   5.866   0.322
 8513SOL    HW126438   6.014   5.776   0.297
 8513SOL    HW226439   5.999   5.901   0.402
 8514SOL     OW26440   3.302   6.404   3.275
 8514SOL    HW126441   3.400   6.424   3.262
 8514SOL    HW226442   3.251   6.438   3.196
 8515SOL     OW26443   5.479   2.543   1.007
 8515SOL    HW126444   5.410   2.471   1.002
 8515SOL    HW226445   5.570   2.502   1.005
 8516SOL     OW26446   6.845   2.363   2.483
 8516SOL    HW126447   6.918   2.369   2.551
 8516SOL    HW226448   6.758   2.342   2.529
 8517SOL     OW26449   1.059   2.329   0.049
 8517SOL    HW126450   1.044   2.246   7.014
 8517SOL    HW226451   0.971   2.375   0.064
 8518SOL     OW26452   3.880   5.151   0.267
 8518SOL    HW126453   3.955   5.147   0.333
 8518SOL    HW226454   3.879   5.240   0.223
 8519SOL     OW26455   1.760   6.392   2.344
 8519SOL    HW126456   1.764   6.391   2.244
 8519SOL    HW226457   1.750   6.298   2.378
 8520SOL     OW26458   3.863   1.254   0.222
 8520SOL    HW126459   3.813   1.260   0.136
 8520SOL    HW226460   3.804   1.215   0.293
 8521SOL     OW26461   0.453   6.557   6.080
 8521SOL    HW126462   0.361   6.534   6.111
 8521SOL    HW226463   0.488   6.483   6.022
 8522SOL     OW26464   1.153   6.724   3.239
 8522SOL    HW126465   1.055   6.705   3.234
 8522SOL    HW226466   1.189   6.736   3.146
 8523SOL     OW26467   2.608   6.721   6.048
 8523SOL    HW126468   2.645   6.710   5.955
 8523SOL    HW226469   2.509   6.734   6.042
 8524SOL     OW26470   1.176   3.371   5.171
 8524SOL    HW126471   1.200   3.277   5.146
 8524SOL    HW226472   1.121   3.411   5.098
 8525SOL     OW26473   5.566   3.490   3.213
 8525SOL    HW126474   5.468   3.496   3.196
 8525SOL    HW226475   5.606   3.417   3.158
 8526SOL     OW26476   2.440   2.855   1.766
 8526SOL    HW126477   2.451   2.883   1.671
 8526SOL    HW226478   2.507   2.903   1.823
 8527SOL     OW26479   4.714   0.497   4.311
 8527SOL    HW126480   4.716   0.574   4.247
 8527SOL    HW226481   4.645   0.431   4.282
 8528SOL     OW26482   5.031   3.105   6.244
 8528SOL    HW126483   4.994   3.030   6.300
 8528SOL    HW226484   5.001   3.192   6.281
 8529SOL     OW26485   1.674   5.052   0.308
 8529SOL    HW126486   1.603   5.117   0.334
 8529SOL    HW226487   1.757   5.102   0.282
 8530SOL     OW26488   1.418   4.140   5.953
 8530SOL    HW126489   1.436   4.120   5.857
 8530SOL    HW226490   1.381   4.059   5.998
 8531SOL     OW26491   4.983   4.307   2.790
 8531SOL    HW126492   4.890   4.272   2.801
 8531SOL    HW226493   4.993   4.350   2.701
 8532SOL     OW26494   3.513   5.074   5.096
 8532SOL    HW126495   3.596   5.076   5.040
 8532SOL    HW226496   3.521   5.142   5.169
 8533SOL     OW26497   3.055   1.154   4.367
 8533SOL    HW126498   3.119   1.211   4.418
 8533SOL    HW226499   3.061   1.175   4.269
 8534SOL     OW26500   1.388   3.537   2.844
 8534SOL    HW126501   1.448   3.594   2.900
 8534SOL    HW226502   1.293   3.565   2.858
 8535SOL     OW26503   0.746   2.136   4.752
 8535SOL    HW126504   0.725   2.044   4.719
 8535SOL    HW226505   0.844   2.143   4.772
 8536SOL     OW26506   0.017   1.598   5.716
 8536SOL    HW126507   7.017   1.680   5.770
 8536SOL    HW226508   0.095   1.550   5.757
 8537SOL     OW26509   5.530   0.794   1.072
 8537SOL    HW126510   5.455   0.844   1.029
 8537SOL    HW226511   5.617   0.817   1.028
 8538SOL     OW26512   0.051   0.801   4.817
 8538SOL    HW126513   0.003   0.876   4.771
 8538SOL    HW226514   0.002   0.777   4.901
 8539SOL     OW26515   0.323   2.629   1.693
 8539SOL    HW126516   0.243   2.590   1.646
 8539SOL    HW226517   0.369   2.694   1.632
 8540SOL     OW26518   3.182   0.700   0.681
 8540SOL    HW126519   3.258   0.748   0.637
 8540SOL    HW226520   3.096   0.727   0.637
 8541SOL     OW26521   2.952   1.269   4.890
 8541SOL    HW126522   2.922   1.302   4.801
 8541SOL    HW226523   3.010   1.188   4.878
 8542SOL     OW26524   2.018   4.306   0.031
 8542SOL    HW126525   1.931   4.313   0.080
 8542SOL    HW226526   2.086   4.365   0.076
 8543SOL     OW26527   2.681   2.515   5.256
 8543SOL    HW126528   2.685   2.483   5.161
 8543SOL    HW226529   2.711   2.441   5.316
 8544SOL     OW26530   5.091   3.895   5.159
 8544SOL    HW126531   5.152   3.931   5.230
 8544SOL    HW226532   5.071   3.967   5.093
 8545SOL     OW26533   3.459   6.780   5.473
 8545SOL    HW126534   3.400   6.699   5.475
 8545SOL    HW226535   3.543   6.758   5.424
 8546SOL     OW26536   5.668   0.484   1.886
 8546SOL    HW126537   5.681   0.581   1.903
 8546SOL    HW226538   5.738   0.452   1.821
 8547SOL     OW26539   6.761   6.589   5.884
 8547SOL    HW126540   6.786   6.679   5.847
 8547SOL    HW226541   6.677   6.558   5.841
 8548SOL     OW26542   0.741   3.162   6.430
 8548SOL    HW126543   0.793   3.247   6.439
 8548SOL    HW226544   0.804   3.084   6.433
 8549SOL     OW26545   2.045   0.752   3.439
 8549SOL    HW126546   2.101   0.751   3.521
 8549SOL    HW226547   2.097   0.714   3.362
 8550SOL     OW26548   0.819   4.441   0.055
 8550SOL    HW126549   0.843   4.412   0.148
 8550SOL    HW226550   0.776   4.366   0.006
 8551SOL     OW26551   1.809   1.831   6.202
 8551SOL    HW126552   1.869   1.870   6.132
 8551SOL    HW226553   1.859   1.761   6.253
 8552SOL     OW26554   2.680   1.473   2.710
 8552SOL    HW126555   2.717   1.523   2.632
 8552SOL    HW226556   2.611   1.530   2.755
 8553SOL     OW26557   4.717   2.695   1.165
 8553SOL    HW126558   4.670   2.777   1.132
 8553SOL    HW226559   4.808   2.719   1.196
 8554SOL     OW26560   0.678   6.787   0.751
 8554SOL    HW126561   0.694   6.804   0.653
 8554SOL    HW226562   0.622   6.705   0.761
 8555SOL     OW26563   4.507   1.444   3.774
 8555SOL    HW126564   4.578   1.400   3.830
 8555SOL    HW226565   4.461   1.376   3.718
 8556SOL     OW26566   2.155   6.215   0.000
 8556SOL    HW126567   2.172   6.309   0.031
 8556SOL    HW226568   2.057   6.198   7.019
 8557SOL     OW26569   6.750   0.863   6.511
 8557SOL    HW126570   6.691   0.943   6.525
 8557SOL    HW226571   6.833   0.872   6.566
 8558SOL     OW26572   3.065   4.820   3.320
 8558SOL    HW126573   3.154   4.815   3.365
 8558SOL    HW226574   3.038   4.916   3.309
 8559SOL     OW26575   1.135   5.229   2.571
 8559SOL    HW126576   1.040   5.258   2.585
 8559SOL    HW226577   1.191   5.259   2.649
 8560SOL     OW26578   2.649   4.900   1.154
 8560SOL    HW126579   2.661   4.899   1.054
 8560SOL    HW226580   2.686   4.984   1.192
 8561SOL     OW26581   3.267   0.229   2.687
 8561SOL    HW126582   3.209   0.242   2.606
 8561SOL    HW226583   3.262   0.311   2.745
 8562SOL     OW26584   3.943   1.158   6.784
 8562SOL    HW126585   3.996   1.240   6.806
 8562SOL    HW226586   3.848   1.183   6.767
 8563SOL     OW26587   1.505   5.658   3.306
 8563SOL    HW126588   1.577   5.679   3.240
 8563SOL    HW226589   1.545   5.628   3.392
 8564SOL     OW26590   3.736   6.559   6.949
 8564SOL    HW126591   3.645   6.599   6.961
 8564SOL    HW226592   3.785   6.608   6.877
 8565SOL     OW26593   3.337   5.299   0.924
 8565SOL    HW126594   3.323   5.389   0.965
 8565SOL    HW226595   3.435   5.284   0.909
 8566SOL     OW26596   3.159   1.105   3.145
 8566SOL    HW126597   3.182   1.176   3.211
 8566SOL    HW226598   3.213   1.023   3.163
 8567SOL     OW26599   1.980   1.875   1.586
 8567SOL    HW126600   1.949   1.921   1.669
 8567SOL    HW226601   1.901   1.837   1.537
 8568SOL     OW26602   6.964   1.519   6.894
 8568SOL    HW126603   7.001   1.472   6.814
 8568SOL    HW226604   6.864   1.523   6.887
 8569SOL     OW26605   5.327   2.544   6.488
 8569SOL    HW126606   5.303   2.591   6.403
 8569SOL    HW226607   5.253   2.557   6.554
 8570SOL     OW26608   1.015   2.158   4.793
 8570SOL    HW126609   1.038   2.134   4.888
 8570SOL    HW226610   1.085   2.121   4.732
 8571SOL     OW26611   2.044   0.642   4.284
 8571SOL    HW126612   2.017   0.732   4.317
 8571SOL    HW226613   2.048   0.578   4.361
 8572SOL     OW26614   3.373   4.064   5.724
 8572SOL    HW126615   3.309   4.137   5.749
 8572SOL    HW226616   3.338   4.016   5.644
 8573SOL     OW26617   3.558   6.120   1.045
 8573SOL    HW126618   3.570   6.148   1.140
 8573SOL    HW226619   3.519   6.028   1.041
 8574SOL     OW26620   0.025   6.458   5.558
 8574SOL    HW126621   6.949   6.435   5.574
 8574SOL    HW226622   0.054   6.529   5.623
 8575SOL     OW26623   3.133   6.756   2.525
 8575SOL    HW126624   3.228   6.771   2.496
 8575SOL    HW226625   3.079   6.726   2.447
 8576SOL     OW26626   0.551   3.718   4.464
 8576SOL    HW126627   0.634   3.686   4.509
 8576SOL    HW226628   0.549   3.818   4.464
 8577SOL     OW26629   1.501   1.331   6.189
 8577SOL    HW126630   1.499   1.232   6.178
 8577SOL    HW226631   1.591   1.366   6.162
 8578SOL     OW26632   5.941   6.671   5.107
 8578SOL    HW126633   5.963   6.578   5.076
 8578SOL    HW226634   5.976   6.737   5.040
 8579SOL     OW26635   2.555   5.954   2.546
 8579SOL    HW126636   2.517   6.038   2.507
 8579SOL    HW226637   2.648   5.941   2.513
 8580SOL     OW26638   1.092   6.658   0.805
 8580SOL    HW126639   1.005   6.609   0.802
 8580SOL    HW226640   1.117   6.688   0.713
 8581SOL     OW26641   3.713   5.072   1.456
 8581SOL    HW126642   3.726   5.069   1.555
 8581SOL    HW226643   3.616   5.088   1.437
 8582SOL     OW26644   4.075   4.587   5.727
 8582SOL    HW126645   4.127   4.667   5.757
 8582SOL    HW226646   3.995   4.617   5.674
 8583SOL     OW26647   4.182   0.559   2.501
 8583SOL    HW126648   4.159   0.463   2.486
 8583SOL    HW226649   4.101   0.610   2.530
 8584SOL     OW26650   6.304   1.188   4.416
 8584SOL    HW126651   6.205   1.176   4.414
 8584SOL    HW226652   6.327   1.273   4.463
 8585SOL     OW26653   5.972   2.387   1.159
 8585SOL    HW126654   5.996   2.305   1.211
 8585SOL    HW226655   5.992   2.468   1.214
 8586SOL     OW26656   5.498   6.301   1.503
 8586SOL    HW126657   5.469   6.262   1.415
 8586SOL    HW226658   5.586   6.348   1.491
 8587SOL     OW26659   1.006   1.560   5.838
 8587SOL    HW126660   0.917   1.566   5.883
 8587SOL    HW226661   0.995   1.515   5.749
 8588SOL     OW26662   2.919   1.715   6.887
 8588SOL    HW126663   3.002   1.712   6.942
 8588SOL    HW226664   2.864   1.794   6.914
 8589SOL     OW26665   0.236   3.560   5.585
 8589SOL    HW126666   0.295   3.519   5.515
 8589SOL    HW226667   0.143   3.526   5.574
 8590SOL     OW26668   6.950   1.988   2.478
 8590SOL    HW126669   6.967   2.017   2.384
 8590SOL    HW226670   0.008   1.933   2.510
 8591SOL     OW26671   6.706   5.396   0.421
 8591SOL    HW126672   6.785   5.351   0.380
 8591SOL    HW226673   6.711   5.495   0.404
 8592SOL     OW26674   0.545   2.829   6.884
 8592SOL    HW126675   0.510   2.765   6.816
 8592SOL    HW226676   0.578   2.912   6.839
 8593SOL     OW26677   3.250   0.267   6.253
 8593SOL    HW126678   3.277   0.293   6.346
 8593SOL    HW226679   3.279   0.173   6.235
 8594SOL     OW26680   6.139   2.888   6.080
 8594SOL    HW126681   6.201   2.924   6.149
 8594SOL    HW226682   6.167   2.795   6.055
 8595SOL     OW26683   5.001   6.761   2.508
 8595SOL    HW126684   5.035   6.786   2.417
 8595SOL    HW226685   5.074   6.715   2.559
 8596SOL     OW26686   1.107   3.393   3.691
 8596SOL    HW126687   1.206   3.400   3.680
 8596SOL    HW226688   1.086   3.328   3.764
 8597SOL     OW26689   6.170   3.594   1.235
 8597SOL    HW126690   6.267   3.572   1.238
 8597SOL    HW226691   6.121   3.542   1.306
 8598SOL     OW26692   5.566   0.857   4.973
 8598SOL    HW126693   5.661   0.845   4.946
 8598SOL    HW226694   5.514   0.895   4.897
 8599SOL     OW26695   1.358   3.084   3.622
 8599SOL    HW126696   1.283   3.099   3.558
 8599SOL    HW226697   1.445   3.100   3.576
 8600SOL     OW26698   4.341   3.608   0.912
 8600SOL    HW126699   4.300   3.664   0.983
 8600SOL    HW226700   4.273   3.590   0.840
 8601SOL     OW26701   1.062   0.786   3.827
 8601SOL    HW126702   1.160   0.772   3.835
 8601SOL    HW226703   1.013   0.710   3.869
 8602SOL     OW26704   2.675   6.937   4.364
 8602SOL    HW126705   2.608   6.974   4.301
 8602SOL    HW226706   2.638   6.938   4.457
 8603SOL     OW26707   6.762   0.616   0.154
 8603SOL    HW126708   6.808   0.569   0.078
 8603SOL    HW226709   6.830   0.663   0.210
 8604SOL     OW26710   1.094   4.383   5.962
 8604SOL    HW126711   1.036   4.307   5.994
 8604SOL    HW226712   1.174   4.346   5.916
 8605SOL     OW26713   0.152   4.635   4.688
 8605SOL    HW126714   0.249   4.656   4.679
 8605SOL    HW226715   0.116   4.601   4.600
 8606SOL     OW26716   2.130   2.274   6.394
 8606SOL    HW126717   2.121   2.374   6.398
 8606SOL    HW226718   2.074   2.233   6.466
 8607SOL     OW26719   2.408   4.643   1.437
 8607SOL    HW126720   2.402   4.671   1.341
 8607SOL    HW226721   2.502   4.651   1.468
 8608SOL     OW26722   2.751   4.748   3.005
 8608SOL    HW126723   2.826   4.686   2.982
 8608SOL    HW226724   2.672   4.729   2.947
 8609SOL     OW26725   4.804   1.351   3.523
 8609SOL    HW126726   4.879   1.370   3.459
 8609SOL    HW226727   4.842   1.317   3.609
 8610SOL     OW26728   7.006   6.402   3.294
 8610SOL    HW126729   0.039   6.366   3.371
 8610SOL    HW226730   6.936   6.336   3.267
 8611SOL     OW26731   3.533   0.991   3.493
 8611SOL    HW126732   3.501   1.012   3.586
 8611SOL    HW226733   3.483   0.912   3.458
 8612SOL     OW26734   4.002   3.161   3.096
 8612SOL    HW126735   4.025   3.134   3.190
 8612SOL    HW226736   3.925   3.106   3.063
 8613SOL     OW26737   2.942   2.510   1.350
 8613SOL    HW126738   2.937   2.486   1.447
 8613SOL    HW226739   2.879   2.452   1.299
 8614SOL     OW26740   1.402   2.300   1.908
 8614SOL    HW126741   1.303   2.299   1.891
 8614SOL    HW226742   1.435   2.395   1.903
 8615SOL     OW26743   4.502   2.161   3.751
 8615SOL    HW126744   4.557   2.194   3.828
 8615SOL    HW226745   4.501   2.061   3.751
 8616SOL     OW26746   4.208   4.931   2.659
 8616SOL    HW126747   4.205   5.023   2.619
 8616SOL    HW226748   4.117   4.890   2.656
 8617SOL     OW26749   5.192   6.655   3.797
 8617SOL    HW126750   5.184   6.561   3.763
 8617SOL    HW226751   5.274   6.663   3.853
 8618SOL     OW26752   6.077   3.923   1.683
 8618SOL    HW126753   6.142   3.972   1.625
 8618SOL    HW226754   5.985   3.935   1.647
 8619SOL     OW26755   5.395   5.060   1.989
 8619SOL    HW126756   5.336   4.989   2.028
 8619SOL    HW226757   5.345   5.147   1.985
 8620SOL     OW26758   2.387   0.806   4.837
 8620SOL    HW126759   2.296   0.843   4.857
 8620SOL    HW226760   2.406   0.815   4.739
 8621SOL     OW26761   4.659   2.704   1.965
 8621SOL    HW126762   4.615   2.787   1.931
 8621SOL    HW226763   4.711   2.726   2.048
 8622SOL     OW26764   6.598   5.176   2.730
 8622SOL    HW126765   6.618   5.264   2.772
 8622SOL    HW226766   6.682   5.135   2.695
 8623SOL     OW26767   6.605   3.529   4.565
 8623SOL    HW126768   6.635   3.460   4.499
 8623SOL    HW226769   6.685   3.580   4.598
 8624SOL     OW26770   3.350   3.629   6.027
 8624SOL    HW126771   3.377   3.533   6.023
 8624SOL    HW226772   3.267   3.641   5.973
 8625SOL     OW26773   3.387   1.696   5.387
 8625SOL    HW126774   3.298   1.741   5.399
 8625SOL    HW226775   3.395   1.663   5.294
 8626SOL     OW26776   4.667   3.096   0.611
 8626SOL    HW126777   4.696   3.074   0.518
 8626SOL    HW226778   4.745   3.087   0.673
 8627SOL     OW26779   1.780   1.400   2.887
 8627SOL    HW126780   1.757   1.371   2.980
 8627SOL    HW226781   1.728   1.344   2.822
 8628SOL     OW26782   0.185   6.574   0.165
 8628SOL    HW126783   0.169   6.566   0.264
 8628SOL    HW226784   0.215   6.485   0.130
 8629SOL     OW26785   0.787   0.164   4.368
 8629SOL    HW126786   0.841   0.244   4.394
 8629SOL    HW226787   0.692   0.191   4.356
 8630SOL     OW26788   4.876   3.289   3.359
 8630SOL    HW126789   4.864   3.345   3.277
 8630SOL    HW226790   4.908   3.347   3.434
 8631SOL     OW26791   2.652   5.495   0.181
 8631SOL    HW126792   2.627   5.496   0.084
 8631SOL    HW226793   2.589   5.552   0.233
 8632SOL     OW26794   4.320   4.740   5.227
 8632SOL    HW126795   4.300   4.746   5.325
 8632SOL    HW226796   4.296   4.649   5.193
 8633SOL     OW26797   5.327   4.189   5.574
 8633SOL    HW126798   5.291   4.123   5.641
 8633SOL    HW226799   5.426   4.176   5.566
 8634SOL     OW26800   5.938   5.138   0.722
 8634SOL    HW126801   5.931   5.145   0.623
 8634SOL    HW226802   6.035   5.136   0.748
 8635SOL     OW26803   6.179   3.074   6.780
 8635SOL    HW126804   6.104   3.029   6.731
 8635SOL    HW226805   6.191   3.031   6.869
 8636SOL     OW26806   4.227   6.023   0.945
 8636SOL    HW126807   4.190   6.113   0.968
 8636SOL    HW226808   4.313   6.008   0.994
 8637SOL     OW26809   1.489   1.520   6.575
 8637SOL    HW126810   1.429   1.510   6.495
 8637SOL    HW226811   1.526   1.613   6.578
 8638SOL     OW26812   4.034   2.952   5.408
 8638SOL    HW126813   4.046   3.049   5.429
 8638SOL    HW226814   4.116   2.902   5.434
 8639SOL     OW26815   4.929   3.038   6.879
 8639SOL    HW126816   4.875   2.987   6.812
 8639SOL    HW226817   4.883   3.037   6.967
 8640SOL     OW26818   3.422   3.122   1.224
 8640SOL    HW126819   3.402   3.219   1.212
 8640SOL    HW226820   3.516   3.112   1.259
 8641SOL     OW26821   4.335   5.289   3.066
 8641SOL    HW126822   4.353   5.268   2.970
 8641SOL    HW226823   4.399   5.359   3.098
 8642SOL     OW26824   0.802   6.711   3.764
 8642SOL    HW126825   0.819   6.717   3.666
 8642SOL    HW226826   0.792   6.803   3.802
 8643SOL     OW26827   3.157   6.954   0.554
 8643SOL    HW126828   3.201   7.005   0.480
 8643SOL    HW226829   3.182   6.858   0.548
 8644SOL     OW26830   6.419   2.419   6.551
 8644SOL    HW126831   6.505   2.444   6.506
 8644SOL    HW226832   6.434   2.411   6.649
 8645SOL     OW26833   5.898   4.511   1.667
 8645SOL    HW126834   5.816   4.506   1.725
 8645SOL    HW226835   5.972   4.460   1.710
 8646SOL     OW26836   0.470   2.635   5.559
 8646SOL    HW126837   0.478   2.561   5.625
 8646SOL    HW226838   0.451   2.721   5.606
 8647SOL     OW26839   2.797   5.092   1.264
 8647SOL    HW126840   2.788   5.100   1.363
 8647SOL    HW226841   2.784   5.181   1.222
 8648SOL     OW26842   5.684   6.558   0.793
 8648SOL    HW126843   5.742   6.509   0.727
 8648SOL    HW226844   5.742   6.610   0.856
 8649SOL     OW26845   4.418   6.758   0.245
 8649SOL    HW126846   4.420   6.675   0.301
 8649SOL    HW226847   4.483   6.749   0.170
 8650SOL     OW26848   2.531   0.273   4.978
 8650SOL    HW126849   2.489   0.237   4.895
 8650SOL    HW226850   2.463   0.278   5.051
 8651SOL     OW26851   2.808   1.354   0.783
 8651SOL    HW126852   2.810   1.378   0.880
 8651SOL    HW226853   2.723   1.387   0.742
 8652SOL     OW26854   1.150   4.723   4.127
 8652SOL    HW126855   1.204   4.755   4.049
 8652SOL    HW226856   1.096   4.644   4.099
 8653SOL     OW26857   0.278   1.892   6.227
 8653SOL    HW126858   0.325   1.907   6.315
 8653SOL    HW226859   0.180   1.901   6.240
 8654SOL     OW26860   1.352   4.521   2.048
 8654SOL    HW126861   1.289   4.589   2.011
 8654SOL    HW226862   1.313   4.480   2.130
 8655SOL     OW26863   6.488   1.478   5.569
 8655SOL    HW126864   6.516   1.566   5.530
 8655SOL    HW226865   6.401   1.489   5.617
 8656SOL     OW26866   5.364   0.061   1.860
 8656SOL    HW126867   5.355   0.127   1.935
 8656SOL    HW226868   5.384   0.110   1.775
 8657SOL     OW26869   5.744   0.419   2.334
 8657SOL    HW126870   5.663   0.422   2.275
 8657SOL    HW226871   5.728   0.477   2.414
 8658SOL     OW26872   6.134   5.076   1.735
 8658SOL    HW126873   6.112   5.019   1.814
 8658SOL    HW226874   6.075   5.051   1.658
 8659SOL     OW26875   4.684   2.002   2.688
 8659SOL    HW126876   4.585   2.013   2.678
 8659SOL    HW226877   4.722   2.082   2.734
 8660SOL     OW26878   0.733   2.674   0.984
 8660SOL    HW126879   0.653   2.645   0.932
 8660SOL    HW226880   0.816   2.664   0.928
 8661SOL     OW26881   6.298   3.179   3.083
 8661SOL    HW126882   6.349   3.174   3.169
 8661SOL    HW226883   6.239   3.099   3.074
 8662SOL     OW26884   3.221   5.789   2.744
 8662SOL    HW126885   3.181   5.719   2.685
 8662SOL    HW226886   3.225   5.756   2.838
 8663SOL     OW26887   3.404   5.574   3.219
 8663SOL    HW126888   3.451   5.571   3.307
 8663SOL    HW226889   3.414   5.666   3.179
 8664SOL     OW26890   2.347   5.768   3.282
 8664SOL    HW126891   2.302   5.825   3.214
 8664SOL    HW226892   2.289   5.689   3.303
 8665SOL     OW26893   5.875   4.870   5.846
 8665SOL    HW126894   5.873   4.770   5.842
 8665SOL    HW226895   5.852   4.900   5.939
 8666SOL     OW26896   5.413   0.262   3.994
 8666SOL    HW126897   5.332   0.315   4.019
 8666SOL    HW226898   5.489   0.324   3.974
 8667SOL     OW26899   4.872   1.709   4.094
 8667SOL    HW126900   4.859   1.643   4.168
 8667SOL    HW226901   4.786   1.759   4.080
 8668SOL     OW26902   5.708   2.820   5.109
 8668SOL    HW126903   5.665   2.764   5.180
 8668SOL    HW226904   5.765   2.762   5.052
 8669SOL     OW26905   6.487   6.370   6.119
 8669SOL    HW126906   6.576   6.373   6.073
 8669SOL    HW226907   6.441   6.284   6.095
 8670SOL     OW26908   5.791   5.126   6.201
 8670SOL    HW126909   5.821   5.033   6.181
 8670SOL    HW226910   5.694   5.125   6.226
 8671SOL     OW26911   0.552   2.228   2.324
 8671SOL    HW126912   0.620   2.287   2.367
 8671SOL    HW226913   0.582   2.133   2.330
 8672SOL     OW26914   6.800   0.203   3.426
 8672SOL    HW126915   6.884   0.221   3.477
 8672SOL    HW226916   6.773   0.285   3.375
 8673SOL     OW26917   0.254   1.209   0.044
 8673SOL    HW126918   0.266   1.110   0.045
 8673SOL    HW226919   0.331   1.250   7.015
 8674SOL     OW26920   0.644   4.138   3.030
 8674SOL    HW126921   0.713   4.084   2.982
 8674SOL    HW226922   0.686   4.180   3.111
 8675SOL     OW26923   3.393   1.544   6.179
 8675SOL    HW126924   3.433   1.570   6.267
 8675SOL    HW226925   3.449   1.581   6.105
 8676SOL     OW26926   5.850   1.176   1.299
 8676SOL    HW126927   5.789   1.238   1.250
 8676SOL    HW226928   5.893   1.113   1.235
 8677SOL     OW26929   1.498   6.502   5.589
 8677SOL    HW126930   1.587   6.486   5.548
 8677SOL    HW226931   1.480   6.433   5.659
 8678SOL     OW26932   1.324   0.051   0.477
 8678SOL    HW126933   1.235   0.053   0.522
 8678SOL    HW226934   1.396   0.038   0.546
 8679SOL     OW26935   2.074   0.925   4.119
 8679SOL    HW126936   2.039   1.019   4.117
 8679SOL    HW226937   2.025   0.870   4.052
 8680SOL     OW26938   6.686   2.743   5.880
 8680SOL    HW126939   6.597   2.789   5.886
 8680SOL    HW226940   6.681   2.671   5.810
 8681SOL     OW26941   5.414   5.837   0.788
 8681SOL    HW126942   5.366   5.925   0.778
 8681SOL    HW226943   5.431   5.798   0.698
 8682SOL     OW26944   6.933   0.338   0.874
 8682SOL    HW126945   6.901   0.423   0.917
 8682SOL    HW226946   6.862   0.303   0.813
 8683SOL     OW26947   1.754   3.466   4.983
 8683SOL    HW126948   1.844   3.509   4.989
 8683SOL    HW226949   1.742   3.428   4.891
 8684SOL     OW26950   0.643   4.047   5.051
 8684SOL    HW126951   0.580   3.985   5.004
 8684SOL    HW226952   0.612   4.141   5.038
 8685SOL     OW26953   5.302   2.564   5.756
 8685SOL    HW126954   5.365   2.510   5.812
 8685SOL    HW226955   5.242   2.502   5.706
 8686SOL     OW26956   6.394   6.023   2.606
 8686SOL    HW126957   6.382   5.997   2.511
 8686SOL    HW226958   6.465   6.094   2.613
 8687SOL     OW26959   6.235   3.286   3.440
 8687SOL    HW126960   6.179   3.338   3.375
 8687SOL    HW226961   6.290   3.219   3.391
 8688SOL     OW26962   1.678   3.988   6.530
 8688SOL    HW126963   1.630   4.051   6.591
 8688SOL    HW226964   1.776   4.001   6.539
 8689SOL     OW26965   4.245   2.885   0.636
 8689SOL    HW126966   4.301   2.866   0.555
 8689SOL    HW226967   4.183   2.961   0.617
 8690SOL     OW26968   1.237   1.818   2.955
 8690SOL    HW126969   1.281   1.813   3.045
 8690SOL    HW226970   1.308   1.817   2.884
 8691SOL     OW26971   3.100   1.961   4.658
 8691SOL    HW126972   3.193   1.961   4.623
 8691SOL    HW226973   3.075   2.053   4.687
 8692SOL     OW26974   4.435   2.251   5.672
 8692SOL    HW126975   4.532   2.265   5.690
 8692SOL    HW226976   4.423   2.171   5.614
 8693SOL     OW26977   6.584   1.039   6.610
 8693SOL    HW126978   6.506   1.096   6.584
 8693SOL    HW226979   6.647   1.093   6.666
 8694SOL     OW26980   6.067   3.455   4.150
 8694SOL    HW126981   5.978   3.438   4.107
 8694SOL    HW226982   6.136   3.467   4.079
 8695SOL     OW26983   4.313   3.657   6.574
 8695SOL    HW126984   4.360   3.722   6.633
 8695SOL    HW226985   4.357   3.655   6.484
 8696SOL     OW26986   2.716   5.718   5.746
 8696SOL    HW126987   2.713   5.766   5.833
 8696SOL    HW226988   2.749   5.625   5.759
 8697SOL     OW26989   1.646   4.255   6.056
 8697SOL    HW126990   1.550   4.241   6.032
 8697SOL    HW226991   1.686   4.323   5.994
 8698SOL     OW26992   5.048   6.147   5.877
 8698SOL    HW126993   4.961   6.099   5.882
 8698SOL    HW226994   5.043   6.217   5.806
 8699SOL     OW26995   2.597   2.537   6.679
 8699SOL    HW126996   2.504   2.563   6.702
 8699SOL    HW226997   2.627   2.587   6.598
 8700SOL     OW26998   0.735   0.566   5.279
 8700SOL    HW126999   0.826   0.585   5.241
 8700SOL    HW227000   0.672   0.638   5.252
 8701SOL     OW27001   0.761   1.838   0.010
 8701SOL    HW127002   0.746   1.742   0.031
 8701SOL    HW227003   0.678   1.878   6.991
 8702SOL     OW27004   5.122   4.799   1.710
 8702SOL    HW127005   5.033   4.789   1.665
 8702SOL    HW227006   5.135   4.895   1.735
 8703SOL     OW27007   2.734   4.682   0.297
 8703SOL    HW127008   2.798   4.609   0.273
 8703SOL    HW227009   2.676   4.703   0.219
 8704SOL     OW27010   0.700   2.325   4.343
 8704SOL    HW127011   0.796   2.352   4.342
 8704SOL    HW227012   0.653   2.367   4.266
 8705SOL     OW27013   4.311   2.787   0.135
 8705SOL    HW127014   4.344   2.791   0.230
 8705SOL    HW227015   4.219   2.749   0.134
 8706SOL     OW27016   5.671   3.063   0.161
 8706SOL    HW127017   5.683   3.009   0.245
 8706SOL    HW227018   5.701   3.156   0.177
 8707SOL     OW27019   1.416   1.630   4.308
 8707SOL    HW127020   1.481   1.581   4.251
 8707SOL    HW227021   1.335   1.655   4.254
 8708SOL     OW27022   5.118   2.152   3.020
 8708SOL    HW127023   5.090   2.231   3.073
 8708SOL    HW227024   5.202   2.174   2.969
 8709SOL     OW27025   6.600   6.878   6.363
 8709SOL    HW127026   6.694   6.909   6.368
 8709SOL    HW227027   6.546   6.944   6.311
 8710SOL     OW27028   2.476   1.352   3.314
 8710SOL    HW127029   2.499   1.361   3.217
 8710SOL    HW227030   2.557   1.369   3.369
 8711SOL     OW27031   1.423   1.084   2.103
 8711SOL    HW127032   1.471   1.135   2.174
 8711SOL    HW227033   1.435   1.131   2.015
 8712SOL     OW27034   2.445   2.516   5.403
 8712SOL    HW127035   2.472   2.516   5.499
 8712SOL    HW227036   2.528   2.520   5.346
 8713SOL     OW27037   1.118   4.296   2.021
 8713SOL    HW127038   1.171   4.229   2.074
 8713SOL    HW227039   1.067   4.248   1.950
 8714SOL     OW27040   0.239   6.182   6.586
 8714SOL    HW127041   0.284   6.271   6.594
 8714SOL    HW227042   0.149   6.186   6.629
 8715SOL     OW27043   2.539   1.925   0.323
 8715SOL    HW127044   2.619   1.983   0.341
 8715SOL    HW227045   2.456   1.972   0.353
 8716SOL     OW27046   6.937   6.545   1.218
 8716SOL    HW127047   6.907   6.503   1.304
 8716SOL    HW227048   6.926   6.479   1.144
 8717SOL     OW27049   2.324   4.131   0.035
 8717SOL    HW127050   2.323   4.112   0.133
 8717SOL    HW227051   2.242   4.092   7.013
 8718SOL     OW27052   1.819   3.668   6.499
 8718SOL    HW127053   1.739   3.707   6.454
 8718SOL    HW227054   1.837   3.718   6.583
 8719SOL     OW27055   3.441   1.058   6.251
 8719SOL    HW127056   3.387   1.094   6.175
 8719SOL    HW227057   3.483   0.971   6.223
 8720SOL     OW27058   6.157   4.345   5.164
 8720SOL    HW127059   6.182   4.352   5.261
 8720SOL    HW227060   6.066   4.384   5.150
 8721SOL     OW27061   0.185   6.603   6.436
 8721SOL    HW127062   0.115   6.610   6.507
 8721SOL    HW227063   0.266   6.558   6.473
 8722SOL     OW27064   3.689   0.689   1.064
 8722SOL    HW127065   3.618   0.662   1.129
 8722SOL    HW227066   3.648   0.704   0.974
 8723SOL     OW27067   5.229   0.200   2.133
 8723SOL    HW127068   5.200   0.122   2.187
 8723SOL    HW227069   5.292   0.257   2.187
 8724SOL     OW27070   4.179   0.300   4.359
 8724SOL    HW127071   4.103   0.276   4.420
 8724SOL    HW227072   4.208   0.394   4.379
 8725SOL     OW27073   0.410   6.611   4.587
 8725SOL    HW127074   0.490   6.668   4.605
 8725SOL    HW227075   0.416   6.574   4.494
 8726SOL     OW27076   0.565   0.918   0.250
 8726SOL    HW127077   0.620   0.925   0.167
 8726SOL    HW227078   0.623   0.934   0.330
 8727SOL     OW27079   5.446   5.982   6.599
 8727SOL    HW127080   5.498   5.989   6.684
 8727SOL    HW227081   5.472   5.899   6.550
 8728SOL     OW27082   5.546   0.819   3.145
 8728SOL    HW127083   5.486   0.786   3.072
 8728SOL    HW227084   5.524   0.770   3.230
 8729SOL     OW27085   3.610   4.985   5.869
 8729SOL    HW127086   3.546   5.060   5.885
 8729SOL    HW227087   3.702   5.021   5.856
 8730SOL     OW27088   5.336   4.709   3.038
 8730SOL    HW127089   5.393   4.765   3.099
 8730SOL    HW227090   5.345   4.613   3.063
 8731SOL     OW27091   0.386   2.014   3.306
 8731SOL    HW127092   0.349   2.007   3.214
 8731SOL    HW227093   0.364   2.104   3.344
 8732SOL     OW27094   4.988   5.572   0.867
 8732SOL    HW127095   4.961   5.509   0.940
 8732SOL    HW227096   4.932   5.655   0.872
 8733SOL     OW27097   0.561   5.097   0.934
 8733SOL    HW127098   0.583   5.086   0.837
 8733SOL    HW227099   0.519   5.013   0.968
 8734SOL     OW27100   6.678   3.774   2.252
 8734SOL    HW127101   6.599   3.772   2.191
 8734SOL    HW227102   6.697   3.868   2.280
 8735SOL     OW27103   2.013   4.182   5.279
 8735SOL    HW127104   2.073   4.108   5.311
 8735SOL    HW227105   2.060   4.235   5.209
 8736SOL     OW27106   0.529   5.340   1.864
 8736SOL    HW127107   0.523   5.429   1.909
 8736SOL    HW227108   0.624   5.308   1.867
 8737SOL     OW27109   1.279   5.479   6.839
 8737SOL    HW127110   1.203   5.465   6.903
 8737SOL    HW227111   1.340   5.550   6.875
 8738SOL     OW27112   1.010   3.911   3.942
 8738SOL    HW127113   0.946   3.972   3.896
 8738SOL    HW227114   1.064   3.963   4.008
 8739SOL     OW27115   5.482   4.040   5.101
 8739SOL    HW127116   5.496   3.977   5.177
 8739SOL    HW227117   5.544   4.015   5.026
 8740SOL     OW27118   3.667   1.709   3.392
 8740SOL    HW127119   3.685   1.807   3.403
 8740SOL    HW227120   3.593   1.696   3.326
 8741SOL     OW27121   1.408   0.028   2.607
 8741SOL    HW127122   1.413   6.949   2.593
 8741SOL    HW227123   1.317   0.060   2.583
 8742SOL     OW27124   3.621   0.896   2.812
 8742SOL    HW127125   3.705   0.943   2.787
 8742SOL    HW227126   3.547   0.962   2.822
 8743SOL     OW27127   1.593   0.938   1.647
 8743SOL    HW127128   1.643   1.025   1.647
 8743SOL    HW227129   1.571   0.912   1.741
 8744SOL     OW27130   4.260   3.230   7.006
 8744SOL    HW127131   4.312   3.147   0.007
 8744SOL    HW227132   4.181   3.206   6.948
 8745SOL     OW27133   6.696   1.717   6.400
 8745SOL    HW127134   6.673   1.641   6.461
 8745SOL    HW227135   6.612   1.753   6.360
 8746SOL     OW27136   5.097   5.621   3.773
 8746SOL    HW127137   5.000   5.602   3.762
 8746SOL    HW227138   5.144   5.539   3.804
 8747SOL     OW27139   6.387   1.177   2.256
 8747SOL    HW127140   6.430   1.088   2.271
 8747SOL    HW227141   6.300   1.164   2.208
 8748SOL     OW27142   0.598   1.999   4.172
 8748SOL    HW127143   0.554   1.966   4.255
 8748SOL    HW227144   0.544   2.075   4.134
 8749SOL     OW27145   2.567   1.212   5.779
 8749SOL    HW127146   2.583   1.304   5.815
 8749SOL    HW227147   2.470   1.190   5.784
 8750SOL     OW27148   4.610   2.399   6.005
 8750SOL    HW127149   4.689   2.428   6.060
 8750SOL    HW227150   4.595   2.301   6.017
 8751SOL     OW27151   6.791   6.529   1.695
 8751SOL    HW127152   6.815   6.626   1.686
 8751SOL    HW227153   6.844   6.475   1.630
 8752SOL     OW27154   4.621   3.001   0.316
 8752SOL    HW127155   4.698   3.059   0.290
 8752SOL    HW227156   4.629   2.912   0.270
 8753SOL     OW27157   1.577   2.907   0.208
 8753SOL    HW127158   1.669   2.928   0.241
 8753SOL    HW227159   1.583   2.863   0.118
 8754SOL     OW27160   2.545   4.635   6.287
 8754SOL    HW127161   2.578   4.697   6.215
 8754SOL    HW227162   2.491   4.562   6.246
 8755SOL     OW27163   0.696   1.659   1.660
 8755SOL    HW127164   0.696   1.559   1.661
 8755SOL    HW227165   0.686   1.692   1.565
 8756SOL     OW27166   2.481   2.505   3.885
 8756SOL    HW127167   2.499   2.541   3.793
 8756SOL    HW227168   2.566   2.471   3.925
 8757SOL     OW27169   5.034   6.756   5.211
 8757SOL    HW127170   5.025   6.855   5.213
 8757SOL    HW227171   5.128   6.731   5.187
 8758SOL     OW27172   3.217   6.592   3.603
 8758SOL    HW127173   3.313   6.571   3.582
 8758SOL    HW227174   3.157   6.527   3.557
 8759SOL     OW27175   6.603   0.692   6.732
 8759SOL    HW127176   6.530   0.749   6.695
 8759SOL    HW227177   6.685   0.702   6.675
 8760SOL     OW27178   2.493   1.565   3.900
 8760SOL    HW127179   2.587   1.584   3.871
 8760SOL    HW227180   2.492   1.479   3.951
 8761SOL     OW27181   4.979   1.133   2.062
 8761SOL    HW127182   4.957   1.220   2.018
 8761SOL    HW227183   4.932   1.128   2.151
 8762SOL     OW27184   1.821   4.972   4.075
 8762SOL    HW127185   1.781   5.006   3.990
 8762SOL    HW227186   1.910   4.931   4.057
 8763SOL     OW27187   7.020   0.976   5.532
 8763SOL    HW127188   6.981   1.053   5.481
 8763SOL    HW227189   0.050   0.917   5.470
 8764SOL     OW27190   4.282   5.062   5.883
 8764SOL    HW127191   4.264   5.047   5.785
 8764SOL    HW227192   4.345   4.991   5.916
 8765SOL     OW27193   5.066   0.478   5.388
 8765SOL    HW127194   5.013   0.560   5.409
 8765SOL    HW227195   5.161   0.504   5.369
 8766SOL     OW27196   5.114   4.227   6.058
 8766SOL    HW127197   5.050   4.152   6.041
 8766SOL    HW227198   5.070   4.295   6.118
 8767SOL     OW27199   3.047   0.214   3.850
 8767SOL    HW127200   2.950   0.237   3.844
 8767SOL    HW227201   3.059   0.140   3.916
 8768SOL     OW27202   6.660   2.821   0.160
 8768SOL    HW127203   6.609   2.851   0.080
 8768SOL    HW227204   6.613   2.854   0.243
 8769SOL     OW27205   6.500   1.178   1.564
 8769SOL    HW127206   6.455   1.245   1.505
 8769SOL    HW227207   6.511   1.217   1.656
 8770SOL     OW27208   5.490   3.340   2.188
 8770SOL    HW127209   5.506   3.295   2.275
 8770SOL    HW227210   5.420   3.291   2.136
 8771SOL     OW27211   0.671   3.555   6.157
 8771SOL    HW127212   0.758   3.523   6.194
 8771SOL    HW227213   0.687   3.599   6.068
 8772SOL     OW27214   5.615   0.446   4.936
 8772SOL    HW127215   5.631   0.506   4.858
 8772SOL    HW227216   5.645   0.354   4.914
 8773SOL     OW27217   0.018   1.959   4.154
 8773SOL    HW127218   0.095   2.023   4.160
 8773SOL    HW227219   0.047   1.869   4.189
 8774SOL     OW27220   1.244   6.942   6.947
 8774SOL    HW127221   1.336   6.907   6.961
 8774SOL    HW227222   1.178   6.885   6.996
 8775SOL     OW27223   5.471   1.969   4.201
 8775SOL    HW127224   5.373   1.986   4.195
 8775SOL    HW227225   5.511   1.969   4.110
 8776SOL     OW27226   4.906   2.495   0.823
 8776SOL    HW127227   4.977   2.539   0.878
 8776SOL    HW227228   4.822   2.487   0.876
 8777SOL     OW27229   1.023   2.911   2.639
 8777SOL    HW127230   1.071   2.890   2.724
 8777SOL    HW227231   0.941   2.965   2.659
 8778SOL     OW27232   4.548   4.594   5.790
 8778SOL    HW127233   4.461   4.595   5.838
 8778SOL    HW227234   4.622   4.581   5.856
 8779SOL     OW27235   3.427   4.976   2.742
 8779SOL    HW127236   3.335   4.987   2.780
 8779SOL    HW227237   3.421   4.936   2.650
 8780SOL     OW27238   0.469   5.583   2.017
 8780SOL    HW127239   0.377   5.545   2.009
 8780SOL    HW227240   0.467   5.680   1.991
 8781SOL     OW27241   4.172   6.930   2.211
 8781SOL    HW127242   4.094   6.988   2.237
 8781SOL    HW227243   4.245   6.988   2.176
 8782SOL     OW27244   4.715   1.005   1.505
 8782SOL    HW127245   4.750   0.924   1.554
 8782SOL    HW227246   4.792   1.065   1.482
 8783SOL     OW27247   4.854   3.425   4.566
 8783SOL    HW127248   4.872   3.472   4.652
 8783SOL    HW227249   4.772   3.463   4.523
 8784SOL     OW27250   5.861   6.652   0.213
 8784SOL    HW127251   5.804   6.590   0.158
 8784SOL    HW227252   5.957   6.636   0.193
 8785SOL     OW27253   6.920   5.763   6.522
 8785SOL    HW127254   6.839   5.728   6.570
 8785SOL    HW227255   6.919   5.731   6.427
 8786SOL     OW27256   4.203   2.264   1.751
 8786SOL    HW127257   4.114   2.232   1.783
 8786SOL    HW227258   4.194   2.356   1.711
 8787SOL     OW27259   3.427   0.630   1.511
 8787SOL    HW127260   3.432   0.530   1.515
 8787SOL    HW227261   3.341   0.660   1.553
 8788SOL     OW27262   0.336   0.313   4.843
 8788SOL    HW127263   0.265   0.273   4.786
 8788SOL    HW227264   0.295   0.373   4.912
 8789SOL     OW27265   0.336   4.157   5.041
 8789SOL    HW127266   0.378   4.222   5.105
 8789SOL    HW227267   0.264   4.203   4.990
 8790SOL     OW27268   5.891   2.650   6.660
 8790SOL    HW127269   5.903   2.583   6.734
 8790SOL    HW227270   5.817   2.620   6.600
 8791SOL     OW27271   4.512   5.956   5.324
 8791SOL    HW127272   4.474   6.019   5.392
 8791SOL    HW227273   4.439   5.927   5.262
 8792SOL     OW27274   4.366   5.217   1.393
 8792SOL    HW127275   4.307   5.266   1.457
 8792SOL    HW227276   4.435   5.280   1.356
 8793SOL     OW27277   0.773   5.537   4.129
 8793SOL    HW127278   0.855   5.493   4.091
 8793SOL    HW227279   0.735   5.479   4.201
 8794SOL     OW27280   0.155   0.684   2.189
 8794SOL    HW127281   0.094   0.606   2.202
 8794SOL    HW227282   0.234   0.656   2.135
 8795SOL     OW27283   1.555   5.291   5.076
 8795SOL    HW127284   1.534   5.248   5.164
 8795SOL    HW227285   1.562   5.220   5.006
 8796SOL     OW27286   6.622   3.422   3.382
 8796SOL    HW127287   6.711   3.419   3.427
 8796SOL    HW227288   6.550   3.401   3.448
 8797SOL     OW27289   6.345   6.991   3.033
 8797SOL    HW127290   6.362   6.895   3.054
 8797SOL    HW227291   6.389   0.029   3.102
 8798SOL     OW27292   4.514   6.799   4.899
 8798SOL    HW127293   4.557   6.819   4.987
 8798SOL    HW227294   4.572   6.835   4.825
 8799SOL     OW27295   2.504   5.092   1.985
 8799SOL    HW127296   2.438   5.049   2.046
 8799SOL    HW227297   2.510   5.041   1.900
 8800SOL     OW27298   0.076   5.880   5.417
 8800SOL    HW127299   0.149   5.820   5.452
 8800SOL    HW227300   0.063   5.864   5.320
 8801SOL     OW27301   6.045   1.779   5.025
 8801SOL    HW127302   6.132   1.797   5.070
 8801SOL    HW227303   6.012   1.688   5.053
 8802SOL     OW27304   0.969   5.766   6.031
 8802SOL    HW127305   0.925   5.740   6.118
 8802SOL    HW227306   0.905   5.750   5.956
 8803SOL     OW27307   6.265   0.512   6.758
 8803SOL    HW127308   6.202   0.586   6.783
 8803SOL    HW227309   6.357   0.535   6.787
 8804SOL     OW27310   1.939   5.919   1.647
 8804SOL    HW127311   1.998   5.844   1.675
 8804SOL    HW227312   1.995   5.997   1.618
 8805SOL     OW27313   4.424   5.806   2.358
 8805SOL    HW127314   4.432   5.859   2.274
 8805SOL    HW227315   4.404   5.868   2.435
 8806SOL     OW27316   2.458   5.845   0.468
 8806SOL    HW127317   2.414   5.928   0.433
 8806SOL    HW227318   2.530   5.870   0.533
 8807SOL     OW27319   5.043   2.161   0.972
 8807SOL    HW127320   5.099   2.222   1.028
 8807SOL    HW227321   5.027   2.205   0.883
 8808SOL     OW27322   2.250   2.391   0.120
 8808SOL    HW127323   2.159   2.427   0.102
 8808SOL    HW227324   2.296   2.449   0.188
 8809SOL     OW27325   2.101   3.854   3.960
 8809SOL    HW127326   2.171   3.876   3.892
 8809SOL    HW227327   2.134   3.881   4.051
 8810SOL     OW27328   6.752   1.803   5.787
 8810SOL    HW127329   6.847   1.796   5.817
 8810SOL    HW227330   6.705   1.717   5.806
 8811SOL     OW27331   4.296   6.546   2.506
 8811SOL    HW127332   4.242   6.599   2.441
 8811SOL    HW227333   4.384   6.523   2.465
 8812SOL     OW27334   3.140   1.559   6.621
 8812SOL    HW127335   3.083   1.485   6.657
 8812SOL    HW227336   3.203   1.522   6.552
 8813SOL     OW27337   2.041   4.392   3.283
 8813SOL    HW127338   2.021   4.307   3.333
 8813SOL    HW227339   2.083   4.371   3.196
 8814SOL     OW27340   5.844   6.924   0.022
 8814SOL    HW127341   5.917   6.970   0.073
 8814SOL    HW227342   5.764   6.983   0.018
 8815SOL     OW27343   5.399   1.135   0.733
 8815SOL    HW127344   5.346   1.141   0.817
 8815SOL    HW227345   5.347   1.175   0.658
 8816SOL     OW27346   0.218   6.275   5.593
 8816SOL    HW127347   0.202   6.229   5.680
 8816SOL    HW227348   0.133   6.320   5.563
 8817SOL     OW27349   1.043   3.710   4.712
 8817SOL    HW127350   1.107   3.634   4.694
 8817SOL    HW227351   1.089   3.797   4.695
 8818SOL     OW27352   2.173   6.737   4.386
 8818SOL    HW127353   2.111   6.748   4.309
 8818SOL    HW227354   2.240   6.812   4.386
 8819SOL     OW27355   5.434   4.074   5.920
 8819SOL    HW127356   5.354   4.038   5.968
 8819SOL    HW227357   5.437   4.173   5.929
 8820SOL     OW27358   3.387   0.883   4.751
 8820SOL    HW127359   3.465   0.905   4.809
 8820SOL    HW227360   3.419   0.858   4.659
 8821SOL     OW27361   1.415   5.173   0.926
 8821SOL    HW127362   1.503   5.163   0.879
 8821SOL    HW227363   1.406   5.266   0.961
 8822SOL     OW27364   6.457   6.737   4.102
 8822SOL    HW127365   6.380   6.685   4.063
 8822SOL    HW227366   6.508   6.679   4.165
 8823SOL     OW27367   3.198   1.611   3.416
 8823SOL    HW127368   3.295   1.607   3.389
 8823SOL    HW227369   3.178   1.700   3.456
 8824SOL     OW27370   1.434   0.497   0.722
 8824SOL    HW127371   1.424   0.571   0.788
 8824SOL    HW227372   1.414   0.410   0.766
 8825SOL     OW27373   0.320   0.162   0.477
 8825SOL    HW127374   0.323   0.245   0.421
 8825SOL    HW227375   0.244   0.168   0.542
 8826SOL     OW27376   1.179   3.435   1.067
 8826SOL    HW127377   1.090   3.475   1.045
 8826SOL    HW227378   1.248   3.508   1.074
 8827SOL     OW27379   3.952   0.193   2.613
 8827SOL    HW127380   4.029   0.203   2.549
 8827SOL    HW227381   3.983   0.215   2.705
 8828SOL     OW27382   4.419   3.653   6.318
 8828SOL    HW127383   4.486   3.678   6.248
 8828SOL    HW227384   4.380   3.564   6.296
 8829SOL     OW27385   0.404   1.862   2.230
 8829SOL    HW127386   0.314   1.818   2.221
 8829SOL    HW227387   0.408   1.941   2.169
 8830SOL     OW27388   2.407   1.875   3.172
 8830SOL    HW127389   2.444   1.878   3.079
 8830SOL    HW227390   2.480   1.893   3.238
 8831SOL     OW27391   0.726   1.719   2.445
 8831SOL    HW127392   0.756   1.748   2.536
 8831SOL    HW227393   0.734   1.620   2.437
 8832SOL     OW27394   6.741   6.762   4.026
 8832SOL    HW127395   6.744   6.735   3.930
 8832SOL    HW227396   6.664   6.718   4.071
 8833SOL     OW27397   3.755   2.281   1.133
 8833SOL    HW127398   3.744   2.380   1.126
 8833SOL    HW227399   3.829   2.261   1.198
 8834SOL     OW27400   5.713   3.916   5.680
 8834SOL    HW127401   5.634   3.864   5.646
 8834SOL    HW227402   5.796   3.880   5.639
 8835SOL     OW27403   5.924   0.689   5.660
 8835SOL    HW127404   5.960   0.621   5.596
 8835SOL    HW227405   6.000   0.732   5.709
 8836SOL     OW27406   5.127   2.671   6.655
 8836SOL    HW127407   5.171   2.761   6.658
 8836SOL    HW227408   5.082   2.653   6.743
 8837SOL     OW27409   6.175   6.550   1.999
 8837SOL    HW127410   6.122   6.522   1.919
 8837SOL    HW227411   6.250   6.609   1.970
 8838SOL     OW27412   0.347   4.158   2.624
 8838SOL    HW127413   0.444   4.157   2.648
 8838SOL    HW227414   0.329   4.233   2.560
 8839SOL     OW27415   5.400   5.743   2.564
 8839SOL    HW127416   5.412   5.785   2.653
 8839SOL    HW227417   5.463   5.665   2.555
 8840SOL     OW27418   0.252   0.802   1.371
 8840SOL    HW127419   0.315   0.753   1.312
 8840SOL    HW227420   0.220   0.885   1.324
 8841SOL     OW27421   3.674   1.134   2.235
 8841SOL    HW127422   3.740   1.078   2.186
 8841SOL    HW227423   3.609   1.174   2.170
 8842SOL     OW27424   3.124   3.619   3.857
 8842SOL    HW127425   3.031   3.623   3.821
 8842SOL    HW227426   3.147   3.706   3.900
 8843SOL     OW27427   1.963   3.567   5.346
 8843SOL    HW127428   2.048   3.612   5.375
 8843SOL    HW227429   1.955   3.478   5.391
 8844SOL     OW27430   5.551   1.942   5.230
 8844SOL    HW127431   5.472   1.979   5.182
 8844SOL    HW227432   5.612   1.896   5.164
 8845SOL     OW27433   1.771   5.157   1.375
 8845SOL    HW127434   1.772   5.193   1.282
 8845SOL    HW227435   1.676   5.139   1.402
 8846SOL     OW27436   5.168   4.258   3.769
 8846SOL    HW127437   5.201   4.170   3.803
 8846SOL    HW227438   5.108   4.243   3.690
 8847SOL     OW27439   2.207   2.349   3.006
 8847SOL    HW127440   2.268   2.368   2.929
 8847SOL    HW227441   2.244   2.272   3.059
 8848SOL     OW27442   3.111   1.638   1.172
 8848SOL    HW127443   3.183   1.579   1.135
 8848SOL    HW227444   3.042   1.655   1.102
 8849SOL     OW27445   3.731   5.866   4.572
 8849SOL    HW127446   3.712   5.839   4.478
 8849SOL    HW227447   3.675   5.810   4.634
 8850SOL     OW27448   2.687   1.716   0.788
 8850SOL    HW127449   2.673   1.807   0.749
 8850SOL    HW227450   2.657   1.647   0.722
 8851SOL     OW27451   1.533   4.385   3.326
 8851SOL    HW127452   1.618   4.370   3.276
 8851SOL    HW227453   1.462   4.418   3.264
 8852SOL     OW27454   5.434   2.994   6.069
 8852SOL    HW127455   5.392   2.961   5.984
 8852SOL    HW227456   5.491   3.074   6.049
 8853SOL     OW27457   3.901   1.836   5.258
 8853SOL    HW127458   3.894   1.804   5.163
 8853SOL    HW227459   3.973   1.785   5.305
 8854SOL     OW27460   1.001   1.298   5.961
 8854SOL    HW127461   0.928   1.366   5.962
 8854SOL    HW227462   1.088   1.343   5.981
 8855SOL     OW27463   6.215   5.867   6.790
 8855SOL    HW127464   6.315   5.863   6.788
 8855SOL    HW227465   6.178   5.800   6.726
 8856SOL     OW27466   6.318   0.529   5.031
 8856SOL    HW127467   6.245   0.597   5.025
 8856SOL    HW227468   6.296   0.464   5.104
 8857SOL     OW27469   6.643   1.821   3.055
 8857SOL    HW127470   6.733   1.858   3.035
 8857SOL    HW227471   6.611   1.764   2.979
 8858SOL     OW27472   0.651   3.997   5.660
 8858SOL    HW127473   0.584   3.965   5.594
 8858SOL    HW227474   0.704   3.920   5.694
 8859SOL     OW27475   1.254   6.567   4.826
 8859SOL    HW127476   1.164   6.604   4.804
 8859SOL    HW227477   1.322   6.640   4.823
 8860SOL     OW27478   1.322   2.800   3.038
 8860SOL    HW127479   1.309   2.750   3.124
 8860SOL    HW227480   1.398   2.864   3.049
 8861SOL     OW27481   3.760   2.870   0.261
 8861SOL    HW127482   3.719   2.941   0.318
 8861SOL    HW227483   3.761   2.899   0.166
 8862SOL     OW27484   5.990   1.503   5.069
 8862SOL    HW127485   6.080   1.467   5.090
 8862SOL    HW227486   5.936   1.512   5.153
 8863SOL     OW27487   2.206   5.917   4.858
 8863SOL    HW127488   2.193   5.849   4.929
 8863SOL    HW227489   2.201   6.009   4.898
 8864SOL     OW27490   2.266   3.434   6.826
 8864SOL    HW127491   2.313   3.350   6.800
 8864SOL    HW227492   2.314   3.512   6.787
 8865SOL     OW27493   2.802   1.665   5.134
 8865SOL    HW127494   2.842   1.640   5.046
 8865SOL    HW227495   2.850   1.617   5.208
 8866SOL     OW27496   3.865   6.544   3.358
 8866SOL    HW127497   3.957   6.572   3.386
 8866SOL    HW227498   3.798   6.578   3.424
 8867SOL     OW27499   5.613   2.189   2.750
 8867SOL    HW127500   5.566   2.229   2.671
 8867SOL    HW227501   5.638   2.094   2.729
 8868SOL     OW27502   4.955   3.736   0.777
 8868SOL    HW127503   4.952   3.818   0.720
 8868SOL    HW227504   4.875   3.735   0.837
 8869SOL     OW27505   5.028   3.974   3.449
 8869SOL    HW127506   5.071   3.984   3.359
 8869SOL    HW227507   5.036   4.059   3.500
 8870SOL     OW27508   3.549   0.978   0.842
 8870SOL    HW127509   3.544   0.962   0.940
 8870SOL    HW227510   3.555   1.077   0.825
 8871SOL     OW27511   1.589   1.055   3.689
 8871SOL    HW127512   1.490   1.042   3.683
 8871SOL    HW227513   1.613   1.080   3.783
 8872SOL     OW27514   2.097   4.267   3.759
 8872SOL    HW127515   2.049   4.353   3.745
 8872SOL    HW227516   2.039   4.205   3.812
 8873SOL     OW27517   0.309   5.839   3.403
 8873SOL    HW127518   0.401   5.853   3.438
 8873SOL    HW227519   0.249   5.809   3.477
 8874SOL     OW27520   2.332   6.937   1.238
 8874SOL    HW127521   2.256   6.932   1.173
 8874SOL    HW227522   2.339   6.851   1.288
 8875SOL     OW27523   1.451   2.594   4.302
 8875SOL    HW127524   1.541   2.556   4.285
 8875SOL    HW227525   1.458   2.693   4.318
 8876SOL     OW27526   0.092   1.505   4.793
 8876SOL    HW127527   0.025   1.528   4.865
 8876SOL    HW227528   0.169   1.567   4.798
 8877SOL     OW27529   2.976   0.614   4.204
 8877SOL    HW127530   2.943   0.530   4.248
 8877SOL    HW227531   2.900   0.661   4.160
 8878SOL     OW27532   0.300   4.537   0.813
 8878SOL    HW127533   0.233   4.497   0.750
 8878SOL    HW227534   0.259   4.614   0.862
 8879SOL     OW27535   5.152   5.689   0.499
 8879SOL    HW127536   5.138   5.765   0.562
 8879SOL    HW227537   5.135   5.602   0.546
 8880SOL     OW27538   6.771   5.247   4.516
 8880SOL    HW127539   6.805   5.249   4.610
 8880SOL    HW227540   6.742   5.339   4.489
 8881SOL     OW27541   6.695   1.141   2.603
 8881SOL    HW127542   6.607   1.101   2.577
 8881SOL    HW227543   6.688   1.241   2.603
 8882SOL     OW27544   5.487   1.609   6.846
 8882SOL    HW127545   5.409   1.550   6.825
 8882SOL    HW227546   5.560   1.555   6.887
 8883SOL     OW27547   6.835   0.997   6.223
 8883SOL    HW127548   6.745   1.026   6.189
 8883SOL    HW227549   6.837   0.897   6.230
 8884SOL     OW27550   5.661   6.749   6.380
 8884SOL    HW127551   5.561   6.742   6.374
 8884SOL    HW227552   5.695   6.807   6.305
 8885SOL     OW27553   5.987   4.302   1.816
 8885SOL    HW127554   5.933   4.283   1.898
 8885SOL    HW227555   5.979   4.226   1.752
 8886SOL     OW27556   2.689   6.355   5.864
 8886SOL    HW127557   2.673   6.452   5.886
 8886SOL    HW227558   2.681   6.342   5.765
 8887SOL     OW27559   2.619   1.264   1.529
 8887SOL    HW127560   2.537   1.208   1.512
 8887SOL    HW227561   2.603   1.356   1.494
 8888SOL     OW27562   0.900   1.395   0.899
 8888SOL    HW127563   0.879   1.431   0.808
 8888SOL    HW227564   0.944   1.467   0.953
 8889SOL     OW27565   5.135   0.145   4.715
 8889SOL    HW127566   5.213   0.084   4.699
 8889SOL    HW227567   5.084   0.114   4.795
 8890SOL     OW27568   6.688   5.685   4.194
 8890SOL    HW127569   6.781   5.666   4.226
 8890SOL    HW227570   6.642   5.747   4.259
 8891SOL     OW27571   5.567   3.148   6.393
 8891SOL    HW127572   5.619   3.123   6.311
 8891SOL    HW227573   5.471   3.122   6.381
 8892SOL     OW27574   2.347   6.999   3.454
 8892SOL    HW127575   2.250   7.019   3.466
 8892SOL    HW227576   2.396   0.065   3.434
 8893SOL     OW27577   0.025   1.068   1.708
 8893SOL    HW127578   0.049   0.971   1.714
 8893SOL    HW227579   6.945   1.078   1.701
 8894SOL     OW27580   4.222   2.555   6.004
 8894SOL    HW127581   4.226   2.526   6.100
 8894SOL    HW227582   4.184   2.647   5.998
 8895SOL     OW27583   0.141   6.392   1.479
 8895SOL    HW127584   0.122   6.425   1.571
 8895SOL    HW227585   0.056   6.368   1.433
 8896SOL     OW27586   1.799   3.959   5.072
 8896SOL    HW127587   1.747   3.928   4.992
 8896SOL    HW227588   1.897   3.955   5.052
 8897SOL     OW27589   1.410   1.636   1.915
 8897SOL    HW127590   1.374   1.605   1.827
 8897SOL    HW227591   1.475   1.568   1.950
 8898SOL     OW27592   6.191   3.370   4.808
 8898SOL    HW127593   6.255   3.399   4.879
 8898SOL    HW227594   6.103   3.346   4.851
 8899SOL     OW27595   2.075   4.058   6.865
 8899SOL    HW127596   1.976   4.050   6.854
 8899SOL    HW227597   2.120   3.983   6.817
 8900SOL     OW27598   5.158   3.059   3.260
 8900SOL    HW127599   5.175   3.017   3.349
 8900SOL    HW227600   5.152   2.988   3.190
 8901SOL     OW27601   1.413   0.728   2.618
 8901SOL    HW127602   1.436   0.697   2.525
 8901SOL    HW227603   1.334   0.677   2.651
 8902SOL     OW27604   2.051   5.713   6.587
 8902SOL    HW127605   1.991   5.674   6.517
 8902SOL    HW227606   2.040   5.663   6.673
 8903SOL     OW27607   2.319   1.804   3.695
 8903SOL    HW127608   2.337   1.710   3.667
 8903SOL    HW227609   2.337   1.866   3.619
 8904SOL     OW27610   6.873   5.718   3.405
 8904SOL    HW127611   6.862   5.783   3.480
 8904SOL    HW227612   6.847   5.626   3.437
 8905SOL     OW27613   2.208   2.977   5.258
 8905SOL    HW127614   2.151   2.916   5.202
 8905SOL    HW227615   2.303   2.973   5.227
 8906SOL     OW27616   6.359   6.108   6.464
 8906SOL    HW127617   6.273   6.158   6.451
 8906SOL    HW227618   6.347   6.013   6.434
 8907SOL     OW27619   3.319   2.662   5.277
 8907SOL    HW127620   3.262   2.586   5.248
 8907SOL    HW227621   3.261   2.740   5.302
 8908SOL     OW27622   1.575   2.054   1.071
 8908SOL    HW127623   1.635   2.114   1.019
 8908SOL    HW227624   1.594   1.958   1.046
 8909SOL     OW27625   3.216   0.198   5.689
 8909SOL    HW127626   3.292   0.219   5.628
 8909SOL    HW227627   3.145   0.267   5.680
 8910SOL     OW27628   2.874   3.040   6.219
 8910SOL    HW127629   2.816   3.080   6.148
 8910SOL    HW227630   2.947   2.987   6.176
 8911SOL     OW27631   2.968   2.048   4.415
 8911SOL    HW127632   2.967   2.025   4.512
 8911SOL    HW227633   3.059   2.078   4.388
 8912SOL     OW27634   4.530   1.615   6.263
 8912SOL    HW127635   4.610   1.584   6.314
 8912SOL    HW227636   4.446   1.585   6.309
 8913SOL     OW27637   4.977   4.266   1.617
 8913SOL    HW127638   4.893   4.303   1.656
 8913SOL    HW227639   5.053   4.327   1.638
 8914SOL     OW27640   4.104   1.613   5.105
 8914SOL    HW127641   4.036   1.646   5.039
 8914SOL    HW227642   4.058   1.567   5.181
 8915SOL     OW27643   2.105   3.163   3.707
 8915SOL    HW127644   2.156   3.114   3.777
 8915SOL    HW227645   2.123   3.261   3.714
 8916SOL     OW27646   0.288   4.373   2.454
 8916SOL    HW127647   0.359   4.443   2.456
 8916SOL    HW227648   0.199   4.415   2.441
 8917SOL     OW27649   5.878   5.616   6.883
 8917SOL    HW127650   5.927   5.641   6.799
 8917SOL    HW227651   5.944   5.603   6.957
 8918SOL     OW27652   5.646   6.361   6.655
 8918SOL    HW127653   5.689   6.397   6.738
 8918SOL    HW227654   5.708   6.374   6.577
 8919SOL     OW27655   3.617   4.272   0.996
 8919SOL    HW127656   3.595   4.370   0.994
 8919SOL    HW227657   3.541   4.220   0.957
 8920SOL     OW27658   6.209   5.615   6.301
 8920SOL    HW127659   6.238   5.639   6.393
 8920SOL    HW227660   6.281   5.561   6.256
 8921SOL     OW27661   1.477   0.770   3.771
 8921SOL    HW127662   1.570   0.804   3.759
 8921SOL    HW227663   1.412   0.844   3.755
 8922SOL     OW27664   2.234   5.164   0.798
 8922SOL    HW127665   2.235   5.083   0.856
 8922SOL    HW227666   2.165   5.154   0.727
 8923SOL     OW27667   1.940   3.784   6.727
 8923SOL    HW127668   1.931   3.720   6.804
 8923SOL    HW227669   2.035   3.790   6.700
 8924SOL     OW27670   2.647   5.021   5.595
 8924SOL    HW127671   2.632   4.946   5.531
 8924SOL    HW227672   2.689   4.986   5.679
 8925SOL     OW27673   0.091   6.649   2.405
 8925SOL    HW127674   0.014   6.609   2.356
 8925SOL    HW227675   0.137   6.578   2.459
 8926SOL     OW27676   5.684   2.500   2.363
 8926SOL    HW127677   5.727   2.572   2.416
 8926SOL    HW227678   5.617   2.539   2.301
 8927SOL     OW27679   2.312   2.546   4.912
 8927SOL    HW127680   2.331   2.644   4.908
 8927SOL    HW227681   2.313   2.516   5.008
 8928SOL     OW27682   0.390   0.701   5.676
 8928SOL    HW127683   0.295   0.717   5.703
 8928SOL    HW227684   0.421   0.614   5.715
 8929SOL     OW27685   6.976   3.744   4.002
 8929SOL    HW127686   6.928   3.686   3.936
 8929SOL    HW227687   6.910   3.786   4.064
 8930SOL     OW27688   1.241   5.216   4.883
 8930SOL    HW127689   1.197   5.204   4.794
 8930SOL    HW227690   1.335   5.248   4.869
 8931SOL     OW27691   5.150   1.899   1.270
 8931SOL    HW127692   5.160   1.918   1.173
 8931SOL    HW227693   5.201   1.967   1.323
 8932SOL     OW27694   5.703   0.125   6.374
 8932SOL    HW127695   5.748   0.037   6.388
 8932SOL    HW227696   5.640   0.119   6.296
 8933SOL     OW27697   1.110   1.123   4.929
 8933SOL    HW127698   1.060   1.055   4.983
 8933SOL    HW227699   1.085   1.214   4.961
 8934SOL     OW27700   3.474   5.264   3.315
 8934SOL    HW127701   3.503   5.262   3.219
 8934SOL    HW227702   3.386   5.217   3.324
 8935SOL     OW27703   4.793   2.816   2.588
 8935SOL    HW127704   4.792   2.891   2.521
 8935SOL    HW227705   4.752   2.846   2.674
 8936SOL     OW27706   0.354   4.288   1.233
 8936SOL    HW127707   0.367   4.329   1.323
 8936SOL    HW227708   0.267   4.320   1.194
 8937SOL     OW27709   0.312   0.071   3.734
 8937SOL    HW127710   0.238   0.136   3.750
 8937SOL    HW227711   0.281   6.998   3.754
 8938SOL     OW27712   6.143   0.884   0.502
 8938SOL    HW127713   6.064   0.871   0.442
 8938SOL    HW227714   6.124   0.958   0.566
 8939SOL     OW27715   0.143   2.722   4.409
 8939SOL    HW127716   0.079   2.683   4.343
 8939SOL    HW227717   0.099   2.728   4.499
 8940SOL     OW27718   0.057   3.198   0.969
 8940SOL    HW127719   0.044   3.136   0.891
 8940SOL    HW227720   0.093   3.285   0.936
 8941SOL     OW27721   4.818   2.429   1.993
 8941SOL    HW127722   4.761   2.510   2.007
 8941SOL    HW227723   4.762   2.353   1.962
 8942SOL     OW27724   6.671   5.061   3.902
 8942SOL    HW127725   6.751   5.049   3.961
 8942SOL    HW227726   6.658   5.159   3.883
 8943SOL     OW27727   4.407   3.419   0.142
 8943SOL    HW127728   4.442   3.398   0.233
 8943SOL    HW227729   4.363   3.337   0.104
 8944SOL     OW27730   4.691   5.500   4.505
 8944SOL    HW127731   4.660   5.408   4.482
 8944SOL    HW227732   4.791   5.504   4.502
 8945SOL     OW27733   6.134   3.603   5.118
 8945SOL    HW127734   6.089   3.514   5.108
 8945SOL    HW227735   6.193   3.602   5.199
 8946SOL     OW27736   4.710   1.208   4.310
 8946SOL    HW127737   4.728   1.222   4.213
 8946SOL    HW227738   4.617   1.171   4.322
 8947SOL     OW27739   1.405   4.812   6.699
 8947SOL    HW127740   1.333   4.760   6.651
 8947SOL    HW227741   1.473   4.842   6.633
 8948SOL     OW27742   6.182   6.939   3.878
 8948SOL    HW127743   6.153   6.866   3.817
 8948SOL    HW227744   6.254   6.904   3.939
 8949SOL     OW27745   3.246   6.088   0.200
 8949SOL    HW127746   3.162   6.050   0.238
 8949SOL    HW227747   3.304   6.121   0.275
 8950SOL     OW27748   4.598   4.557   1.288
 8950SOL    HW127749   4.601   4.558   1.388
 8950SOL    HW227750   4.660   4.485   1.254
 8951SOL     OW27751   2.289   1.176   4.091
 8951SOL    HW127752   2.203   1.221   4.069
 8951SOL    HW227753   2.284   1.079   4.067
 8952SOL     OW27754   2.216   4.843   3.358
 8952SOL    HW127755   2.189   4.757   3.402
 8952SOL    HW227756   2.186   4.920   3.414
 8953SOL     OW27757   2.678   5.248   2.373
 8953SOL    HW127758   2.715   5.260   2.465
 8953SOL    HW227759   2.597   5.188   2.377
 8954SOL     OW27760   1.083   5.975   4.429
 8954SOL    HW127761   1.156   6.010   4.488
 8954SOL    HW227762   1.039   5.897   4.473
 8955SOL     OW27763   5.706   2.984   3.625
 8955SOL    HW127764   5.660   3.062   3.667
 8955SOL    HW227765   5.741   3.009   3.535
 8956SOL     OW27766   0.843   6.241   5.568
 8956SOL    HW127767   0.798   6.153   5.556
 8956SOL    HW227768   0.775   6.312   5.585
 8957SOL     OW27769   1.451   5.273   2.151
 8957SOL    HW127770   1.544   5.274   2.186
 8957SOL    HW227771   1.405   5.359   2.174
 8958SOL     OW27772   1.959   3.292   5.438
 8958SOL    HW127773   1.969   3.220   5.370
 8958SOL    HW227774   1.892   3.265   5.507
 8959SOL     OW27775   0.743   3.375   2.214
 8959SOL    HW127776   0.774   3.285   2.183
 8959SOL    HW227777   0.707   3.426   2.136
 8960SOL     OW27778   5.722   3.990   3.962
 8960SOL    HW127779   5.749   3.913   3.905
 8960SOL    HW227780   5.736   4.075   3.912
 8961SOL     OW27781   3.282   6.564   4.962
 8961SOL    HW127782   3.315   6.566   5.056
 8961SOL    HW227783   3.185   6.540   4.961
 8962SOL     OW27784   0.879   5.921   1.147
 8962SOL    HW127785   0.934   5.949   1.068
 8962SOL    HW227786   0.852   5.825   1.136
 8963SOL     OW27787   3.782   6.136   4.547
 8963SOL    HW127788   3.880   6.150   4.534
 8963SOL    HW227789   3.764   6.038   4.562
 8964SOL     OW27790   6.390   3.817   3.576
 8964SOL    HW127791   6.327   3.890   3.603
 8964SOL    HW227792   6.446   3.848   3.499
 8965SOL     OW27793   4.383   4.978   0.374
 8965SOL    HW127794   4.329   4.915   0.319
 8965SOL    HW227795   4.328   5.012   0.450
 8966SOL     OW27796   5.124   5.703   6.176
 8966SOL    HW127797   5.050   5.636   6.187
 8966SOL    HW227798   5.087   5.788   6.139
 8967SOL     OW27799   3.401   0.713   3.027
 8967SOL    HW127800   3.493   0.733   3.059
 8967SOL    HW227801   3.392   0.616   3.005
 8968SOL     OW27802   3.364   5.034   1.808
 8968SOL    HW127803   3.316   5.089   1.740
 8968SOL    HW227804   3.342   5.067   1.900
 8969SOL     OW27805   6.682   0.613   2.924
 8969SOL    HW127806   6.689   0.713   2.923
 8969SOL    HW227807   6.593   0.586   2.886
 8970SOL     OW27808   1.224   1.777   6.240
 8970SOL    HW127809   1.168   1.856   6.261
 8970SOL    HW227810   1.188   1.730   6.159
 8971SOL     OW27811   4.389   5.839   0.710
 8971SOL    HW127812   4.296   5.875   0.707
 8971SOL    HW227813   4.391   5.755   0.765
 8972SOL     OW27814   5.907   5.162   0.468
 8972SOL    HW127815   5.890   5.065   0.483
 8972SOL    HW227816   5.988   5.173   0.411
 8973SOL     OW27817   0.640   2.452   2.077
 8973SOL    HW127818   0.585   2.452   1.994
 8973SOL    HW227819   0.727   2.406   2.060
 8974SOL     OW27820   2.192   4.080   4.445
 8974SOL    HW127821   2.256   4.111   4.516
 8974SOL    HW227822   2.102   4.065   4.487
 8975SOL     OW27823   0.542   0.292   6.438
 8975SOL    HW127824   0.467   0.268   6.376
 8975SOL    HW227825   0.544   0.227   6.514
 8976SOL     OW27826   6.785   0.329   1.846
 8976SOL    HW127827   6.711   0.383   1.808
 8976SOL    HW227828   6.848   0.303   1.774
 8977SOL     OW27829   6.824   5.046   6.319
 8977SOL    HW127830   6.878   4.980   6.265
 8977SOL    HW227831   6.731   5.049   6.283
 8978SOL     OW27832   5.966   5.712   5.761
 8978SOL    HW127833   6.044   5.698   5.701
 8978SOL    HW227834   5.993   5.694   5.856
 8979SOL     OW27835   0.555   5.511   5.885
 8979SOL    HW127836   0.625   5.483   5.951
 8979SOL    HW227837   0.466   5.480   5.916
 8980SOL     OW27838   3.819   1.310   5.054
 8980SOL    HW127839   3.829   1.370   5.133
 8980SOL    HW227840   3.838   1.361   4.971
 8981SOL     OW27841   4.610   2.344   6.689
 8981SOL    HW127842   4.569   2.273   6.745
 8981SOL    HW227843   4.566   2.432   6.709
 8982SOL     OW27844   6.756   1.046   1.757
 8982SOL    HW127845   6.685   1.014   1.820
 8982SOL    HW227846   6.740   1.142   1.734
 8983SOL     OW27847   0.760   5.682   2.950
 8983SOL    HW127848   0.852   5.682   2.988
 8983SOL    HW227849   0.698   5.729   3.012
 8984SOL     OW27850   5.953   0.360   4.195
 8984SOL    HW127851   5.970   0.429   4.125
 8984SOL    HW227852   5.955   0.403   4.286
 8985SOL     OW27853   5.173   1.962   0.830
 8985SOL    HW127854   5.102   1.891   0.833
 8985SOL    HW227855   5.142   2.042   0.881
 8986SOL     OW27856   6.261   4.530   1.746
 8986SOL    HW127857   6.244   4.564   1.838
 8986SOL    HW227858   6.251   4.430   1.745
 8987SOL     OW27859   2.448   6.741   1.401
 8987SOL    HW127860   2.524   6.748   1.337
 8987SOL    HW227861   2.415   6.646   1.405
 8988SOL     OW27862   2.146   4.929   1.199
 8988SOL    HW127863   2.231   4.898   1.242
 8988SOL    HW227864   2.147   5.028   1.190
 8989SOL     OW27865   5.380   2.019   2.201
 8989SOL    HW127866   5.464   2.012   2.255
 8989SOL    HW227867   5.397   1.984   2.109
 8990SOL     OW27868   3.568   6.684   1.658
 8990SOL    HW127869   3.506   6.681   1.579
 8990SOL    HW227870   3.659   6.712   1.628
 8991SOL     OW27871   1.944   2.074   0.556
 8991SOL    HW127872   1.993   1.993   0.523
 8991SOL    HW227873   2.006   2.152   0.559
 8992SOL     OW27874   0.846   3.337   7.005
 8992SOL    HW127875   0.909   3.260   6.993
 8992SOL    HW227876   0.854   3.398   6.927
 8993SOL     OW27877   5.552   2.483   3.287
 8993SOL    HW127878   5.494   2.417   3.241
 8993SOL    HW227879   5.644   2.480   3.248
 8994SOL     OW27880   1.403   5.304   3.870
 8994SOL    HW127881   1.400   5.323   3.771
 8994SOL    HW227882   1.493   5.329   3.905
 8995SOL     OW27883   1.907   3.136   5.205
 8995SOL    HW127884   1.948   3.104   5.119
 8995SOL    HW227885   1.832   3.198   5.185
 8996SOL     OW27886   0.419   3.908   2.195
 8996SOL    HW127887   0.344   3.923   2.259
 8996SOL    HW227888   0.383   3.906   2.101
 8997SOL     OW27889   4.330   1.284   5.042
 8997SOL    HW127890   4.266   1.231   5.098
 8997SOL    HW227891   4.294   1.294   4.950
 8998SOL     OW27892   1.537   2.758   5.684
 8998SOL    HW127893   1.470   2.690   5.714
 8998SOL    HW227894   1.596   2.783   5.761
 8999SOL     OW27895   4.986   1.506   5.731
 8999SOL    HW127896   4.975   1.431   5.666
 8999SOL    HW227897   4.913   1.573   5.719
 9000SOL     OW27898   3.962   4.167   0.562
 9000SOL    HW127899   3.985   4.082   0.609
 9000SOL    HW227900   3.867   4.162   0.529
 9001SOL     OW27901   2.542   4.689   3.713
 9001SOL    HW127902   2.576   4.761   3.773
 9001SOL    HW227903   2.445   4.705   3.694
 9002SOL     OW27904   5.983   4.572   5.905
 9002SOL    HW127905   5.888   4.546   5.886
 9002SOL    HW227906   6.004   4.553   6.001
 9003SOL     OW27907   6.509   3.199   0.036
 9003SOL    HW127908   6.445   3.129   0.065
 9003SOL    HW227909   6.567   3.164   6.982
 9004SOL     OW27910   4.874   6.443   1.509
 9004SOL    HW127911   4.793   6.434   1.567
 9004SOL    HW227912   4.933   6.364   1.522
 9005SOL     OW27913   4.683   1.865   3.355
 9005SOL    HW127914   4.671   1.835   3.261
 9005SOL    HW227915   4.594   1.871   3.400
 9006SOL     OW27916   1.910   4.953   0.863
 9006SOL    HW127917   1.844   5.028   0.858
 9006SOL    HW227918   1.860   4.866   0.868
 9007SOL     OW27919   3.523   5.599   4.311
 9007SOL    HW127920   3.597   5.663   4.288
 9007SOL    HW227921   3.486   5.622   4.401
 9008SOL     OW27922   0.222   4.208   1.500
 9008SOL    HW127923   0.126   4.232   1.514
 9008SOL    HW227924   0.278   4.291   1.501
 9009SOL     OW27925   2.898   6.312   0.638
 9009SOL    HW127926   2.981   6.274   0.680
 9009SOL    HW227927   2.904   6.304   0.539
 9010SOL     OW27928   0.634   6.865   5.108
 9010SOL    HW127929   0.557   6.818   5.153
 9010SOL    HW227930   0.605   6.896   5.017
 9011SOL     OW27931   3.884   1.702   1.189
 9011SOL    HW127932   3.844   1.666   1.273
 9011SOL    HW227933   3.913   1.627   1.130
 9012SOL     OW27934   0.685   5.124   1.403
 9012SOL    HW127935   0.732   5.199   1.451
 9012SOL    HW227936   0.753   5.059   1.369
 9013SOL     OW27937   6.382   5.960   3.658
 9013SOL    HW127938   6.315   6.032   3.642
 9013SOL    HW227939   6.466   6.000   3.694
 9014SOL     OW27940   1.408   0.932   0.512
 9014SOL    HW127941   1.446   0.868   0.446
 9014SOL    HW227942   1.471   1.008   0.526
 9015SOL     OW27943   0.306   1.341   5.736
 9015SOL    HW127944   0.233   1.272   5.735
 9015SOL    HW227945   0.352   1.339   5.824
 9016SOL     OW27946   6.601   6.059   5.790
 9016SOL    HW127947   6.647   6.128   5.846
 9016SOL    HW227948   6.633   5.968   5.818
 9017SOL     OW27949   5.699   2.280   3.515
 9017SOL    HW127950   5.644   2.361   3.493
 9017SOL    HW227951   5.690   2.260   3.613
 9018SOL     OW27952   3.126   1.763   5.427
 9018SOL    HW127953   3.042   1.711   5.446
 9018SOL    HW227954   3.132   1.782   5.330
 9019SOL     OW27955   2.738   5.808   0.451
 9019SOL    HW127956   2.727   5.845   0.359
 9019SOL    HW227957   2.794   5.724   0.446
 9020SOL     OW27958   1.898   4.393   2.572
 9020SOL    HW127959   1.944   4.304   2.584
 9020SOL    HW227960   1.803   4.378   2.547
 9021SOL     OW27961   0.304   5.434   4.340
 9021SOL    HW127962   0.214   5.392   4.346
 9021SOL    HW227963   0.332   5.441   4.244
 9022SOL     OW27964   2.729   0.485   0.292
 9022SOL    HW127965   2.703   0.471   0.196
 9022SOL    HW227966   2.653   0.458   0.351
 9023SOL     OW27967   3.231   3.486   3.624
 9023SOL    HW127968   3.177   3.561   3.587
 9023SOL    HW227969   3.209   3.473   3.721
 9024SOL     OW27970   1.530   6.325   5.797
 9024SOL    HW127971   1.574   6.238   5.822
 9024SOL    HW227972   1.462   6.349   5.866
 9025SOL     OW27973   6.154   4.903   1.975
 9025SOL    HW127974   6.168   4.816   1.926
 9025SOL    HW227975   6.056   4.918   1.989
 9026SOL     OW27976   3.544   2.985   4.523
 9026SOL    HW127977   3.565   3.033   4.438
 9026SOL    HW227978   3.613   3.007   4.592
 9027SOL     OW27979   2.658   2.384   3.151
 9027SOL    HW127980   2.707   2.429   3.226
 9027SOL    HW227981   2.559   2.399   3.162
 9028SOL     OW27982   2.285   4.669   5.120
 9028SOL    HW127983   2.372   4.656   5.167
 9028SOL    HW227984   2.288   4.625   5.031
 9029SOL     OW27985   4.865   5.569   3.359
 9029SOL    HW127986   4.814   5.551   3.444
 9029SOL    HW227987   4.961   5.585   3.381
 9030SOL     OW27988   2.297   0.848   2.579
 9030SOL    HW127989   2.231   0.782   2.616
 9030SOL    HW227990   2.386   0.832   2.620
 9031SOL     OW27991   2.455   6.337   6.103
 9031SOL    HW127992   2.447   6.410   6.170
 9031SOL    HW227993   2.551   6.307   6.098
 9032SOL     OW27994   2.638   2.412   1.863
 9032SOL    HW127995   2.733   2.421   1.833
 9032SOL    HW227996   2.585   2.490   1.831
 9033SOL     OW27997   1.810   3.171   3.977
 9033SOL    HW127998   1.841   3.101   4.041
 9033SOL    HW227999   1.836   3.262   4.012
 9034SOL     OW28000   2.897   6.406   5.513
 9034SOL    HW128001   2.949   6.321   5.504
 9034SOL    HW228002   2.808   6.386   5.553
 9035SOL     OW28003   0.160   0.742   4.336
 9035SOL    HW128004   0.167   0.754   4.435
 9035SOL    HW228005   0.146   0.830   4.292
 9036SOL     OW28006   1.394   2.423   5.559
 9036SOL    HW128007   1.460   2.420   5.484
 9036SOL    HW228008   1.441   2.404   5.645
 9037SOL     OW28009   2.517   4.018   6.855
 9037SOL    HW128010   2.616   4.032   6.857
 9037SOL    HW228011   2.476   4.049   6.941
 9038SOL     OW28012   5.040   0.073   4.968
 9038SOL    HW128013   4.988   0.158   4.966
 9038SOL    HW228014   5.057   0.046   5.063
 9039SOL     OW28015   1.970   5.057   4.923
 9039SOL    HW128016   1.881   5.046   4.968
 9039SOL    HW228017   2.021   5.130   4.968
 9040SOL     OW28018   2.349   1.696   2.524
 9040SOL    HW128019   2.352   1.619   2.462
 9040SOL    HW228020   2.255   1.725   2.538
 9041SOL     OW28021   1.047   2.097   1.042
 9041SOL    HW128022   1.033   2.029   0.970
 9041SOL    HW228023   1.138   2.087   1.080
 9042SOL     OW28024   3.222   5.131   3.143
 9042SOL    HW128025   3.240   5.106   3.238
 9042SOL    HW228026   3.246   5.054   3.083
 9043SOL     OW28027   1.188   2.684   6.142
 9043SOL    HW128028   1.146   2.738   6.215
 9043SOL    HW228029   1.132   2.690   6.060
 9044SOL     OW28030   5.770   0.197   0.805
 9044SOL    HW128031   5.794   0.105   0.776
 9044SOL    HW228032   5.728   0.194   0.896
 9045SOL     OW28033   3.148   0.196   2.991
 9045SOL    HW128034   3.129   0.106   2.951
 9045SOL    HW228035   3.204   0.249   2.928
 9046SOL     OW28036   3.260   4.298   5.526
 9046SOL    HW128037   3.221   4.286   5.618
 9046SOL    HW228038   3.349   4.342   5.534
 9047SOL     OW28039   1.363   4.266   3.970
 9047SOL    HW128040   1.387   4.185   4.023
 9047SOL    HW228041   1.382   4.249   3.873
 9048SOL     OW28042   1.709   3.889   4.819
 9048SOL    HW128043   1.769   3.845   4.752
 9048SOL    HW228044   1.614   3.862   4.800
 9049SOL     OW28045   5.370   6.324   5.753
 9049SOL    HW128046   5.279   6.359   5.775
 9049SOL    HW228047   5.440   6.388   5.785
 9050SOL     OW28048   0.347   5.060   6.905
 9050SOL    HW128049   0.331   4.962   6.913
 9050SOL    HW228050   0.410   5.089   6.977
 9051SOL     OW28051   4.701   6.241   0.109
 9051SOL    HW128052   4.604   6.232   0.084
 9051SOL    HW228053   4.753   6.171   0.061
 9052SOL     OW28054   2.649   4.861   4.603
 9052SOL    HW128055   2.577   4.925   4.576
 9052SOL    HW228056   2.632   4.771   4.563
 9053SOL     OW28057   2.283   2.721   3.950
 9053SOL    HW128058   2.343   2.652   3.910
 9053SOL    HW228059   2.310   2.738   4.045
 9054SOL     OW28060   1.523   0.910   1.908
 9054SOL    HW128061   1.497   1.006   1.898
 9054SOL    HW228062   1.536   0.889   2.005
 9055SOL     OW28063   1.100   2.619   4.497
 9055SOL    HW128064   1.003   2.617   4.522
 9055SOL    HW228065   1.156   2.595   4.576
 9056SOL     OW28066   5.147   0.301   2.578
 9056SOL    HW128067   5.216   0.346   2.634
 9056SOL    HW228068   5.060   0.300   2.628
 9057SOL     OW28069   6.389   5.586   0.204
 9057SOL    HW128070   6.378   5.502   0.257
 9057SOL    HW228071   6.329   5.583   0.124
 9058SOL     OW28072   2.066   2.731   5.005
 9058SOL    HW128073   2.088   2.697   5.096
 9058SOL    HW228074   2.140   2.788   4.971
 9059SOL     OW28075   6.420   1.486   3.371
 9059SOL    HW128076   6.501   1.429   3.358
 9059SOL    HW228077   6.426   1.567   3.312
 9060SOL     OW28078   6.839   3.558   2.278
 9060SOL    HW128079   6.859   3.519   2.188
 9060SOL    HW228080   6.778   3.636   2.267
 9061SOL     OW28081   4.651   5.842   2.764
 9061SOL    HW128082   4.642   5.937   2.736
 9061SOL    HW228083   4.566   5.811   2.805
 9062SOL     OW28084   1.358   4.183   3.079
 9062SOL    HW128085   1.436   4.238   3.050
 9062SOL    HW228086   1.372   4.153   3.174
 9063SOL     OW28087   3.010   1.471   2.438
 9063SOL    HW128088   2.958   1.544   2.483
 9063SOL    HW228089   3.077   1.512   2.376
 9064SOL     OW28090   0.282   3.818   3.665
 9064SOL    HW128091   0.375   3.784   3.683
 9064SOL    HW228092   0.273   3.910   3.702
 9065SOL     OW28093   3.126   6.367   4.784
 9065SOL    HW128094   3.178   6.357   4.699
 9065SOL    HW228095   3.179   6.329   4.860
 9066SOL     OW28096   5.972   6.176   6.128
 9066SOL    HW128097   6.039   6.145   6.196
 9066SOL    HW228098   5.904   6.234   6.172
 9067SOL     OW28099   6.648   6.924   4.409
 9067SOL    HW128100   6.631   6.976   4.493
 9067SOL    HW228101   6.576   6.943   4.343
 9068SOL     OW28102   5.096   0.203   5.430
 9068SOL    HW128103   5.127   0.174   5.521
 9068SOL    HW228104   5.098   0.303   5.425
 9069SOL     OW28105   4.512   2.231   2.223
 9069SOL    HW128106   4.466   2.262   2.306
 9069SOL    HW228107   4.562   2.146   2.241
 9070SOL     OW28108   1.026   2.235   6.058
 9070SOL    HW128109   1.103   2.212   6.117
 9070SOL    HW228110   0.958   2.162   6.062
 9071SOL     OW28111   4.299   1.289   6.278
 9071SOL    HW128112   4.317   1.306   6.181
 9071SOL    HW228113   4.277   1.376   6.323
 9072SOL     OW28114   5.585   0.027   1.339
 9072SOL    HW128115   5.531   0.104   1.374
 9072SOL    HW228116   5.533   6.998   1.270
 9073SOL     OW28117   4.189   0.069   0.326
 9073SOL    HW128118   4.287   0.050   0.312
 9073SOL    HW228119   4.135   7.012   0.290
 9074SOL     OW28120   1.485   0.361   1.452
 9074SOL    HW128121   1.472   0.453   1.416
 9074SOL    HW228122   1.550   0.312   1.393
 9075SOL     OW28123   6.518   0.965   2.343
 9075SOL    HW128124   6.590   0.966   2.413
 9075SOL    HW228125   6.548   0.907   2.266
 9076SOL     OW28126   5.025   0.512   2.938
 9076SOL    HW128127   5.040   0.421   2.977
 9076SOL    HW228128   4.969   0.566   3.000
 9077SOL     OW28129   5.243   1.329   5.763
 9077SOL    HW128130   5.187   1.253   5.729
 9077SOL    HW228131   5.183   1.403   5.793
 9078SOL     OW28132   4.777   5.215   6.726
 9078SOL    HW128133   4.839   5.152   6.680
 9078SOL    HW228134   4.828   5.274   6.787
 9079SOL     OW28135   1.785   0.375   5.382
 9079SOL    HW128136   1.806   0.471   5.402
 9079SOL    HW228137   1.695   0.352   5.419
 9080SOL     OW28138   6.524   3.925   0.737
 9080SOL    HW128139   6.462   3.883   0.670
 9080SOL    HW228140   6.590   3.982   0.689
 9081SOL     OW28141   3.804   1.823   1.647
 9081SOL    HW128142   3.735   1.850   1.580
 9081SOL    HW228143   3.895   1.834   1.607
 9082SOL     OW28144   2.886   6.510   6.243
 9082SOL    HW128145   2.806   6.566   6.267
 9082SOL    HW228146   2.886   6.426   6.297
 9083SOL     OW28147   5.283   4.349   5.867
 9083SOL    HW128148   5.246   4.357   5.774
 9083SOL    HW228149   5.211   4.318   5.928
 9084SOL     OW28150   0.388   2.991   5.626
 9084SOL    HW128151   0.402   3.089   5.639
 9084SOL    HW228152   0.409   2.942   5.711
 9085SOL     OW28153   3.240   4.814   0.054
 9085SOL    HW128154   3.320   4.873   0.040
 9085SOL    HW228155   3.270   4.720   0.070
 9086SOL     OW28156   6.676   4.279   0.877
 9086SOL    HW128157   6.624   4.240   0.802
 9086SOL    HW228158   6.766   4.235   0.882
 9087SOL     OW28159   6.053   2.744   2.539
 9087SOL    HW128160   6.106   2.808   2.594
 9087SOL    HW228161   6.095   2.735   2.449
 9088SOL     OW28162   6.158   0.437   1.600
 9088SOL    HW128163   6.162   0.415   1.697
 9088SOL    HW228164   6.127   0.357   1.549
 9089SOL     OW28165   4.204   5.442   4.177
 9089SOL    HW128166   4.251   5.466   4.262
 9089SOL    HW228167   4.105   5.434   4.194
 9090SOL     OW28168   5.357   6.206   4.059
 9090SOL    HW128169   5.421   6.129   4.065
 9090SOL    HW228170   5.401   6.284   4.015
 9091SOL     OW28171   3.254   2.404   0.521
 9091SOL    HW128172   3.176   2.466   0.515
 9091SOL    HW228173   3.322   2.428   0.451
 9092SOL     OW28174   1.274   0.324   5.659
 9092SOL    HW128175   1.213   0.295   5.733
 9092SOL    HW228176   1.346   0.256   5.646
 9093SOL     OW28177   1.617   6.046   0.059
 9093SOL    HW128178   1.649   5.954   0.082
 9093SOL    HW228179   1.649   6.111   0.128
 9094SOL     OW28180   0.209   6.290   2.017
 9094SOL    HW128181   0.283   6.231   2.048
 9094SOL    HW228182   0.223   6.315   1.921
 9095SOL     OW28183   5.358   3.384   6.727
 9095SOL    HW128184   5.297   3.320   6.681
 9095SOL    HW228185   5.428   3.334   6.777
 9096SOL     OW28186   5.451   3.065   3.266
 9096SOL    HW128187   5.352   3.059   3.266
 9096SOL    HW228188   5.483   3.091   3.357
 9097SOL     OW28189   1.039   3.650   6.964
 9097SOL    HW128190   1.011   3.734   6.918
 9097SOL    HW228191   1.121   3.613   6.919
 9098SOL     OW28192   3.977   3.697   1.466
 9098SOL    HW128193   3.889   3.681   1.512
 9098SOL    HW228194   4.014   3.610   1.434
 9099SOL     OW28195   3.381   3.695   1.112
 9099SOL    HW128196   3.411   3.701   1.017
 9099SOL    HW228197   3.289   3.733   1.120
 9100SOL     OW28198   0.890   2.914   1.766
 9100SOL    HW128199   0.834   2.997   1.768
 9100SOL    HW228200   0.986   2.939   1.749
 9101SOL     OW28201   2.075   3.176   2.886
 9101SOL    HW128202   2.061   3.205   2.981
 9101SOL    HW228203   2.161   3.126   2.878
 9102SOL     OW28204   3.830   5.978   2.536
 9102SOL    HW128205   3.795   5.898   2.585
 9102SOL    HW228206   3.768   6.055   2.550
 9103SOL     OW28207   0.194   3.489   0.577
 9103SOL    HW128208   0.097   3.514   0.586
 9103SOL    HW228209   0.201   3.395   0.543
 9104SOL     OW28210   3.905   6.308   1.775
 9104SOL    HW128211   3.826   6.251   1.797
 9104SOL    HW228212   3.880   6.405   1.785
 9105SOL     OW28213   1.742   0.568   6.875
 9105SOL    HW128214   1.710   0.495   6.935
 9105SOL    HW228215   1.667   0.632   6.858
 9106SOL     OW28216   6.426   4.121   0.420
 9106SOL    HW128217   6.392   4.188   0.354
 9106SOL    HW228218   6.457   4.040   0.371
 9107SOL     OW28219   4.582   6.691   6.599
 9107SOL    HW128220   4.485   6.676   6.616
 9107SOL    HW228221   4.594   6.766   6.534
 9108SOL     OW28222   5.059   4.678   5.228
 9108SOL    HW128223   5.011   4.662   5.142
 9108SOL    HW228224   5.131   4.609   5.238
 9109SOL     OW28225   1.796   2.227   2.878
 9109SOL    HW128226   1.795   2.320   2.840
 9109SOL    HW228227   1.749   2.165   2.815
 9110SOL     OW28228   2.431   4.543   4.203
 9110SOL    HW128229   2.363   4.490   4.152
 9110SOL    HW228230   2.450   4.498   4.290
 9111SOL     OW28231   4.223   3.829   0.667
 9111SOL    HW128232   4.310   3.826   0.619
 9111SOL    HW228233   4.217   3.913   0.721
 9112SOL     OW28234   0.636   3.851   3.724
 9112SOL    HW128235   0.612   3.756   3.744
 9112SOL    HW228236   0.723   3.854   3.675
 9113SOL     OW28237   4.385   0.697   0.261
 9113SOL    HW128238   4.339   0.770   0.312
 9113SOL    HW228239   4.439   0.642   0.324
 9114SOL     OW28240   1.949   5.131   2.432
 9114SOL    HW128241   1.924   5.139   2.528
 9114SOL    HW228242   1.958   5.034   2.407
 9115SOL     OW28243   0.759   5.466   5.173
 9115SOL    HW128244   0.710   5.398   5.117
 9115SOL    HW228245   0.796   5.537   5.114
 9116SOL     OW28246   6.874   1.814   0.210
 9116SOL    HW128247   6.927   1.855   0.136
 9116SOL    HW228248   6.782   1.794   0.178
 9117SOL     OW28249   6.191   3.034   6.509
 9117SOL    HW128250   6.176   2.939   6.485
 9117SOL    HW228251   6.208   3.042   6.607
 9118SOL     OW28252   5.699   6.374   0.414
 9118SOL    HW128253   5.656   6.462   0.434
 9118SOL    HW228254   5.731   6.373   0.319
 9119SOL     OW28255   5.665   1.364   2.698
 9119SOL    HW128256   5.765   1.367   2.700
 9119SOL    HW228257   5.635   1.344   2.605
 9120SOL     OW28258   5.989   2.765   5.623
 9120SOL    HW128259   5.951   2.699   5.558
 9120SOL    HW228260   6.025   2.844   5.573
 9121SOL     OW28261   0.596   3.201   5.866
 9121SOL    HW128262   0.529   3.227   5.797
 9121SOL    HW228263   0.559   3.127   5.922
 9122SOL     OW28264   1.902   2.555   1.707
 9122SOL    HW128265   1.831   2.531   1.641
 9122SOL    HW228266   1.863   2.613   1.779
 9123SOL     OW28267   3.507   0.046   4.997
 9123SOL    HW128268   3.461   6.979   4.981
 9123SOL    HW228269   3.461   0.096   5.071
 9124SOL     OW28270   5.730   6.462   5.576
 9124SOL    HW128271   5.791   6.482   5.499
 9124SOL    HW228272   5.763   6.508   5.658
 9125SOL     OW28273   4.385   4.539   4.017
 9125SOL    HW128274   4.365   4.550   4.114
 9125SOL    HW228275   4.438   4.456   4.003
 9126SOL     OW28276   5.618   1.265   2.431
 9126SOL    HW128277   5.571   1.177   2.428
 9126SOL    HW228278   5.551   1.339   2.431
 9127SOL     OW28279   6.432   0.170   6.233
 9127SOL    HW128280   6.368   0.226   6.287
 9127SOL    HW228281   6.389   0.082   6.212
 9128SOL     OW28282   3.589   2.200   5.314
 9128SOL    HW128283   3.617   2.145   5.235
 9128SOL    HW228284   3.489   2.204   5.319
 9129SOL     OW28285   2.259   2.941   1.035
 9129SOL    HW128286   2.216   3.002   1.102
 9129SOL    HW228287   2.240   2.974   0.943
 9130SOL     OW28288   0.226   3.680   0.050
 9130SOL    HW128289   0.316   3.682   0.005
 9130SOL    HW228290   0.239   3.680   0.149
 9131SOL     OW28291   6.891   4.318   5.271
 9131SOL    HW128292   6.938   4.380   5.209
 9131SOL    HW228293   6.849   4.243   5.220
 9132SOL     OW28294   0.641   4.547   4.302
 9132SOL    HW128295   0.666   4.587   4.214
 9132SOL    HW228296   0.683   4.599   4.376
 9133SOL     OW28297   3.028   5.454   0.776
 9133SOL    HW128298   3.034   5.389   0.852
 9133SOL    HW228299   3.108   5.515   0.778
 9134SOL     OW28300   3.542   6.780   0.909
 9134SOL    HW128301   3.576   6.837   0.834
 9134SOL    HW228302   3.460   6.823   0.948
 9135SOL     OW28303   6.887   6.254   1.953
 9135SOL    HW128304   6.949   6.269   2.030
 9135SOL    HW228305   6.848   6.341   1.924
 9136SOL     OW28306   4.801   5.490   5.426
 9136SOL    HW128307   4.822   5.477   5.329
 9136SOL    HW228308   4.855   5.567   5.461
 9137SOL     OW28309   5.300   1.585   1.161
 9137SOL    HW128310   5.275   1.610   1.254
 9137SOL    HW228311   5.344   1.662   1.116
 9138SOL     OW28312   6.529   4.624   6.130
 9138SOL    HW128313   6.467   4.694   6.094
 9138SOL    HW228314   6.607   4.669   6.174
 9139SOL     OW28315   2.306   1.300   4.374
 9139SOL    HW128316   2.307   1.224   4.439
 9139SOL    HW228317   2.342   1.269   4.286
 9140SOL     OW28318   6.334   3.440   2.749
 9140SOL    HW128319   6.338   3.537   2.773
 9140SOL    HW228320   6.319   3.430   2.651
 9141SOL     OW28321   5.511   0.453   6.742
 9141SOL    HW128322   5.450   0.496   6.676
 9141SOL    HW228323   5.499   0.354   6.739
 9142SOL     OW28324   0.705   2.568   6.866
 9142SOL    HW128325   0.664   2.522   6.787
 9142SOL    HW228326   0.686   2.666   6.861
 9143SOL     OW28327   5.182   3.831   0.603
 9143SOL    HW128328   5.189   3.753   0.666
 9143SOL    HW228329   5.127   3.805   0.524
 9144SOL     OW28330   2.381   5.247   5.863
 9144SOL    HW128331   2.409   5.271   5.770
 9144SOL    HW228332   2.284   5.221   5.862
 9145SOL     OW28333   6.729   5.666   0.393
 9145SOL    HW128334   6.759   5.723   0.469
 9145SOL    HW228335   6.776   5.694   0.309
 9146SOL     OW28336   4.840   2.036   1.918
 9146SOL    HW128337   4.929   2.066   1.882
 9146SOL    HW228338   4.842   1.937   1.932
 9147SOL     OW28339   5.755   0.193   4.256
 9147SOL    HW128340   5.841   0.243   4.244
 9147SOL    HW228341   5.736   0.140   4.173
 9148SOL     OW28342   5.022   6.859   0.865
 9148SOL    HW128343   5.039   6.957   0.853
 9148SOL    HW228344   5.055   6.809   0.785
 9149SOL     OW28345   5.298   3.162   3.722
 9149SOL    HW128346   5.199   3.176   3.718
 9149SOL    HW228347   5.339   3.228   3.785
 9150SOL     OW28348   3.517   5.243   3.801
 9150SOL    HW128349   3.458   5.291   3.866
 9150SOL    HW228350   3.557   5.309   3.737
 9151SOL     OW28351   1.418   4.784   3.362
 9151SOL    HW128352   1.443   4.757   3.456
 9151SOL    HW228353   1.323   4.813   3.361
 9152SOL     OW28354   2.834   5.176   4.863
 9152SOL    HW128355   2.845   5.103   4.795
 9152SOL    HW228356   2.753   5.229   4.841
 9153SOL     OW28357   1.304   3.199   1.169
 9153SOL    HW128358   1.383   3.177   1.111
 9153SOL    HW228359   1.264   3.286   1.139
 9154SOL     OW28360   3.615   5.524   6.957
 9154SOL    HW128361   3.707   5.523   6.918
 9154SOL    HW228362   3.608   5.598   0.005
 9155SOL     OW28363   1.465   3.152   0.938
 9155SOL    HW128364   1.499   3.192   0.853
 9155SOL    HW228365   1.481   3.054   0.938
 9156SOL     OW28366   2.097   2.890   0.540
 9156SOL    HW128367   2.123   2.981   0.507
 9156SOL    HW228368   2.173   2.826   0.525
 9157SOL     OW28369   5.809   4.722   6.391
 9157SOL    HW128370   5.719   4.738   6.431
 9157SOL    HW228371   5.819   4.625   6.369
 9158SOL     OW28372   5.908   3.375   4.930
 9158SOL    HW128373   5.864   3.342   5.014
 9158SOL    HW228374   5.870   3.465   4.906
 9159SOL     OW28375   1.065   0.055   2.964
 9159SOL    HW128376   1.048   0.114   3.043
 9159SOL    HW228377   0.979   0.044   2.913
 9160SOL     OW28378   6.380   0.127   5.297
 9160SOL    HW128379   6.478   0.135   5.313
 9160SOL    HW228380   6.344   0.048   5.347
 9161SOL     OW28381   4.789   3.989   4.411
 9161SOL    HW128382   4.731   4.069   4.425
 9161SOL    HW228383   4.770   3.948   4.321
 9162SOL     OW28384   4.762   1.474   3.931
 9162SOL    HW128385   4.822   1.539   3.979
 9162SOL    HW228386   4.816   1.419   3.868
 9163SOL     OW28387   2.081   3.484   4.452
 9163SOL    HW128388   2.179   3.493   4.469
 9163SOL    HW228389   2.059   3.388   4.435
 9164SOL     OW28390   2.678   0.474   7.014
 9164SOL    HW128391   2.633   0.487   6.926
 9164SOL    HW228392   2.688   0.376   0.013
 9165SOL     OW28393   5.610   1.568   5.175
 9165SOL    HW128394   5.517   1.604   5.170
 9165SOL    HW228395   5.645   1.554   5.082
 9166SOL     OW28396   4.484   6.577   1.031
 9166SOL    HW128397   4.582   6.581   1.012
 9166SOL    HW228398   4.433   6.580   0.945
 9167SOL     OW28399   1.647   2.652   6.183
 9167SOL    HW128400   1.583   2.644   6.107
 9167SOL    HW228401   1.678   2.561   6.210
 9168SOL     OW28402   0.447   0.646   6.168
 9168SOL    HW128403   0.500   0.665   6.086
 9168SOL    HW228404   0.501   0.671   6.249
 9169SOL     OW28405   6.223   0.919   5.465
 9169SOL    HW128406   6.244   0.936   5.368
 9169SOL    HW228407   6.155   0.986   5.496
 9170SOL     OW28408   1.124   4.791   0.705
 9170SOL    HW128409   1.069   4.870   0.731
 9170SOL    HW228410   1.135   4.731   0.784
 9171SOL     OW28411   3.361   4.909   1.052
 9171SOL    HW128412   3.281   4.968   1.045
 9171SOL    HW228413   3.419   4.922   0.971
 9172SOL     OW28414   3.251   0.292   4.855
 9172SOL    HW128415   3.285   0.357   4.922
 9172SOL    HW228416   3.153   0.309   4.839
 9173SOL     OW28417   6.102   4.072   4.799
 9173SOL    HW128418   6.170   4.122   4.746
 9173SOL    HW228419   6.011   4.089   4.762
 9174SOL     OW28420   5.714   4.660   1.094
 9174SOL    HW128421   5.617   4.673   1.073
 9174SOL    HW228422   5.751   4.746   1.130
 9175SOL     OW28423   1.108   0.160   3.837
 9175SOL    HW128424   1.028   0.125   3.787
 9175SOL    HW228425   1.085   0.172   3.933
 9176SOL     OW28426   3.238   1.170   5.073
 9176SOL    HW128427   3.250   1.203   4.979
 9176SOL    HW228428   3.325   1.175   5.121
 9177SOL     OW28429   1.149   4.624   5.016
 9177SOL    HW128430   1.097   4.542   4.991
 9177SOL    HW228431   1.229   4.632   4.957
 9178SOL     OW28432   2.292   5.710   0.094
 9178SOL    HW128433   2.308   5.806   0.070
 9178SOL    HW228434   2.311   5.653   0.014
 9179SOL     OW28435   3.350   5.430   4.212
 9179SOL    HW128436   3.371   5.393   4.122
 9179SOL    HW228437   3.425   5.488   4.243
 9180SOL     OW28438   5.396   1.850   3.116
 9180SOL    HW128439   5.441   1.936   3.138
 9180SOL    HW228440   5.328   1.865   3.044
 9181SOL     OW28441   3.824   2.110   4.025
 9181SOL    HW128442   3.910   2.132   4.072
 9181SOL    HW228443   3.749   2.109   4.090
 9182SOL     OW28444   2.036   6.574   2.172
 9182SOL    HW128445   2.045   6.571   2.073
 9182SOL    HW228446   2.126   6.588   2.214
 9183SOL     OW28447   5.316   6.643   0.532
 9183SOL    HW128448   5.279   6.649   0.440
 9183SOL    HW228449   5.387   6.573   0.535
 9184SOL     OW28450   5.307   1.813   0.662
 9184SOL    HW128451   5.246   1.821   0.583
 9184SOL    HW228452   5.283   1.883   0.730
 9185SOL     OW28453   3.880   6.829   4.967
 9185SOL    HW128454   3.786   6.817   4.936
 9185SOL    HW228455   3.930   6.743   4.955
 9186SOL     OW28456   5.468   7.017   3.951
 9186SOL    HW128457   5.524   6.972   4.021
 9186SOL    HW228458   5.446   0.090   3.981
 9187SOL     OW28459   2.862   1.707   1.283
 9187SOL    HW128460   2.818   1.686   1.370
 9187SOL    HW228461   2.948   1.657   1.276
 9188SOL     OW28462   1.809   6.818   1.682
 9188SOL    HW128463   1.764   6.882   1.619
 9188SOL    HW228464   1.754   6.735   1.688
 9189SOL     OW28465   4.458   6.319   1.199
 9189SOL    HW128466   4.549   6.280   1.185
 9189SOL    HW228467   4.446   6.397   1.138
 9190SOL     OW28468   2.002   3.874   0.091
 9190SOL    HW128469   2.083   3.865   0.034
 9190SOL    HW228470   1.944   3.947   0.054
 9191SOL     OW28471   6.045   1.314   5.720
 9191SOL    HW128472   5.964   1.340   5.773
 9191SOL    HW228473   6.030   1.336   5.624
 9192SOL     OW28474   0.645   3.918   6.106
 9192SOL    HW128475   0.636   3.973   6.023
 9192SOL    HW228476   0.731   3.866   6.102
 9193SOL     OW28477   4.642   4.068   0.613
 9193SOL    HW128478   4.590   4.047   0.530
 9193SOL    HW228479   4.732   4.024   0.608
 9194SOL     OW28480   2.889   0.242   3.229
 9194SOL    HW128481   2.966   0.185   3.256
 9194SOL    HW228482   2.846   0.281   3.310
 9195SOL     OW28483   2.211   1.948   4.247
 9195SOL    HW128484   2.232   1.851   4.235
 9195SOL    HW228485   2.261   1.983   4.327
 9196SOL     OW28486   4.222   0.075   4.056
 9196SOL    HW128487   4.209   0.062   4.154
 9196SOL    HW228488   4.314   0.110   4.038
 9197SOL     OW28489   1.974   4.757   1.857
 9197SOL    HW128490   1.946   4.715   1.771
 9197SOL    HW228491   1.915   4.835   1.878
 9198SOL     OW28492   6.668   5.012   6.569
 9198SOL    HW128493   6.602   4.938   6.557
 9198SOL    HW228494   6.746   4.997   6.508
 9199SOL     OW28495   1.608   3.742   6.060
 9199SOL    HW128496   1.659   3.755   5.975
 9199SOL    HW228497   1.596   3.831   6.105
 9200SOL     OW28498   2.989   6.752   0.913
 9200SOL    HW128499   2.975   6.701   0.829
 9200SOL    HW228500   3.001   6.689   0.989
 9201SOL     OW28501   0.499   2.846   0.462
 9201SOL    HW128502   0.551   2.765   0.435
 9201SOL    HW228503   0.461   2.833   0.554
 9202SOL     OW28504   1.409   6.487   2.938
 9202SOL    HW128505   1.327   6.510   2.885
 9202SOL    HW228506   1.383   6.458   3.030
 9203SOL     OW28507   0.847   4.853   0.034
 9203SOL    HW128508   0.824   4.802   0.117
 9203SOL    HW228509   0.943   4.879   0.037
 9204SOL     OW28510   4.515   2.747   6.122
 9204SOL    HW128511   4.517   2.647   6.128
 9204SOL    HW228512   4.484   2.785   6.209
 9205SOL     OW28513   6.873   4.507   2.622
 9205SOL    HW128514   6.776   4.521   2.600
 9205SOL    HW228515   6.890   4.411   2.640
 9206SOL     OW28516   4.251   5.369   1.828
 9206SOL    HW128517   4.317   5.300   1.859
 9206SOL    HW228518   4.180   5.381   1.897
 9207SOL     OW28519   4.808   5.041   6.247
 9207SOL    HW128520   4.870   5.078   6.317
 9207SOL    HW228521   4.714   5.063   6.272
 9208SOL     OW28522   5.611   4.417   3.903
 9208SOL    HW128523   5.694   4.371   3.870
 9208SOL    HW228524   5.561   4.355   3.964
 9209SOL     OW28525   3.252   0.447   6.520
 9209SOL    HW128526   3.209   0.534   6.496
 9209SOL    HW228527   3.323   0.464   6.589
 9210SOL     OW28528   0.286   1.017   2.906
 9210SOL    HW128529   0.272   1.014   2.807
 9210SOL    HW228530   0.256   0.930   2.946
 9211SOL     OW28531   0.306   2.405   4.805
 9211SOL    HW128532   0.357   2.424   4.889
 9211SOL    HW228533   0.354   2.444   4.727
 9212SOL     OW28534   4.949   5.256   4.509
 9212SOL    HW128535   4.937   5.163   4.475
 9212SOL    HW228536   4.950   5.256   4.609
 9213SOL     OW28537   5.161   3.636   5.731
 9213SOL    HW128538   5.259   3.616   5.739
 9213SOL    HW228539   5.138   3.713   5.790
 9214SOL     OW28540   0.008   4.152   6.420
 9214SOL    HW128541   0.067   4.076   6.395
 9214SOL    HW228542   0.061   4.237   6.421
 9215SOL     OW28543   1.148   2.459   0.619
 9215SOL    HW128544   1.219   2.390   0.607
 9215SOL    HW228545   1.062   2.427   0.578
 9216SOL     OW28546   2.565   0.093   2.498
 9216SOL    HW128547   2.622   0.144   2.434
 9216SOL    HW228548   2.469   0.101   2.471
 9217SOL     OW28549   0.683   1.575   0.052
 9217SOL    HW128550   0.637   1.528   6.996
 9217SOL    HW228551   0.689   1.513   0.130
 9218SOL     OW28552   2.697   6.809   0.472
 9218SOL    HW128553   2.661   6.748   0.401
 9218SOL    HW228554   2.638   6.889   0.481
 9219SOL     OW28555   0.054   2.512   1.308
 9219SOL    HW128556   0.046   2.463   1.394
 9219SOL    HW228557   0.016   2.604   1.317
 9220SOL     OW28558   1.781   6.524   0.702
 9220SOL    HW128559   1.862   6.583   0.701
 9220SOL    HW228560   1.727   6.545   0.784
 9221SOL     OW28561   3.022   0.889   4.023
 9221SOL    HW128562   3.054   0.864   3.932
 9221SOL    HW228563   3.099   0.924   4.077
 9222SOL     OW28564   2.098   0.339   6.086
 9222SOL    HW128565   2.178   0.365   6.140
 9222SOL    HW228566   2.047   0.421   6.061
 9223SOL     OW28567   1.363   1.030   4.065
 9223SOL    HW128568   1.333   0.935   4.060
 9223SOL    HW228569   1.461   1.034   4.088
 9224SOL     OW28570   2.087   5.276   5.041
 9224SOL    HW128571   2.120   5.340   5.111
 9224SOL    HW228572   2.003   5.312   5.000
 9225SOL     OW28573   3.468   6.304   6.293
 9225SOL    HW128574   3.424   6.268   6.211
 9225SOL    HW228575   3.443   6.248   6.372
 9226SOL     OW28576   5.666   0.085   1.773
 9226SOL    HW128577   5.608   0.143   1.716
 9226SOL    HW228578   5.632   0.087   1.867
 9227SOL     OW28579   0.987   4.915   1.261
 9227SOL    HW128580   1.076   4.876   1.285
 9227SOL    HW228581   0.914   4.856   1.295
 9228SOL     OW28582   1.425   1.073   5.813
 9228SOL    HW128583   1.445   1.013   5.735
 9228SOL    HW228584   1.357   1.141   5.786
 9229SOL     OW28585   1.199   5.144   4.602
 9229SOL    HW128586   1.299   5.148   4.599
 9229SOL    HW228587   1.162   5.196   4.525
 9230SOL     OW28588   5.112   1.340   3.294
 9230SOL    HW128589   5.121   1.354   3.195
 9230SOL    HW228590   5.169   1.262   3.322
 9231SOL     OW28591   1.153   4.706   4.676
 9231SOL    HW128592   1.178   4.730   4.583
 9231SOL    HW228593   1.212   4.632   4.708
 9232SOL     OW28594   3.596   5.301   6.707
 9232SOL    HW128595   3.631   5.273   6.796
 9232SOL    HW228596   3.657   5.370   6.667
 9233SOL     OW28597   5.366   5.245   1.739
 9233SOL    HW128598   5.449   5.270   1.689
 9233SOL    HW228599   5.376   5.270   1.835
 9234SOL     OW28600   3.393   5.131   5.393
 9234SOL    HW128601   3.359   5.169   5.307
 9234SOL    HW228602   3.355   5.040   5.408
 9235SOL     OW28603   1.360   2.766   3.597
 9235SOL    HW128604   1.350   2.865   3.596
 9235SOL    HW228605   1.455   2.741   3.615
 9236SOL     OW28606   2.967   4.170   5.614
 9236SOL    HW128607   3.016   4.095   5.657
 9236SOL    HW228608   2.933   4.233   5.684
 9237SOL     OW28609   2.155   5.659   4.976
 9237SOL    HW128610   2.187   5.589   5.041
 9237SOL    HW228611   2.153   5.620   4.884
 9238SOL     OW28612   3.922   1.417   6.596
 9238SOL    HW128613   3.971   1.404   6.682
 9238SOL    HW228614   3.925   1.332   6.543
 9239SOL     OW28615   0.134   4.115   0.521
 9239SOL    HW128616   0.172   4.024   0.504
 9239SOL    HW228617   0.198   4.184   0.488
 9240SOL     OW28618   4.949   1.792   0.773
 9240SOL    HW128619   4.941   1.746   0.685
 9240SOL    HW228620   4.943   1.724   0.847
 9241SOL     OW28621   0.411   5.197   5.935
 9241SOL    HW128622   0.339   5.135   5.965
 9241SOL    HW228623   0.380   5.292   5.944
 9242SOL     OW28624   0.002   5.515   0.489
 9242SOL    HW128625   0.090   5.474   0.511
 9242SOL    HW228626   6.987   5.565   0.569
 9243SOL     OW28627   5.816   0.122   2.422
 9243SOL    HW128628   5.728   0.169   2.424
 9243SOL    HW228629   5.886   0.184   2.385
 9244SOL     OW28630   4.886   4.610   6.563
 9244SOL    HW128631   4.820   4.678   6.593
 9244SOL    HW228632   4.940   4.647   6.487
 9245SOL     OW28633   2.351   4.945   3.668
 9245SOL    HW128634   2.417   4.923   3.596
 9245SOL    HW228635   2.294   4.865   3.687
 9246SOL     OW28636   0.209   4.367   2.923
 9246SOL    HW128637   0.270   4.347   3.000
 9246SOL    HW228638   0.153   4.446   2.945
 9247SOL     OW28639   0.760   0.022   3.174
 9247SOL    HW128640   0.705   0.088   3.122
 9247SOL    HW228641   0.754   6.952   3.132
 9248SOL     OW28642   1.653   2.834   5.916
 9248SOL    HW128643   1.659   2.934   5.916
 9248SOL    HW228644   1.742   2.795   5.942
 9249SOL     OW28645   4.983   3.577   6.748
 9249SOL    HW128646   4.937   3.488   6.753
 9249SOL    HW228647   4.921   3.647   6.782
 9250SOL     OW28648   5.510   3.372   4.878
 9250SOL    HW128649   5.576   3.354   4.951
 9250SOL    HW228650   5.494   3.470   4.871
 9251SOL     OW28651   3.821   2.157   3.051
 9251SOL    HW128652   3.814   2.231   2.983
 9251SOL    HW228653   3.730   2.119   3.068
 9252SOL     OW28654   5.778   0.064   4.032
 9252SOL    HW128655   5.876   0.071   4.053
 9252SOL    HW228656   5.765   0.068   3.933
 9253SOL     OW28657   5.950   6.244   5.845
 9253SOL    HW128658   5.865   6.202   5.814
 9253SOL    HW228659   5.949   6.250   5.945
 9254SOL     OW28660   6.619   4.558   2.546
 9254SOL    HW128661   6.534   4.518   2.580
 9254SOL    HW228662   6.601   4.609   2.462
 9255SOL     OW28663   4.897   3.978   0.642
 9255SOL    HW128664   4.928   3.939   0.554
 9255SOL    HW228665   4.969   4.038   0.678
 9256SOL     OW28666   3.496   5.543   2.943
 9256SOL    HW128667   3.447   5.534   3.030
 9256SOL    HW228668   3.433   5.531   2.867
 9257SOL     OW28669   0.448   3.432   3.123
 9257SOL    HW128670   0.528   3.447   3.181
 9257SOL    HW228671   0.366   3.458   3.174
 9258SOL     OW28672   3.556   2.938   3.152
 9258SOL    HW128673   3.617   2.997   3.205
 9258SOL    HW228674   3.469   2.928   3.199
 9259SOL     OW28675   1.167   1.751   0.677
 9259SOL    HW128676   1.186   1.661   0.716
 9259SOL    HW228677   1.228   1.767   0.599
 9260SOL     OW28678   4.871   1.645   5.373
 9260SOL    HW128679   4.802   1.617   5.439
 9260SOL    HW228680   4.941   1.699   5.420
 9261SOL     OW28681   5.008   0.720   6.436
 9261SOL    HW128682   5.019   0.742   6.339
 9261SOL    HW228683   4.956   0.793   6.481
 9262SOL     OW28684   6.607   3.013   5.191
 9262SOL    HW128685   6.582   3.069   5.270
 9262SOL    HW228686   6.622   2.919   5.220
 9263SOL     OW28687   5.678   4.893   1.404
 9263SOL    HW128688   5.776   4.891   1.386
 9263SOL    HW228689   5.639   4.802   1.389
 9264SOL     OW28690   5.446   4.068   0.473
 9264SOL    HW128691   5.348   4.075   0.493
 9264SOL    HW228692   5.498   4.105   0.550
 9265SOL     OW28693   2.545   1.682   6.918
 9265SOL    HW128694   2.574   1.720   7.006
 9265SOL    HW228695   2.623   1.640   6.872
 9266SOL     OW28696   2.250   6.628   2.334
 9266SOL    HW128697   2.267   6.564   2.409
 9266SOL    HW228698   2.311   6.707   2.343
 9267SOL     OW28699   6.943   4.280   5.994
 9267SOL    HW128700   6.915   4.275   6.089
 9267SOL    HW228701   6.874   4.236   5.936
 9268SOL     OW28702   1.781   5.282   1.043
 9268SOL    HW128703   1.837   5.294   0.960
 9268SOL    HW228704   1.766   5.371   1.086
 9269SOL     OW28705   3.236   2.385   6.116
 9269SOL    HW128706   3.255   2.334   6.032
 9269SOL    HW228707   3.140   2.370   6.142
 9270SOL     OW28708   5.025   6.972   6.010
 9270SOL    HW128709   5.031   0.044   5.971
 9270SOL    HW228710   5.099   6.959   6.076
 9271SOL     OW28711   1.621   5.367   0.072
 9271SOL    HW128712   1.716   5.341   0.055
 9271SOL    HW228713   1.601   5.453   0.025
 9272SOL     OW28714   2.046   5.461   5.721
 9272SOL    HW128715   2.141   5.482   5.744
 9272SOL    HW228716   1.985   5.527   5.764
 9273SOL     OW28717   5.558   6.015   4.041
 9273SOL    HW128718   5.489   5.943   4.043
 9273SOL    HW228719   5.645   5.978   4.008
 9274SOL     OW28720   6.319   2.958   0.066
 9274SOL    HW128721   6.289   2.939   0.159
 9274SOL    HW228722   6.348   2.872   0.023
 9275SOL     OW28723   0.103   2.357   6.876
 9275SOL    HW128724   0.192   2.395   6.902
 9275SOL    HW228725   0.101   2.259   6.897
 9276SOL     OW28726   3.037   4.845   3.782
 9276SOL    HW128727   3.066   4.880   3.871
 9276SOL    HW228728   3.113   4.849   3.718
 9277SOL     OW28729   4.934   3.512   0.643
 9277SOL    HW128730   4.933   3.590   0.705
 9277SOL    HW228731   4.897   3.540   0.554
 9278SOL     OW28732   1.222   0.887   4.454
 9278SOL    HW128733   1.186   0.816   4.515
 9278SOL    HW228734   1.206   0.977   4.494
 9279SOL     OW28735   3.975   0.742   1.629
 9279SOL    HW128736   3.942   0.816   1.686
 9279SOL    HW228737   3.909   0.722   1.556
 9280SOL     OW28738   1.362   0.668   3.023
 9280SOL    HW128739   1.400   0.577   3.040
 9280SOL    HW228740   1.316   0.668   2.934
 9281SOL     OW28741   3.258   4.294   1.365
 9281SOL    HW128742   3.221   4.239   1.440
 9281SOL    HW228743   3.290   4.233   1.292
 9282SOL     OW28744   4.577   2.099   5.024
 9282SOL    HW128745   4.524   2.018   5.001
 9282SOL    HW228746   4.640   2.121   4.950
 9283SOL     OW28747   5.332   0.489   3.705
 9283SOL    HW128748   5.263   0.421   3.731
 9283SOL    HW228749   5.421   0.461   3.740
 9284SOL     OW28750   3.325   4.773   6.067
 9284SOL    HW128751   3.353   4.756   5.972
 9284SOL    HW228752   3.285   4.690   6.106
 9285SOL     OW28753   4.933   3.061   0.823
 9285SOL    HW128754   4.895   3.088   0.912
 9285SOL    HW228755   4.989   2.979   0.834
 9286SOL     OW28756   5.333   0.255   6.040
 9286SOL    HW128757   5.234   0.259   6.023
 9286SOL    HW228758   5.378   0.331   5.993
 9287SOL     OW28759   3.074   4.913   0.313
 9287SOL    HW128760   3.054   5.010   0.299
 9287SOL    HW228761   3.109   4.874   0.228
 9288SOL     OW28762   3.470   1.171   5.179
 9288SOL    HW128763   3.565   1.148   5.161
 9288SOL    HW228764   3.459   1.200   5.274
 9289SOL     OW28765   3.543   2.056   2.694
 9289SOL    HW128766   3.475   2.118   2.733
 9289SOL    HW228767   3.497   1.981   2.647
 9290SOL     OW28768   4.990   1.728   3.704
 9290SOL    HW128769   5.036   1.643   3.677
 9290SOL    HW228770   4.966   1.781   3.622
 9291SOL     OW28771   2.627   0.006   5.400
 9291SOL    HW128772   2.725   0.022   5.410
 9291SOL    HW228773   2.606   7.009   5.303
 9292SOL     OW28774   0.501   3.071   6.512
 9292SOL    HW128775   0.585   3.106   6.470
 9292SOL    HW228776   0.431   3.059   6.441
 9293SOL     OW28777   6.248   4.088   0.629
 9293SOL    HW128778   6.255   3.991   0.653
 9293SOL    HW228779   6.308   4.108   0.551
 9294SOL     OW28780   3.881   6.699   5.405
 9294SOL    HW128781   3.839   6.737   5.487
 9294SOL    HW228782   3.972   6.739   5.392
 9295SOL     OW28783   5.483   2.392   4.341
 9295SOL    HW128784   5.432   2.446   4.407
 9295SOL    HW228785   5.421   2.325   4.298
 9296SOL     OW28786   0.699   6.475   6.519
 9296SOL    HW128787   0.757   6.401   6.485
 9296SOL    HW228788   0.746   6.562   6.507
 9297SOL     OW28789   6.621   0.775   0.549
 9297SOL    HW128790   6.635   0.678   0.570
 9297SOL    HW228791   6.545   0.784   0.486
 9298SOL     OW28792   1.363   0.337   5.343
 9298SOL    HW128793   1.277   0.334   5.394
 9298SOL    HW228794   1.435   0.373   5.402
 9299SOL     OW28795   1.015   2.827   4.905
 9299SOL    HW128796   1.092   2.781   4.950
 9299SOL    HW228797   0.946   2.850   4.972
 9300SOL     OW28798   6.938   4.662   5.053
 9300SOL    HW128799   7.003   4.604   5.003
 9300SOL    HW228800   6.850   4.614   5.059
 9301SOL     OW28801   4.750   4.197   3.604
 9301SOL    HW128802   4.788   4.136   3.674
 9301SOL    HW228803   4.783   4.170   3.514
 9302SOL     OW28804   2.056   3.188   4.441
 9302SOL    HW128805   2.115   3.198   4.521
 9302SOL    HW228806   1.996   3.109   4.454
 9303SOL     OW28807   4.066   6.282   0.968
 9303SOL    HW128808   3.976   6.288   0.924
 9303SOL    HW228809   4.123   6.357   0.936
 9304SOL     OW28810   4.896   4.351   0.754
 9304SOL    HW128811   4.905   4.257   0.786
 9304SOL    HW228812   4.867   4.410   0.828
 9305SOL     OW28813   3.802   1.734   2.257
 9305SOL    HW128814   3.744   1.815   2.264
 9305SOL    HW228815   3.897   1.760   2.278
 9306SOL     OW28816   0.389   4.435   5.267
 9306SOL    HW128817   0.305   4.477   5.302
 9306SOL    HW228818   0.426   4.493   5.194
 9307SOL     OW28819   1.236   3.573   1.780
 9307SOL    HW128820   1.192   3.616   1.701
 9307SOL    HW228821   1.270   3.483   1.754
 9308SOL     OW28822   1.134   4.197   0.914
 9308SOL    HW128823   1.176   4.280   0.877
 9308SOL    HW228824   1.070   4.222   0.986
 9309SOL     OW28825   3.261   4.878   5.430
 9309SOL    HW128826   3.294   4.821   5.355
 9309SOL    HW228827   3.163   4.893   5.420
 9310SOL     OW28828   5.016   5.144   6.408
 9310SOL    HW128829   5.072   5.066   6.379
 9310SOL    HW228830   5.074   5.214   6.449
 9311SOL     OW28831   5.134   5.074   1.803
 9311SOL    HW128832   5.233   5.078   1.821
 9311SOL    HW228833   5.097   5.167   1.798
 9312SOL     OW28834   1.490   3.895   1.569
 9312SOL    HW128835   1.507   3.837   1.648
 9312SOL    HW228836   1.502   3.991   1.595
 9313SOL     OW28837   6.946   0.702   0.836
 9313SOL    HW128838   0.017   0.706   0.878
 9313SOL    HW228839   6.950   0.737   0.743
 9314SOL     OW28840   4.428   5.820   6.039
 9314SOL    HW128841   4.449   5.880   5.962
 9314SOL    HW228842   4.394   5.732   6.004
 9315SOL     OW28843   6.521   0.748   5.284
 9315SOL    HW128844   6.556   0.841   5.282
 9315SOL    HW228845   6.472   0.728   5.199
 9316SOL     OW28846   4.029   5.251   5.493
 9316SOL    HW128847   4.105   5.198   5.531
 9316SOL    HW228848   4.060   5.343   5.472
 9317SOL     OW28849   6.622   5.227   3.445
 9317SOL    HW128850   6.678   5.219   3.528
 9317SOL    HW228851   6.561   5.148   3.439
 9318SOL     OW28852   6.240   0.544   5.450
 9318SOL    HW128853   6.267   0.631   5.408
 9318SOL    HW228854   6.299   0.525   5.529
 9319SOL     OW28855   0.711   2.745   6.462
 9319SOL    HW128856   0.759   2.801   6.394
 9319SOL    HW228857   0.739   2.650   6.452
 9320SOL     OW28858   4.042   1.001   6.349
 9320SOL    HW128859   4.068   0.983   6.254
 9320SOL    HW228860   4.102   0.950   6.411
 9321SOL     OW28861   6.448   0.410   2.645
 9321SOL    HW128862   6.416   0.408   2.739
 9321SOL    HW228863   6.386   0.356   2.587
 9322SOL     OW28864   0.530   5.191   6.474
 9322SOL    HW128865   0.506   5.256   6.402
 9322SOL    HW228866   0.574   5.240   6.549
 9323SOL     OW28867   1.548   0.049   5.260
 9323SOL    HW128868   1.463   0.100   5.262
 9323SOL    HW228869   1.559   7.017   5.346
 9324SOL     OW28870   2.083   5.043   0.328
 9324SOL    HW128871   2.173   5.059   0.288
 9324SOL    HW228872   2.073   4.946   0.351
 9325SOL     OW28873   4.972   1.201   6.885
 9325SOL    HW128874   5.004   1.160   6.800
 9325SOL    HW228875   5.049   1.220   6.945
 9326SOL     OW28876   1.877   6.907   0.954
 9326SOL    HW128877   1.799   6.896   1.016
 9326SOL    HW228878   1.959   6.872   0.998
 9327SOL     OW28879   5.145   6.903   2.940
 9327SOL    HW128880   5.089   6.960   2.999
 9327SOL    HW228881   5.227   6.953   2.912
 9328SOL     OW28882   3.329   1.321   5.849
 9328SOL    HW128883   3.384   1.403   5.835
 9328SOL    HW228884   3.349   1.255   5.776
 9329SOL     OW28885   6.746   4.034   2.299
 9329SOL    HW128886   6.740   4.081   2.387
 9329SOL    HW228887   6.698   4.087   2.229
 9330SOL     OW28888   0.227   6.371   6.994
 9330SOL    HW128889   0.326   6.364   6.982
 9330SOL    HW228890   0.188   6.426   6.921
 9331SOL     OW28891   1.323   1.988   6.050
 9331SOL    HW128892   1.401   1.929   6.075
 9331SOL    HW228893   1.277   2.018   6.133
 9332SOL     OW28894   3.766   3.894   2.754
 9332SOL    HW128895   3.788   3.954   2.831
 9332SOL    HW228896   3.729   3.808   2.789
 9333SOL     OW28897   4.368   3.957   1.395
 9333SOL    HW128898   4.269   3.939   1.398
 9333SOL    HW228899   4.388   4.018   1.317
 9334SOL     OW28900   4.564   5.999   3.862
 9334SOL    HW128901   4.640   5.952   3.818
 9334SOL    HW228902   4.598   6.055   3.937
 9335SOL     OW28903   0.791   1.615   6.028
 9335SOL    HW128904   0.796   1.685   5.958
 9335SOL    HW228905   0.696   1.600   6.055
 9336SOL     OW28906   3.006   5.403   5.552
 9336SOL    HW128907   3.061   5.321   5.568
 9336SOL    HW228908   2.910   5.378   5.539
 9337SOL     OW28909   4.645   0.841   3.353
 9337SOL    HW128910   4.616   0.845   3.448
 9337SOL    HW228911   4.718   0.908   3.337
 9338SOL     OW28912   3.826   0.614   1.932
 9338SOL    HW128913   3.768   0.694   1.915
 9338SOL    HW228914   3.824   0.591   2.029
 9339SOL     OW28915   5.556   6.699   1.073
 9339SOL    HW128916   5.605   6.786   1.078
 9339SOL    HW228917   5.558   6.664   0.979
 9340SOL     OW28918   6.000   3.814   4.919
 9340SOL    HW128919   6.016   3.883   4.849
 9340SOL    HW228920   6.082   3.757   4.928
 9341SOL     OW28921   0.100   5.783   6.719
 9341SOL    HW128922   0.023   5.796   6.656
 9341SOL    HW228923   0.117   5.685   6.731
 9342SOL     OW28924   2.185   0.419   3.853
 9342SOL    HW128925   2.212   0.453   3.763
 9342SOL    HW228926   2.149   0.495   3.908
 9343SOL     OW28927   5.825   4.459   3.070
 9343SOL    HW128928   5.801   4.365   3.091
 9343SOL    HW228929   5.754   4.499   3.012
 9344SOL     OW28930   4.824   6.431   1.833
 9344SOL    HW128931   4.870   6.342   1.825
 9344SOL    HW228932   4.824   6.460   1.928
 9345SOL     OW28933   6.326   4.092   2.237
 9345SOL    HW128934   6.401   4.102   2.172
 9345SOL    HW228935   6.303   3.995   2.247
 9346SOL     OW28936   6.141   0.724   0.961
 9346SOL    HW128937   6.123   0.822   0.965
 9346SOL    HW228938   6.167   0.698   0.867
 9347SOL     OW28939   1.236   4.880   1.402
 9347SOL    HW128940   1.314   4.840   1.354
 9347SOL    HW228941   1.226   4.976   1.376
 9348SOL     OW28942   3.917   5.666   1.736
 9348SOL    HW128943   3.858   5.724   1.681
 9348SOL    HW228944   3.887   5.571   1.728
 9349SOL     OW28945   1.239   6.365   2.522
 9349SOL    HW128946   1.223   6.310   2.440
 9349SOL    HW228947   1.334   6.355   2.551
 9350SOL     OW28948   0.699   3.555   5.445
 9350SOL    HW128949   0.759   3.475   5.450
 9350SOL    HW228950   0.712   3.601   5.357
 9351SOL     OW28951   3.022   0.949   6.287
 9351SOL    HW128952   3.085   0.943   6.364
 9351SOL    HW228953   3.065   1.001   6.213
 9352SOL     OW28954   2.693   2.308   0.067
 9352SOL    HW128955   2.747   2.227   0.046
 9352SOL    HW228956   2.614   2.282   0.123
 9353SOL     OW28957   0.384   5.372   0.889
 9353SOL    HW128958   0.335   5.300   0.841
 9353SOL    HW228959   0.370   5.362   0.988
 9354SOL     OW28960   6.480   2.328   6.833
 9354SOL    HW128961   6.549   2.399   6.818
 9354SOL    HW228962   6.515   2.240   6.802
 9355SOL     OW28963   0.402   2.401   5.110
 9355SOL    HW128964   0.466   2.337   5.068
 9355SOL    HW228965   0.346   2.353   5.178
 9356SOL     OW28966   3.822   0.294   0.773
 9356SOL    HW128967   3.874   0.231   0.831
 9356SOL    HW228968   3.842   0.388   0.801
 9357SOL     OW28969   1.167   3.405   6.163
 9357SOL    HW128970   1.253   3.456   6.156
 9357SOL    HW228971   1.178   3.329   6.227
 9358SOL     OW28972   6.998   3.884   2.311
 9358SOL    HW128973   6.910   3.930   2.319
 9358SOL    HW228974   6.991   3.790   2.344
 9359SOL     OW28975   1.874   4.316   6.763
 9359SOL    HW128976   1.941   4.337   6.691
 9359SOL    HW228977   1.923   4.296   6.848
 9360SOL     OW28978   1.364   6.006   6.075
 9360SOL    HW128979   1.336   5.936   6.009
 9360SOL    HW228980   1.296   6.012   6.148
 9361SOL     OW28981   2.053   5.264   3.328
 9361SOL    HW128982   2.003   5.216   3.256
 9361SOL    HW228983   2.057   5.361   3.307
 9362SOL     OW28984   1.489   1.668   2.906
 9362SOL    HW128985   1.582   1.703   2.918
 9362SOL    HW228986   1.466   1.609   2.984
 9363SOL     OW28987   3.649   5.596   1.373
 9363SOL    HW128988   3.648   5.513   1.429
 9363SOL    HW228989   3.598   5.581   1.289
 9364SOL     OW28990   2.082   1.511   1.275
 9364SOL    HW128991   2.041   1.475   1.192
 9364SOL    HW228992   2.173   1.471   1.287
 9365SOL     OW28993   3.075   1.895   3.831
 9365SOL    HW128994   3.112   1.986   3.848
 9365SOL    HW228995   3.063   1.882   3.732
 9366SOL     OW28996   3.056   5.796   0.198
 9366SOL    HW128997   3.019   5.877   0.244
 9366SOL    HW228998   3.151   5.783   0.227
 9367SOL     OW28999   6.109   0.209   1.472
 9367SOL    HW129000   6.107   0.167   1.382
 9367SOL    HW229001   6.185   0.172   1.525
 9368SOL     OW29002   3.982   0.151   2.020
 9368SOL    HW129003   3.897   0.203   2.017
 9368SOL    HW229004   3.973   0.069   1.963
 9369SOL     OW29005   0.523   5.944   5.124
 9369SOL    HW129006   0.604   5.909   5.076
 9369SOL    HW229007   0.497   6.032   5.083
 9370SOL     OW29008   4.878   1.248   3.774
 9370SOL    HW129009   4.966   1.207   3.750
 9370SOL    HW229010   4.840   1.202   3.854
 9371SOL     OW29011   2.734   5.454   0.909
 9371SOL    HW129012   2.702   5.545   0.883
 9371SOL    HW229013   2.833   5.456   0.923
 9372SOL     OW29014   4.356   0.073   2.066
 9372SOL    HW129015   4.338   0.057   1.969
 9372SOL    HW229016   4.410   7.016   2.103
 9373SOL     OW29017   6.019   2.555   0.657
 9373SOL    HW129018   5.929   2.551   0.700
 9373SOL    HW229019   6.071   2.632   0.694
 9374SOL     OW29020   6.918   3.404   5.912
 9374SOL    HW129021   6.942   3.392   6.009
 9374SOL    HW229022   6.893   3.500   5.896
 9375SOL     OW29023   0.019   1.761   0.913
 9375SOL    HW129024   0.019   1.664   0.887
 9375SOL    HW229025   0.039   1.770   1.010
 9376SOL     OW29026   2.166   3.213   1.917
 9376SOL    HW129027   2.127   3.184   1.830
 9376SOL    HW229028   2.169   3.313   1.921
 9377SOL     OW29029   2.970   5.398   3.327
 9377SOL    HW129030   3.004   5.383   3.235
 9377SOL    HW229031   2.908   5.477   3.327
 9378SOL     OW29032   3.358   1.286   3.990
 9378SOL    HW129033   3.430   1.340   4.034
 9378SOL    HW229034   3.275   1.289   4.046
 9379SOL     OW29035   4.734   0.324   4.755
 9379SOL    HW129036   4.827   0.342   4.721
 9379SOL    HW229037   4.708   0.396   4.819
 9380SOL     OW29038   3.294   6.006   6.258
 9380SOL    HW129039   3.350   5.932   6.221
 9380SOL    HW229040   3.256   6.060   6.183
 9381SOL     OW29041   5.129   2.484   4.378
 9381SOL    HW129042   5.042   2.492   4.329
 9381SOL    HW229043   5.169   2.394   4.360
 9382SOL     OW29044   4.152   0.957   4.443
 9382SOL    HW129045   4.225   0.982   4.506
 9382SOL    HW229046   4.177   0.874   4.393
 9383SOL     OW29047   4.731   4.226   4.024
 9383SOL    HW129048   4.822   4.261   4.048
 9383SOL    HW229049   4.695   4.276   3.946
 9384SOL     OW29050   2.384   0.070   2.022
 9384SOL    HW129051   2.312   0.082   2.090
 9384SOL    HW229052   2.397   6.992   2.004
 9385SOL     OW29053   3.936   1.865   4.214
 9385SOL    HW129054   4.029   1.894   4.238
 9385SOL    HW229055   3.893   1.934   4.157
 9386SOL     OW29056   3.427   5.713   5.412
 9386SOL    HW129057   3.368   5.681   5.486
 9386SOL    HW229058   3.372   5.753   5.340
 9387SOL     OW29059   3.764   2.119   0.347
 9387SOL    HW129060   3.760   2.021   0.367
 9387SOL    HW229061   3.672   2.154   0.335
 9388SOL     OW29062   1.604   6.528   3.615
 9388SOL    HW129063   1.522   6.578   3.585
 9388SOL    HW229064   1.685   6.575   3.580
 9389SOL     OW29065   3.308   5.608   2.048
 9389SOL    HW129066   3.252   5.528   2.069
 9389SOL    HW229067   3.357   5.637   2.131
 9390SOL     OW29068   5.523   4.418   5.969
 9390SOL    HW129069   5.577   4.490   5.925
 9390SOL    HW229070   5.444   4.396   5.912
 9391SOL     OW29071   0.820   0.425   4.896
 9391SOL    HW129072   0.904   0.374   4.913
 9391SOL    HW229073   0.746   0.362   4.875
 9392SOL     OW29074   4.883   4.509   3.644
 9392SOL    HW129075   4.817   4.434   3.644
 9392SOL    HW229076   4.930   4.512   3.556
 9393SOL     OW29077   2.889   6.234   6.333
 9393SOL    HW129078   2.905   6.190   6.245
 9393SOL    HW229079   2.818   6.185   6.383
 9394SOL     OW29080   5.697   0.455   1.289
 9394SOL    HW129081   5.795   0.469   1.281
 9394SOL    HW229082   5.652   0.482   1.204
 9395SOL     OW29083   2.416   1.350   0.792
 9395SOL    HW129084   2.428   1.338   0.891
 9395SOL    HW229085   2.327   1.391   0.774
 9396SOL     OW29086   2.103   5.840   5.629
 9396SOL    HW129087   2.078   5.769   5.695
 9396SOL    HW229088   2.197   5.870   5.645
 9397SOL     OW29089   3.398   6.580   6.316
 9397SOL    HW129090   3.402   6.628   6.403
 9397SOL    HW229091   3.402   6.481   6.332
 9398SOL     OW29092   6.297   1.069   6.063
 9398SOL    HW129093   6.269   1.143   6.123
 9398SOL    HW229094   6.393   1.080   6.037
 9399SOL     OW29095   1.158   2.415   3.867
 9399SOL    HW129096   1.203   2.335   3.827
 9399SOL    HW229097   1.214   2.451   3.942
 9400SOL     OW29098   4.871   0.905   0.251
 9400SOL    HW129099   4.885   0.896   0.350
 9400SOL    HW229100   4.784   0.861   0.226
 9401SOL     OW29101   0.349   2.853   1.882
 9401SOL    HW129102   0.323   2.774   1.827
 9401SOL    HW229103   0.267   2.895   1.920
 9402SOL     OW29104   2.044   5.334   3.938
 9402SOL    HW129105   2.055   5.434   3.945
 9402SOL    HW229106   2.124   5.295   3.893
 9403SOL     OW29107   0.046   1.268   2.373
 9403SOL    HW129108   0.139   1.287   2.404
 9403SOL    HW229109   0.011   1.186   2.418
 9404SOL     OW29110   0.795   3.128   1.222
 9404SOL    HW129111   0.757   3.152   1.133
 9404SOL    HW229112   0.745   3.049   1.259
 9405SOL     OW29113   0.352   4.697   4.957
 9405SOL    HW129114   0.368   4.648   4.871
 9405SOL    HW229115   0.265   4.666   4.997
 9406SOL     OW29116   1.041   3.008   6.694
 9406SOL    HW129117   1.109   2.951   6.648
 9406SOL    HW229118   1.067   3.104   6.684
 9407SOL     OW29119   2.706   5.123   5.151
 9407SOL    HW129120   2.676   5.030   5.133
 9407SOL    HW229121   2.734   5.166   5.065
 9408SOL     OW29122   6.756   3.220   5.419
 9408SOL    HW129123   6.774   3.241   5.323
 9408SOL    HW229124   6.843   3.208   5.467
 9409SOL     OW29125   6.968   5.654   2.062
 9409SOL    HW129126   6.901   5.596   2.109
 9409SOL    HW229127   6.975   5.742   2.111
 9410SOL     OW29128   4.805   0.990   1.880
 9410SOL    HW129129   4.836   1.044   1.958
 9410SOL    HW229130   4.882   0.937   1.843
 9411SOL     OW29131   3.027   3.241   3.301
 9411SOL    HW129132   3.051   3.176   3.229
 9411SOL    HW229133   3.074   3.215   3.386
 9412SOL     OW29134   0.896   0.552   1.048
 9412SOL    HW129135   0.849   0.628   1.094
 9412SOL    HW229136   0.848   0.467   1.069
 9413SOL     OW29137   4.605   4.876   4.663
 9413SOL    HW129138   4.607   4.927   4.748
 9413SOL    HW229139   4.517   4.831   4.652
 9414SOL     OW29140   2.326   2.265   4.740
 9414SOL    HW129141   2.271   2.300   4.817
 9414SOL    HW229142   2.419   2.299   4.749
 9415SOL     OW29143   3.079   0.853   1.891
 9415SOL    HW129144   3.092   0.806   1.804
 9415SOL    HW229145   2.995   0.820   1.935
 9416SOL     OW29146   0.180   0.055   5.560
 9416SOL    HW129147   0.186   0.140   5.508
 9416SOL    HW229148   0.121   7.010   5.512
 9417SOL     OW29149   3.265   6.397   1.344
 9417SOL    HW129150   3.364   6.397   1.356
 9417SOL    HW229151   3.223   6.451   1.417
 9418SOL     OW29152   3.103   1.415   3.573
 9418SOL    HW129153   3.168   1.385   3.642
 9418SOL    HW229154   3.138   1.497   3.528
 9419SOL     OW29155   2.428   2.545   6.375
 9419SOL    HW129156   2.402   2.478   6.445
 9419SOL    HW229157   2.492   2.503   6.311
 9420SOL     OW29158   5.662   4.462   0.616
 9420SOL    HW129159   5.702   4.521   0.686
 9420SOL    HW229160   5.732   4.440   0.547
 9421SOL     OW29161   3.837   6.048   4.867
 9421SOL    HW129162   3.750   6.083   4.901
 9421SOL    HW229163   3.881   6.116   4.809
 9422SOL     OW29164   2.523   6.077   4.324
 9422SOL    HW129165   2.592   6.078   4.252
 9422SOL    HW229166   2.538   5.999   4.384
 9423SOL     OW29167   4.027   5.662   3.037
 9423SOL    HW129168   3.933   5.650   3.068
 9423SOL    HW229169   4.030   5.658   2.937
 9424SOL     OW29170   5.241   1.770   4.334
 9424SOL    HW129171   5.263   1.690   4.277
 9424SOL    HW229172   5.324   1.803   4.378
 9425SOL     OW29173   5.940   4.806   1.364
 9425SOL    HW129174   5.992   4.824   1.280
 9425SOL    HW229175   5.953   4.711   1.392
 9426SOL     OW29176   0.811   2.130   6.330
 9426SOL    HW129177   0.753   2.092   6.258
 9426SOL    HW229178   0.757   2.191   6.388
 9427SOL     OW29179   2.856   5.729   2.851
 9427SOL    HW129180   2.800   5.769   2.924
 9427SOL    HW229181   2.953   5.742   2.873
 9428SOL     OW29182   6.212   6.116   0.255
 9428SOL    HW129183   6.190   6.050   0.326
 9428SOL    HW229184   6.238   6.068   0.172
 9429SOL     OW29185   1.567   2.428   3.952
 9429SOL    HW129186   1.579   2.412   3.855
 9429SOL    HW229187   1.567   2.341   4.001
 9430SOL     OW29188   0.573   2.129   4.470
 9430SOL    HW129189   0.606   2.051   4.418
 9430SOL    HW229190   0.611   2.213   4.432
 9431SOL     OW29191   0.059   4.385   0.934
 9431SOL    HW129192   0.023   4.294   0.913
 9431SOL    HW229193   0.133   4.377   1.001
 9432SOL     OW29194   6.614   1.341   3.702
 9432SOL    HW129195   6.640   1.371   3.611
 9432SOL    HW229196   6.516   1.356   3.716
 9433SOL     OW29197   3.846   5.760   2.712
 9433SOL    HW129198   3.914   5.689   2.728
 9433SOL    HW229199   3.755   5.722   2.723
 9434SOL     OW29200   5.622   5.211   4.210
 9434SOL    HW129201   5.593   5.150   4.284
 9434SOL    HW229202   5.569   5.296   4.215
 9435SOL     OW29203   0.668   2.657   2.518
 9435SOL    HW129204   0.698   2.637   2.611
 9435SOL    HW229205   0.725   2.730   2.480
 9436SOL     OW29206   0.633   1.164   2.324
 9436SOL    HW129207   0.612   1.145   2.420
 9436SOL    HW229208   0.651   1.262   2.313
 9437SOL     OW29209   0.421   5.034   3.367
 9437SOL    HW129210   0.364   5.109   3.400
 9437SOL    HW229211   0.516   5.050   3.395
 9438SOL     OW29212   2.114   6.532   1.526
 9438SOL    HW129213   2.060   6.611   1.498
 9438SOL    HW229214   2.054   6.454   1.540
 9439SOL     OW29215   0.980   2.757   0.486
 9439SOL    HW129216   0.916   2.830   0.512
 9439SOL    HW229217   1.073   2.793   0.486
 9440SOL     OW29218   3.067   5.205   3.646
 9440SOL    HW129219   3.089   5.152   3.728
 9440SOL    HW229220   3.059   5.302   3.670
 9441SOL     OW29221   6.385   5.831   4.731
 9441SOL    HW129222   6.298   5.832   4.682
 9441SOL    HW229223   6.435   5.747   4.708
 9442SOL     OW29224   4.778   3.647   1.022
 9442SOL    HW129225   4.698   3.675   0.969
 9442SOL    HW229226   4.789   3.548   1.015
 9443SOL     OW29227   3.319   5.495   1.648
 9443SOL    HW129228   3.415   5.479   1.670
 9443SOL    HW229229   3.302   5.593   1.641
 9444SOL     OW29230   2.169   3.704   0.708
 9444SOL    HW129231   2.087   3.743   0.665
 9444SOL    HW229232   2.169   3.726   0.806
 9445SOL     OW29233   0.539   1.695   4.086
 9445SOL    HW129234   0.591   1.779   4.071
 9445SOL    HW229235   0.568   1.654   4.173
 9446SOL     OW29236   6.373   5.207   3.938
 9446SOL    HW129237   6.319   5.223   4.021
 9446SOL    HW229238   6.455   5.154   3.961
 9447SOL     OW29239   5.269   5.530   2.751
 9447SOL    HW129240   5.282   5.551   2.654
 9447SOL    HW229241   5.189   5.472   2.763
 9448SOL     OW29242   5.898   0.096   5.817
 9448SOL    HW129243   5.830   0.147   5.869
 9448SOL    HW229244   5.886   0.112   5.719
 9449SOL     OW29245   5.263   6.719   0.029
 9449SOL    HW129246   5.197   6.737   6.976
 9449SOL    HW229247   5.256   6.790   0.099
 9450SOL     OW29248   1.487   5.730   4.504
 9450SOL    HW129249   1.530   5.643   4.527
 9450SOL    HW229250   1.391   5.727   4.531
 9451SOL     OW29251   3.358   5.460   6.140
 9451SOL    HW129252   3.271   5.502   6.163
 9451SOL    HW229253   3.431   5.528   6.148
 9452SOL     OW29254   0.679   4.155   1.176
 9452SOL    HW129255   0.676   4.253   1.154
 9452SOL    HW229256   0.586   4.121   1.190
 9453SOL     OW29257   3.497   4.947   3.317
 9453SOL    HW129258   3.565   4.959   3.389
 9453SOL    HW229259   3.542   4.913   3.234
 9454SOL     OW29260   4.672   4.359   0.965
 9454SOL    HW129261   4.652   4.268   0.928
 9454SOL    HW229262   4.695   4.350   1.062
 9455SOL     OW29263   3.031   2.112   2.476
 9455SOL    HW129264   3.030   2.061   2.390
 9455SOL    HW229265   3.125   2.135   2.499
 9456SOL     OW29266   6.175   3.635   2.380
 9456SOL    HW129267   6.226   3.566   2.432
 9456SOL    HW229268   6.095   3.665   2.432
 9457SOL     OW29269   1.397   4.945   4.352
 9457SOL    HW129270   1.380   5.007   4.429
 9457SOL    HW229271   1.457   4.990   4.286
 9458SOL     OW29272   6.910   4.202   0.421
 9458SOL    HW129273   7.002   4.177   0.452
 9458SOL    HW229274   6.909   4.300   0.399
 9459SOL     OW29275   5.039   4.386   4.678
 9459SOL    HW129276   5.117   4.441   4.647
 9459SOL    HW229277   4.986   4.357   4.598
 9460SOL     OW29278   1.532   3.366   4.029
 9460SOL    HW129279   1.536   3.319   4.118
 9460SOL    HW229280   1.451   3.335   3.979
 9461SOL     OW29281   1.265   1.873   1.297
 9461SOL    HW129282   1.288   1.899   1.390
 9461SOL    HW229283   1.205   1.793   1.299
 9462SOL     OW29284   1.880   2.048   3.750
 9462SOL    HW129285   1.978   2.052   3.730
 9462SOL    HW229286   1.859   2.110   3.827
 9463SOL     OW29287   5.473   6.532   1.272
 9463SOL    HW129288   5.391   6.489   1.237
 9463SOL    HW229289   5.513   6.591   1.202
 9464SOL     OW29290   6.617   0.462   1.658
 9464SOL    HW129291   6.660   0.524   1.592
 9464SOL    HW229292   6.522   0.445   1.632
 9465SOL     OW29293   0.210   3.991   1.329
 9465SOL    HW129294   0.162   4.031   1.251
 9465SOL    HW229295   0.198   4.049   1.409
 9466SOL     OW29296   3.983   5.492   6.408
 9466SOL    HW129297   4.046   5.414   6.411
 9466SOL    HW229298   3.914   5.476   6.337
 9467SOL     OW29299   2.027   2.763   0.765
 9467SOL    HW129300   2.042   2.836   0.698
 9467SOL    HW229301   1.963   2.795   0.835
 9468SOL     OW29302   0.082   3.639   6.851
 9468SOL    HW129303   0.147   3.651   6.926
 9468SOL    HW229304   0.130   3.605   6.770
 9469SOL     OW29305   0.121   6.002   0.077
 9469SOL    HW129306   0.081   6.093   0.083
 9469SOL    HW229307   0.058   5.941   0.030
 9470SOL     OW29308   4.687   4.164   0.100
 9470SOL    HW129309   4.761   4.111   0.141
 9470SOL    HW229310   4.696   4.260   0.126
 9471SOL     OW29311   6.099   2.172   5.125
 9471SOL    HW129312   6.122   2.075   5.123
 9471SOL    HW229313   6.039   2.194   5.048
 9472SOL     OW29314   1.336   4.782   6.159
 9472SOL    HW129315   1.344   4.759   6.062
 9472SOL    HW229316   1.241   4.773   6.189
 9473SOL     OW29317   2.849   3.942   0.102
 9473SOL    HW129318   2.880   3.877   0.173
 9473SOL    HW229319   2.757   3.974   0.123
 9474SOL     OW29320   5.745   3.901   1.798
 9474SOL    HW129321   5.647   3.909   1.816
 9474SOL    HW229322   5.796   3.944   1.873
 9475SOL     OW29323   4.816   3.651   5.885
 9475SOL    HW129324   4.815   3.562   5.839
 9475SOL    HW229325   4.911   3.678   5.901
 9476SOL     OW29326   3.928   4.332   5.746
 9476SOL    HW129327   3.836   4.371   5.740
 9476SOL    HW229328   3.996   4.404   5.730
 9477SOL     OW29329   1.974   3.479   1.885
 9477SOL    HW129330   2.047   3.502   1.950
 9477SOL    HW229331   1.997   3.517   1.795
 9478SOL     OW29332   4.705   2.474   0.993
 9478SOL    HW129333   4.713   2.556   1.049
 9478SOL    HW229334   4.763   2.402   1.031
 9479SOL     OW29335   4.311   0.902   1.272
 9479SOL    HW129336   4.371   0.901   1.352
 9479SOL    HW229337   4.366   0.908   1.189
 9480SOL     OW29338   5.612   5.627   0.229
 9480SOL    HW129339   5.616   5.593   0.135
 9480SOL    HW229340   5.522   5.606   0.268
 9481SOL     OW29341   4.351   1.565   3.429
 9481SOL    HW129342   4.316   1.557   3.522
 9481SOL    HW229343   4.446   1.537   3.426
 9482SOL     OW29344   5.711   0.866   0.871
 9482SOL    HW129345   5.665   0.935   0.814
 9482SOL    HW229346   5.736   0.788   0.814
 9483SOL     OW29347   0.580   0.667   6.784
 9483SOL    HW129348   0.648   0.682   6.711
 9483SOL    HW229349   0.540   0.576   6.774
 9484SOL     OW29350   2.737   6.475   4.566
 9484SOL    HW129351   2.729   6.392   4.512
 9484SOL    HW229352   2.764   6.551   4.508
 9485SOL     OW29353   6.217   1.236   0.859
 9485SOL    HW129354   6.212   1.332   0.830
 9485SOL    HW229355   6.229   1.232   0.958
 9486SOL     OW29356   4.752   5.873   0.565
 9486SOL    HW129357   4.696   5.924   0.629
 9486SOL    HW229358   4.790   5.792   0.610
 9487SOL     OW29359   3.055   3.992   4.581
 9487SOL    HW129360   3.008   3.996   4.669
 9487SOL    HW229361   3.133   4.054   4.582
 9488SOL     OW29362   1.565   1.375   1.109
 9488SOL    HW129363   1.630   1.437   1.153
 9488SOL    HW229364   1.539   1.303   1.174
 9489SOL     OW29365   5.506   4.333   1.279
 9489SOL    HW129366   5.457   4.413   1.245
 9489SOL    HW229367   5.462   4.249   1.246
 9490SOL     OW29368   6.142   5.284   3.759
 9490SOL    HW129369   6.230   5.241   3.777
 9490SOL    HW229370   6.136   5.310   3.663
 9491SOL     OW29371   5.470   6.063   3.749
 9491SOL    HW129372   5.518   5.990   3.797
 9491SOL    HW229373   5.530   6.101   3.678
 9492SOL     OW29374   4.883   2.984   5.320
 9492SOL    HW129375   4.875   2.922   5.242
 9492SOL    HW229376   4.804   2.971   5.380
 9493SOL     OW29377   3.689   6.392   4.427
 9493SOL    HW129378   3.678   6.479   4.474
 9493SOL    HW229379   3.726   6.324   4.490
 9494SOL     OW29380   5.702   2.960   2.335
 9494SOL    HW129381   5.704   3.059   2.349
 9494SOL    HW229382   5.611   2.934   2.303
 9495SOL     OW29383   6.996   0.947   2.276
 9495SOL    HW129384   0.062   0.911   2.239
 9495SOL    HW229385   6.952   1.006   2.208
 9496SOL     OW29386   4.677   1.977   2.206
 9496SOL    HW129387   4.682   1.932   2.116
 9496SOL    HW229388   4.639   1.914   2.273
 9497SOL     OW29389   5.543   5.909   5.046
 9497SOL    HW129390   5.477   5.984   5.045
 9497SOL    HW229391   5.623   5.934   4.991
 9498SOL     OW29392   6.805   4.946   4.454
 9498SOL    HW129393   6.787   5.044   4.461
 9498SOL    HW229394   6.718   4.897   4.442
 9499SOL     OW29395   6.789   5.502   5.061
 9499SOL    HW129396   6.885   5.472   5.059
 9499SOL    HW229397   6.747   5.475   5.148
 9500SOL     OW29398   4.146   6.861   1.152
 9500SOL    HW129399   4.167   6.945   1.201
 9500SOL    HW229400   4.147   6.784   1.215
 9501SOL     OW29401   1.739   1.866   4.186
 9501SOL    HW129402   1.729   1.831   4.093
 9501SOL    HW229403   1.824   1.918   4.193
 9502SOL     OW29404   5.256   4.599   4.877
 9502SOL    HW129405   5.291   4.685   4.912
 9502SOL    HW229406   5.270   4.595   4.778
 9503SOL     OW29407   0.597   2.269   0.410
 9503SOL    HW129408   0.681   2.223   0.438
 9503SOL    HW229409   0.609   2.308   0.319
 9504SOL     OW29410   0.003   3.802   1.837
 9504SOL    HW129411   0.003   3.862   1.757
 9504SOL    HW229412   6.975   3.847   1.912
 9505SOL     OW29413   4.691   5.140   5.798
 9505SOL    HW129414   4.642   5.227   5.803
 9505SOL    HW229415   4.757   5.134   5.872
 9506SOL     OW29416   2.076   2.315   0.697
 9506SOL    HW129417   2.118   2.258   0.768
 9506SOL    HW229418   1.998   2.364   0.735
 9507SOL     OW29419   6.121   0.077   1.193
 9507SOL    HW129420   6.153   7.015   1.144
 9507SOL    HW229421   6.082   0.141   1.127
 9508SOL     OW29422   4.630   1.322   2.269
 9508SOL    HW129423   4.539   1.300   2.305
 9508SOL    HW229424   4.621   1.351   2.173
 9509SOL     OW29425   6.600   0.895   2.896
 9509SOL    HW129426   6.528   0.887   2.827
 9509SOL    HW229427   6.565   0.865   2.985
 9510SOL     OW29428   0.756   3.434   3.848
 9510SOL    HW129429   0.846   3.408   3.811
 9510SOL    HW229430   0.769   3.477   3.937
 9511SOL     OW29431   0.814   1.059   0.950
 9511SOL    HW129432   0.811   1.139   1.009
 9511SOL    HW229433   0.761   1.076   0.867
 9512SOL     OW29434   6.666   3.071   1.436
 9512SOL    HW129435   6.585   3.117   1.400
 9512SOL    HW229436   6.639   2.985   1.480
 9513SOL     OW29437   3.487   4.710   5.804
 9513SOL    HW129438   3.524   4.793   5.845
 9513SOL    HW229439   3.560   4.642   5.795
 9514SOL     OW29440   3.154   3.075   6.807
 9514SOL    HW129441   3.217   3.140   6.851
 9514SOL    HW229442   3.060   3.095   6.835
 9515SOL     OW29443   2.616   4.974   3.465
 9515SOL    HW129444   2.640   4.894   3.411
 9515SOL    HW229445   2.662   4.969   3.554
 9516SOL     OW29446   6.341   4.512   0.415
 9516SOL    HW129447   6.267   4.563   0.459
 9516SOL    HW229448   6.328   4.513   0.316
 9517SOL     OW29449   1.309   4.652   1.572
 9517SOL    HW129450   1.266   4.567   1.541
 9517SOL    HW229451   1.252   4.729   1.545
 9518SOL     OW29452   2.709   1.108   0.841
 9518SOL    HW129453   2.638   1.072   0.781
 9518SOL    HW229454   2.708   1.207   0.838
 9519SOL     OW29455   1.143   2.504   5.418
 9519SOL    HW129456   1.151   2.574   5.348
 9519SOL    HW229457   1.224   2.506   5.477
 9520SOL     OW29458   2.234   0.430   2.580
 9520SOL    HW129459   2.210   0.380   2.497
 9520SOL    HW229460   2.152   0.470   2.620
 9521SOL     OW29461   5.845   6.297   4.396
 9521SOL    HW129462   5.903   6.219   4.369
 9521SOL    HW229463   5.893   6.382   4.378
 9522SOL     OW29464   3.173   5.790   0.962
 9522SOL    HW129465   3.129   5.805   1.050
 9522SOL    HW229466   3.161   5.872   0.905
 9523SOL     OW29467   3.749   5.391   4.316
 9523SOL    HW129468   3.738   5.298   4.353
 9523SOL    HW229469   3.683   5.452   4.361
 9524SOL     OW29470   3.528   2.717   1.273
 9524SOL    HW129471   3.526   2.796   1.334
 9524SOL    HW229472   3.593   2.649   1.308
 9525SOL     OW29473   1.828   1.344   6.121
 9525SOL    HW129474   1.913   1.334   6.070
 9525SOL    HW229475   1.752   1.308   6.066
 9526SOL     OW29476   5.351   6.106   3.179
 9526SOL    HW129477   5.348   6.069   3.272
 9526SOL    HW229478   5.273   6.072   3.127
 9527SOL     OW29479   0.884   0.711   2.032
 9527SOL    HW129480   0.911   0.800   1.996
 9527SOL    HW229481   0.966   0.659   2.057
 9528SOL     OW29482   6.301   0.141   0.907
 9528SOL    HW129483   6.214   0.156   0.861
 9528SOL    HW229484   6.356   0.225   0.903
 9529SOL     OW29485   1.211   3.226   6.616
 9529SOL    HW129486   1.303   3.207   6.650
 9529SOL    HW229487   1.178   3.312   6.655
 9530SOL     OW29488   1.980   2.811   2.792
 9530SOL    HW129489   1.905   2.821   2.857
 9530SOL    HW229490   2.038   2.734   2.818
 9531SOL     OW29491   4.025   6.126   3.100
 9531SOL    HW129492   4.043   6.035   3.138
 9531SOL    HW229493   3.927   6.134   3.078
 9532SOL     OW29494   1.606   6.216   1.233
 9532SOL    HW129495   1.626   6.125   1.196
 9532SOL    HW229496   1.674   6.240   1.301
 9533SOL     OW29497   0.367   1.227   4.963
 9533SOL    HW129498   0.267   1.223   4.965
 9533SOL    HW229499   0.403   1.134   4.956
 9534SOL     OW29500   5.314   1.909   4.705
 9534SOL    HW129501   5.342   1.957   4.622
 9534SOL    HW229502   5.214   1.906   4.711
 9535SOL     OW29503   2.877   0.767   6.014
 9535SOL    HW129504   2.844   0.858   5.991
 9535SOL    HW229505   2.976   0.762   5.997
 9536SOL     OW29506   1.921   5.711   5.806
 9536SOL    HW129507   1.896   5.657   5.886
 9536SOL    HW229508   1.853   5.697   5.734
 9537SOL     OW29509   2.966   0.538   2.225
 9537SOL    HW129510   3.054   0.513   2.184
 9537SOL    HW229511   2.972   0.527   2.324
 9538SOL     OW29512   6.356   1.925   4.401
 9538SOL    HW129513   6.404   1.963   4.480
 9538SOL    HW229514   6.422   1.910   4.327
 9539SOL     OW29515   1.705   5.625   6.586
 9539SOL    HW129516   1.759   5.607   6.667
 9539SOL    HW229517   1.612   5.651   6.612
 9540SOL     OW29518   4.490   4.998   5.673
 9540SOL    HW129519   4.563   5.044   5.723
 9540SOL    HW229520   4.475   4.907   5.711
 9541SOL     OW29521   1.683   2.614   4.960
 9541SOL    HW129522   1.733   2.579   5.039
 9541SOL    HW229523   1.683   2.714   4.963
 9542SOL     OW29524   4.905   3.205   4.763
 9542SOL    HW129525   4.892   3.230   4.859
 9542SOL    HW229526   4.923   3.287   4.709
 9543SOL     OW29527   4.542   1.224   4.025
 9543SOL    HW129528   4.629   1.179   4.044
 9543SOL    HW229529   4.476   1.157   3.992
 9544SOL     OW29530   5.598   0.161   2.135
 9544SOL    HW129531   5.687   0.161   2.180
 9544SOL    HW229532   5.562   0.254   2.134
 9545SOL     OW29533   6.326   6.708   3.414
 9545SOL    HW129534   6.383   6.703   3.497
 9545SOL    HW229535   6.339   6.624   3.360
 9546SOL     OW29536   2.793   4.711   6.925
 9546SOL    HW129537   2.862   4.653   6.969
 9546SOL    HW229538   2.838   4.774   6.862
 9547SOL     OW29539   1.118   6.499   4.205
 9547SOL    HW129540   1.182   6.536   4.137
 9547SOL    HW229541   1.073   6.418   4.168
 9548SOL     OW29542   5.998   5.690   4.882
 9548SOL    HW129543   5.898   5.681   4.883
 9548SOL    HW229544   6.024   5.769   4.827
 9549SOL     OW29545   3.260   5.301   0.266
 9549SOL    HW129546   3.205   5.222   0.239
 9549SOL    HW229547   3.319   5.328   0.191
 9550SOL     OW29548   0.335   1.591   0.240
 9550SOL    HW129549   0.235   1.600   0.247
 9550SOL    HW229550   0.378   1.658   0.300
 9551SOL     OW29551   0.609   0.272   4.828
 9551SOL    HW129552   0.629   0.246   4.734
 9551SOL    HW229553   0.511   0.265   4.844
 9552SOL     OW29554   1.286   6.941   3.466
 9552SOL    HW129555   1.229   6.914   3.543
 9552SOL    HW229556   1.249   6.901   3.382
 9553SOL     OW29557   5.554   4.776   6.508
 9553SOL    HW129558   5.565   4.795   6.606
 9553SOL    HW229559   5.506   4.688   6.497
 9554SOL     OW29560   2.534   0.960   2.452
 9554SOL    HW129561   2.556   0.864   2.463
 9554SOL    HW229562   2.453   0.983   2.504
 9555SOL     OW29563   6.294   2.454   1.012
 9555SOL    HW129564   6.250   2.544   1.021
 9555SOL    HW229565   6.234   2.384   1.050
 9556SOL     OW29566   2.103   1.050   1.250
 9556SOL    HW129567   2.051   1.101   1.318
 9556SOL    HW229568   2.053   1.048   1.164
 9557SOL     OW29569   5.952   0.501   2.086
 9557SOL    HW129570   5.867   0.484   2.135
 9557SOL    HW229571   6.003   0.573   2.132
 9558SOL     OW29572   6.993   4.974   3.314
 9558SOL    HW129573   0.015   5.057   3.352
 9558SOL    HW229574   6.913   4.998   3.260
 9559SOL     OW29575   0.094   2.994   2.487
 9559SOL    HW129576   0.173   2.997   2.426
 9559SOL    HW229577   0.061   3.087   2.504
 9560SOL     OW29578   2.743   1.445   3.392
 9560SOL    HW129579   2.807   1.495   3.333
 9560SOL    HW229580   2.792   1.374   3.442
 9561SOL     OW29581   3.435   6.624   0.698
 9561SOL    HW129582   3.356   6.570   0.724
 9561SOL    HW229583   3.484   6.654   0.780
 9562SOL     OW29584   4.761   5.757   2.376
 9562SOL    HW129585   4.787   5.736   2.470
 9562SOL    HW229586   4.669   5.795   2.375
 9563SOL     OW29587   6.892   5.837   6.126
 9563SOL    HW129588   6.896   5.891   6.210
 9563SOL    HW229589   6.983   5.799   6.107
 9564SOL     OW29590   2.888   6.984   6.736
 9564SOL    HW129591   2.797   6.969   6.775
 9564SOL    HW229592   2.904   6.917   6.664
 9565SOL     OW29593   4.029   6.545   4.425
 9565SOL    HW129594   3.979   6.548   4.338
 9565SOL    HW229595   3.963   6.541   4.501
 9566SOL     OW29596   2.682   4.502   5.762
 9566SOL    HW129597   2.642   4.543   5.680
 9566SOL    HW229598   2.673   4.403   5.758
 9567SOL     OW29599   6.478   5.858   6.769
 9567SOL    HW129600   6.522   5.792   6.708
 9567SOL    HW229601   6.525   5.859   6.857
 9568SOL     OW29602   5.468   3.740   6.735
 9568SOL    HW129603   5.527   3.661   6.716
 9568SOL    HW229604   5.374   3.718   6.708
 9569SOL     OW29605   6.522   1.128   6.929
 9569SOL    HW129606   6.575   1.180   6.863
 9569SOL    HW229607   6.545   1.031   6.921
 9570SOL     OW29608   0.168   1.553   0.566
 9570SOL    HW129609   0.128   1.644   0.558
 9570SOL    HW229610   0.266   1.558   0.545
 9571SOL     OW29611   2.046   3.026   0.063
 9571SOL    HW129612   2.145   3.012   0.056
 9571SOL    HW229613   2.018   3.099   0.002
 9572SOL     OW29614   1.332   4.337   1.793
 9572SOL    HW129615   1.283   4.368   1.712
 9572SOL    HW229616   1.282   4.366   1.875
 9573SOL     OW29617   1.698   1.390   6.973
 9573SOL    HW129618   1.765   1.453   6.935
 9573SOL    HW229619   1.682   1.411   0.050
 9574SOL     OW29620   3.629   3.569   5.731
 9574SOL    HW129621   3.679   3.624   5.798
 9574SOL    HW229622   3.671   3.479   5.724
 9575SOL     OW29623   5.256   0.689   1.990
 9575SOL    HW129624   5.183   0.633   2.029
 9575SOL    HW229625   5.248   0.689   1.891
 9576SOL     OW29626   3.065   1.435   4.586
 9576SOL    HW129627   2.970   1.410   4.605
 9576SOL    HW229628   3.075   1.535   4.594
 9577SOL     OW29629   0.668   6.040   2.517
 9577SOL    HW129630   0.691   6.080   2.605
 9577SOL    HW229631   0.645   5.943   2.529
 9578SOL     OW29632   6.414   2.813   2.122
 9578SOL    HW129633   6.411   2.744   2.194
 9578SOL    HW229634   6.354   2.889   2.145
 9579SOL     OW29635   1.486   0.237   2.075
 9579SOL    HW129636   1.511   0.149   2.115
 9579SOL    HW229637   1.568   0.293   2.063
 9580SOL     OW29638   4.445   3.773   6.905
 9580SOL    HW129639   4.380   3.700   6.925
 9580SOL    HW229640   4.517   3.774   6.974
 9581SOL     OW29641   1.052   4.788   6.140
 9581SOL    HW129642   1.116   4.848   6.090
 9581SOL    HW229643   0.970   4.840   6.164
 9582SOL     OW29644   4.223   4.728   4.362
 9582SOL    HW129645   4.285   4.651   4.352
 9582SOL    HW229646   4.179   4.747   4.275
 9583SOL     OW29647   2.114   3.666   2.195
 9583SOL    HW129648   2.125   3.762   2.167
 9583SOL    HW229649   2.136   3.607   2.118
 9584SOL     OW29650   6.289   5.491   6.988
 9584SOL    HW129651   6.324   5.490   6.894
 9584SOL    HW229652   6.281   5.397   0.002
 9585SOL     OW29653   6.111   0.023   3.177
 9585SOL    HW129654   6.184   6.988   3.135
 9585SOL    HW229655   6.082   7.000   3.262
 9586SOL     OW29656   4.904   3.486   3.148
 9586SOL    HW129657   4.976   3.418   3.137
 9586SOL    HW229658   4.861   3.503   3.059
 9587SOL     OW29659   5.570   0.418   2.145
 9587SOL    HW129660   5.514   0.498   2.168
 9587SOL    HW229661   5.612   0.433   2.055
 9588SOL     OW29662   0.530   0.498   1.552
 9588SOL    HW129663   0.604   0.502   1.486
 9588SOL    HW229664   0.498   0.404   1.561
 9589SOL     OW29665   2.808   0.479   6.282
 9589SOL    HW129666   2.811   0.579   6.280
 9589SOL    HW229667   2.892   0.443   6.240
 9590SOL     OW29668   6.763   4.210   3.145
 9590SOL    HW129669   6.712   4.269   3.207
 9590SOL    HW229670   6.814   4.142   3.198
 9591SOL     OW29671   1.996   5.447   0.899
 9591SOL    HW129672   1.922   5.482   0.842
 9591SOL    HW229673   2.082   5.451   0.848
 9592SOL     OW29674   4.410   5.531   2.095
 9592SOL    HW129675   4.334   5.543   2.159
 9592SOL    HW229676   4.393   5.583   2.012
 9593SOL     OW29677   6.957   2.621   4.244
 9593SOL    HW129678   6.884   2.624   4.176
 9593SOL    HW229679   6.994   2.528   4.250
 9594SOL     OW29680   6.709   6.756   2.516
 9594SOL    HW129681   6.780   6.826   2.526
 9594SOL    HW229682   6.705   6.725   2.421
 9595SOL     OW29683   2.011   5.899   4.696
 9595SOL    HW129684   2.060   5.932   4.615
 9595SOL    HW229685   2.071   5.903   4.776
 9596SOL     OW29686   5.751   5.733   5.443
 9596SOL    HW129687   5.716   5.645   5.476
 9596SOL    HW229688   5.679   5.781   5.392
 9597SOL     OW29689   1.528   4.131   1.739
 9597SOL    HW129690   1.485   4.211   1.781
 9597SOL    HW229691   1.610   4.106   1.792
 9598SOL     OW29692   0.599   5.044   5.741
 9598SOL    HW129693   0.657   5.106   5.688
 9598SOL    HW229694   0.536   5.097   5.797
 9599SOL     OW29695   4.327   1.419   5.686
 9599SOL    HW129696   4.395   1.354   5.650
 9599SOL    HW229697   4.238   1.400   5.645
 9600SOL     OW29698   1.402   6.893   5.969
 9600SOL    HW129699   1.473   6.932   6.028
 9600SOL    HW229700   1.445   6.834   5.900
 9601SOL     OW29701   0.401   4.853   5.716
 9601SOL    HW129702   0.407   4.828   5.812
 9601SOL    HW229703   0.465   4.928   5.697
 9602SOL     OW29704   0.977   5.740   6.810
 9602SOL    HW129705   0.929   5.654   6.829
 9602SOL    HW229706   0.930   5.789   6.737
 9603SOL     OW29707   2.026   6.307   4.708
 9603SOL    HW129708   2.047   6.392   4.659
 9603SOL    HW229709   1.929   6.307   4.734
 9604SOL     OW29710   5.847   1.832   6.542
 9604SOL    HW129711   5.942   1.802   6.529
 9604SOL    HW229712   5.810   1.862   6.454
 9605SOL     OW29713   2.084   6.143   6.667
 9605SOL    HW129714   2.177   6.135   6.704
 9605SOL    HW229715   2.085   6.114   6.571
 9606SOL     OW29716   0.264   6.848   3.829
 9606SOL    HW129717   0.240   6.781   3.759
 9606SOL    HW229718   0.187   6.860   3.892
 9607SOL     OW29719   1.437   1.549   2.344
 9607SOL    HW129720   1.461   1.632   2.395
 9607SOL    HW229721   1.365   1.500   2.393
 9608SOL     OW29722   0.448   6.996   2.643
 9608SOL    HW129723   0.536   0.021   2.659
 9608SOL    HW229724   0.406   0.012   2.560
 9609SOL     OW29725   2.172   4.575   4.413
 9609SOL    HW129726   2.113   4.500   4.440
 9609SOL    HW229727   2.215   4.615   4.494
 9610SOL     OW29728   2.024   1.615   6.183
 9610SOL    HW129729   2.074   1.605   6.097
 9610SOL    HW229730   1.950   1.547   6.187
 9611SOL     OW29731   6.045   0.196   0.764
 9611SOL    HW129732   6.078   0.270   0.705
 9611SOL    HW229733   5.959   0.225   0.808
 9612SOL     OW29734   5.847   3.228   1.769
 9612SOL    HW129735   5.748   3.238   1.785
 9612SOL    HW229736   5.885   3.315   1.740
 9613SOL     OW29737   6.557   6.871   5.137
 9613SOL    HW129738   6.636   6.895   5.081
 9613SOL    HW229739   6.546   6.772   5.140
 9614SOL     OW29740   3.401   3.781   2.101
 9614SOL    HW129741   3.375   3.722   2.024
 9614SOL    HW229742   3.320   3.799   2.157
 9615SOL     OW29743   1.457   6.128   2.444
 9615SOL    HW129744   1.469   6.174   2.356
 9615SOL    HW229745   1.484   6.189   2.518
 9616SOL     OW29746   3.695   2.537   0.980
 9616SOL    HW129747   3.783   2.556   0.936
 9616SOL    HW229748   3.644   2.472   0.924
 9617SOL     OW29749   1.150   2.939   3.888
 9617SOL    HW129750   1.137   2.867   3.957
 9617SOL    HW229751   1.244   2.973   3.893
 9618SOL     OW29752   3.393   6.122   6.494
 9618SOL    HW129753   3.461   6.048   6.489
 9618SOL    HW229754   3.311   6.094   6.445
 9619SOL     OW29755   3.125   6.243   0.786
 9619SOL    HW129756   3.086   6.278   0.871
 9619SOL    HW229757   3.123   6.143   0.787
 9620SOL     OW29758   3.443   1.633   6.491
 9620SOL    HW129759   3.443   1.567   6.566
 9620SOL    HW229760   3.534   1.638   6.451
 9621SOL     OW29761   0.543   0.782   1.814
 9621SOL    HW129762   0.635   0.765   1.781
 9621SOL    HW229763   0.485   0.810   1.737
 9622SOL     OW29764   5.880   0.362   6.277
 9622SOL    HW129765   5.865   0.461   6.265
 9622SOL    HW229766   5.791   0.316   6.278
 9623SOL     OW29767   4.732   6.233   6.277
 9623SOL    HW129768   4.822   6.259   6.242
 9623SOL    HW229769   4.700   6.304   6.340
 9624SOL     OW29770   4.254   5.263   5.133
 9624SOL    HW129771   4.164   5.293   5.165
 9624SOL    HW229772   4.244   5.186   5.070
 9625SOL     OW29773   5.258   4.232   6.367
 9625SOL    HW129774   5.298   4.208   6.455
 9625SOL    HW229775   5.183   4.169   6.346
 9626SOL     OW29776   2.023   4.029   6.136
 9626SOL    HW129777   1.995   3.943   6.093
 9626SOL    HW229778   2.109   4.015   6.186
 9627SOL     OW29779   0.700   5.173   6.680
 9627SOL    HW129780   0.781   5.214   6.721
 9627SOL    HW229781   0.717   5.076   6.661
 9628SOL     OW29782   5.940   3.392   6.975
 9628SOL    HW129783   5.902   3.481   6.950
 9628SOL    HW229784   5.967   3.393   0.051
 9629SOL     OW29785   0.105   5.755   2.667
 9629SOL    HW129786   0.182   5.811   2.698
 9629SOL    HW229787   0.132   5.659   2.661
 9630SOL     OW29788   6.661   5.800   5.799
 9630SOL    HW129789   6.652   5.737   5.876
 9630SOL    HW229790   6.738   5.771   5.742
 9631SOL     OW29791   4.343   1.378   0.683
 9631SOL    HW129792   4.433   1.336   0.695
 9631SOL    HW229793   4.353   1.475   0.660
 9632SOL     OW29794   3.530   6.486   1.327
 9632SOL    HW129795   3.608   6.453   1.381
 9632SOL    HW229796   3.563   6.516   1.237
 9633SOL     OW29797   4.061   3.134   2.611
 9633SOL    HW129798   4.019   3.180   2.532
 9633SOL    HW229799   4.087   3.203   2.679
 9634SOL     OW29800   5.378   4.813   2.348
 9634SOL    HW129801   5.351   4.816   2.252
 9634SOL    HW229802   5.323   4.879   2.400
 9635SOL     OW29803   1.139   3.822   3.722
 9635SOL    HW129804   1.094   3.874   3.795
 9635SOL    HW229805   1.237   3.839   3.725
 9636SOL     OW29806   4.162   2.127   4.637
 9636SOL    HW129807   4.187   2.114   4.541
 9636SOL    HW229808   4.199   2.051   4.691
 9637SOL     OW29809   2.306   3.069   0.713
 9637SOL    HW129810   2.290   2.979   0.672
 9637SOL    HW229811   2.401   3.077   0.742
 9638SOL     OW29812   6.800   4.515   5.493
 9638SOL    HW129813   6.855   4.594   5.466
 9638SOL    HW229814   6.763   4.471   5.412
 9639SOL     OW29815   4.608   1.637   1.537
 9639SOL    HW129816   4.666   1.636   1.455
 9639SOL    HW229817   4.612   1.727   1.579
 9640SOL     OW29818   3.509   0.615   2.246
 9640SOL    HW129819   3.442   0.690   2.251
 9640SOL    HW229820   3.540   0.593   2.338
 9641SOL     OW29821   5.984   4.307   2.792
 9641SOL    HW129822   5.901   4.263   2.825
 9641SOL    HW229823   6.001   4.279   2.697
 9642SOL     OW29824   1.896   0.509   3.602
 9642SOL    HW129825   1.883   0.605   3.575
 9642SOL    HW229826   1.956   0.464   3.535
 9643SOL     OW29827   5.375   4.305   3.994
 9643SOL    HW129828   5.296   4.278   3.939
 9643SOL    HW229829   5.413   4.224   4.038
 9644SOL     OW29830   1.581   5.583   5.122
 9644SOL    HW129831   1.561   5.487   5.101
 9644SOL    HW229832   1.593   5.634   5.036
 9645SOL     OW29833   1.623   5.596   6.227
 9645SOL    HW129834   1.632   5.501   6.197
 9645SOL    HW229835   1.535   5.609   6.272
 9646SOL     OW29836   3.448   6.928   5.701
 9646SOL    HW129837   3.409   6.863   5.766
 9646SOL    HW229838   3.438   6.893   5.608
 9647SOL     OW29839   6.106   5.905   3.272
 9647SOL    HW129840   6.026   5.965   3.270
 9647SOL    HW229841   6.124   5.870   3.180
 9648SOL     OW29842   4.621   2.089   1.045
 9648SOL    HW129843   4.625   2.032   1.127
 9648SOL    HW229844   4.701   2.149   1.041
 9649SOL     OW29845   2.744   3.312   0.853
 9649SOL    HW129846   2.729   3.263   0.767
 9649SOL    HW229847   2.840   3.303   0.881
 9650SOL     OW29848   6.906   4.936   4.117
 9650SOL    HW129849   7.004   4.938   4.134
 9650SOL    HW229850   6.868   5.028   4.130
 9651SOL     OW29851   2.617   1.686   0.176
 9651SOL    HW129852   2.701   1.650   0.216
 9651SOL    HW229853   2.594   1.774   0.218
 9652SOL     OW29854   6.959   3.685   0.913
 9652SOL    HW129855   0.037   3.701   0.925
 9652SOL    HW229856   6.926   3.621   0.982
 9653SOL     OW29857   4.862   3.836   6.294
 9653SOL    HW129858   4.809   3.900   6.351
 9653SOL    HW229859   4.944   3.881   6.261
 9654SOL     OW29860   3.704   3.378   3.965
 9654SOL    HW129861   3.758   3.407   4.045
 9654SOL    HW229862   3.639   3.307   3.993
 9655SOL     OW29863   5.419   0.632   2.182
 9655SOL    HW129864   5.347   0.656   2.118
 9655SOL    HW229865   5.431   0.706   2.248
 9656SOL     OW29866   5.531   3.878   1.196
 9656SOL    HW129867   5.524   3.789   1.241
 9656SOL    HW229868   5.612   3.879   1.136
 9657SOL     OW29869   6.012   3.721   3.299
 9657SOL    HW129870   5.947   3.680   3.235
 9657SOL    HW229871   5.968   3.733   3.388
 9658SOL     OW29872   4.904   1.324   2.582
 9658SOL    HW129873   4.911   1.411   2.533
 9658SOL    HW229874   4.887   1.342   2.679
 9659SOL     OW29875   3.072   2.601   1.150
 9659SOL    HW129876   3.029   2.589   1.240
 9659SOL    HW229877   3.170   2.581   1.157
 9660SOL     OW29878   1.063   5.835   0.912
 9660SOL    HW129879   1.152   5.850   0.869
 9660SOL    HW229880   1.069   5.756   0.974
 9661SOL     OW29881   5.300   4.995   1.118
 9661SOL    HW129882   5.372   5.053   1.079
 9661SOL    HW229883   5.299   4.907   1.071
 9662SOL     OW29884   5.297   4.077   6.905
 9662SOL    HW129885   5.297   4.126   6.818
 9662SOL    HW229886   5.379   4.101   6.957
 9663SOL     OW29887   0.805   4.211   3.269
 9663SOL    HW129888   0.768   4.139   3.327
 9663SOL    HW229889   0.884   4.177   3.219
 9664SOL     OW29890   5.305   4.205   3.220
 9664SOL    HW129891   5.363   4.126   3.199
 9664SOL    HW229892   5.325   4.238   3.312
 9665SOL     OW29893   6.067   6.235   6.488
 9665SOL    HW129894   6.039   6.283   6.571
 9665SOL    HW229895   6.105   6.301   6.423
 9666SOL     OW29896   6.007   4.413   1.050
 9666SOL    HW129897   5.925   4.360   1.069
 9666SOL    HW229898   6.072   4.357   0.999
 9667SOL     OW29899   4.744   5.739   0.949
 9667SOL    HW129900   4.657   5.786   0.964
 9667SOL    HW229901   4.761   5.675   1.023
 9668SOL     OW29902   1.018   6.194   6.107
 9668SOL    HW129903   1.046   6.142   6.026
 9668SOL    HW229904   1.060   6.153   6.189
 9669SOL     OW29905   2.961   6.744   0.528
 9669SOL    HW129906   3.020   6.823   0.512
 9669SOL    HW229907   2.865   6.772   0.517
 9670SOL     OW29908   0.080   0.153   5.978
 9670SOL    HW129909   0.080   0.074   5.918
 9670SOL    HW229910   0.174   0.185   5.992
 9671SOL     OW29911   1.019   4.655   6.447
 9671SOL    HW129912   1.061   4.658   6.537
 9671SOL    HW229913   1.079   4.605   6.384
 9672SOL     OW29914   0.776   4.263   3.982
 9672SOL    HW129915   0.865   4.307   3.970
 9672SOL    HW229916   0.761   4.244   4.079
 9673SOL     OW29917   2.890   3.957   1.299
 9673SOL    HW129918   2.840   3.873   1.317
 9673SOL    HW229919   2.836   4.016   1.239
 9674SOL     OW29920   3.161   6.493   3.041
 9674SOL    HW129921   3.243   6.519   2.990
 9674SOL    HW229922   3.111   6.424   2.990
 9675SOL     OW29923   4.847   3.963   1.392
 9675SOL    HW129924   4.796   3.884   1.358
 9675SOL    HW229925   4.785   4.040   1.405
 9676SOL     OW29926   1.401   3.016   5.733
 9676SOL    HW129927   1.386   2.983   5.826
 9676SOL    HW229928   1.409   2.937   5.671
 9677SOL     OW29929   6.266   4.858   0.382
 9677SOL    HW129930   6.355   4.817   0.361
 9677SOL    HW229931   6.200   4.835   0.310
 9678SOL     OW29932   3.157   4.009   5.039
 9678SOL    HW129933   3.132   3.913   5.048
 9678SOL    HW229934   3.145   4.055   5.126
 9679SOL     OW29935   2.332   1.549   4.519
 9679SOL    HW129936   2.348   1.464   4.469
 9679SOL    HW229937   2.341   1.532   4.617
 9680SOL     OW29938   4.723   6.457   3.487
 9680SOL    HW129939   4.810   6.448   3.439
 9680SOL    HW229940   4.723   6.399   3.568
 9681SOL     OW29941   1.950   0.702   1.132
 9681SOL    HW129942   1.857   0.738   1.129
 9681SOL    HW229943   2.013   0.768   1.092
 9682SOL     OW29944   5.793   5.597   4.476
 9682SOL    HW129945   5.696   5.608   4.452
 9682SOL    HW229946   5.802   5.527   4.547
 9683SOL     OW29947   1.770   6.989   0.711
 9683SOL    HW129948   1.836   6.950   0.647
 9683SOL    HW229949   1.794   6.961   0.804
 9684SOL     OW29950   1.607   4.169   5.510
 9684SOL    HW129951   1.570   4.078   5.530
 9684SOL    HW229952   1.658   4.167   5.424
 9685SOL     OW29953   4.399   3.752   0.417
 9685SOL    HW129954   4.444   3.666   0.441
 9685SOL    HW229955   4.328   3.734   0.348
 9686SOL     OW29956   6.199   2.311   6.189
 9686SOL    HW129957   6.129   2.344   6.126
 9686SOL    HW229958   6.289   2.323   6.148
 9687SOL     OW29959   6.251   0.234   2.191
 9687SOL    HW129960   6.152   0.227   2.203
 9687SOL    HW229961   6.296   0.159   2.240
 9688SOL     OW29962   1.920   4.795   1.279
 9688SOL    HW129963   1.998   4.833   1.229
 9688SOL    HW229964   1.907   4.846   1.364
 9689SOL     OW29965   1.236   6.205   6.771
 9689SOL    HW129966   1.174   6.126   6.773
 9689SOL    HW229967   1.309   6.191   6.838
 9690SOL     OW29968   5.389   5.600   4.742
 9690SOL    HW129969   5.429   5.512   4.714
 9690SOL    HW229970   5.390   5.607   4.842
 9691SOL     OW29971   3.074   3.811   1.934
 9691SOL    HW129972   3.120   3.898   1.950
 9691SOL    HW229973   3.001   3.824   1.866
 9692SOL     OW29974   4.538   5.195   0.276
 9692SOL    HW129975   4.468   5.131   0.309
 9692SOL    HW229976   4.530   5.207   0.177
 9693SOL     OW29977   5.942   4.011   3.666
 9693SOL    HW129978   6.002   3.942   3.627
 9693SOL    HW229979   5.957   4.098   3.620
 9694SOL     OW29980   2.739   6.823   1.882
 9694SOL    HW129981   2.762   6.909   1.836
 9694SOL    HW229982   2.682   6.768   1.822
 9695SOL     OW29983   0.003   3.896   3.766
 9695SOL    HW129984   7.017   3.849   3.854
 9695SOL    HW229985   6.970   3.980   3.770
 9696SOL     OW29986   5.734   1.982   3.022
 9696SOL    HW129987   5.732   2.067   2.968
 9696SOL    HW229988   5.678   1.994   3.104
 9697SOL     OW29989   0.201   5.913   0.310
 9697SOL    HW129990   0.119   5.946   0.356
 9697SOL    HW229991   0.199   5.942   0.214
 9698SOL     OW29992   5.438   3.622   0.669
 9698SOL    HW129993   5.442   3.706   0.614
 9698SOL    HW229994   5.408   3.546   0.611
 9699SOL     OW29995   1.218   5.094   0.334
 9699SOL    HW129996   1.285   5.065   0.266
 9699SOL    HW229997   1.204   5.193   0.327
 9700SOL     OW29998   5.846   6.784   3.833
 9700SOL    HW129999   5.933   6.763   3.788
 9700SOL    HW230000   5.806   6.701   3.870
 9701SOL     OW30001   4.845   2.832   6.678
 9701SOL    HW130002   4.884   2.778   6.752
 9701SOL    HW230003   4.918   2.872   6.624
 9702SOL     OW30004   3.495   2.839   0.574
 9702SOL    HW130005   3.485   2.893   0.658
 9702SOL    HW230006   3.405   2.813   0.540
 9703SOL     OW30007   6.226   4.078   5.028
 9703SOL    HW130008   6.206   4.165   5.073
 9703SOL    HW230009   6.180   4.075   4.940
 9704SOL     OW30010   3.225   4.890   2.507
 9704SOL    HW130011   3.308   4.886   2.451
 9704SOL    HW230012   3.146   4.868   2.450
 9705SOL     OW30013   5.936   4.134   5.411
 9705SOL    HW130014   6.012   4.092   5.361
 9705SOL    HW230015   5.941   4.233   5.401
 9706SOL     OW30016   1.284   1.550   1.670
 9706SOL    HW130017   1.212   1.493   1.710
 9706SOL    HW230018   1.299   1.523   1.575
 9707SOL     OW30019   6.339   4.787   2.476
 9707SOL    HW130020   6.316   4.884   2.476
 9707SOL    HW230021   6.257   4.733   2.463
 9708SOL     OW30022   1.589   0.890   2.753
 9708SOL    HW130023   1.610   0.880   2.850
 9708SOL    HW230024   1.516   0.827   2.727
 9709SOL     OW30025   5.994   3.176   2.649
 9709SOL    HW130026   5.921   3.108   2.661
 9709SOL    HW230027   6.062   3.164   2.722
 9710SOL     OW30028   6.159   6.398   5.980
 9710SOL    HW130029   6.224   6.418   6.053
 9710SOL    HW230030   6.145   6.300   5.973
 9711SOL     OW30031   3.962   6.095   6.829
 9711SOL    HW130032   3.901   6.174   6.825
 9711SOL    HW230033   4.032   6.103   6.758
 9712SOL     OW30034   5.876   3.066   0.817
 9712SOL    HW130035   5.911   2.995   0.755
 9712SOL    HW230036   5.913   3.051   0.909
 9713SOL     OW30037   1.723   6.136   3.522
 9713SOL    HW130038   1.625   6.114   3.525
 9713SOL    HW230039   1.748   6.190   3.602
 9714SOL     OW30040   3.776   5.380   4.668
 9714SOL    HW130041   3.871   5.409   4.676
 9714SOL    HW230042   3.716   5.461   4.670
 9715SOL     OW30043   6.140   4.661   0.935
 9715SOL    HW130044   6.226   4.625   0.971
 9715SOL    HW230045   6.064   4.604   0.966
 9716SOL     OW30046   4.149   4.230   6.699
 9716SOL    HW130047   4.091   4.289   6.756
 9716SOL    HW230048   4.154   4.139   6.738
 9717SOL     OW30049   4.496   0.561   5.908
 9717SOL    HW130050   4.409   0.583   5.864
 9717SOL    HW230051   4.513   0.463   5.902
 9718SOL     OW30052   3.293   1.833   0.449
 9718SOL    HW130053   3.309   1.932   0.448
 9718SOL    HW230054   3.222   1.810   0.382
 9719SOL     OW30055   4.868   6.248   4.636
 9719SOL    HW130056   4.962   6.230   4.609
 9719SOL    HW230057   4.807   6.186   4.586
 9720SOL     OW30058   1.755   3.841   2.730
 9720SOL    HW130059   1.820   3.829   2.655
 9720SOL    HW230060   1.804   3.840   2.817
 9721SOL     OW30061   0.685   1.604   0.389
 9721SOL    HW130062   0.587   1.616   0.405
 9721SOL    HW230063   0.726   1.692   0.366
 9722SOL     OW30064   3.508   2.576   5.471
 9722SOL    HW130065   3.502   2.650   5.538
 9722SOL    HW230066   3.444   2.595   5.396
 9723SOL     OW30067   6.068   4.462   4.706
 9723SOL    HW130068   6.059   4.435   4.610
 9723SOL    HW230069   6.089   4.559   4.711
 9724SOL     OW30070   1.575   5.613   6.977
 9724SOL    HW130071   1.572   5.677   0.034
 9724SOL    HW230072   1.559   5.662   6.892
 9725SOL     OW30073   3.590   5.280   5.528
 9725SOL    HW130074   3.534   5.212   5.481
 9725SOL    HW230075   3.535   5.361   5.548
 9726SOL     OW30076   5.907   0.723   4.323
 9726SOL    HW130077   5.855   0.695   4.242
 9726SOL    HW230078   5.993   0.766   4.295
 9727SOL     OW30079   0.351   2.462   6.981
 9727SOL    HW130080   0.291   2.444   0.039
 9727SOL    HW230081   0.359   2.561   6.968
 9728SOL     OW30082   5.552   0.716   6.046
 9728SOL    HW130083   5.558   0.712   5.946
 9728SOL    HW230084   5.564   0.624   6.083
 9729SOL     OW30085   0.777   3.966   3.385
 9729SOL    HW130086   0.693   3.912   3.382
 9729SOL    HW230087   0.844   3.921   3.445
 9730SOL     OW30088   0.518   4.154   3.602
 9730SOL    HW130089   0.551   4.066   3.635
 9730SOL    HW230090   0.578   4.227   3.635
 9731SOL     OW30091   4.887   3.644   2.639
 9731SOL    HW130092   4.952   3.577   2.605
 9731SOL    HW230093   4.820   3.665   2.568
 9732SOL     OW30094   1.577   2.775   2.312
 9732SOL    HW130095   1.562   2.867   2.276
 9732SOL    HW230096   1.663   2.738   2.277
 9733SOL     OW30097   6.168   5.580   2.943
 9733SOL    HW130098   6.104   5.538   2.878
 9733SOL    HW230099   6.125   5.583   3.034
 9734SOL     OW30100   6.366   6.385   6.618
 9734SOL    HW130101   6.401   6.304   6.665
 9734SOL    HW230102   6.416   6.398   6.532
 9735SOL     OW30103   1.345   1.808   3.223
 9735SOL    HW130104   1.439   1.782   3.242
 9735SOL    HW230105   1.283   1.754   3.280
 9736SOL     OW30106   4.706   2.183   5.242
 9736SOL    HW130107   4.802   2.169   5.219
 9736SOL    HW230108   4.649   2.150   5.167
 9737SOL     OW30109   5.836   1.786   2.411
 9737SOL    HW130110   5.770   1.731   2.359
 9737SOL    HW230111   5.907   1.726   2.447
 9738SOL     OW30112   2.273   6.126   0.566
 9738SOL    HW130113   2.346   6.194   0.559
 9738SOL    HW230114   2.301   6.053   0.629
 9739SOL     OW30115   4.598   6.711   0.062
 9739SOL    HW130116   4.685   6.695   0.108
 9739SOL    HW230117   4.603   6.795   0.008
 9740SOL     OW30118   5.436   1.235   2.788
 9740SOL    HW130119   5.519   1.290   2.788
 9740SOL    HW230120   5.433   1.180   2.872
 9741SOL     OW30121   3.077   1.236   4.098
 9741SOL    HW130122   3.043   1.329   4.103
 9741SOL    HW230123   3.022   1.183   4.032
 9742SOL     OW30124   4.330   1.373   6.698
 9742SOL    HW130125   4.292   1.307   6.634
 9742SOL    HW230126   4.414   1.336   6.738
 9743SOL     OW30127   0.344   3.102   3.745
 9743SOL    HW130128   0.336   3.105   3.646
 9743SOL    HW230129   0.383   3.187   3.778
 9744SOL     OW30130   1.966   6.680   3.126
 9744SOL    HW130131   2.055   6.695   3.083
 9744SOL    HW230132   1.926   6.595   3.092
 9745SOL     OW30133   5.813   1.371   5.853
 9745SOL    HW130134   5.793   1.460   5.894
 9745SOL    HW230135   5.739   1.345   5.792
 9746SOL     OW30136   4.703   6.519   6.770
 9746SOL    HW130137   4.633   6.525   6.842
 9746SOL    HW230138   4.676   6.575   6.692
 9747SOL     OW30139   2.373   1.933   1.991
 9747SOL    HW130140   2.426   1.979   1.919
 9747SOL    HW230141   2.433   1.908   2.067
 9748SOL     OW30142   0.120   0.498   3.125
 9748SOL    HW130143   0.127   0.459   3.217
 9748SOL    HW230144   0.056   0.443   3.071
 9749SOL     OW30145   0.515   2.043   1.875
 9749SOL    HW130146   0.578   2.084   1.940
 9749SOL    HW230147   0.430   2.019   1.921
 9750SOL     OW30148   6.429   4.813   4.222
 9750SOL    HW130149   6.500   4.791   4.289
 9750SOL    HW230150   6.466   4.805   4.130
 9751SOL     OW30151   2.414   0.168   1.300
 9751SOL    HW130152   2.385   0.073   1.300
 9751SOL    HW230153   2.360   0.220   1.234
 9752SOL     OW30154   4.124   2.174   0.171
 9752SOL    HW130155   4.045   2.120   0.143
 9752SOL    HW230156   4.108   2.211   0.263
 9753SOL     OW30157   0.505   5.811   6.499
 9753SOL    HW130158   0.516   5.864   6.415
 9753SOL    HW230159   0.444   5.859   6.562
 9754SOL     OW30160   3.891   0.650   0.618
 9754SOL    HW130161   3.929   0.581   0.556
 9754SOL    HW230162   3.947   0.656   0.700
 9755SOL     OW30163   3.321   4.078   5.367
 9755SOL    HW130164   3.417   4.094   5.340
 9755SOL    HW230165   3.291   4.153   5.427
 9756SOL     OW30166   5.485   1.579   6.233
 9756SOL    HW130167   5.430   1.586   6.316
 9756SOL    HW230168   5.582   1.573   6.258
 9757SOL     OW30169   5.684   4.155   4.220
 9757SOL    HW130170   5.608   4.095   4.193
 9757SOL    HW230171   5.759   4.144   4.154
 9758SOL     OW30172   1.098   0.976   0.316
 9758SOL    HW130173   1.023   0.910   0.306
 9758SOL    HW230174   1.060   1.066   0.339
 9759SOL     OW30175   0.745   1.332   0.370
 9759SOL    HW130176   0.666   1.284   0.407
 9759SOL    HW230177   0.729   1.431   0.372
 9760SOL     OW30178   4.847   2.225   0.136
 9760SOL    HW130179   4.777   2.196   0.200
 9760SOL    HW230180   4.804   2.279   0.062
 9761SOL     OW30181   1.504   1.181   1.871
 9761SOL    HW130182   1.551   1.225   1.795
 9761SOL    HW230183   1.409   1.162   1.844
 9762SOL     OW30184   2.898   1.556   4.925
 9762SOL    HW130185   2.906   1.458   4.939
 9762SOL    HW230186   2.844   1.574   4.842
 9763SOL     OW30187   6.628   1.601   2.018
 9763SOL    HW130188   6.726   1.585   2.032
 9763SOL    HW230189   6.613   1.698   2.001
 9764SOL     OW30190   5.787   2.730   2.481
 9764SOL    HW130191   5.883   2.718   2.507
 9764SOL    HW230192   5.775   2.820   2.440
 9765SOL     OW30193   6.316   1.785   2.086
 9765SOL    HW130194   6.342   1.779   2.182
 9765SOL    HW230195   6.398   1.802   2.030
 9766SOL     OW30196   2.767   0.785   3.600
 9766SOL    HW130197   2.730   0.805   3.509
 9766SOL    HW230198   2.695   0.795   3.668
 9767SOL     OW30199   2.444   3.193   6.040
 9767SOL    HW130200   2.375   3.167   5.973
 9767SOL    HW230201   2.448   3.124   6.113
 9768SOL     OW30202   5.748   2.643   0.533
 9768SOL    HW130203   5.740   2.546   0.512
 9768SOL    HW230204   5.691   2.666   0.612
 9769SOL     OW30205   3.013   1.356   5.641
 9769SOL    HW130206   3.027   1.454   5.648
 9769SOL    HW230207   3.082   1.316   5.580
 9770SOL     OW30208   3.477   2.308   6.285
 9770SOL    HW130209   3.418   2.365   6.227
 9770SOL    HW230210   3.555   2.277   6.231
 9771SOL     OW30211   2.307   6.612   1.776
 9771SOL    HW130212   2.294   6.690   1.713
 9771SOL    HW230213   2.306   6.527   1.724
 9772SOL     OW30214   1.749   6.317   2.075
 9772SOL    HW130215   1.764   6.384   2.002
 9772SOL    HW230216   1.784   6.228   2.046
 9773SOL     OW30217   5.625   5.239   2.871
 9773SOL    HW130218   5.666   5.237   2.780
 9773SOL    HW230219   5.643   5.153   2.919
 9774SOL     OW30220   1.009   5.455   4.032
 9774SOL    HW130221   1.047   5.365   4.008
 9774SOL    HW230222   1.084   5.517   4.056
 9775SOL     OW30223   3.232   0.527   3.402
 9775SOL    HW130224   3.161   0.474   3.449
 9775SOL    HW230225   3.227   0.510   3.304
 9776SOL     OW30226   1.824   5.152   6.069
 9776SOL    HW130227   1.887   5.224   6.100
 9776SOL    HW230228   1.871   5.091   6.006
 9777SOL     OW30229   5.040   6.639   6.591
 9777SOL    HW130230   5.131   6.632   6.550
 9777SOL    HW230231   4.991   6.552   6.579
 9778SOL     OW30232   0.154   1.870   4.530
 9778SOL    HW130233   0.165   1.915   4.618
 9778SOL    HW230234   0.202   1.924   4.460
 9779SOL     OW30235   0.787   2.177   3.085
 9779SOL    HW130236   0.734   2.121   3.148
 9779SOL    HW230237   0.821   2.258   3.133
 9780SOL     OW30238   1.404   1.456   1.446
 9780SOL    HW130239   1.456   1.527   1.399
 9780SOL    HW230240   1.446   1.367   1.430
 9781SOL     OW30241   1.443   3.791   3.944
 9781SOL    HW130242   1.357   3.740   3.943
 9781SOL    HW230243   1.516   3.732   3.980
 9782SOL     OW30244   0.217   2.415   0.517
 9782SOL    HW130245   0.171   2.476   0.452
 9782SOL    HW230246   0.155   2.392   0.591
 9783SOL     OW30247   4.008   1.816   3.233
 9783SOL    HW130248   3.941   1.821   3.159
 9783SOL    HW230249   3.962   1.829   3.320
 9784SOL     OW30250   3.102   0.776   6.552
 9784SOL    HW130251   3.169   0.778   6.627
 9784SOL    HW230252   3.025   0.836   6.574
 9785SOL     OW30253   6.836   2.360   4.489
 9785SOL    HW130254   6.935   2.367   4.479
 9785SOL    HW230255   6.799   2.304   4.415
 9786SOL     OW30256   3.224   4.304   0.318
 9786SOL    HW130257   3.298   4.241   0.342
 9786SOL    HW230258   3.234   4.388   0.371
 9787SOL     OW30259   3.534   3.659   3.969
 9787SOL    HW130260   3.467   3.589   3.945
 9787SOL    HW230261   3.578   3.636   4.056
 9788SOL     OW30262   0.796   5.267   1.828
 9788SOL    HW130263   0.776   5.347   1.885
 9788SOL    HW230264   0.886   5.231   1.852
 9789SOL     OW30265   3.160   0.007   6.869
 9789SOL    HW130266   3.135   0.038   6.961
 9789SOL    HW230267   3.077   7.004   6.818
 9790SOL     OW30268   6.513   4.252   5.100
 9790SOL    HW130269   6.558   4.163   5.102
 9790SOL    HW230270   6.440   4.252   5.032
 9791SOL     OW30271   0.590   6.896   0.039
 9791SOL    HW130272   0.571   6.922   0.134
 9791SOL    HW230273   0.518   6.836   0.006
 9792SOL     OW30274   3.515   5.378   0.633
 9792SOL    HW130275   3.549   5.332   0.715
 9792SOL    HW230276   3.416   5.367   0.627
 9793SOL     OW30277   4.064   0.750   1.114
 9793SOL    HW130278   4.162   0.742   1.133
 9793SOL    HW230279   4.044   0.843   1.081
 9794SOL     OW30280   4.897   4.388   4.444
 9794SOL    HW130281   4.940   4.454   4.382
 9794SOL    HW230282   4.828   4.335   4.393
 9795SOL     OW30283   0.903   3.298   4.109
 9795SOL    HW130284   0.854   3.384   4.090
 9795SOL    HW230285   0.859   3.252   4.186
 9796SOL     OW30286   4.035   3.848   3.947
 9796SOL    HW130287   4.081   3.770   3.906
 9796SOL    HW230288   3.938   3.846   3.922
 9797SOL     OW30289   2.845   6.276   6.801
 9797SOL    HW130290   2.790   6.268   6.717
 9797SOL    HW230291   2.801   6.227   6.875
 9798SOL     OW30292   2.400   1.945   1.268
 9798SOL    HW130293   2.341   1.893   1.207
 9798SOL    HW230294   2.345   1.988   1.340
 9799SOL     OW30295   3.005   4.642   6.421
 9799SOL    HW130296   2.930   4.591   6.462
 9799SOL    HW230297   2.975   4.681   6.334
 9800SOL     OW30298   5.832   3.065   4.391
 9800SOL    HW130299   5.930   3.084   4.381
 9800SOL    HW230300   5.789   3.068   4.301
 9801SOL     OW30301   5.121   4.774   0.119
 9801SOL    HW130302   5.140   4.835   0.196
 9801SOL    HW230303   5.168   4.687   0.134
 9802SOL     OW30304   4.056   4.697   0.496
 9802SOL    HW130305   4.125   4.689   0.568
 9802SOL    HW230306   3.979   4.637   0.516
 9803SOL     OW30307   1.598   2.852   6.656
 9803SOL    HW130308   1.521   2.824   6.713
 9803SOL    HW230309   1.683   2.820   6.697
 9804SOL     OW30310   6.520   5.697   3.281
 9804SOL    HW130311   6.600   5.727   3.230
 9804SOL    HW230312   6.484   5.773   3.335
 9805SOL     OW30313   1.047   6.796   2.983
 9805SOL    HW130314   0.952   6.808   3.012
 9805SOL    HW230315   1.087   6.885   2.962
 9806SOL     OW30316   3.294   2.376   6.549
 9806SOL    HW130317   3.213   2.424   6.580
 9806SOL    HW230318   3.331   2.422   6.468
 9807SOL     OW30319   3.618   2.878   2.713
 9807SOL    HW130320   3.607   2.902   2.617
 9807SOL    HW230321   3.701   2.919   2.749
 9808SOL     OW30322   4.360   5.639   3.869
 9808SOL    HW130323   4.402   5.664   3.957
 9808SOL    HW230324   4.293   5.567   3.883
 9809SOL     OW30325   0.781   2.993   0.491
 9809SOL    HW130326   0.687   2.970   0.462
 9809SOL    HW230327   0.811   3.075   0.442
 9810SOL     OW30328   2.696   2.114   4.878
 9810SOL    HW130329   2.649   2.037   4.836
 9810SOL    HW230330   2.777   2.082   4.927
 9811SOL     OW30331   6.307   3.234   3.871
 9811SOL    HW130332   6.289   3.280   3.958
 9811SOL    HW230333   6.235   3.166   3.854
 9812SOL     OW30334   2.814   6.684   4.390
 9812SOL    HW130335   2.905   6.687   4.349
 9812SOL    HW230336   2.760   6.762   4.357
 9813SOL     OW30337   5.917   2.867   0.616
 9813SOL    HW130338   5.886   2.791   0.558
 9813SOL    HW230339   6.008   2.847   0.651
 9814SOL     OW30340   5.693   2.011   6.979
 9814SOL    HW130341   5.680   1.980   6.885
 9814SOL    HW230342   5.666   1.938   0.022
 9815SOL     OW30343   4.496   2.440   4.077
 9815SOL    HW130344   4.449   2.397   4.154
 9815SOL    HW230345   4.434   2.445   3.998
 9816SOL     OW30346   1.137   6.975   5.889
 9816SOL    HW130347   1.127   6.951   5.792
 9816SOL    HW230348   1.228   6.948   5.920
 9817SOL     OW30349   0.783   6.792   3.041
 9817SOL    HW130350   0.720   6.721   3.073
 9817SOL    HW230351   0.798   6.782   2.943
 9818SOL     OW30352   5.825   1.651   4.879
 9818SOL    HW130353   5.887   1.590   4.929
 9818SOL    HW230354   5.877   1.710   4.819
 9819SOL     OW30355   4.487   2.523   3.173
 9819SOL    HW130356   4.489   2.519   3.073
 9819SOL    HW230357   4.418   2.458   3.207
 9820SOL     OW30358   3.546   3.540   6.836
 9820SOL    HW130359   3.483   3.596   6.782
 9820SOL    HW230360   3.623   3.512   6.779
 9821SOL     OW30361   6.145   6.600   6.591
 9821SOL    HW130362   6.100   6.654   6.662
 9821SOL    HW230363   6.197   6.526   6.633
 9822SOL     OW30364   0.640   0.215   3.044
 9822SOL    HW130365   0.674   0.309   3.046
 9822SOL    HW230366   0.567   0.208   2.977
 9823SOL     OW30367   3.500   0.405   1.145
 9823SOL    HW130368   3.471   0.494   1.182
 9823SOL    HW230369   3.424   0.341   1.150
 9824SOL     OW30370   1.297   3.888   5.739
 9824SOL    HW130371   1.313   3.791   5.722
 9824SOL    HW230372   1.272   3.902   5.835
 9825SOL     OW30373   3.276   5.623   5.610
 9825SOL    HW130374   3.193   5.602   5.558
 9825SOL    HW230375   3.307   5.541   5.659
 9826SOL     OW30376   4.267   6.057   6.200
 9826SOL    HW130377   4.215   6.034   6.118
 9826SOL    HW230378   4.302   5.973   6.242
 9827SOL     OW30379   1.982   4.380   4.477
 9827SOL    HW130380   1.942   4.390   4.386
 9827SOL    HW230381   1.914   4.341   4.539
 9828SOL     OW30382   3.480   2.830   6.532
 9828SOL    HW130383   3.558   2.784   6.489
 9828SOL    HW230384   3.440   2.770   6.601
 9829SOL     OW30385   3.152   6.495   0.711
 9829SOL    HW130386   3.186   6.546   0.789
 9829SOL    HW230387   3.145   6.398   0.734
 9830SOL     OW30388   6.009   2.365   1.521
 9830SOL    HW130389   6.074   2.411   1.459
 9830SOL    HW230390   5.963   2.291   1.471
 9831SOL     OW30391   1.441   6.099   0.497
 9831SOL    HW130392   1.529   6.137   0.525
 9831SOL    HW230393   1.397   6.161   0.432
 9832SOL     OW30394   4.655   5.350   2.536
 9832SOL    HW130395   4.628   5.359   2.440
 9832SOL    HW230396   4.749   5.380   2.547
 9833SOL     OW30397   3.532   3.014   5.128
 9833SOL    HW130398   3.530   2.924   5.170
 9833SOL    HW230399   3.451   3.065   5.155
 9834SOL     OW30400   2.624   4.233   5.713
 9834SOL    HW130401   2.535   4.214   5.670
 9834SOL    HW230402   2.689   4.162   5.688
 9835SOL     OW30403   4.408   2.276   5.267
 9835SOL    HW130404   4.503   2.308   5.258
 9835SOL    HW230405   4.357   2.340   5.324
 9836SOL     OW30406   6.241   3.889   3.273
 9836SOL    HW130407   6.193   3.823   3.331
 9836SOL    HW230408   6.184   3.910   3.193
 9837SOL     OW30409   1.712   0.125   3.067
 9837SOL    HW130410   1.629   0.069   3.057
 9837SOL    HW230411   1.775   0.079   3.130
 9838SOL     OW30412   0.380   6.785   5.225
 9838SOL    HW130413   0.383   6.688   5.204
 9838SOL    HW230414   0.375   6.798   5.324
 9839SOL     OW30415   6.769   1.410   2.660
 9839SOL    HW130416   6.805   1.365   2.742
 9839SOL    HW230417   6.830   1.485   2.634
 9840SOL     OW30418   0.035   0.459   0.511
 9840SOL    HW130419   7.005   0.542   0.538
 9840SOL    HW230420   7.001   0.379   0.538
 9841SOL     OW30421   1.351   4.580   4.825
 9841SOL    HW130422   1.312   4.490   4.808
 9841SOL    HW230423   1.449   4.571   4.842
 9842SOL     OW30424   3.406   4.060   3.327
 9842SOL    HW130425   3.339   4.013   3.270
 9842SOL    HW230426   3.480   4.094   3.269
 9843SOL     OW30427   0.111   1.911   1.685
 9843SOL    HW130428   0.050   1.834   1.664
 9843SOL    HW230429   0.180   1.920   1.613
 9844SOL     OW30430   4.530   0.289   3.182
 9844SOL    HW130431   4.494   0.196   3.190
 9844SOL    HW230432   4.568   0.302   3.090
 9845SOL     OW30433   2.258   1.341   4.750
 9845SOL    HW130434   2.276   1.246   4.724
 9845SOL    HW230435   2.163   1.363   4.730
 9846SOL     OW30436   3.889   3.822   3.125
 9846SOL    HW130437   3.839   3.875   3.057
 9846SOL    HW230438   3.894   3.874   3.211
 9847SOL     OW30439   2.746   2.502   6.075
 9847SOL    HW130440   2.667   2.480   6.019
 9847SOL    HW230441   2.789   2.586   6.040
 9848SOL     OW30442   3.578   2.467   6.499
 9848SOL    HW130443   3.546   2.418   6.417
 9848SOL    HW230444   3.548   2.418   6.581
 9849SOL     OW30445   6.157   0.510   0.129
 9849SOL    HW130446   6.256   0.514   0.140
 9849SOL    HW230447   6.133   0.427   0.077
 9850SOL     OW30448   5.153   5.735   2.465
 9850SOL    HW130449   5.096   5.751   2.546
 9850SOL    HW230450   5.246   5.712   2.494
 9851SOL     OW30451   4.360   2.026   5.551
 9851SOL    HW130452   4.353   1.942   5.605
 9851SOL    HW230453   4.400   2.006   5.462
 9852SOL     OW30454   4.052   2.201   3.180
 9852SOL    HW130455   3.964   2.177   3.139
 9852SOL    HW230456   4.112   2.121   3.179
 9853SOL     OW30457   4.822   4.167   3.329
 9853SOL    HW130458   4.887   4.097   3.300
 9853SOL    HW230459   4.803   4.229   3.252
 9854SOL     OW30460   5.846   5.011   5.412
 9854SOL    HW130461   5.924   5.073   5.424
 9854SOL    HW230462   5.793   5.008   5.496
 9855SOL     OW30463   1.754   4.401   1.395
 9855SOL    HW130464   1.697   4.463   1.450
 9855SOL    HW230465   1.706   4.315   1.381
 9856SOL     OW30466   4.693   4.405   0.267
 9856SOL    HW130467   4.787   4.440   0.275
 9856SOL    HW230468   4.660   4.378   0.357
 9857SOL     OW30469   5.132   2.162   3.542
 9857SOL    HW130470   5.041   2.137   3.575
 9857SOL    HW230471   5.123   2.219   3.460
 9858SOL     OW30472   6.116   0.704   1.415
 9858SOL    HW130473   6.134   0.605   1.412
 9858SOL    HW230474   6.202   0.753   1.424
 9859SOL     OW30475   6.357   0.209   1.222
 9859SOL    HW130476   6.283   0.144   1.205
 9859SOL    HW230477   6.424   0.204   1.148
 9860SOL     OW30478   0.274   1.061   1.936
 9860SOL    HW130479   0.271   0.995   1.860
 9860SOL    HW230480   0.255   1.153   1.901
 9861SOL     OW30481   2.842   6.981   3.597
 9861SOL    HW130482   2.790   6.896   3.604
 9861SOL    HW230483   2.912   6.972   3.526
 9862SOL     OW30484   2.798   3.901   0.819
 9862SOL    HW130485   2.768   3.994   0.797
 9862SOL    HW230486   2.717   3.842   0.831
 9863SOL     OW30487   3.256   6.911   3.210
 9863SOL    HW130488   3.156   6.902   3.205
 9863SOL    HW230489   3.284   6.911   3.306
 9864SOL     OW30490   4.021   5.598   3.760
 9864SOL    HW130491   4.058   5.681   3.719
 9864SOL    HW230492   3.956   5.622   3.832
 9865SOL     OW30493   1.143   1.378   4.680
 9865SOL    HW130494   1.099   1.430   4.607
 9865SOL    HW230495   1.088   1.385   4.764
 9866SOL     OW30496   5.079   4.077   4.494
 9866SOL    HW130497   5.075   4.114   4.587
 9866SOL    HW230498   4.988   4.045   4.467
 9867SOL     OW30499   5.486   0.309   1.382
 9867SOL    HW130500   5.412   0.375   1.366
 9867SOL    HW230501   5.573   0.348   1.353
 9868SOL     OW30502   1.330   4.554   5.615
 9868SOL    HW130503   1.417   4.527   5.575
 9868SOL    HW230504   1.265   4.478   5.609
 9869SOL     OW30505   2.091   3.323   2.642
 9869SOL    HW130506   2.157   3.397   2.628
 9869SOL    HW230507   2.104   3.283   2.733
 9870SOL     OW30508   4.074   6.013   2.422
 9870SOL    HW130509   3.981   6.015   2.457
 9870SOL    HW230510   4.082   6.072   2.342
 9871SOL     OW30511   0.705   6.455   5.639
 9871SOL    HW130512   0.781   6.437   5.702
 9871SOL    HW230513   0.618   6.439   5.687
 9872SOL     OW30514   3.333   5.435   3.949
 9872SOL    HW130515   3.355   5.524   3.990
 9872SOL    HW230516   3.272   5.448   3.871
 9873SOL     OW30517   2.146   2.194   1.238
 9873SOL    HW130518   2.065   2.159   1.190
 9873SOL    HW230519   2.201   2.250   1.176
 9874SOL     OW30520   0.643   2.819   4.429
 9874SOL    HW130521   0.560   2.830   4.374
 9874SOL    HW230522   0.695   2.904   4.428
 9875SOL     OW30523   0.020   6.919   2.415
 9875SOL    HW130524   0.021   6.983   2.339
 9875SOL    HW230525   0.072   6.837   2.391
 9876SOL     OW30526   0.005   1.296   2.061
 9876SOL    HW130527   0.026   1.293   2.159
 9876SOL    HW230528   6.977   1.212   2.034
 9877SOL     OW30529   0.643   5.862   3.130
 9877SOL    HW130530   0.622   5.942   3.073
 9877SOL    HW230531   0.560   5.808   3.145
 9878SOL     OW30532   2.670   5.342   4.736
 9878SOL    HW130533   2.647   5.405   4.662
 9878SOL    HW230534   2.586   5.312   4.781
 9879SOL     OW30535   5.909   5.297   5.068
 9879SOL    HW130536   5.965   5.318   5.148
 9879SOL    HW230537   5.942   5.215   5.024
 9880SOL     OW30538   1.788   2.090   5.402
 9880SOL    HW130539   1.739   2.149   5.337
 9880SOL    HW230540   1.838   2.146   5.467
 9881SOL     OW30541   2.005   1.397   4.718
 9881SOL    HW130542   1.983   1.448   4.635
 9881SOL    HW230543   1.977   1.449   4.799
 9882SOL     OW30544   0.668   2.379   3.533
 9882SOL    HW130545   0.744   2.443   3.532
 9882SOL    HW230546   0.700   2.288   3.506
 9883SOL     OW30547   1.822   5.527   0.293
 9883SOL    HW130548   1.769   5.442   0.287
 9883SOL    HW230549   1.819   5.575   0.206
 9884SOL     OW30550   4.214   1.656   3.178
 9884SOL    HW130551   4.150   1.728   3.204
 9884SOL    HW230552   4.255   1.616   3.260
 9885SOL     OW30553   0.134   3.375   5.137
 9885SOL    HW130554   0.171   3.284   5.158
 9885SOL    HW230555   0.209   3.440   5.123
 9886SOL     OW30556   0.707   4.476   1.762
 9886SOL    HW130557   0.630   4.493   1.823
 9886SOL    HW230558   0.791   4.472   1.816
 9887SOL     OW30559   3.214   1.401   6.333
 9887SOL    HW130560   3.182   1.318   6.286
 9887SOL    HW230561   3.284   1.446   6.279
 9888SOL     OW30562   6.643   4.210   1.705
 9888SOL    HW130563   6.640   4.153   1.623
 9888SOL    HW230564   6.720   4.273   1.700
 9889SOL     OW30565   6.397   5.018   1.710
 9889SOL    HW130566   6.297   5.024   1.709
 9889SOL    HW230567   6.434   5.090   1.768
 9890SOL     OW30568   1.525   2.050   0.245
 9890SOL    HW130569   1.528   2.105   0.162
 9890SOL    HW230570   1.592   1.976   0.239
 9891SOL     OW30571   5.805   3.351   1.171
 9891SOL    HW130572   5.778   3.291   1.247
 9891SOL    HW230573   5.743   3.337   1.094
 9892SOL     OW30574   6.728   5.133   0.728
 9892SOL    HW130575   6.734   5.035   0.748
 9892SOL    HW230576   6.645   5.151   0.675
 9893SOL     OW30577   0.988   0.262   1.181
 9893SOL    HW130578   1.040   0.238   1.099
 9893SOL    HW230579   1.048   0.255   1.261
 9894SOL     OW30580   1.832   2.478   2.047
 9894SOL    HW130581   1.851   2.412   1.974
 9894SOL    HW230582   1.879   2.564   2.028
 9895SOL     OW30583   6.262   3.415   5.623
 9895SOL    HW130584   6.170   3.453   5.611
 9895SOL    HW230585   6.323   3.453   5.553
 9896SOL     OW30586   6.183   0.350   6.557
 9896SOL    HW130587   6.201   0.402   6.640
 9896SOL    HW230588   6.204   0.405   6.477
 9897SOL     OW30589   6.360   5.504   3.394
 9897SOL    HW130590   6.433   5.558   3.352
 9897SOL    HW230591   6.276   5.558   3.396
 9898SOL     OW30592   2.223   6.540   5.018
 9898SOL    HW130593   2.194   6.467   5.081
 9898SOL    HW230594   2.266   6.613   5.070
 9899SOL     OW30595   0.797   5.530   6.832
 9899SOL    HW130596   0.855   5.448   6.830
 9899SOL    HW230597   0.715   5.511   6.885
 9900SOL     OW30598   1.779   3.814   3.321
 9900SOL    HW130599   1.731   3.757   3.254
 9900SOL    HW230600   1.721   3.826   3.402
 9901SOL     OW30601   2.933   1.310   6.099
 9901SOL    HW130602   2.903   1.268   6.013
 9901SOL    HW230603   2.862   1.298   6.168
 9902SOL     OW30604   3.471   4.616   0.258
 9902SOL    HW130605   3.436   4.685   0.322
 9902SOL    HW230606   3.395   4.568   0.216
 9903SOL     OW30607   4.993   1.191   1.431
 9903SOL    HW130608   4.964   1.286   1.415
 9903SOL    HW230609   5.081   1.175   1.386
 9904SOL     OW30610   0.978   3.889   0.477
 9904SOL    HW130611   0.895   3.920   0.430
 9904SOL    HW230612   1.035   3.969   0.498
 9905SOL     OW30613   2.610   0.460   6.480
 9905SOL    HW130614   2.677   0.480   6.409
 9905SOL    HW230615   2.532   0.413   6.439
 9906SOL     OW30616   2.687   3.022   1.761
 9906SOL    HW130617   2.682   3.122   1.758
 9906SOL    HW230618   2.775   2.992   1.725
 9907SOL     OW30619   6.693   0.238   0.762
 9907SOL    HW130620   6.684   0.139   0.776
 9907SOL    HW230621   6.603   0.281   0.766
 9908SOL     OW30622   5.089   1.662   4.553
 9908SOL    HW130623   5.136   1.702   4.475
 9908SOL    HW230624   5.027   1.730   4.593
 9909SOL     OW30625   4.062   0.274   3.861
 9909SOL    HW130626   4.101   0.191   3.901
 9909SOL    HW230627   3.963   0.262   3.850
 9910SOL     OW30628   1.952   3.827   2.916
 9910SOL    HW130629   2.015   3.872   2.852
 9910SOL    HW230630   1.986   3.736   2.938
 9911SOL     OW30631   2.688   6.479   1.786
 9911SOL    HW130632   2.774   6.468   1.837
 9911SOL    HW230633   2.651   6.389   1.765
 9912SOL     OW30634   3.821   1.147   1.662
 9912SOL    HW130635   3.729   1.139   1.700
 9912SOL    HW230636   3.816   1.174   1.566
 9913SOL     OW30637   6.368   4.338   1.274
 9913SOL    HW130638   6.460   4.323   1.238
 9913SOL    HW230639   6.372   4.403   1.350
 9914SOL     OW30640   5.608   1.999   4.617
 9914SOL    HW130641   5.604   1.926   4.548
 9914SOL    HW230642   5.663   1.968   4.695
 9915SOL     OW30643   5.436   0.761   4.236
 9915SOL    HW130644   5.374   0.690   4.268
 9915SOL    HW230645   5.398   0.804   4.154
 9916SOL     OW30646   1.832   2.745   3.097
 9916SOL    HW130647   1.859   2.649   3.108
 9916SOL    HW230648   1.902   2.804   3.138
 9917SOL     OW30649   5.696   4.019   0.272
 9917SOL    HW130650   5.598   4.032   0.283
 9917SOL    HW230651   5.727   3.944   0.330
 9918SOL     OW30652   3.465   1.251   3.384
 9918SOL    HW130653   3.517   1.189   3.442
 9918SOL    HW230654   3.367   1.232   3.394
 9919SOL     OW30655   6.461   4.983   1.425
 9919SOL    HW130656   6.419   5.003   1.513
 9919SOL    HW230657   6.466   5.066   1.370
 9920SOL     OW30658   4.880   1.201   2.342
 9920SOL    HW130659   4.888   1.236   2.436
 9920SOL    HW230660   4.793   1.231   2.303
 9921SOL     OW30661   4.229   6.998   5.726
 9921SOL    HW130662   4.179   6.913   5.708
 9921SOL    HW230663   4.210   0.009   5.819
 9922SOL     OW30664   2.761   4.305   0.234
 9922SOL    HW130665   2.714   4.305   0.145
 9922SOL    HW230666   2.835   4.373   0.232
 9923SOL     OW30667   4.962   4.582   6.986
 9923SOL    HW130668   4.971   4.512   0.037
 9923SOL    HW230669   4.870   4.578   6.947
 9924SOL     OW30670   6.336   1.598   5.290
 9924SOL    HW130671   6.262   1.531   5.286
 9924SOL    HW230672   6.312   1.670   5.355
 9925SOL     OW30673   6.535   3.539   3.988
 9925SOL    HW130674   6.543   3.550   4.087
 9925SOL    HW230675   6.445   3.571   3.958
 9926SOL     OW30676   3.962   2.620   0.873
 9926SOL    HW130677   3.992   2.546   0.812
 9926SOL    HW230678   4.042   2.658   0.920
 9927SOL     OW30679   6.751   6.735   0.294
 9927SOL    HW130680   6.844   6.722   0.262
 9927SOL    HW230681   6.750   6.802   0.369
 9928SOL     OW30682   5.315   5.307   2.006
 9928SOL    HW130683   5.264   5.283   2.089
 9928SOL    HW230684   5.306   5.406   1.990
 9929SOL     OW30685   3.005   4.924   5.438
 9929SOL    HW130686   2.938   4.861   5.399
 9929SOL    HW230687   3.010   5.007   5.382
 9930SOL     OW30688   6.895   6.807   4.497
 9930SOL    HW130689   6.806   6.848   4.477
 9930SOL    HW230690   6.951   6.805   4.414
 9931SOL     OW30691   0.926   5.121   3.889
 9931SOL    HW130692   1.002   5.183   3.906
 9931SOL    HW230693   0.939   5.037   3.941
 9932SOL     OW30694   2.671   5.208   6.960
 9932SOL    HW130695   2.749   5.247   7.008
 9932SOL    HW230696   2.628   5.278   6.903
 9933SOL     OW30697   0.312   5.679   3.649
 9933SOL    HW130698   0.228   5.626   3.655
 9933SOL    HW230699   0.386   5.621   3.615
 9934SOL     OW30700   4.824   1.744   5.725
 9934SOL    HW130701   4.735   1.787   5.710
 9934SOL    HW230702   4.883   1.762   5.646
 9935SOL     OW30703   2.509   6.707   0.236
 9935SOL    HW130704   2.425   6.674   0.280
 9935SOL    HW230705   2.552   6.632   0.186
 9936SOL     OW30706   6.660   5.279   6.846
 9936SOL    HW130707   6.585   5.308   6.906
 9936SOL    HW230708   6.716   5.359   6.822
 9937SOL     OW30709   6.842   1.779   0.465
 9937SOL    HW130710   6.750   1.774   0.504
 9937SOL    HW230711   6.836   1.781   0.365
 9938SOL     OW30712   6.841   5.086   2.598
 9938SOL    HW130713   6.811   5.059   2.507
 9938SOL    HW230714   6.900   5.015   2.636
 9939SOL     OW30715   4.466   2.354   0.951
 9939SOL    HW130716   4.429   2.318   1.037
 9939SOL    HW230717   4.562   2.377   0.964
 9940SOL     OW30718   1.203   0.497   1.018
 9940SOL    HW130719   1.188   0.401   0.996
 9940SOL    HW230720   1.114   0.543   1.026
 9941SOL     OW30721   3.017   3.918   5.741
 9941SOL    HW130722   2.987   3.874   5.657
 9941SOL    HW230723   2.938   3.934   5.801
 9942SOL     OW30724   2.674   5.529   1.958
 9942SOL    HW130725   2.655   5.445   2.009
 9942SOL    HW230726   2.733   5.589   2.014
 9943SOL     OW30727   6.751   5.100   5.467
 9943SOL    HW130728   6.780   5.015   5.423
 9943SOL    HW230729   6.818   5.124   5.537
 9944SOL     OW30730   1.397   4.622   6.379
 9944SOL    HW130731   1.377   4.692   6.311
 9944SOL    HW230732   1.394   4.532   6.337
 9945SOL     OW30733   5.888   5.489   6.432
 9945SOL    HW130734   5.790   5.506   6.439
 9945SOL    HW230735   5.909   5.453   6.341
 9946SOL     OW30736   4.743   0.938   3.615
 9946SOL    HW130737   4.832   0.923   3.572
 9946SOL    HW230738   4.753   0.928   3.714
 9947SOL     OW30739   1.641   2.896   5.001
 9947SOL    HW130740   1.663   2.896   5.098
 9947SOL    HW230741   1.717   2.935   4.949
 9948SOL     OW30742   5.183   4.177   4.749
 9948SOL    HW130743   5.279   4.200   4.764
 9948SOL    HW230744   5.132   4.260   4.727
 9949SOL     OW30745   6.469   4.996   4.575
 9949SOL    HW130746   6.556   4.985   4.624
 9949SOL    HW230747   6.488   5.031   4.483
 9950SOL     OW30748   5.739   5.998   4.880
 9950SOL    HW130749   5.709   5.981   4.786
 9950SOL    HW230750   5.803   6.075   4.881
 9951SOL     OW30751   6.460   0.579   4.817
 9951SOL    HW130752   6.540   0.520   4.828
 9951SOL    HW230753   6.403   0.573   4.900
 9952SOL     OW30754   0.508   3.320   1.411
 9952SOL    HW130755   0.581   3.320   1.342
 9952SOL    HW230756   0.536   3.377   1.489
 9953SOL     OW30757   6.106   2.740   4.410
 9953SOL    HW130758   6.124   2.662   4.350
 9953SOL    HW230759   6.155   2.820   4.376
 9954SOL     OW30760   6.444   0.286   5.976
 9954SOL    HW130761   6.477   0.260   6.066
 9954SOL    HW230762   6.421   0.205   5.923
 9955SOL     OW30763   6.373   3.573   5.260
 9955SOL    HW130764   6.407   3.578   5.354
 9955SOL    HW230765   6.421   3.641   5.204
 9956SOL     OW30766   0.904   0.227   2.148
 9956SOL    HW130767   0.939   0.194   2.061
 9956SOL    HW230768   0.980   0.259   2.204
 9957SOL     OW30769   5.125   5.559   2.252
 9957SOL    HW130770   5.183   5.481   2.275
 9957SOL    HW230771   5.102   5.609   2.335
 9958SOL     OW30772   3.511   5.855   1.031
 9958SOL    HW130773   3.497   5.857   0.932
 9958SOL    HW230774   3.582   5.788   1.054
 9959SOL     OW30775   4.183   3.578   5.234
 9959SOL    HW130776   4.265   3.537   5.275
 9959SOL    HW230777   4.145   3.515   5.166
 9960SOL     OW30778   6.920   6.558   2.772
 9960SOL    HW130779   6.904   6.565   2.870
 9960SOL    HW230780   6.935   6.649   2.734
 9961SOL     OW30781   1.956   5.211   4.159
 9961SOL    HW130782   1.906   5.124   4.159
 9961SOL    HW230783   1.993   5.228   4.068
 9962SOL     OW30784   6.618   0.138   2.731
 9962SOL    HW130785   6.644   0.071   2.661
 9962SOL    HW230786   6.518   0.144   2.736
 9963SOL     OW30787   3.103   2.585   6.671
 9963SOL    HW130788   3.071   2.676   6.645
 9963SOL    HW230789   3.025   2.532   6.706
 9964SOL     OW30790   5.165   4.952   5.569
 9964SOL    HW130791   5.065   4.957   5.565
 9964SOL    HW230792   5.202   4.938   5.478
 9965SOL     OW30793   3.855   6.487   6.513
 9965SOL    HW130794   3.819   6.544   6.440
 9965SOL    HW230795   3.953   6.505   6.524
 9966SOL     OW30796   1.386   5.707   1.657
 9966SOL    HW130797   1.474   5.660   1.656
 9966SOL    HW230798   1.348   5.709   1.565
 9967SOL     OW30799   0.312   6.615   2.024
 9967SOL    HW130800   0.260   6.530   2.029
 9967SOL    HW230801   0.410   6.594   2.024
 9968SOL     OW30802   3.539   3.715   1.382
 9968SOL    HW130803   3.535   3.783   1.454
 9968SOL    HW230804   3.446   3.685   1.359
 9969SOL     OW30805   1.812   2.700   2.213
 9969SOL    HW130806   1.879   2.669   2.280
 9969SOL    HW230807   1.842   2.787   2.174
 9970SOL     OW30808   5.151   3.750   2.867
 9970SOL    HW130809   5.197   3.793   2.945
 9970SOL    HW230810   5.129   3.819   2.799
 9971SOL     OW30811   1.925   4.969   1.518
 9971SOL    HW130812   1.996   5.002   1.580
 9971SOL    HW230813   1.899   5.043   1.455
 9972SOL     OW30814   5.309   5.132   1.369
 9972SOL    HW130815   5.290   5.079   1.286
 9972SOL    HW230816   5.408   5.140   1.381
 9973SOL     OW30817   5.833   1.810   3.813
 9973SOL    HW130818   5.846   1.748   3.736
 9973SOL    HW230819   5.891   1.783   3.889
 9974SOL     OW30820   1.074   2.633   2.528
 9974SOL    HW130821   1.143   2.700   2.501
 9974SOL    HW230822   1.108   2.581   2.607
 9975SOL     OW30823   6.266   4.114   0.125
 9975SOL    HW130824   6.278   4.196   0.071
 9975SOL    HW230825   6.345   4.054   0.113
 9976SOL     OW30826   1.150   6.367   5.667
 9976SOL    HW130827   1.063   6.319   5.651
 9976SOL    HW230828   1.224   6.300   5.673
 9977SOL     OW30829   6.684   5.332   5.284
 9977SOL    HW130830   6.694   5.245   5.332
 9977SOL    HW230831   6.588   5.344   5.258
 9978SOL     OW30832   0.553   2.567   4.269
 9978SOL    HW130833   0.478   2.628   4.241
 9978SOL    HW230834   0.537   2.534   4.361
 9979SOL     OW30835   6.123   4.989   5.680
 9979SOL    HW130836   6.045   4.971   5.740
 9979SOL    HW230837   6.131   4.915   5.613
 9980SOL     OW30838   1.908   0.954   6.280
 9980SOL    HW130839   1.890   1.052   6.291
 9980SOL    HW230840   1.843   0.915   6.215
 9981SOL     OW30841   2.484   1.578   2.918
 9981SOL    HW130842   2.534   1.597   3.002
 9981SOL    HW230843   2.410   1.513   2.937
 9982SOL     OW30844   6.430   6.138   4.406
 9982SOL    HW130845   6.478   6.131   4.318
 9982SOL    HW230846   6.393   6.230   4.417
 9983SOL     OW30847   6.568   2.014   2.761
 9983SOL    HW130848   6.507   2.031   2.684
 9983SOL    HW230849   6.659   2.050   2.742
 9984SOL     OW30850   2.398   0.819   0.164
 9984SOL    HW130851   2.480   0.773   0.129
 9984SOL    HW230852   2.321   0.801   0.104
 9985SOL     OW30853   1.173   0.763   0.637
 9985SOL    HW130854   1.256   0.780   0.585
 9985SOL    HW230855   1.118   0.847   0.640
 9986SOL     OW30856   5.604   4.638   6.163
 9986SOL    HW130857   5.558   4.714   6.207
 9986SOL    HW230858   5.550   4.555   6.173
 9987SOL     OW30859   0.137   2.954   4.147
 9987SOL    HW130860   0.202   3.021   4.184
 9987SOL    HW230861   0.176   2.912   4.065
 9988SOL     OW30862   0.185   5.940   3.767
 9988SOL    HW130863   0.240   6.007   3.818
 9988SOL    HW230864   0.229   5.850   3.773
 9989SOL     OW30865   6.799   3.599   3.864
 9989SOL    HW130866   6.812   3.509   3.824
 9989SOL    HW230867   6.714   3.600   3.918
 9990SOL     OW30868   2.184   5.071   2.735
 9990SOL    HW130869   2.218   5.151   2.784
 9990SOL    HW230870   2.257   5.032   2.679
 9991SOL     OW30871   2.135   2.134   3.739
 9991SOL    HW130872   2.166   2.082   3.819
 9991SOL    HW230873   2.186   2.221   3.735
 9992SOL     OW30874   5.662   5.139   6.906
 9992SOL    HW130875   5.709   5.120   6.819
 9992SOL    HW230876   5.565   5.118   6.897
 9993SOL     OW30877   3.003   1.215   0.657
 9993SOL    HW130878   2.957   1.293   0.700
 9993SOL    HW230879   3.012   1.141   0.724
 9994SOL     OW30880   6.099   4.534   3.108
 9994SOL    HW130881   6.014   4.532   3.055
 9994SOL    HW230882   6.176   4.507   3.050
 9995SOL     OW30883   4.765   1.328   3.024
 9995SOL    HW130884   4.697   1.380   3.075
 9995SOL    HW230885   4.804   1.385   2.952
 9996SOL     OW30886   3.085   3.690   0.523
 9996SOL    HW130887   3.054   3.697   0.428
 9996SOL    HW230888   3.184   3.679   0.525
 9997SOL     OW30889   2.826   1.574   5.843
 9997SOL    HW130890   2.896   1.560   5.772
 9997SOL    HW230891   2.871   1.592   5.930
 9998SOL     OW30892   5.866   4.857   6.133
 9998SOL    HW130893   5.957   4.818   6.121
 9998SOL    HW230894   5.820   4.814   6.211
 9999SOL     OW30895   6.421   2.745   5.809
 9999SOL    HW130896   6.451   2.800   5.731
 9999SOL    HW230897   6.349   2.682   5.780
10000SOL     OW30898   0.155   4.629   0.138
10000SOL    HW130899   0.077   4.591   0.089
10000SOL    HW230900   0.225   4.559   0.150
10001SOL     OW30901   4.883   6.820   2.199
10001SOL    HW130902   4.974   6.780   2.211
10001SOL    HW230903   4.826   6.797   2.278
10002SOL     OW30904   1.162   6.615   1.990
10002SOL    HW130905   1.228   6.557   1.941
10002SOL    HW230906   1.207   6.700   2.018
10003SOL     OW30907   3.800   2.076   3.522
10003SOL    HW130908   3.834   1.982   3.523
10003SOL    HW230909   3.759   2.098   3.610
10004SOL     OW30910   6.923   2.452   3.834
10004SOL    HW130911   7.004   2.405   3.867
10004SOL    HW230912   6.895   2.522   3.900
10005SOL     OW30913   5.561   0.363   4.381
10005SOL    HW130914   5.583   0.444   4.327
10005SOL    HW230915   5.630   0.292   4.363
10006SOL     OW30916   5.108   5.605   4.752
10006SOL    HW130917   5.199   5.575   4.724
10006SOL    HW230918   5.116   5.689   4.806
10007SOL     OW30919   6.800   4.256   4.977
10007SOL    HW130920   6.762   4.183   5.035
10007SOL    HW230921   6.760   4.343   5.004
10008SOL     OW30922   3.845   1.495   4.833
10008SOL    HW130923   3.864   1.577   4.886
10008SOL    HW230924   3.809   1.520   4.743
10009SOL     OW30925   1.828   3.651   2.167
10009SOL    HW130926   1.919   3.655   2.210
10009SOL    HW230927   1.781   3.568   2.196
10010SOL     OW30928   2.318   1.088   5.864
10010SOL    HW130929   2.239   1.058   5.812
10010SOL    HW230930   2.289   1.147   5.940
10011SOL     OW30931   6.163   0.818   6.069
10011SOL    HW130932   6.185   0.795   5.974
10011SOL    HW230933   6.211   0.902   6.095
10012SOL     OW30934   5.765   1.170   2.971
10012SOL    HW130935   5.773   1.072   2.987
10012SOL    HW230936   5.719   1.186   2.884
10013SOL     OW30937   0.391   1.334   3.154
10013SOL    HW130938   0.372   1.423   3.197
10013SOL    HW230939   0.326   1.266   3.188
10014SOL     OW30940   0.602   4.251   6.995
10014SOL    HW130941   0.622   4.208   0.063
10014SOL    HW230942   0.552   4.186   6.937
10015SOL     OW30943   2.721   4.857   0.851
10015SOL    HW130944   2.797   4.807   0.809
10015SOL    HW230945   2.731   4.954   0.831
10016SOL     OW30946   0.890   1.618   6.325
10016SOL    HW130947   0.866   1.670   6.407
10016SOL    HW230948   0.811   1.612   6.265
10017SOL     OW30949   3.075   2.087   3.161
10017SOL    HW130950   3.015   2.148   3.110
10017SOL    HW230951   3.048   2.087   3.258
10018SOL     OW30952   4.944   0.482   6.730
10018SOL    HW130953   4.914   0.430   6.810
10018SOL    HW230954   5.038   0.513   6.744
10019SOL     OW30955   0.499   1.639   2.773
10019SOL    HW130956   0.580   1.584   2.795
10019SOL    HW230957   0.417   1.590   2.804
10020SOL     OW30958   1.378   2.067   1.501
10020SOL    HW130959   1.398   1.998   1.570
10020SOL    HW230960   1.398   2.158   1.537
10021SOL     OW30961   6.768   2.918   1.166
10021SOL    HW130962   6.855   2.891   1.123
10021SOL    HW230963   6.749   3.014   1.146
10022SOL     OW30964   2.012   1.415   5.850
10022SOL    HW130965   2.048   1.506   5.830
10022SOL    HW230966   1.952   1.386   5.776
10023SOL     OW30967   6.967   4.634   0.832
10023SOL    HW130968   7.018   4.561   0.877
10023SOL    HW230969   6.872   4.606   0.819
10024SOL     OW30970   1.618   6.143   2.930
10024SOL    HW130971   1.621   6.105   2.837
10024SOL    HW230972   1.690   6.212   2.940
10025SOL     OW30973   1.602   0.737   0.694
10025SOL    HW130974   1.530   0.695   0.640
10025SOL    HW230975   1.663   0.789   0.634
10026SOL     OW30976   4.857   0.106   3.822
10026SOL    HW130977   4.917   0.101   3.742
10026SOL    HW230978   4.780   0.044   3.809
10027SOL     OW30979   5.751   3.243   4.568
10027SOL    HW130980   5.783   3.330   4.531
10027SOL    HW230981   5.796   3.168   4.520
10028SOL     OW30982   0.846   0.062   1.312
10028SOL    HW130983   0.922   0.011   1.353
10028SOL    HW230984   0.882   0.142   1.264
10029SOL     OW30985   5.489   2.028   3.690
10029SOL    HW130986   5.546   1.947   3.680
10029SOL    HW230987   5.406   2.004   3.741
10030SOL     OW30988   1.738   0.545   3.032
10030SOL    HW130989   1.750   0.640   3.001
10030SOL    HW230990   1.662   0.503   2.984
10031SOL     OW30991   5.512   4.936   3.982
10031SOL    HW130992   5.427   4.916   3.933
10031SOL    HW230993   5.560   5.010   3.935
10032SOL     OW30994   2.816   1.294   5.397
10032SOL    HW130995   2.842   1.265   5.490
10032SOL    HW230996   2.889   1.271   5.333
10033SOL     OW30997   6.654   3.612   4.241
10033SOL    HW130998   6.608   3.669   4.309
10033SOL    HW230999   6.694   3.532   4.286
10034SOL     OW31000   3.674   0.608   4.232
10034SOL    HW131001   3.677   0.705   4.256
10034SOL    HW231002   3.767   0.571   4.232
10035SOL     OW31003   6.356   5.430   2.201
10035SOL    HW131004   6.400   5.435   2.112
10035SOL    HW231005   6.300   5.512   2.215
10036SOL     OW31006   6.545   2.128   0.759
10036SOL    HW131007   6.491   2.045   0.746
10036SOL    HW231008   6.626   2.125   0.700
10037SOL     OW31009   6.947   1.514   6.221
10037SOL    HW131010   0.002   1.481   6.163
10037SOL    HW231011   6.947   1.614   6.222
10038SOL     OW31012   6.350   0.141   6.928
10038SOL    HW131013   6.357   0.150   6.828
10038SOL    HW231014   6.328   0.047   6.952
10039SOL     OW31015   3.156   0.150   3.380
10039SOL    HW131016   3.198   0.184   3.463
10039SOL    HW231017   3.143   0.051   3.387
10040SOL     OW31018   5.763   4.594   6.858
10040SOL    HW131019   5.740   4.563   6.950
10040SOL    HW231020   5.770   4.515   6.796
10041SOL     OW31021   3.380   6.142   0.437
10041SOL    HW131022   3.375   6.139   0.537
10041SOL    HW231023   3.449   6.077   0.406
10042SOL     OW31024   6.891   1.970   2.943
10042SOL    HW131025   6.881   2.003   2.850
10042SOL    HW231026   6.862   2.041   3.007
10043SOL     OW31027   6.564   2.070   5.869
10043SOL    HW131028   6.562   1.998   5.939
10043SOL    HW231029   6.658   2.085   5.840
10044SOL     OW31030   2.765   3.249   5.804
10044SOL    HW131031   2.699   3.213   5.737
10044SOL    HW231032   2.717   3.270   5.889
10045SOL     OW31033   4.303   1.169   0.440
10045SOL    HW131034   4.311   1.246   0.505
10045SOL    HW231035   4.236   1.192   0.370
10046SOL     OW31036   1.574   4.076   1.288
10046SOL    HW131037   1.539   4.136   1.215
10046SOL    HW231038   1.538   4.106   1.376
10047SOL     OW31039   0.943   3.513   6.240
10047SOL    HW131040   1.036   3.476   6.227
10047SOL    HW231041   0.945   3.612   6.226
10048SOL     OW31042   6.911   6.530   3.079
10048SOL    HW131043   6.932   6.474   3.160
10048SOL    HW231044   6.928   6.626   3.101
10049SOL     OW31045   0.510   3.012   6.062
10049SOL    HW131046   0.550   2.945   6.125
10049SOL    HW231047   0.520   3.104   6.101
10050SOL     OW31048   5.182   3.532   5.209
10050SOL    HW131049   5.221   3.450   5.170
10050SOL    HW231050   5.119   3.508   5.283
10051SOL     OW31051   0.976   4.405   4.682
10051SOL    HW131052   0.975   4.318   4.733
10051SOL    HW231053   0.921   4.472   4.730
10052SOL     OW31054   1.293   0.805   3.382
10052SOL    HW131055   1.231   0.767   3.450
10052SOL    HW231056   1.241   0.835   3.302
10053SOL     OW31057   5.102   5.413   4.327
10053SOL    HW131058   5.038   5.356   4.378
10053SOL    HW231059   5.134   5.363   4.247
10054SOL     OW31060   5.811   3.623   4.898
10054SOL    HW131061   5.725   3.640   4.850
10054SOL    HW231062   5.863   3.708   4.904
10055SOL     OW31063   6.665   2.477   6.717
10055SOL    HW131064   6.687   2.566   6.757
10055SOL    HW231065   6.739   2.413   6.736
10056SOL     OW31066   5.119   3.316   3.147
10056SOL    HW131067   5.197   3.378   3.140
10056SOL    HW231068   5.126   3.263   3.232
10057SOL     OW31069   5.623   4.228   6.291
10057SOL    HW131070   5.589   4.135   6.277
10057SOL    HW231071   5.550   4.293   6.273
10058SOL     OW31072   6.546   3.245   4.969
10058SOL    HW131073   6.562   3.334   4.926
10058SOL    HW231074   6.459   3.247   5.018
10059SOL     OW31075   6.586   1.434   0.241
10059SOL    HW131076   6.530   1.361   0.201
10059SOL    HW231077   6.571   1.437   0.340
10060SOL     OW31078   2.856   1.833   2.379
10060SOL    HW131079   2.801   1.911   2.410
10060SOL    HW231080   2.856   1.830   2.279
10061SOL     OW31081   4.060   0.974   4.085
10061SOL    HW131082   4.008   1.045   4.037
10061SOL    HW231083   4.145   1.014   4.119
10062SOL     OW31084   0.581   0.066   3.890
10062SOL    HW131085   0.571   0.166   3.896
10062SOL    HW231086   0.497   0.027   3.852
10063SOL     OW31087   1.720   2.251   4.774
10063SOL    HW131088   1.741   2.159   4.808
10063SOL    HW231089   1.806   2.303   4.766
10064SOL     OW31090   3.267   6.249   7.002
10064SOL    HW131091   3.243   6.343   0.005
10064SOL    HW231092   3.269   6.194   0.066
10065SOL     OW31093   0.897   0.479   1.809
10065SOL    HW131094   0.898   0.531   1.894
10065SOL    HW231095   0.835   0.401   1.818
10066SOL     OW31096   6.835   3.650   4.651
10066SOL    HW131097   6.902   3.673   4.581
10066SOL    HW231098   6.869   3.574   4.706
10067SOL     OW31099   0.877   2.934   6.313
10067SOL    HW131100   0.951   2.879   6.351
10067SOL    HW231101   0.915   3.011   6.261
10068SOL     OW31102   2.327   2.800   2.578
10068SOL    HW131103   2.356   2.705   2.589
10068SOL    HW231104   2.351   2.832   2.486
10069SOL     OW31105   3.636   5.045   1.751
10069SOL    HW131106   3.710   5.077   1.811
10069SOL    HW231107   3.548   5.077   1.787
10070SOL     OW31108   3.114   5.720   5.010
10070SOL    HW131109   3.042   5.771   5.056
10070SOL    HW231110   3.118   5.747   4.914
10071SOL     OW31111   0.577   6.636   3.214
10071SOL    HW131112   0.592   6.538   3.227
10071SOL    HW231113   0.584   6.682   3.302
10072SOL     OW31114   6.652   1.736   2.432
10072SOL    HW131115   6.702   1.741   2.518
10072SOL    HW231116   6.680   1.654   2.381
10073SOL     OW31117   6.074   3.193   4.328
10073SOL    HW131118   6.123   3.135   4.264
10073SOL    HW231119   6.096   3.289   4.311
10074SOL     OW31120   2.351   4.964   0.507
10074SOL    HW131121   2.449   4.950   0.520
10074SOL    HW231122   2.304   4.956   0.595
10075SOL     OW31123   1.784   2.024   2.277
10075SOL    HW131124   1.720   2.025   2.201
10075SOL    HW231125   1.805   2.118   2.304
10076SOL     OW31126   4.867   5.271   3.426
10076SOL    HW131127   4.812   5.352   3.408
10076SOL    HW231128   4.864   5.211   3.345
10077SOL     OW31129   6.272   3.336   6.722
10077SOL    HW131130   6.237   3.247   6.750
10077SOL    HW231131   6.372   3.334   6.721
10078SOL     OW31132   0.106   6.546   4.420
10078SOL    HW131133   0.047   6.528   4.499
10078SOL    HW231134   0.106   6.644   4.400
10079SOL     OW31135   5.187   2.849   3.075
10079SOL    HW131136   5.225   2.787   3.144
10079SOL    HW231137   5.131   2.796   3.011
10080SOL     OW31138   5.596   0.672   5.775
10080SOL    HW131139   5.565   0.706   5.687
10080SOL    HW231140   5.660   0.596   5.761
10081SOL     OW31141   1.670   2.145   0.569
10081SOL    HW131142   1.768   2.143   0.589
10081SOL    HW231143   1.655   2.116   0.474
10082SOL     OW31144   1.709   4.779   2.456
10082SOL    HW131145   1.655   4.730   2.388
10082SOL    HW231146   1.687   4.744   2.547
10083SOL     OW31147   3.985   5.119   3.819
10083SOL    HW131148   3.965   5.183   3.744
10083SOL    HW231149   4.004   5.029   3.780
10084SOL     OW31150   1.028   0.285   5.296
10084SOL    HW131151   1.030   0.275   5.197
10084SOL    HW231152   0.988   0.373   5.320
10085SOL     OW31153   4.118   6.453   0.640
10085SOL    HW131154   4.022   6.427   0.648
10085SOL    HW231155   4.123   6.549   0.612
10086SOL     OW31156   6.669   5.971   1.758
10086SOL    HW131157   6.686   6.016   1.846
10086SOL    HW231158   6.639   6.038   1.691
10087SOL     OW31159   1.635   6.467   4.302
10087SOL    HW131160   1.644   6.484   4.400
10087SOL    HW231161   1.560   6.402   4.286
10088SOL     OW31162   6.885   3.056   6.790
10088SOL    HW131163   6.950   3.007   6.847
10088SOL    HW231164   6.893   3.154   6.806
10089SOL     OW31165   4.428   1.721   1.906
10089SOL    HW131166   4.364   1.796   1.887
10089SOL    HW231167   4.379   1.633   1.898
10090SOL     OW31168   1.374   5.370   1.097
10090SOL    HW131169   1.386   5.464   1.066
10090SOL    HW231170   1.415   5.359   1.188
10091SOL     OW31171   6.242   4.629   5.864
10091SOL    HW131172   6.269   4.663   5.955
10091SOL    HW231173   6.145   4.608   5.865
10092SOL     OW31174   0.114   2.865   5.277
10092SOL    HW131175   0.025   2.871   5.232
10092SOL    HW231176   0.104   2.882   5.375
10093SOL     OW31177   5.716   4.033   5.937
10093SOL    HW131178   5.620   4.020   5.962
10093SOL    HW231179   5.732   3.997   5.845
10094SOL     OW31180   3.104   0.896   0.964
10094SOL    HW131181   3.039   0.958   0.920
10094SOL    HW231182   3.111   0.811   0.912
10095SOL     OW31183   5.215   2.931   5.335
10095SOL    HW131184   5.158   2.863   5.381
10095SOL    HW231185   5.169   2.963   5.253
10096SOL     OW31186   4.940   0.842   2.719
10096SOL    HW131187   4.853   0.830   2.766
10096SOL    HW231188   5.001   0.765   2.739
10097SOL     OW31189   1.439   1.836   6.723
10097SOL    HW131190   1.475   1.813   6.633
10097SOL    HW231191   1.462   1.763   6.788
10098SOL     OW31192   3.628   5.615   4.722
10098SOL    HW131193   3.541   5.578   4.755
10098SOL    HW231194   3.690   5.626   4.800
10099SOL     OW31195   6.926   4.526   2.208
10099SOL    HW131196   6.986   4.449   2.228
10099SOL    HW231197   6.967   4.611   2.241
10100SOL     OW31198   5.234   5.232   4.567
10100SOL    HW131199   5.138   5.261   4.566
10100SOL    HW231200   5.239   5.133   4.554
10101SOL     OW31201   0.860   1.735   0.987
10101SOL    HW131202   0.820   1.824   1.008
10101SOL    HW231203   0.789   1.673   0.954
10102SOL     OW31204   6.582   6.441   1.337
10102SOL    HW131205   6.561   6.525   1.287
10102SOL    HW231206   6.497   6.394   1.361
10103SOL     OW31207   0.020   6.488   5.946
10103SOL    HW131208   0.014   6.395   5.910
10103SOL    HW231209   6.955   6.537   5.926
10104SOL     OW31210   1.997   0.645   5.655
10104SOL    HW131211   2.052   0.618   5.734
10104SOL    HW231212   2.040   0.722   5.610
10105SOL     OW31213   2.402   0.872   6.042
10105SOL    HW131214   2.390   0.940   5.970
10105SOL    HW231215   2.322   0.871   6.101
10106SOL     OW31216   4.966   6.015   1.422
10106SOL    HW131217   4.993   5.928   1.464
10106SOL    HW231218   4.957   6.003   1.324
10107SOL     OW31219   5.291   4.196   6.645
10107SOL    HW131220   5.377   4.241   6.668
10107SOL    HW231221   5.215   4.251   6.677
10108SOL     OW31222   1.577   1.915   0.676
10108SOL    HW131223   1.631   1.993   0.644
10108SOL    HW231224   1.517   1.944   0.750
10109SOL     OW31225   0.947   1.285   0.569
10109SOL    HW131226   0.881   1.248   0.503
10109SOL    HW231227   0.942   1.233   0.654
10110SOL     OW31228   4.912   6.190   2.890
10110SOL    HW131229   4.948   6.280   2.912
10110SOL    HW231230   4.969   6.147   2.820
10111SOL     OW31231   1.200   1.503   2.130
10111SOL    HW131232   1.263   1.485   2.206
10111SOL    HW231233   1.247   1.559   2.062
10112SOL     OW31234   6.320   2.053   3.655
10112SOL    HW131235   6.387   2.108   3.705
10112SOL    HW231236   6.229   2.068   3.693
10113SOL     OW31237   5.850   1.265   6.666
10113SOL    HW131238   5.819   1.360   6.653
10113SOL    HW231239   5.949   1.261   6.656
10114SOL     OW31240   4.094   1.679   2.546
10114SOL    HW131241   4.166   1.724   2.492
10114SOL    HW231242   4.117   1.683   2.643
10115SOL     OW31243   3.323   2.164   5.271
10115SOL    HW131244   3.333   2.107   5.189
10115SOL    HW231245   3.275   2.248   5.247
10116SOL     OW31246   6.256   0.576   4.647
10116SOL    HW131247   6.337   0.599   4.700
10116SOL    HW231248   6.219   0.489   4.679
10117SOL     OW31249   6.768   5.499   4.011
10117SOL    HW131250   6.731   5.552   4.087
10117SOL    HW231251   6.860   5.532   3.988
10118SOL     OW31252   3.392   4.925   4.718
10118SOL    HW131253   3.485   4.949   4.746
10118SOL    HW231254   3.388   4.917   4.618
10119SOL     OW31255   0.313   5.049   4.735
10119SOL    HW131256   0.355   5.105   4.664
10119SOL    HW231257   0.384   5.005   4.790
10120SOL     OW31258   2.322   2.775   1.998
10120SOL    HW131259   2.269   2.856   2.022
10120SOL    HW231260   2.370   2.791   1.912
10121SOL     OW31261   6.184   4.294   0.854
10121SOL    HW131262   6.282   4.292   0.835
10121SOL    HW231263   6.151   4.200   0.867
10122SOL     OW31264   1.005   1.070   3.816
10122SOL    HW131265   0.932   1.091   3.881
10122SOL    HW231266   0.978   0.994   3.757
10123SOL     OW31267   5.752   5.774   0.593
10123SOL    HW131268   5.740   5.847   0.661
10123SOL    HW231269   5.729   5.686   0.634
10124SOL     OW31270   1.459   4.014   2.866
10124SOL    HW131271   1.545   3.988   2.910
10124SOL    HW231272   1.400   4.059   2.934
10125SOL     OW31273   1.047   1.975   6.287
10125SOL    HW131274   0.962   1.975   6.234
10125SOL    HW231275   1.030   2.010   6.379
10126SOL     OW31276   6.764   6.441   6.605
10126SOL    HW131277   6.826   6.518   6.590
10126SOL    HW231278   6.698   6.437   6.529
10127SOL     OW31279   2.010   5.352   6.133
10127SOL    HW131280   2.016   5.362   6.233
10127SOL    HW231281   1.995   5.442   6.092
10128SOL     OW31282   3.377   0.565   0.021
10128SOL    HW131283   3.346   0.657   0.044
10128SOL    HW231284   3.477   0.561   0.026
10129SOL     OW31285   6.124   1.362   4.076
10129SOL    HW131286   6.112   1.438   4.140
10129SOL    HW231287   6.112   1.395   3.982
10130SOL     OW31288   1.555   2.020   2.913
10130SOL    HW131289   1.487   2.092   2.928
10130SOL    HW231290   1.618   2.017   2.990
10131SOL     OW31291   2.326   0.552   4.610
10131SOL    HW131292   2.248   0.522   4.555
10131SOL    HW231293   2.323   0.507   4.700
10132SOL     OW31294   6.778   0.863   2.391
10132SOL    HW131295   6.857   0.884   2.334
10132SOL    HW231296   6.731   0.783   2.355
10133SOL     OW31297   4.830   6.722   0.223
10133SOL    HW131298   4.857   6.629   0.196
10133SOL    HW231299   4.909   6.770   0.260
10134SOL     OW31300   6.167   1.075   2.122
10134SOL    HW131301   6.198   1.003   2.060
10134SOL    HW231302   6.081   1.047   2.166
10135SOL     OW31303   6.061   0.096   2.559
10135SOL    HW131304   6.133   0.075   2.493
10135SOL    HW231305   5.972   0.084   2.516
10136SOL     OW31306   5.121   1.381   3.032
10136SOL    HW131307   5.045   1.428   2.988
10136SOL    HW231308   5.201   1.384   2.972
10137SOL     OW31309   6.378   5.381   5.776
10137SOL    HW131310   6.354   5.382   5.679
10137SOL    HW231311   6.338   5.460   5.822
10138SOL     OW31312   6.381   1.573   0.556
10138SOL    HW131313   6.450   1.503   0.540
10138SOL    HW231314   6.316   1.575   0.480
10139SOL     OW31315   3.357   3.640   5.658
10139SOL    HW131316   3.323   3.704   5.590
10139SOL    HW231317   3.454   3.623   5.643
10140SOL     OW31318   6.875   6.063   5.699
10140SOL    HW131319   6.810   5.997   5.660
10140SOL    HW231320   6.862   6.068   5.798
10141SOL     OW31321   2.409   1.764   4.059
10141SOL    HW131322   2.330   1.730   4.110
10141SOL    HW231323   2.439   1.693   3.994
10142SOL     OW31324   5.972   6.817   4.095
10142SOL    HW131325   5.972   6.816   3.995
10142SOL    HW231326   6.048   6.875   4.127
10143SOL     OW31327   5.542   3.429   0.021
10143SOL    HW131328   5.567   3.491   0.096
10143SOL    HW231329   5.622   3.413   6.983
10144SOL     OW31330   3.969   6.584   5.828
10144SOL    HW131331   3.926   6.656   5.883
10144SOL    HW231332   3.909   6.562   5.750
10145SOL     OW31333   5.173   6.348   6.884
10145SOL    HW131334   5.251   6.405   6.860
10145SOL    HW231335   5.203   6.253   6.897
10146SOL     OW31336   0.156   2.419   4.195
10146SOL    HW131337   0.195   2.511   4.194
10146SOL    HW231338   0.157   2.383   4.289
10147SOL     OW31339   5.002   5.937   6.117
10147SOL    HW131340   4.975   6.019   6.169
10147SOL    HW231341   4.930   5.915   6.051
10148SOL     OW31342   0.835   4.510   6.581
10148SOL    HW131343   0.887   4.568   6.518
10148SOL    HW231344   0.873   4.520   6.673
10149SOL     OW31345   4.454   4.513   0.590
10149SOL    HW131346   4.440   4.535   0.494
10149SOL    HW231347   4.526   4.444   0.600
10150SOL     OW31348   4.018   4.451   6.780
10150SOL    HW131349   3.972   4.420   6.863
10150SOL    HW231350   4.079   4.527   6.802
10151SOL     OW31351   6.092   6.605   5.405
10151SOL    HW131352   6.159   6.555   5.350
10151SOL    HW231353   6.053   6.679   5.351
10152SOL     OW31354   5.400   6.562   2.872
10152SOL    HW131355   5.310   6.559   2.827
10152SOL    HW231356   5.397   6.509   2.956
10153SOL     OW31357   5.049   4.251   3.519
10153SOL    HW131358   4.971   4.243   3.458
10153SOL    HW231359   5.086   4.344   3.514
10154SOL     OW31360   5.287   5.289   5.089
10154SOL    HW131361   5.370   5.265   5.140
10154SOL    HW231362   5.207   5.271   5.146
10155SOL     OW31363   4.110   1.916   4.986
10155SOL    HW131364   4.182   1.932   5.054
10155SOL    HW231365   4.067   2.003   4.963
10156SOL     OW31366   5.397   2.151   0.209
10156SOL    HW131367   5.393   2.062   0.255
10156SOL    HW231368   5.356   2.142   0.118
10157SOL     OW31369   0.008   2.784   1.087
10157SOL    HW131370   0.002   2.691   1.051
10157SOL    HW231371   0.098   2.798   1.129
10158SOL     OW31372   5.794   5.783   1.304
10158SOL    HW131373   5.704   5.739   1.306
10158SOL    HW231374   5.808   5.824   1.214
10159SOL     OW31375   3.613   3.203   2.415
10159SOL    HW131376   3.582   3.231   2.505
10159SOL    HW231377   3.598   3.278   2.350
10160SOL     OW31378   1.767   5.049   3.405
10160SOL    HW131379   1.827   4.970   3.413
10160SOL    HW231380   1.743   5.063   3.308
10161SOL     OW31381   4.958   3.456   5.733
10161SOL    HW131382   5.036   3.518   5.744
10161SOL    HW231383   4.908   3.481   5.650
10162SOL     OW31384   1.231   3.504   2.510
10162SOL    HW131385   1.180   3.506   2.596
10162SOL    HW231386   1.297   3.579   2.509
10163SOL     OW31387   1.134   6.094   4.912
10163SOL    HW131388   1.076   6.174   4.927
10163SOL    HW231389   1.194   6.110   4.833
10164SOL     OW31390   0.467   3.012   2.978
10164SOL    HW131391   0.391   2.992   3.040
10164SOL    HW231392   0.449   3.097   2.930
10165SOL     OW31393   6.589   3.243   4.002
10165SOL    HW131394   6.568   3.341   3.999
10165SOL    HW231395   6.680   3.230   4.041
10166SOL     OW31396   0.960   0.840   0.915
10166SOL    HW131397   1.021   0.808   0.987
10166SOL    HW231398   0.902   0.914   0.950
10167SOL     OW31399   1.561   0.188   6.817
10167SOL    HW131400   1.560   0.213   6.720
10167SOL    HW231401   1.650   0.150   6.842
10168SOL     OW31402   6.614   1.098   0.583
10168SOL    HW131403   6.552   1.037   0.533
10168SOL    HW231404   6.577   1.117   0.674
10169SOL     OW31405   6.446   2.299   3.746
10169SOL    HW131406   6.539   2.336   3.734
10169SOL    HW231407   6.380   2.366   3.713
10170SOL     OW31408   6.054   5.644   6.073
10170SOL    HW131409   6.114   5.620   6.149
10170SOL    HW231410   5.959   5.649   6.105
10171SOL     OW31411   2.428   3.483   6.052
10171SOL    HW131412   2.453   3.537   6.132
10171SOL    HW231413   2.420   3.387   6.078
10172SOL     OW31414   6.495   0.878   2.644
10172SOL    HW131415   6.458   0.801   2.593
10172SOL    HW231416   6.595   0.879   2.636
10173SOL     OW31417   3.121   4.507   5.929
10173SOL    HW131418   3.065   4.532   5.850
10173SOL    HW231419   3.111   4.576   6.001
10174SOL     OW31420   5.124   6.006   2.435
10174SOL    HW131421   5.029   6.033   2.419
10174SOL    HW231422   5.129   5.906   2.442
10175SOL     OW31423   0.318   1.311   4.139
10175SOL    HW131424   0.361   1.223   4.161
10175SOL    HW231425   0.363   1.351   4.060
10176SOL     OW31426   6.076   2.370   5.914
10176SOL    HW131427   5.978   2.389   5.915
10176SOL    HW231428   6.109   2.368   5.820
10177SOL     OW31429   2.556   0.785   2.688
10177SOL    HW131430   2.598   0.717   2.748
10177SOL    HW231431   2.616   0.865   2.682
10178SOL     OW31432   1.957   1.205   0.135
10178SOL    HW131433   1.941   1.248   0.046
10178SOL    HW231434   2.037   1.246   0.178
10179SOL     OW31435   0.754   4.126   1.431
10179SOL    HW131436   0.718   4.050   1.485
10179SOL    HW231437   0.740   4.107   1.334
10180SOL     OW31438   4.359   6.852   6.123
10180SOL    HW131439   4.262   6.839   6.138
10180SOL    HW231440   4.411   6.778   6.167
10181SOL     OW31441   6.932   3.396   1.979
10181SOL    HW131442   6.954   3.320   2.040
10181SOL    HW231443   7.009   3.460   1.976
10182SOL     OW31444   5.939   2.050   6.903
10182SOL    HW131445   5.941   2.103   6.818
10182SOL    HW231446   5.845   2.047   6.938
10183SOL     OW31447   6.572   2.804   6.564
10183SOL    HW131448   6.505   2.777   6.495
10183SOL    HW231449   6.526   2.810   6.653
10184SOL     OW31450   5.625   3.282   5.930
10184SOL    HW131451   5.679   3.288   5.846
10184SOL    HW231452   5.632   3.368   5.980
10185SOL     OW31453   4.126   5.536   2.236
10185SOL    HW131454   4.097   5.452   2.280
10185SOL    HW231455   4.066   5.611   2.264
10186SOL     OW31456   4.298   3.233   6.045
10186SOL    HW131457   4.389   3.222   6.005
10186SOL    HW231458   4.234   3.260   5.974
10187SOL     OW31459   1.573   5.329   6.144
10187SOL    HW131460   1.485   5.304   6.104
10187SOL    HW231461   1.620   5.246   6.176
10188SOL     OW31462   2.928   0.216   6.880
10188SOL    HW131463   2.980   0.283   6.932
10188SOL    HW231464   2.964   0.211   6.787
10189SOL     OW31465   0.851   2.024   6.074
10189SOL    HW131466   0.888   2.005   5.983
10189SOL    HW231467   0.785   1.953   6.099
10190SOL     OW31468   3.359   5.209   1.999
10190SOL    HW131469   3.450   5.249   1.991
10190SOL    HW231470   3.336   5.196   2.096
10191SOL     OW31471   5.745   5.308   0.086
10191SOL    HW131472   5.709   5.284   0.176
10191SOL    HW231473   5.744   5.228   0.027
10192SOL     OW31474   2.219   1.849   4.659
10192SOL    HW131475   2.251   1.809   4.745
10192SOL    HW231476   2.146   1.792   4.620
10193SOL     OW31477   3.895   3.958   3.350
10193SOL    HW131478   3.803   3.962   3.390
10193SOL    HW231479   3.963   3.956   3.423
10194SOL     OW31480   3.681   6.906   3.802
10194SOL    HW131481   3.747   6.873   3.869
10194SOL    HW231482   3.689   6.853   3.718
10195SOL     OW31483   4.331   6.554   1.859
10195SOL    HW131484   4.395   6.625   1.832
10195SOL    HW231485   4.379   6.482   1.909
10196SOL     OW31486   6.002   1.960   3.365
10196SOL    HW131487   5.937   1.998   3.431
10196SOL    HW231488   5.961   1.959   3.274
10197SOL     OW31489   5.930   0.675   2.381
10197SOL    HW131490   5.866   0.611   2.424
10197SOL    HW231491   5.888   0.765   2.374
10198SOL     OW31492   2.811   0.185   1.588
10198SOL    HW131493   2.762   0.251   1.645
10198SOL    HW231494   2.746   0.134   1.532
10199SOL     OW31495   0.347   1.383   6.690
10199SOL    HW131496   0.375   1.302   6.742
10199SOL    HW231497   0.252   1.373   6.661
10200SOL     OW31498   5.286   4.538   5.236
10200SOL    HW131499   5.318   4.499   5.150
10200SOL    HW231500   5.354   4.520   5.307
10201SOL     OW31501   1.078   5.018   2.330
10201SOL    HW131502   1.064   5.083   2.404
10201SOL    HW231503   1.052   4.926   2.360
10202SOL     OW31504   1.163   3.051   1.892
10202SOL    HW131505   1.174   3.024   1.987
10202SOL    HW231506   1.209   3.138   1.876
10203SOL     OW31507   2.177   3.005   2.379
10203SOL    HW131508   2.234   3.013   2.461
10203SOL    HW231509   2.081   3.002   2.406
10204SOL     OW31510   2.844   4.802   5.246
10204SOL    HW131511   2.797   4.798   5.158
10204SOL    HW231512   2.898   4.719   5.259
10205SOL     OW31513   5.067   2.284   3.297
10205SOL    HW131514   5.080   2.367   3.244
10205SOL    HW231515   4.977   2.287   3.341
10206SOL     OW31516   5.282   6.961   6.168
10206SOL    HW131517   5.262   7.015   6.250
10206SOL    HW231518   5.275   6.864   6.190
10207SOL     OW31519   3.915   1.110   3.225
10207SOL    HW131520   3.885   1.179   3.160
10207SOL    HW231521   3.954   1.032   3.176
10208SOL     OW31522   6.274   4.123   5.781
10208SOL    HW131523   6.203   4.106   5.713
10208SOL    HW231524   6.300   4.220   5.778
10209SOL     OW31525   6.571   6.420   6.383
10209SOL    HW131526   6.635   6.491   6.355
10209SOL    HW231527   6.524   6.385   6.302
10210SOL     OW31528   5.541   5.804   2.308
10210SOL    HW131529   5.560   5.726   2.249
10210SOL    HW231530   5.442   5.807   2.327
10211SOL     OW31531   3.711   5.895   5.225
10211SOL    HW131532   3.668   5.844   5.150
10211SOL    HW231533   3.686   5.992   5.218
10212SOL     OW31534   0.452   0.671   4.309
10212SOL    HW131535   0.356   0.689   4.286
10212SOL    HW231536   0.492   0.751   4.352
10213SOL     OW31537   5.926   1.598   3.676
10213SOL    HW131538   5.835   1.559   3.658
10213SOL    HW231539   5.960   1.642   3.593
10214SOL     OW31540   6.601   1.049   1.992
10214SOL    HW131541   6.542   0.986   1.941
10214SOL    HW231542   6.575   1.143   1.972
10215SOL     OW31543   3.739   4.094   6.944
10215SOL    HW131544   3.809   4.112   7.013
10215SOL    HW231545   3.697   4.004   6.962
10216SOL     OW31546   5.291   0.485   1.318
10216SOL    HW131547   5.236   0.529   1.389
10216SOL    HW231548   5.294   0.545   1.238
10217SOL     OW31549   2.565   1.720   4.528
10217SOL    HW131550   2.467   1.704   4.514
10217SOL    HW231551   2.591   1.807   4.485
10218SOL     OW31552   1.775   0.889   0.565
10218SOL    HW131553   1.869   0.896   0.598
10218SOL    HW231554   1.773   0.832   0.483
10219SOL     OW31555   0.788   2.455   1.307
10219SOL    HW131556   0.878   2.439   1.266
10219SOL    HW231557   0.737   2.369   1.309
10220SOL     OW31558   4.389   1.757   1.124
10220SOL    HW131559   4.331   1.707   1.188
10220SOL    HW231560   4.333   1.821   1.071
10221SOL     OW31561   2.910   0.424   5.223
10221SOL    HW131562   2.987   0.481   5.250
10221SOL    HW231563   2.830   0.448   5.277
10222SOL     OW31564   1.251   4.426   5.332
10222SOL    HW131565   1.220   4.519   5.350
10222SOL    HW231566   1.337   4.409   5.380
10223SOL     OW31567   1.789   4.341   0.157
10223SOL    HW131568   1.785   4.255   0.207
10223SOL    HW231569   1.704   4.392   0.170
10224SOL     OW31570   1.268   0.329   4.335
10224SOL    HW131571   1.352   0.324   4.390
10224SOL    HW231572   1.283   0.284   4.247
10225SOL     OW31573   6.812   6.059   5.063
10225SOL    HW131574   6.787   6.088   4.970
10225SOL    HW231575   6.865   5.975   5.059
10226SOL     OW31576   1.998   0.877   6.563
10226SOL    HW131577   1.933   0.847   6.632
10226SOL    HW231578   1.949   0.916   6.485
10227SOL     OW31579   4.759   4.880   6.862
10227SOL    HW131580   4.750   4.888   6.763
10227SOL    HW231581   4.708   4.800   6.894
10228SOL     OW31582   1.451   5.396   3.616
10228SOL    HW131583   1.549   5.416   3.607
10228SOL    HW231584   1.402   5.481   3.638
10229SOL     OW31585   1.177   0.492   3.204
10229SOL    HW131586   1.260   0.475   3.151
10229SOL    HW231587   1.201   0.519   3.297
10230SOL     OW31588   5.787   0.326   3.877
10230SOL    HW131589   5.826   0.324   3.785
10230SOL    HW231590   5.823   0.250   3.930
10231SOL     OW31591   5.454   6.486   4.947
10231SOL    HW131592   5.553   6.488   4.961
10231SOL    HW231593   5.427   6.559   4.885
10232SOL     OW31594   3.367   1.850   4.838
10232SOL    HW131595   3.367   1.754   4.867
10232SOL    HW231596   3.364   1.855   4.739
10233SOL     OW31597   4.769   2.409   5.721
10233SOL    HW131598   4.849   2.454   5.762
10233SOL    HW231599   4.686   2.450   5.757
10234SOL     OW31600   5.860   6.714   0.944
10234SOL    HW131601   5.805   6.764   1.011
10234SOL    HW231602   5.949   6.693   0.983
10235SOL     OW31603   4.635   1.761   0.152
10235SOL    HW131604   4.697   1.783   0.077
10235SOL    HW231605   4.569   1.693   0.122
10236SOL     OW31606   2.094   6.015   2.129
10236SOL    HW131607   2.191   5.996   2.143
10236SOL    HW231608   2.073   6.108   2.161
10237SOL     OW31609   6.191   3.948   2.560
10237SOL    HW131610   6.289   3.953   2.575
10237SOL    HW231611   6.149   3.888   2.629
10238SOL     OW31612   4.404   4.621   5.526
10238SOL    HW131613   4.349   4.543   5.498
10238SOL    HW231614   4.451   4.600   5.612
10239SOL     OW31615   0.408   4.058   4.759
10239SOL    HW131616   0.361   4.124   4.816
10239SOL    HW231617   0.430   3.977   4.813
10240SOL     OW31618   1.170   3.857   3.296
10240SOL    HW131619   1.267   3.873   3.280
10240SOL    HW231620   1.158   3.808   3.382
10241SOL     OW31621   1.066   1.804   2.452
10241SOL    HW131622   1.101   1.726   2.504
10241SOL    HW231623   1.101   1.801   2.359
10242SOL     OW31624   0.005   1.137   6.073
10242SOL    HW131625   0.094   1.090   6.079
10242SOL    HW231626   6.957   1.086   6.127
10243SOL     OW31627   0.796   5.764   1.526
10243SOL    HW131628   0.812   5.852   1.480
10243SOL    HW231629   0.840   5.691   1.475
10244SOL     OW31630   2.329   5.518   6.877
10244SOL    HW131631   2.236   5.538   6.844
10244SOL    HW231632   2.342   5.419   6.882
10245SOL     OW31633   1.338   3.014   6.237
10245SOL    HW131634   1.413   2.968   6.285
10245SOL    HW231635   1.339   2.988   6.141
10246SOL     OW31636   2.976   3.695   4.863
10246SOL    HW131637   3.016   3.700   4.954
10246SOL    HW231638   2.974   3.786   4.822
10247SOL     OW31639   0.107   5.160   6.122
10247SOL    HW131640   0.161   5.092   6.072
10247SOL    HW231641   0.158   5.189   6.203
10248SOL     OW31642   2.206   0.442   2.111
10248SOL    HW131643   2.148   0.414   2.034
10248SOL    HW231644   2.299   0.458   2.078
10249SOL     OW31645   4.500   1.175   6.021
10249SOL    HW131646   4.565   1.195   6.095
10249SOL    HW231647   4.447   1.258   6.001
10250SOL     OW31648   6.227   1.038   1.324
10250SOL    HW131649   6.285   1.078   1.254
10250SOL    HW231650   6.136   1.021   1.287
10251SOL     OW31651   2.862   2.529   0.110
10251SOL    HW131652   2.874   2.562   0.017
10251SOL    HW231653   2.793   2.456   0.110
10252SOL     OW31654   5.910   6.977   0.762
10252SOL    HW131655   5.990   0.017   0.766
10252SOL    HW231656   5.931   6.890   0.807
10253SOL     OW31657   5.013   4.365   0.158
10253SOL    HW131658   5.103   4.390   0.194
10253SOL    HW231659   5.017   4.273   0.120
10254SOL     OW31660   2.564   1.371   5.410
10254SOL    HW131661   2.658   1.336   5.413
10254SOL    HW231662   2.554   1.442   5.479
10255SOL     OW31663   2.234   5.529   2.244
10255SOL    HW131664   2.261   5.594   2.315
10255SOL    HW231665   2.289   5.543   2.162
10256SOL     OW31666   4.718   0.572   0.225
10256SOL    HW131667   4.809   0.612   0.214
10256SOL    HW231668   4.723   0.497   0.290
10257SOL     OW31669   1.315   5.293   6.033
10257SOL    HW131670   1.227   5.329   6.063
10257SOL    HW231671   1.301   5.202   5.992
10258SOL     OW31672   4.118   6.877   3.496
10258SOL    HW131673   4.146   6.783   3.515
10258SOL    HW231674   4.054   6.878   3.418
10259SOL     OW31675   0.299   4.111   4.276
10259SOL    HW131676   0.229   4.097   4.345
10259SOL    HW231677   0.274   4.062   4.192
10260SOL     OW31678   0.870   6.694   2.264
10260SOL    HW131679   0.911   6.616   2.218
10260SOL    HW231680   0.773   6.677   2.281
10261SOL     OW31681   0.595   4.990   2.005
10261SOL    HW131682   0.589   4.954   1.912
10261SOL    HW231683   0.508   5.033   2.030
10262SOL     OW31684   3.114   5.064   4.299
10262SOL    HW131685   3.075   4.978   4.332
10262SOL    HW231686   3.114   5.064   4.199
10263SOL     OW31687   5.326   1.750   6.100
10263SOL    HW131688   5.366   1.679   6.158
10263SOL    HW231689   5.282   1.819   6.159
10264SOL     OW31690   6.194   0.635   6.262
10264SOL    HW131691   6.236   0.675   6.343
10264SOL    HW231692   6.191   0.703   6.189
10265SOL     OW31693   3.574   1.371   3.044
10265SOL    HW131694   3.493   1.414   3.005
10265SOL    HW231695   3.555   1.274   3.064
10266SOL     OW31696   3.229   3.735   6.317
10266SOL    HW131697   3.193   3.802   6.253
10266SOL    HW231698   3.329   3.744   6.323
10267SOL     OW31699   6.780   1.816   6.680
10267SOL    HW131700   6.718   1.776   6.612
10267SOL    HW231701   6.867   1.838   6.636
10268SOL     OW31702   5.316   5.683   1.403
10268SOL    HW131703   5.357   5.719   1.487
10268SOL    HW231704   5.309   5.583   1.410
10269SOL     OW31705   2.122   2.422   6.110
10269SOL    HW131706   2.142   2.508   6.156
10269SOL    HW231707   2.086   2.441   6.019
10270SOL     OW31708   1.937   5.933   0.692
10270SOL    HW131709   2.007   5.903   0.757
10270SOL    HW231710   1.947   5.881   0.607
10271SOL     OW31711   4.077   3.455   1.374
10271SOL    HW131712   4.015   3.377   1.385
10271SOL    HW231713   4.166   3.434   1.414
10272SOL     OW31714   0.568   0.862   4.459
10272SOL    HW131715   0.647   0.897   4.408
10272SOL    HW231716   0.595   0.839   4.552
10273SOL     OW31717   4.010   5.840   4.585
10273SOL    HW131718   4.020   5.840   4.684
10273SOL    HW231719   3.917   5.865   4.560
10274SOL     OW31720   0.933   4.980   5.905
10274SOL    HW131721   0.895   4.954   5.994
10274SOL    HW231722   0.917   4.907   5.839
10275SOL     OW31723   1.004   6.336   3.027
10275SOL    HW131724   0.948   6.270   3.078
10275SOL    HW231725   1.047   6.291   2.949
10276SOL     OW31726   0.006   5.503   5.354
10276SOL    HW131727   6.996   5.413   5.323
10276SOL    HW231728   0.063   5.546   5.283
10277SOL     OW31729   3.308   6.281   4.148
10277SOL    HW131730   3.313   6.192   4.103
10277SOL    HW231731   3.254   6.344   4.093
10278SOL     OW31732   6.242   0.094   6.637
10278SOL    HW131733   6.196   0.172   6.594
10278SOL    HW231734   6.322   0.068   6.582
10279SOL     OW31735   3.032   0.020   4.436
10279SOL    HW131736   3.056   0.117   4.443
10279SOL    HW231737   2.968   0.007   4.360
10280SOL     OW31738   1.714   4.004   0.968
10280SOL    HW131739   1.653   4.024   0.892
10280SOL    HW231740   1.668   3.945   1.034
10281SOL     OW31741   4.368   1.247   2.752
10281SOL    HW131742   4.442   1.253   2.684
10281SOL    HW231743   4.348   1.339   2.786
10282SOL     OW31744   0.680   1.815   3.721
10282SOL    HW131745   0.716   1.776   3.637
10282SOL    HW231746   0.581   1.801   3.725
10283SOL     OW31747   1.191   3.224   0.863
10283SOL    HW131748   1.201   3.312   0.909
10283SOL    HW231749   1.251   3.157   0.906
10284SOL     OW31750   5.438   3.633   4.926
10284SOL    HW131751   5.453   3.730   4.942
10284SOL    HW231752   5.472   3.580   5.004
10285SOL     OW31753   4.651   1.021   0.680
10285SOL    HW131754   4.723   1.023   0.749
10285SOL    HW231755   4.568   0.981   0.720
10286SOL     OW31756   4.318   0.595   2.976
10286SOL    HW131757   4.308   0.561   3.070
10286SOL    HW231758   4.275   0.685   2.968
10287SOL     OW31759   1.681   6.990   1.518
10287SOL    HW131760   1.590   7.016   1.485
10287SOL    HW231761   1.740   0.050   1.521
10288SOL     OW31762   5.739   5.863   3.072
10288SOL    HW131763   5.770   5.805   2.996
10288SOL    HW231764   5.766   5.957   3.055
10289SOL     OW31765   2.862   1.679   1.578
10289SOL    HW131766   2.926   1.717   1.645
10289SOL    HW231767   2.769   1.683   1.615
10290SOL     OW31768   3.949   3.625   2.573
10290SOL    HW131769   4.025   3.652   2.633
10290SOL    HW231770   3.864   3.626   2.626
10291SOL     OW31771   3.266   0.393   3.902
10291SOL    HW131772   3.189   0.337   3.933
10291SOL    HW231773   3.346   0.375   3.961
10292SOL     OW31774   0.296   2.133   4.461
10292SOL    HW131775   0.389   2.099   4.475
10292SOL    HW231776   0.267   2.112   4.367
10293SOL     OW31777   2.240   5.911   3.076
10293SOL    HW131778   2.254   5.997   3.123
10293SOL    HW231779   2.143   5.884   3.084
10294SOL     OW31780   4.623   1.537   2.777
10294SOL    HW131781   4.557   1.528   2.852
10294SOL    HW231782   4.603   1.468   2.707
10295SOL     OW31783   6.932   4.670   5.792
10295SOL    HW131784   6.962   4.735   5.722
10295SOL    HW231785   6.989   4.588   5.787
10296SOL     OW31786   6.353   3.959   6.415
10296SOL    HW131787   6.414   3.989   6.489
10296SOL    HW231788   6.371   3.864   6.393
10297SOL     OW31789   1.484   5.905   4.008
10297SOL    HW131790   1.517   5.858   4.090
10297SOL    HW231791   1.476   6.002   4.027
10298SOL     OW31792   5.252   3.999   3.865
10298SOL    HW131793   5.221   3.940   3.790
10298SOL    HW231794   5.245   3.949   3.952
10299SOL     OW31795   4.239   4.657   3.501
10299SOL    HW131796   4.321   4.702   3.537
10299SOL    HW231797   4.209   4.587   3.564
10300SOL     OW31798   1.092   3.214   2.153
10300SOL    HW131799   1.004   3.173   2.177
10300SOL    HW231800   1.098   3.305   2.193
10301SOL     OW31801   5.982   1.306   3.162
10301SOL    HW131802   5.918   1.262   3.097
10301SOL    HW231803   5.983   1.254   3.247
10302SOL     OW31804   1.388   5.967   2.690
10302SOL    HW131805   1.412   6.018   2.607
10302SOL    HW231806   1.311   5.906   2.670
10303SOL     OW31807   4.014   3.553   1.105
10303SOL    HW131808   4.033   3.527   1.200
10303SOL    HW231809   3.987   3.649   1.101
10304SOL     OW31810   6.975   6.842   3.144
10304SOL    HW131811   0.030   6.788   3.183
10304SOL    HW231812   6.986   6.938   3.170
10305SOL     OW31813   1.898   6.182   6.971
10305SOL    HW131814   1.852   6.209   0.036
10305SOL    HW231815   1.868   6.090   6.945
10306SOL     OW31816   4.447   5.791   0.432
10306SOL    HW131817   4.455   5.823   0.527
10306SOL    HW231818   4.535   5.804   0.386
10307SOL     OW31819   1.174   1.098   6.360
10307SOL    HW131820   1.148   1.192   6.339
10307SOL    HW231821   1.178   1.045   6.275
10308SOL     OW31822   3.305   5.770   3.689
10308SOL    HW131823   3.331   5.684   3.732
10308SOL    HW231824   3.206   5.772   3.675
10309SOL     OW31825   6.385   6.188   2.906
10309SOL    HW131826   6.416   6.099   2.872
10309SOL    HW231827   6.453   6.224   2.969
10310SOL     OW31828   3.222   3.869   2.359
10310SOL    HW131829   3.256   3.882   2.453
10310SOL    HW231830   3.123   3.861   2.360
10311SOL     OW31831   0.223   5.358   0.525
10311SOL    HW131832   0.216   5.259   0.513
10311SOL    HW231833   0.318   5.383   0.545
10312SOL     OW31834   3.277   4.536   0.485
10312SOL    HW131835   3.333   4.517   0.565
10312SOL    HW231836   3.295   4.629   0.453
10313SOL     OW31837   4.739   0.219   2.453
10313SOL    HW131838   4.704   0.136   2.497
10313SOL    HW231839   4.817   0.254   2.505
10314SOL     OW31840   6.339   0.174   0.524
10314SOL    HW131841   6.275   0.202   0.453
10314SOL    HW231842   6.319   0.223   0.609
10315SOL     OW31843   6.493   5.895   4.978
10315SOL    HW131844   6.439   5.835   5.037
10315SOL    HW231845   6.463   5.884   4.883
10316SOL     OW31846   0.364   3.689   4.662
10316SOL    HW131847   0.304   3.614   4.634
10316SOL    HW231848   0.423   3.715   4.586
10317SOL     OW31849   4.503   5.084   6.178
10317SOL    HW131850   4.422   5.068   6.235
10317SOL    HW231851   4.498   5.176   6.139
10318SOL     OW31852   6.196   5.382   1.400
10318SOL    HW131853   6.194   5.306   1.336
10318SOL    HW231854   6.264   5.364   1.471
10319SOL     OW31855   6.573   5.699   3.654
10319SOL    HW131856   6.521   5.738   3.731
10319SOL    HW231857   6.545   5.604   3.640
10320SOL     OW31858   0.380   6.164   0.794
10320SOL    HW131859   0.455   6.155   0.859
10320SOL    HW231860   0.403   6.233   0.725
10321SOL     OW31861   4.408   5.220   4.525
10321SOL    HW131862   4.445   5.230   4.433
10321SOL    HW231863   4.323   5.168   4.522
10322SOL     OW31864   6.713   4.551   0.827
10322SOL    HW131865   6.685   4.462   0.863
10322SOL    HW231866   6.703   4.551   0.728
10323SOL     OW31867   5.282   2.983   5.842
10323SOL    HW131868   5.349   3.033   5.787
10323SOL    HW231869   5.191   2.995   5.803
10324SOL     OW31870   2.956   3.807   3.415
10324SOL    HW131871   3.030   3.868   3.443
10324SOL    HW231872   2.960   3.794   3.316
10325SOL     OW31873   0.222   2.855   3.089
10325SOL    HW131874   0.150   2.855   3.158
10325SOL    HW231875   0.218   2.770   3.036
10326SOL     OW31876   5.355   2.691   0.593
10326SOL    HW131877   5.258   2.712   0.583
10326SOL    HW231878   5.388   2.727   0.680
10327SOL     OW31879   0.536   0.730   3.096
10327SOL    HW131880   0.521   0.813   3.150
10327SOL    HW231881   0.466   0.724   3.024
10328SOL     OW31882   5.946   3.689   2.523
10328SOL    HW131883   6.013   3.742   2.576
10328SOL    HW231884   5.910   3.615   2.579
10329SOL     OW31885   2.813   0.137   3.008
10329SOL    HW131886   2.893   0.084   2.978
10329SOL    HW231887   2.834   0.181   3.096
10330SOL     OW31888   4.114   5.267   2.361
10330SOL    HW131889   4.118   5.223   2.450
10330SOL    HW231890   4.047   5.221   2.303
10331SOL     OW31891   5.094   1.097   3.735
10331SOL    HW131892   5.072   1.031   3.663
10331SOL    HW231893   5.134   1.050   3.813
10332SOL     OW31894   0.059   2.085   6.609
10332SOL    HW131895   0.058   2.108   6.707
10332SOL    HW231896   0.035   1.989   6.598
10333SOL     OW31897   6.083   5.569   4.443
10333SOL    HW131898   5.988   5.596   4.425
10333SOL    HW231899   6.129   5.550   4.356
10334SOL     OW31900   1.898   4.345   4.212
10334SOL    HW131901   1.830   4.275   4.189
10334SOL    HW231902   1.893   4.419   4.144
10335SOL     OW31903   2.119   5.200   1.166
10335SOL    HW131904   2.204   5.227   1.120
10335SOL    HW231905   2.048   5.268   1.148
10336SOL     OW31906   4.081   6.812   1.995
10336SOL    HW131907   4.119   6.863   2.073
10336SOL    HW231908   4.124   6.722   1.991
10337SOL     OW31909   0.308   5.393   4.845
10337SOL    HW131910   0.218   5.350   4.836
10337SOL    HW231911   0.378   5.328   4.817
10338SOL     OW31912   2.748   6.655   2.584
10338SOL    HW131913   2.768   6.752   2.591
10338SOL    HW231914   2.682   6.629   2.654
10339SOL     OW31915   2.604   6.382   1.371
10339SOL    HW131916   2.598   6.297   1.422
10339SOL    HW231917   2.521   6.436   1.385
10340SOL     OW31918   2.030   6.183   0.464
10340SOL    HW131919   2.111   6.155   0.515
10340SOL    HW231920   2.049   6.175   0.366
10341SOL     OW31921   2.276   1.450   2.357
10341SOL    HW131922   2.288   1.530   2.297
10341SOL    HW231923   2.301   1.367   2.307
10342SOL     OW31924   2.135   0.662   5.885
10342SOL    HW131925   2.222   0.621   5.858
10342SOL    HW231926   2.145   0.705   5.974
10343SOL     OW31927   2.807   3.901   5.927
10343SOL    HW131928   2.753   3.980   5.956
10343SOL    HW231929   2.837   3.850   6.008
10344SOL     OW31930   4.069   3.449   4.996
10344SOL    HW131931   4.073   3.352   4.971
10344SOL    HW231932   3.987   3.466   5.051
10345SOL     OW31933   2.045   1.259   6.548
10345SOL    HW131934   1.998   1.257   6.459
10345SOL    HW231935   1.979   1.286   6.619
10346SOL     OW31936   5.195   0.039   6.923
10346SOL    HW131937   5.179   6.966   6.888
10346SOL    HW231938   5.115   0.069   6.975
10347SOL     OW31939   5.531   1.731   1.411
10347SOL    HW131940   5.499   1.639   1.388
10347SOL    HW231941   5.465   1.776   1.471
10348SOL     OW31942   6.310   0.534   5.928
10348SOL    HW131943   6.212   0.517   5.915
10348SOL    HW231944   6.352   0.451   5.967
10349SOL     OW31945   6.787   1.325   1.393
10349SOL    HW131946   6.790   1.319   1.493
10349SOL    HW231947   6.857   1.388   1.360
10350SOL     OW31948   2.750   5.773   4.236
10350SOL    HW131949   2.725   5.861   4.197
10350SOL    HW231950   2.821   5.786   4.306
10351SOL     OW31951   5.455   4.984   5.568
10351SOL    HW131952   5.459   5.065   5.510
10351SOL    HW231953   5.365   4.977   5.610
10352SOL     OW31954   6.110   2.253   0.135
10352SOL    HW131955   6.202   2.237   0.170
10352SOL    HW231956   6.090   2.187   0.063
10353SOL     OW31957   0.186   2.419   3.145
10353SOL    HW131958   0.283   2.396   3.150
10353SOL    HW231959   0.153   2.450   3.234
10354SOL     OW31960   0.666   3.753   0.573
10354SOL    HW131961   0.569   3.731   0.572
10354SOL    HW231962   0.696   3.780   0.482
10355SOL     OW31963   1.336   0.244   0.755
10355SOL    HW131964   1.387   0.158   0.758
10355SOL    HW231965   1.295   0.255   0.664
10356SOL     OW31966   6.912   4.000   6.611
10356SOL    HW131967   6.944   3.906   6.603
10356SOL    HW231968   6.952   4.055   6.538
10357SOL     OW31969   1.003   3.128   6.151
10357SOL    HW131970   1.065   3.171   6.217
10357SOL    HW231971   0.940   3.198   6.115
10358SOL     OW31972   0.718   2.231   2.823
10358SOL    HW131973   0.743   2.212   2.918
10358SOL    HW231974   0.761   2.164   2.763
10359SOL     OW31975   5.619   2.045   2.323
10359SOL    HW131976   5.565   2.035   2.406
10359SOL    HW231977   5.670   2.131   2.326
10360SOL     OW31978   6.103   4.663   2.482
10360SOL    HW131979   6.013   4.704   2.468
10360SOL    HW231980   6.097   4.593   2.553
10361SOL     OW31981   0.374   1.801   1.247
10361SOL    HW131982   0.292   1.852   1.273
10361SOL    HW231983   0.390   1.727   1.312
10362SOL     OW31984   1.665   4.661   2.715
10362SOL    HW131985   1.645   4.613   2.800
10362SOL    HW231986   1.716   4.745   2.734
10363SOL     OW31987   5.021   4.142   0.926
10363SOL    HW131988   5.109   4.094   0.921
10363SOL    HW231989   4.955   4.085   0.974
10364SOL     OW31990   5.867   4.582   1.993
10364SOL    HW131991   5.822   4.598   2.081
10364SOL    HW231992   5.798   4.569   1.922
10365SOL     OW31993   6.065   5.504   0.340
10365SOL    HW131994   6.106   5.522   0.430
10365SOL    HW231995   5.976   5.549   0.335
10366SOL     OW31996   3.028   6.258   2.932
10366SOL    HW131997   3.092   6.201   2.880
10366SOL    HW231998   2.987   6.204   3.005
10367SOL     OW31999   6.214   2.360   0.573
10367SOL    HW132000   6.147   2.432   0.593
10367SOL    HW232001   6.301   2.383   0.616
10368SOL     OW32002   1.948   0.090   2.328
10368SOL    HW132003   1.872   0.148   2.357
10368SOL    HW232004   1.917   7.015   2.322
10369SOL     OW32005   3.568   6.503   5.700
10369SOL    HW132006   3.486   6.516   5.645
10369SOL    HW232007   3.642   6.468   5.642
10370SOL     OW32008   0.285   1.863   4.292
10370SOL    HW132009   0.212   1.797   4.310
10370SOL    HW232010   0.267   1.909   4.205
10371SOL     OW32011   3.202   6.144   3.257
10371SOL    HW132012   3.107   6.176   3.253
10371SOL    HW232013   3.260   6.217   3.292
10372SOL     OW32014   2.628   0.065   1.433
10372SOL    HW132015   2.662   6.999   1.394
10372SOL    HW232016   2.559   0.104   1.372
10373SOL     OW32017   0.008   1.998   5.361
10373SOL    HW132018   6.972   2.079   5.380
10373SOL    HW232019   0.059   1.972   5.443
10374SOL     OW32020   3.389   0.117   4.305
10374SOL    HW132021   3.340   0.072   4.380
10374SOL    HW232022   3.337   0.196   4.273
10375SOL     OW32023   4.018   2.868   0.334
10375SOL    HW132024   3.924   2.859   0.302
10375SOL    HW232025   4.071   2.789   0.305
10376SOL     OW32026   1.836   5.777   2.603
10376SOL    HW132027   1.888   5.692   2.603
10376SOL    HW232028   1.890   5.850   2.561
10377SOL     OW32029   0.582   1.692   2.130
10377SOL    HW132030   0.593   1.709   2.032
10377SOL    HW232031   0.504   1.744   2.165
10378SOL     OW32032   7.003   4.866   5.616
10378SOL    HW132033   6.989   4.811   5.535
10378SOL    HW232034   0.024   4.954   5.591
10379SOL     OW32035   2.362   6.952   4.399
10379SOL    HW132036   2.430   6.955   4.472
10379SOL    HW232037   2.329   0.025   4.381
10380SOL     OW32038   1.521   2.416   4.854
10380SOL    HW132039   1.600   2.374   4.809
10380SOL    HW232040   1.550   2.502   4.897
10381SOL     OW32041   4.486   4.264   1.581
10381SOL    HW132042   4.420   4.329   1.543
10381SOL    HW232043   4.485   4.270   1.680
10382SOL     OW32044   3.264   4.784   1.870
10382SOL    HW132045   3.345   4.736   1.838
10382SOL    HW232046   3.254   4.869   1.819
10383SOL     OW32047   2.025   4.156   0.456
10383SOL    HW132048   2.098   4.145   0.389
10383SOL    HW232049   1.939   4.121   0.419
10384SOL     OW32050   6.057   6.250   1.391
10384SOL    HW132051   6.148   6.272   1.357
10384SOL    HW232052   6.054   6.154   1.419
10385SOL     OW32053   3.525   4.481   6.213
10385SOL    HW132054   3.458   4.436   6.154
10385SOL    HW232055   3.477   4.532   6.284
10386SOL     OW32056   6.486   0.741   6.087
10386SOL    HW132057   6.429   0.711   6.010
10386SOL    HW232058   6.468   0.684   6.167
10387SOL     OW32059   4.926   3.299   2.863
10387SOL    HW132060   5.023   3.298   2.837
10387SOL    HW232061   4.898   3.393   2.884
10388SOL     OW32062   3.023   0.344   5.562
10388SOL    HW132063   3.045   0.441   5.549
10388SOL    HW232064   2.926   0.334   5.581
10389SOL     OW32065   0.275   3.661   0.311
10389SOL    HW132066   0.372   3.648   0.288
10389SOL    HW232067   0.240   3.578   0.355
10390SOL     OW32068   2.585   2.092   1.139
10390SOL    HW132069   2.675   2.052   1.154
10390SOL    HW232070   2.519   2.051   1.201
10391SOL     OW32071   0.428   6.428   2.851
10391SOL    HW132072   0.414   6.526   2.865
10391SOL    HW232073   0.521   6.404   2.878
10392SOL     OW32074   0.019   5.422   5.005
10392SOL    HW132075   0.049   5.373   4.923
10392SOL    HW232076   0.096   5.473   5.044
10393SOL     OW32077   2.190   3.897   4.217
10393SOL    HW132078   2.242   3.956   4.279
10393SOL    HW232079   2.116   3.853   4.267
10394SOL     OW32080   3.468   6.125   4.329
10394SOL    HW132081   3.553   6.106   4.281
10394SOL    HW232082   3.411   6.185   4.273
10395SOL     OW32083   6.623   6.090   0.864
10395SOL    HW132084   6.589   6.180   0.836
10395SOL    HW232085   6.629   6.086   0.963
10396SOL     OW32086   3.248   2.108   3.875
10396SOL    HW132087   3.330   2.076   3.923
10396SOL    HW232088   3.271   2.128   3.779
10397SOL     OW32089   3.318   2.055   2.257
10397SOL    HW132090   3.403   2.093   2.220
10397SOL    HW232091   3.240   2.089   2.204
10398SOL     OW32092   0.135   3.331   1.644
10398SOL    HW132093   0.176   3.319   1.734
10398SOL    HW232094   0.109   3.427   1.631
10399SOL     OW32095   5.968   2.769   2.956
10399SOL    HW132096   5.985   2.683   2.908
10399SOL    HW232097   5.875   2.801   2.934
10400SOL     OW32098   4.050   6.852   0.271
10400SOL    HW132099   3.975   6.811   0.219
10400SOL    HW232100   4.077   6.791   0.346
10401SOL     OW32101   6.474   0.462   3.554
10401SOL    HW132102   6.536   0.463   3.476
10401SOL    HW232103   6.476   0.551   3.600
10402SOL     OW32104   6.163   3.090   4.866
10402SOL    HW132105   6.173   3.184   4.833
10402SOL    HW232106   6.077   3.052   4.832
10403SOL     OW32107   3.370   0.858   3.948
10403SOL    HW132108   3.445   0.920   3.972
10403SOL    HW232109   3.407   0.770   3.920
10404SOL     OW32110   5.764   7.004   5.351
10404SOL    HW132111   5.684   0.028   5.393
10404SOL    HW232112   5.818   0.053   5.302
10405SOL     OW32113   0.785   1.819   5.855
10405SOL    HW132114   0.697   1.864   5.837
10405SOL    HW232115   0.859   1.885   5.847
10406SOL     OW32116   3.502   4.975   2.427
10406SOL    HW132117   3.592   4.991   2.467
10406SOL    HW232118   3.502   5.006   2.332
10407SOL     OW32119   3.180   5.794   5.922
10407SOL    HW132120   3.160   5.792   6.020
10407SOL    HW232121   3.169   5.703   5.884
10408SOL     OW32122   4.812   1.103   0.487
10408SOL    HW132123   4.738   1.082   0.424
10408SOL    HW232124   4.779   1.094   0.581
10409SOL     OW32125   0.148   4.721   1.021
10409SOL    HW132126   0.130   4.665   1.102
10409SOL    HW232127   0.064   4.732   0.969
10410SOL     OW32128   5.862   1.008   7.015
10410SOL    HW132129   5.921   1.089   7.004
10410SOL    HW232130   5.819   0.986   6.928
10411SOL     OW32131   3.429   6.846   2.857
10411SOL    HW132132   3.423   6.938   2.895
10411SOL    HW232133   3.470   6.850   2.766
10412SOL     OW32134   5.769   0.368   0.599
10412SOL    HW132135   5.812   0.335   0.515
10412SOL    HW232136   5.775   0.298   0.670
10413SOL     OW32137   6.719   2.031   1.291
10413SOL    HW132138   6.655   2.031   1.214
10413SOL    HW232139   6.671   2.060   1.374
10414SOL     OW32140   4.341   4.252   5.619
10414SOL    HW132141   4.321   4.284   5.712
10414SOL    HW232142   4.300   4.314   5.552
10415SOL     OW32143   0.183   4.518   5.449
10415SOL    HW132144   0.128   4.516   5.532
10415SOL    HW232145   0.262   4.577   5.463
10416SOL     OW32146   6.261   0.897   3.272
10416SOL    HW132147   6.247   0.817   3.329
10416SOL    HW232148   6.294   0.973   3.328
10417SOL     OW32149   3.944   5.592   4.442
10417SOL    HW132150   3.929   5.627   4.350
10417SOL    HW232151   3.973   5.666   4.502
10418SOL     OW32152   6.929   4.836   6.189
10418SOL    HW132153   6.884   4.842   6.100
10418SOL    HW232154   7.001   4.766   6.186
10419SOL     OW32155   1.347   0.363   6.670
10419SOL    HW132156   1.377   0.449   6.628
10419SOL    HW232157   1.396   0.350   6.756
10420SOL     OW32158   6.408   2.961   2.449
10420SOL    HW132159   6.485   2.898   2.435
10420SOL    HW232160   6.385   3.005   2.362
10421SOL     OW32161   0.240   1.767   3.433
10421SOL    HW132162   0.283   1.837   3.375
10421SOL    HW232163   0.302   1.741   3.506
10422SOL     OW32164   6.143   2.372   5.632
10422SOL    HW132165   6.225   2.314   5.642
10422SOL    HW232166   6.105   2.360   5.541
10423SOL     OW32167   5.191   4.903   4.498
10423SOL    HW132168   5.237   4.846   4.430
10423SOL    HW232169   5.108   4.857   4.530
10424SOL     OW32170   5.356   3.237   0.294
10424SOL    HW132171   5.359   3.259   0.196
10424SOL    HW232172   5.329   3.142   0.306
10425SOL     OW32173   2.144   6.899   2.112
10425SOL    HW132174   2.180   6.888   2.205
10425SOL    HW232175   2.051   6.936   2.117
10426SOL     OW32176   6.617   4.185   0.618
10426SOL    HW132177   6.706   4.177   0.573
10426SOL    HW232178   6.546   4.201   0.550
10427SOL     OW32179   3.734   1.339   6.959
10427SOL    HW132180   3.664   1.285   7.007
10427SOL    HW232181   3.732   1.433   6.993
10428SOL     OW32182   2.720   1.530   4.394
10428SOL    HW132183   2.765   1.564   4.311
10428SOL    HW232184   2.667   1.605   4.434
10429SOL     OW32185   0.607   5.550   1.303
10429SOL    HW132186   0.576   5.477   1.242
10429SOL    HW232187   0.531   5.612   1.322
10430SOL     OW32188   4.362   6.627   3.727
10430SOL    HW132189   4.354   6.727   3.725
10430SOL    HW232190   4.403   6.599   3.814
10431SOL     OW32191   3.636   6.766   5.261
10431SOL    HW132192   3.677   6.818   5.186
10431SOL    HW232193   3.708   6.717   5.310
10432SOL     OW32194   6.277   0.284   4.346
10432SOL    HW132195   6.243   0.329   4.264
10432SOL    HW232196   6.356   0.334   4.382
10433SOL     OW32197   2.013   6.825   1.485
10433SOL    HW132198   1.954   6.798   1.560
10433SOL    HW232199   2.096   6.867   1.521
10434SOL     OW32200   4.041   6.702   3.052
10434SOL    HW132201   4.057   6.623   2.992
10434SOL    HW232202   4.019   6.782   2.997
10435SOL     OW32203   6.706   0.394   4.847
10435SOL    HW132204   6.769   0.316   4.844
10435SOL    HW232205   6.726   0.449   4.928
10436SOL     OW32206   0.355   5.229   5.647
10436SOL    HW132207   0.417   5.175   5.590
10436SOL    HW232208   0.359   5.196   5.741
10437SOL     OW32209   5.936   4.723   5.354
10437SOL    HW132210   6.029   4.733   5.390
10437SOL    HW232211   5.880   4.799   5.386
10438SOL     OW32212   5.369   6.529   6.842
10438SOL    HW132213   5.350   6.563   6.934
10438SOL    HW232214   5.455   6.567   6.809
10439SOL     OW32215   3.741   1.551   6.077
10439SOL    HW132216   3.717   1.455   6.095
10439SOL    HW232217   3.828   1.553   6.027
10440SOL     OW32218   1.320   6.284   0.336
10440SOL    HW132219   1.393   6.319   0.278
10440SOL    HW232220   1.247   6.247   0.279
10441SOL     OW32221   5.123   1.656   0.173
10441SOL    HW132222   5.183   1.689   0.100
10441SOL    HW232223   5.106   1.729   0.238
10442SOL     OW32224   2.970   5.769   5.580
10442SOL    HW132225   2.990   5.711   5.500
10442SOL    HW232226   2.907   5.721   5.641
10443SOL     OW32227   5.150   3.419   4.545
10443SOL    HW132228   5.053   3.432   4.526
10443SOL    HW232229   5.162   3.359   4.624
10444SOL     OW32230   4.234   5.924   4.795
10444SOL    HW132231   4.303   5.994   4.817
10444SOL    HW232232   4.280   5.836   4.779
10445SOL     OW32233   0.742   5.150   3.691
10445SOL    HW132234   0.815   5.136   3.759
10445SOL    HW232235   0.653   5.140   3.736
10446SOL     OW32236   1.072   3.409   5.893
10446SOL    HW132237   1.095   3.404   5.990
10446SOL    HW232238   0.981   3.372   5.878
10447SOL     OW32239   0.189   1.631   1.938
10447SOL    HW132240   0.115   1.639   1.872
10447SOL    HW232241   0.177   1.698   2.011
10448SOL     OW32242   4.237   2.849   1.127
10448SOL    HW132243   4.158   2.816   1.180
10448SOL    HW232244   4.227   2.947   1.110
10449SOL     OW32245   2.664   5.388   4.371
10449SOL    HW132246   2.634   5.304   4.416
10449SOL    HW232247   2.763   5.398   4.382
10450SOL     OW32248   0.424   2.543   0.239
10450SOL    HW132249   0.355   2.473   0.219
10450SOL    HW232250   0.378   2.626   0.270
10451SOL     OW32251   2.874   4.980   2.824
10451SOL    HW132252   2.887   5.076   2.852
10451SOL    HW232253   2.834   4.929   2.900
10452SOL     OW32254   6.392   3.519   3.595
10452SOL    HW132255   6.315   3.495   3.536
10452SOL    HW232256   6.414   3.616   3.583
10453SOL     OW32257   5.037   6.237   1.891
10453SOL    HW132258   5.060   6.273   1.981
10453SOL    HW232259   5.120   6.226   1.837
10454SOL     OW32260   5.472   2.741   1.495
10454SOL    HW132261   5.513   2.718   1.407
10454SOL    HW232262   5.493   2.836   1.518
10455SOL     OW32263   0.678   4.515   3.085
10455SOL    HW132264   0.625   4.585   3.036
10455SOL    HW232265   0.704   4.550   3.175
10456SOL     OW32266   3.014   6.231   1.426
10456SOL    HW132267   2.971   6.282   1.500
10456SOL    HW232268   3.113   6.242   1.431
10457SOL     OW32269   3.334   3.393   3.148
10457SOL    HW132270   3.377   3.322   3.092
10457SOL    HW232271   3.235   3.378   3.151
10458SOL     OW32272   0.241   0.199   0.121
10458SOL    HW132273   0.179   0.252   0.179
10458SOL    HW232274   0.227   0.101   0.138
10459SOL     OW32275   5.505   5.488   2.845
10459SOL    HW132276   5.521   5.389   2.849
10459SOL    HW232277   5.413   5.505   2.808
10460SOL     OW32278   1.616   5.532   1.417
10460SOL    HW132279   1.629   5.472   1.496
10460SOL    HW232280   1.688   5.600   1.415
10461SOL     OW32281   0.922   5.962   5.430
10461SOL    HW132282   0.892   5.867   5.418
10461SOL    HW232283   0.912   5.988   5.526
10462SOL     OW32284   5.789   1.478   1.906
10462SOL    HW132285   5.723   1.544   1.870
10462SOL    HW232286   5.882   1.514   1.895
10463SOL     OW32287   3.614   3.874   6.088
10463SOL    HW132288   3.699   3.827   6.115
10463SOL    HW232289   3.591   3.848   5.994
10464SOL     OW32290   4.979   0.543   0.521
10464SOL    HW132291   4.954   0.640   0.515
10464SOL    HW232292   4.918   0.489   0.464
10465SOL     OW32293   6.785   0.415   6.680
10465SOL    HW132294   6.846   0.393   6.604
10465SOL    HW232295   6.736   0.333   6.708
10466SOL     OW32296   4.693   5.315   5.041
10466SOL    HW132297   4.759   5.388   5.062
10466SOL    HW232298   4.743   5.229   5.027
10467SOL     OW32299   1.567   1.671   5.400
10467SOL    HW132300   1.505   1.660   5.323
10467SOL    HW232301   1.536   1.746   5.458
10468SOL     OW32302   3.821   6.255   4.086
10468SOL    HW132303   3.867   6.324   4.030
10468SOL    HW232304   3.727   6.285   4.106
10469SOL     OW32305   3.451   3.800   0.876
10469SOL    HW132306   3.394   3.866   0.826
10469SOL    HW232307   3.547   3.815   0.853
10470SOL     OW32308   2.019   2.039   3.212
10470SOL    HW132309   1.950   2.107   3.185
10470SOL    HW232310   2.110   2.072   3.188
10471SOL     OW32311   1.899   3.561   1.368
10471SOL    HW132312   1.870   3.553   1.463
10471SOL    HW232313   1.820   3.546   1.308
10472SOL     OW32314   3.835   6.594   1.907
10472SOL    HW132315   3.880   6.616   1.820
10472SOL    HW232316   3.821   6.677   1.960
10473SOL     OW32317   5.456   6.928   0.870
10473SOL    HW132318   5.403   7.008   0.897
10473SOL    HW232319   5.421   6.847   0.918
10474SOL     OW32320   4.465   0.714   4.574
10474SOL    HW132321   4.475   0.722   4.673
10474SOL    HW232322   4.510   0.791   4.529
10475SOL     OW32323   4.692   5.969   1.344
10475SOL    HW132324   4.609   5.941   1.394
10475SOL    HW232325   4.750   6.023   1.405
10476SOL     OW32326   6.845   5.508   6.779
10476SOL    HW132327   6.800   5.507   6.689
10476SOL    HW232328   6.943   5.490   6.767
10477SOL     OW32329   6.305   3.204   5.080
10477SOL    HW132330   6.253   3.166   5.004
10477SOL    HW232331   6.271   3.167   5.167
10478SOL     OW32332   0.821   7.019   6.750
10478SOL    HW132333   0.867   6.949   6.805
10478SOL    HW232334   0.733   6.983   6.717
10479SOL     OW32335   1.138   2.213   1.879
10479SOL    HW132336   1.067   2.282   1.864
10479SOL    HW232337   1.166   2.175   1.791
10480SOL     OW32338   5.364   6.650   1.500
10480SOL    HW132339   5.415   6.618   1.420
10480SOL    HW232340   5.413   6.727   1.541
10481SOL     OW32341   2.423   1.145   4.594
10481SOL    HW132342   2.467   1.144   4.505
10481SOL    HW232343   2.489   1.121   4.665
10482SOL     OW32344   0.713   6.376   4.454
10482SOL    HW132345   0.624   6.422   4.444
10482SOL    HW232346   0.785   6.436   4.418
10483SOL     OW32347   6.457   5.224   0.664
10483SOL    HW132348   6.422   5.275   0.743
10483SOL    HW232349   6.380   5.183   0.615
10484SOL     OW32350   6.876   0.558   1.048
10484SOL    HW132351   6.885   0.629   0.977
10484SOL    HW232352   6.936   0.580   1.124
10485SOL     OW32353   3.838   4.039   2.982
10485SOL    HW132354   3.922   4.093   2.986
10485SOL    HW232355   3.769   4.079   3.043
10486SOL     OW32356   6.494   0.096   5.787
10486SOL    HW132357   6.592   0.078   5.800
10486SOL    HW232358   6.481   0.157   5.709
10487SOL     OW32359   5.129   1.660   1.644
10487SOL    HW132360   5.146   1.562   1.646
10487SOL    HW232361   5.110   1.692   1.737
10488SOL     OW32362   0.784   2.366   5.233
10488SOL    HW132363   0.775   2.361   5.332
10488SOL    HW232364   0.772   2.461   5.203
10489SOL     OW32365   6.125   5.732   3.888
10489SOL    HW132366   6.093   5.811   3.836
10489SOL    HW232367   6.179   5.763   3.967
10490SOL     OW32368   5.502   0.672   0.514
10490SOL    HW132369   5.499   0.663   0.614
10490SOL    HW232370   5.415   0.709   0.482
10491SOL     OW32371   1.589   2.889   6.358
10491SOL    HW132372   1.590   2.806   6.301
10491SOL    HW232373   1.632   2.870   6.446
10492SOL     OW32374   4.542   6.657   0.729
10492SOL    HW132375   4.588   6.646   0.642
10492SOL    HW232376   4.460   6.713   0.718
10493SOL     OW32377   4.208   5.457   1.008
10493SOL    HW132378   4.173   5.546   1.038
10493SOL    HW232379   4.304   5.449   1.033
10494SOL     OW32380   1.124   4.543   6.198
10494SOL    HW132381   1.151   4.504   6.110
10494SOL    HW232382   1.095   4.638   6.185
10495SOL     OW32383   6.879   6.177   6.560
10495SOL    HW132384   6.835   6.267   6.564
10495SOL    HW232385   6.915   6.153   6.650
10496SOL     OW32386   7.018   3.609   5.266
10496SOL    HW132387   6.927   3.610   5.305
10496SOL    HW232388   0.004   3.539   5.195
10497SOL     OW32389   2.386   6.776   2.009
10497SOL    HW132390   2.291   6.801   2.029
10497SOL    HW232391   2.389   6.713   1.932
10498SOL     OW32392   5.393   5.440   0.673
10498SOL    HW132393   5.449   5.438   0.590
10498SOL    HW232394   5.452   5.457   0.752
10499SOL     OW32395   6.034   5.768   1.470
10499SOL    HW132396   6.054   5.863   1.493
10499SOL    HW232397   5.944   5.763   1.427
10500SOL     OW32398   5.630   3.934   4.881
10500SOL    HW132399   5.677   3.886   4.807
10500SOL    HW232400   5.613   4.029   4.853
10501SOL     OW32401   2.607   5.548   2.448
10501SOL    HW132402   2.642   5.455   2.451
10501SOL    HW232403   2.682   5.612   2.462
10502SOL     OW32404   3.064   3.279   2.606
10502SOL    HW132405   3.090   3.184   2.623
10502SOL    HW232406   3.020   3.286   2.516
10503SOL     OW32407   6.859   3.895   6.210
10503SOL    HW132408   6.825   3.898   6.116
10503SOL    HW232409   6.829   3.977   6.259
10504SOL     OW32410   2.011   3.311   6.447
10504SOL    HW132411   1.966   3.315   6.357
10504SOL    HW232412   2.038   3.403   6.475
10505SOL     OW32413   5.541   6.096   2.018
10505SOL    HW132414   5.608   6.170   2.011
10505SOL    HW232415   5.584   6.016   2.061
10506SOL     OW32416   0.834   2.921   6.948
10506SOL    HW132417   0.784   2.942   6.864
10506SOL    HW232418   0.845   3.004   7.002
10507SOL     OW32419   2.438   4.501   0.126
10507SOL    HW132420   2.499   4.581   0.130
10507SOL    HW232421   2.486   4.425   0.082
10508SOL     OW32422   0.893   5.983   4.924
10508SOL    HW132423   0.910   5.884   4.930
10508SOL    HW232424   0.980   6.031   4.915
10509SOL     OW32425   4.920   3.414   4.042
10509SOL    HW132426   4.992   3.380   4.104
10509SOL    HW232427   4.908   3.512   4.056
10510SOL     OW32428   4.881   6.427   5.371
10510SOL    HW132429   4.927   6.498   5.424
10510SOL    HW232430   4.789   6.459   5.346
10511SOL     OW32431   2.616   1.079   2.079
10511SOL    HW132432   2.672   1.081   1.997
10511SOL    HW232433   2.675   1.077   2.160
10512SOL     OW32434   4.126   0.327   6.039
10512SOL    HW132435   4.182   0.246   6.022
10512SOL    HW232436   4.128   0.348   6.136
10513SOL     OW32437   5.647   3.240   2.421
10513SOL    HW132438   5.727   3.300   2.419
10513SOL    HW232439   5.651   3.181   2.502
10514SOL     OW32440   1.279   2.347   1.634
10514SOL    HW132441   1.378   2.339   1.625
10514SOL    HW232442   1.234   2.317   1.550
10515SOL     OW32443   2.177   2.366   4.560
10515SOL    HW132444   2.230   2.332   4.638
10515SOL    HW232445   2.235   2.369   4.479
10516SOL     OW32446   3.384   2.276   0.064
10516SOL    HW132447   3.316   2.345   0.041
10516SOL    HW232448   3.394   2.270   0.164
10517SOL     OW32449   1.419   3.334   3.370
10517SOL    HW132450   1.358   3.402   3.330
10517SOL    HW232451   1.384   3.242   3.353
10518SOL     OW32452   0.756   5.114   2.177
10518SOL    HW132453   0.740   5.213   2.174
10518SOL    HW232454   0.697   5.068   2.111
10519SOL     OW32455   2.799   5.768   1.787
10519SOL    HW132456   2.849   5.805   1.866
10519SOL    HW232457   2.778   5.672   1.803
10520SOL     OW32458   6.630   1.872   6.093
10520SOL    HW132459   6.563   1.852   6.165
10520SOL    HW232460   6.633   1.795   6.029
10521SOL     OW32461   5.756   3.384   1.504
10521SOL    HW132462   5.727   3.455   1.569
10521SOL    HW232463   5.699   3.303   1.516
10522SOL     OW32464   6.209   2.442   2.963
10522SOL    HW132465   6.254   2.365   2.916
10522SOL    HW232466   6.217   2.524   2.908
10523SOL     OW32467   0.588   4.045   4.129
10523SOL    HW132468   0.640   4.100   4.194
10523SOL    HW232469   0.491   4.065   4.138
10524SOL     OW32470   0.286   5.271   3.442
10524SOL    HW132471   0.193   5.245   3.469
10524SOL    HW232472   0.285   5.305   3.348
10525SOL     OW32473   4.203   0.973   4.908
10525SOL    HW132474   4.214   0.984   5.006
10525SOL    HW232475   4.107   0.954   4.887
10526SOL     OW32476   0.458   5.731   0.614
10526SOL    HW132477   0.426   5.815   0.570
10526SOL    HW232478   0.525   5.754   0.685
10527SOL     OW32479   0.605   1.674   5.481
10527SOL    HW132480   0.630   1.734   5.557
10527SOL    HW232481   0.571   1.587   5.517
10528SOL     OW32482   0.725   4.773   6.833
10528SOL    HW132483   0.780   4.801   6.912
10528SOL    HW232484   0.747   4.832   6.755
10529SOL     OW32485   1.672   6.092   5.848
10529SOL    HW132486   1.761   6.049   5.860
10529SOL    HW232487   1.601   6.034   5.888
10530SOL     OW32488   0.875   0.018   5.681
10530SOL    HW132489   0.846   0.100   5.632
10530SOL    HW232490   0.898   6.966   5.615
10531SOL     OW32491   3.346   2.536   5.835
10531SOL    HW132492   3.442   2.561   5.846
10531SOL    HW232493   3.339   2.438   5.819
10532SOL     OW32494   5.723   6.763   5.963
10532SOL    HW132495   5.775   6.692   6.011
10532SOL    HW232496   5.718   6.741   5.866
10533SOL     OW32497   3.725   5.787   4.316
10533SOL    HW132498   3.669   5.843   4.254
10533SOL    HW232499   3.817   5.777   4.277
10534SOL     OW32500   0.554   5.564   2.735
10534SOL    HW132501   0.495   5.606   2.803
10534SOL    HW232502   0.629   5.516   2.781
10535SOL     OW32503   2.769   1.401   2.239
10535SOL    HW132504   2.706   1.327   2.265
10535SOL    HW232505   2.795   1.452   2.321
10536SOL     OW32506   4.719   0.643   3.854
10536SOL    HW132507   4.746   0.547   3.850
10536SOL    HW232508   4.631   0.656   3.807
10537SOL     OW32509   4.990   0.036   3.109
10537SOL    HW132510   4.987   0.136   3.119
10537SOL    HW232511   4.898   7.019   3.117
10538SOL     OW32512   5.719   3.798   2.377
10538SOL    HW132513   5.800   3.825   2.429
10538SOL    HW232514   5.718   3.698   2.366
10539SOL     OW32515   5.726   5.818   2.709
10539SOL    HW132516   5.797   5.872   2.754
10539SOL    HW232517   5.705   5.738   2.765
10540SOL     OW32518   2.528   3.972   6.439
10540SOL    HW132519   2.615   4.013   6.467
10540SOL    HW232520   2.525   3.965   6.340
10541SOL     OW32521   2.966   3.187   5.060
10541SOL    HW132522   2.877   3.143   5.057
10541SOL    HW232523   2.967   3.266   4.998
10542SOL     OW32524   6.146   0.359   4.753
10542SOL    HW132525   6.048   0.366   4.774
10542SOL    HW232526   6.188   0.291   4.812
10543SOL     OW32527   6.876   2.540   5.691
10543SOL    HW132528   6.898   2.442   5.686
10543SOL    HW232529   6.794   2.559   5.638
10544SOL     OW32530   1.032   1.273   4.107
10544SOL    HW132531   0.997   1.210   4.038
10544SOL    HW232532   0.974   1.354   4.111
10545SOL     OW32533   1.666   2.608   2.503
10545SOL    HW132534   1.658   2.685   2.440
10545SOL    HW232535   1.623   2.632   2.590
10546SOL     OW32536   3.251   6.599   0.964
10546SOL    HW132537   3.163   6.573   1.003
10546SOL    HW232538   3.274   6.693   0.990
10547SOL     OW32539   4.621   0.097   4.928
10547SOL    HW132540   4.521   0.106   4.930
10547SOL    HW232541   4.658   0.157   4.856
10548SOL     OW32542   0.883   4.773   4.716
10548SOL    HW132543   0.949   4.708   4.677
10548SOL    HW232544   0.842   4.734   4.798
10549SOL     OW32545   0.263   1.207   0.559
10549SOL    HW132546   0.230   1.231   0.468
10549SOL    HW232547   0.211   1.129   0.594
10550SOL     OW32548   3.744   6.189   3.068
10550SOL    HW132549   3.686   6.107   3.062
10550SOL    HW232550   3.687   6.269   3.083
10551SOL     OW32551   2.571   1.988   5.743
10551SOL    HW132552   2.497   2.053   5.727
10551SOL    HW232553   2.546   1.898   5.706
10552SOL     OW32554   3.314   1.023   4.218
10552SOL    HW132555   3.320   1.067   4.128
10552SOL    HW232556   3.334   1.091   4.289
10553SOL     OW32557   6.961   5.246   0.793
10553SOL    HW132558   6.967   5.281   0.699
10553SOL    HW232559   6.876   5.193   0.803
10554SOL     OW32560   6.705   4.839   2.819
10554SOL    HW132561   6.636   4.809   2.884
10554SOL    HW232562   6.661   4.868   2.734
10555SOL     OW32563   2.952   2.042   0.566
10555SOL    HW132564   3.027   2.071   0.506
10555SOL    HW232565   2.952   2.097   0.649
10556SOL     OW32566   2.231   1.390   2.975
10556SOL    HW132567   2.138   1.356   2.990
10556SOL    HW232568   2.287   1.316   2.937
10557SOL     OW32569   1.578   3.765   4.488
10557SOL    HW132570   1.621   3.683   4.527
10557SOL    HW232571   1.544   3.823   4.561
10558SOL     OW32572   3.217   4.894   4.932
10558SOL    HW132573   3.261   4.940   4.855
10558SOL    HW232574   3.136   4.844   4.900
10559SOL     OW32575   3.405   0.136   0.448
10559SOL    HW132576   3.444   0.057   0.400
10559SOL    HW232577   3.466   0.163   0.523
10560SOL     OW32578   3.979   6.127   1.555
10560SOL    HW132579   4.051   6.150   1.490
10560SOL    HW232580   3.976   6.196   1.627
10561SOL     OW32581   5.285   4.372   2.091
10561SOL    HW132582   5.316   4.461   2.058
10561SOL    HW232583   5.187   4.376   2.112
10562SOL     OW32584   3.397   6.711   1.418
10562SOL    HW132585   3.446   6.642   1.366
10562SOL    HW232586   3.433   6.802   1.397
10563SOL     OW32587   0.294   0.065   0.957
10563SOL    HW132588   0.261   0.158   0.972
10563SOL    HW232589   0.350   0.036   1.035
10564SOL     OW32590   6.874   5.486   4.373
10564SOL    HW132591   6.858   5.525   4.464
10564SOL    HW232592   6.940   5.542   4.324
10565SOL     OW32593   6.728   6.757   5.536
10565SOL    HW132594   6.654   6.809   5.493
10565SOL    HW232595   6.703   6.661   5.540
10566SOL     OW32596   2.821   2.506   6.791
10566SOL    HW132597   2.744   2.534   6.734
10566SOL    HW232598   2.808   2.411   6.819
10567SOL     OW32599   1.838   2.308   5.859
10567SOL    HW132600   1.876   2.296   5.950
10567SOL    HW232601   1.847   2.222   5.808
10568SOL     OW32602   5.252   2.907   6.663
10568SOL    HW132603   5.235   2.982   6.727
10568SOL    HW232604   5.351   2.894   6.653
10569SOL     OW32605   5.380   0.204   1.627
10569SOL    HW132606   5.420   0.196   1.535
10569SOL    HW232607   5.304   0.268   1.625
10570SOL     OW32608   0.671   5.048   3.452
10570SOL    HW132609   0.686   5.103   3.534
10570SOL    HW232610   0.719   4.961   3.461
10571SOL     OW32611   6.718   4.688   6.324
10571SOL    HW132612   6.797   4.739   6.290
10571SOL    HW232613   6.659   4.749   6.377
10572SOL     OW32614   6.782   4.556   1.464
10572SOL    HW132615   6.765   4.612   1.545
10572SOL    HW232616   6.697   4.513   1.434
10573SOL     OW32617   5.600   0.504   3.957
10573SOL    HW132618   5.677   0.441   3.952
10573SOL    HW232619   5.627   0.593   3.920
10574SOL     OW32620   6.302   0.689   3.709
10574SOL    HW132621   6.216   0.657   3.749
10574SOL    HW232622   6.363   0.720   3.782
10575SOL     OW32623   5.470   0.888   2.717
10575SOL    HW132624   5.428   0.965   2.669
10575SOL    HW232625   5.554   0.918   2.762
10576SOL     OW32626   2.099   4.898   3.107
10576SOL    HW132627   2.151   4.864   3.029
10576SOL    HW232628   2.146   4.874   3.192
10577SOL     OW32629   3.500   5.915   0.777
10577SOL    HW132630   3.455   6.004   0.771
10577SOL    HW232631   3.493   5.868   0.688
10578SOL     OW32632   6.071   2.058   3.782
10578SOL    HW132633   6.001   2.042   3.712
10578SOL    HW232634   6.038   2.127   3.847
10579SOL     OW32635   2.896   3.633   1.127
10579SOL    HW132636   2.830   3.640   1.201
10579SOL    HW232637   2.848   3.628   1.039
10580SOL     OW32638   6.364   6.697   6.435
10580SOL    HW132639   6.315   6.688   6.521
10580SOL    HW232640   6.460   6.717   6.453
10581SOL     OW32641   5.751   6.707   3.084
10581SOL    HW132642   5.740   6.777   3.155
10581SOL    HW232643   5.845   6.707   3.052
10582SOL     OW32644   5.625   4.818   6.767
10582SOL    HW132645   5.582   4.873   6.838
10582SOL    HW232646   5.672   4.740   6.808
10583SOL     OW32647   2.755   6.514   3.729
10583SOL    HW132648   2.743   6.421   3.693
10583SOL    HW232649   2.715   6.579   3.664
10584SOL     OW32650   6.451   0.253   5.586
10584SOL    HW132651   6.455   0.353   5.597
10584SOL    HW232652   6.504   0.227   5.506
10585SOL     OW32653   0.438   1.864   6.484
10585SOL    HW132654   0.521   1.913   6.513
10585SOL    HW232655   0.369   1.870   6.556
10586SOL     OW32656   4.907   4.502   5.502
10586SOL    HW132657   4.872   4.429   5.442
10586SOL    HW232658   5.007   4.503   5.498
10587SOL     OW32659   0.814   6.081   5.187
10587SOL    HW132660   0.846   6.020   5.259
10587SOL    HW232661   0.859   6.058   5.101
10588SOL     OW32662   1.312   3.237   3.940
10588SOL    HW132663   1.373   3.163   3.968
10588SOL    HW232664   1.251   3.205   3.868
10589SOL     OW32665   5.458   6.084   4.711
10589SOL    HW132666   5.537   6.136   4.677
10589SOL    HW232667   5.399   6.145   4.764
10590SOL     OW32668   0.825   6.026   1.403
10590SOL    HW132669   0.867   5.987   1.321
10590SOL    HW232670   0.757   6.094   1.376
10591SOL     OW32671   0.836   1.381   1.385
10591SOL    HW132672   0.866   1.436   1.462
10591SOL    HW232673   0.907   1.314   1.362
10592SOL     OW32674   5.973   2.225   4.898
10592SOL    HW132675   6.032   2.295   4.858
10592SOL    HW232676   5.889   2.267   4.931
10593SOL     OW32677   2.643   6.109   1.131
10593SOL    HW132678   2.566   6.105   1.067
10593SOL    HW232679   2.656   6.203   1.162
10594SOL     OW32680   3.778   1.156   3.443
10594SOL    HW132681   3.852   1.154   3.375
10594SOL    HW232682   3.752   1.062   3.467
10595SOL     OW32683   5.977   0.517   0.986
10595SOL    HW132684   5.911   0.563   0.928
10595SOL    HW232685   6.057   0.577   0.999
10596SOL     OW32686   4.809   1.857   6.999
10596SOL    HW132687   4.907   1.871   7.014
10596SOL    HW232688   4.790   1.863   6.901
10597SOL     OW32689   2.555   0.495   5.959
10597SOL    HW132690   2.637   0.515   5.905
10597SOL    HW232691   2.581   0.446   6.042
10598SOL     OW32692   2.142   1.664   5.792
10598SOL    HW132693   2.183   1.630   5.708
10598SOL    HW232694   2.184   1.751   5.818
10599SOL     OW32695   6.222   4.363   6.067
10599SOL    HW132696   6.165   4.288   6.035
10599SOL    HW232697   6.166   4.431   6.113
10600SOL     OW32698   2.647   1.299   1.894
10600SOL    HW132699   2.726   1.291   1.833
10600SOL    HW232700   2.630   1.396   1.913
10601SOL     OW32701   0.210   6.464   6.186
10601SOL    HW132702   0.126   6.470   6.132
10601SOL    HW232703   0.199   6.516   6.270
10602SOL     OW32704   0.331   0.250   6.902
10602SOL    HW132705   0.292   0.252   6.994
10602SOL    HW232706   0.258   0.237   6.835
10603SOL     OW32707   4.486   0.201   1.577
10603SOL    HW132708   4.528   0.284   1.542
10603SOL    HW232709   4.546   0.159   1.645
10604SOL     OW32710   6.952   6.836   4.791
10604SOL    HW132711   6.909   6.880   4.712
10604SOL    HW232712   0.031   6.851   4.789
10605SOL     OW32713   2.469   0.173   0.850
10605SOL    HW132714   2.524   0.257   0.854
10605SOL    HW232715   2.393   0.186   0.787
10606SOL     OW32716   5.716   0.894   1.672
10606SOL    HW132717   5.656   0.870   1.748
10606SOL    HW232718   5.782   0.821   1.657
10607SOL     OW32719   4.425   4.185   6.771
10607SOL    HW132720   4.505   4.238   6.743
10607SOL    HW232721   4.343   4.227   6.733
10608SOL     OW32722   6.473   2.746   3.431
10608SOL    HW132723   6.431   2.670   3.483
10608SOL    HW232724   6.544   2.789   3.487
10609SOL     OW32725   4.152   6.706   0.477
10609SOL    HW132726   4.172   6.785   0.534
10609SOL    HW232727   4.230   6.688   0.416
10610SOL     OW32728   6.926   1.720   4.605
10610SOL    HW132729   6.922   1.780   4.686
10610SOL    HW232730   7.013   1.671   4.605
10611SOL     OW32731   2.841   5.521   4.928
10611SOL    HW132732   2.853   5.536   4.830
10611SOL    HW232733   2.921   5.473   4.964
10612SOL     OW32734   5.278   1.331   3.957
10612SOL    HW132735   5.279   1.343   3.858
10612SOL    HW232736   5.199   1.379   3.995
10613SOL     OW32737   6.034   6.086   4.360
10613SOL    HW132738   5.987   5.998   4.367
10613SOL    HW232739   6.103   6.080   4.287
10614SOL     OW32740   5.276   0.564   5.870
10614SOL    HW132741   5.181   0.554   5.898
10614SOL    HW232742   5.310   0.653   5.901
10615SOL     OW32743   2.706   2.006   5.995
10615SOL    HW132744   2.760   2.090   5.996
10615SOL    HW232745   2.651   2.003   5.912
10616SOL     OW32746   2.987   5.893   6.451
10616SOL    HW132747   3.023   5.933   6.366
10616SOL    HW232748   2.901   5.938   6.475
10617SOL     OW32749   2.450   3.685   1.704
10617SOL    HW132750   2.380   3.755   1.720
10617SOL    HW232751   2.415   3.596   1.732
10618SOL     OW32752   7.005   5.499   5.618
10618SOL    HW132753   0.020   5.504   5.524
10618SOL    HW232754   6.928   5.562   5.628
10619SOL     OW32755   0.375   2.036   2.818
10619SOL    HW132756   0.322   1.960   2.856
10619SOL    HW232757   0.468   2.004   2.797
10620SOL     OW32758   2.267   6.983   5.493
10620SOL    HW132759   2.222   6.913   5.439
10620SOL    HW232760   2.315   6.941   5.570
10621SOL     OW32761   1.040   4.056   2.643
10621SOL    HW132762   1.015   4.136   2.698
10621SOL    HW232763   1.110   4.003   2.691
10622SOL     OW32764   4.507   2.908   1.080
10622SOL    HW132765   4.424   2.860   1.109
10622SOL    HW232766   4.502   2.927   0.982
10623SOL     OW32767   5.866   6.144   5.586
10623SOL    HW132768   5.957   6.185   5.601
10623SOL    HW232769   5.803   6.214   5.553
10624SOL     OW32770   0.922   3.163   4.836
10624SOL    HW132771   0.992   3.092   4.833
10624SOL    HW232772   0.840   3.128   4.882
10625SOL     OW32773   0.233   3.484   6.664
10625SOL    HW132774   0.156   3.475   6.601
10625SOL    HW232775   0.307   3.423   6.636
10626SOL     OW32776   3.842   3.129   1.813
10626SOL    HW132777   3.939   3.122   1.789
10626SOL    HW232778   3.789   3.064   1.758
10627SOL     OW32779   6.094   0.189   6.198
10627SOL    HW132780   6.018   0.234   6.246
10627SOL    HW232781   6.103   0.095   6.231
10628SOL     OW32782   4.024   0.482   0.429
10628SOL    HW132783   3.951   0.415   0.439
10628SOL    HW232784   4.108   0.437   0.399
10629SOL     OW32785   3.202   5.141   5.041
10629SOL    HW132786   3.211   5.042   5.038
10629SOL    HW232787   3.291   5.183   5.061
10630SOL     OW32788   4.517   0.355   2.576
10630SOL    HW132789   4.497   0.453   2.571
10630SOL    HW232790   4.588   0.332   2.510
10631SOL     OW32791   4.446   5.009   6.690
10631SOL    HW132792   4.465   5.066   6.770
10631SOL    HW232793   4.458   5.064   6.607
10632SOL     OW32794   5.091   5.593   3.486
10632SOL    HW132795   5.170   5.641   3.448
10632SOL    HW232796   5.067   5.634   3.574
10633SOL     OW32797   2.055   2.750   1.584
10633SOL    HW132798   2.025   2.661   1.616
10633SOL    HW232799   2.096   2.741   1.493
10634SOL     OW32800   1.518   5.187   6.915
10634SOL    HW132801   1.550   5.239   6.995
10634SOL    HW232802   1.545   5.236   6.831
10635SOL     OW32803   2.270   3.332   0.243
10635SOL    HW132804   2.316   3.303   0.160
10635SOL    HW232805   2.284   3.430   0.257
10636SOL     OW32806   6.602   2.079   0.497
10636SOL    HW132807   6.572   2.058   0.404
10636SOL    HW232808   6.687   2.032   0.516
10637SOL     OW32809   2.789   5.987   6.658
10637SOL    HW132810   2.888   5.985   6.675
10637SOL    HW232811   2.758   6.082   6.653
10638SOL     OW32812   6.697   6.078   2.042
10638SOL    HW132813   6.754   6.146   1.996
10638SOL    HW232814   6.652   6.120   2.120
10639SOL     OW32815   2.153   3.744   1.911
10639SOL    HW132816   2.191   3.652   1.913
10639SOL    HW232817   2.187   3.792   1.830
10640SOL     OW32818   4.022   0.846   3.371
10640SOL    HW132819   3.935   0.848   3.420
10640SOL    HW232820   4.080   0.920   3.405
10641SOL     OW32821   1.291   0.969   3.688
10641SOL    HW132822   1.203   0.986   3.733
10641SOL    HW232823   1.302   1.033   3.611
10642SOL     OW32824   6.563   2.387   0.380
10642SOL    HW132825   6.547   2.389   0.479
10642SOL    HW232826   6.651   2.430   0.360
10643SOL     OW32827   2.574   5.881   5.032
10643SOL    HW132828   2.522   5.916   5.109
10643SOL    HW232829   2.638   5.951   4.999
10644SOL     OW32830   5.770   3.107   2.050
10644SOL    HW132831   5.801   3.110   1.955
10644SOL    HW232832   5.683   3.059   2.055
10645SOL     OW32833   2.240   3.005   3.516
10645SOL    HW132834   2.251   2.930   3.580
10645SOL    HW232835   2.207   3.086   3.564
10646SOL     OW32836   5.203   1.551   4.799
10646SOL    HW132837   5.268   1.617   4.837
10646SOL    HW232838   5.164   1.587   4.715
10647SOL     OW32839   4.264   5.107   5.584
10647SOL    HW132840   4.304   5.176   5.523
10647SOL    HW232841   4.337   5.056   5.629
10648SOL     OW32842   6.140   5.091   6.061
10648SOL    HW132843   6.197   5.102   5.980
10648SOL    HW232844   6.066   5.158   6.060
10649SOL     OW32845   0.808   2.890   3.570
10649SOL    HW132846   0.905   2.882   3.590
10649SOL    HW232847   0.755   2.879   3.655
10650SOL     OW32848   6.942   0.190   4.006
10650SOL    HW132849   6.979   0.139   4.083
10650SOL    HW232850   6.861   0.143   3.971
10651SOL     OW32851   5.244   6.684   6.168
10651SOL    HW132852   5.315   6.660   6.102
10651SOL    HW232853   5.236   6.611   6.236
10652SOL     OW32854   1.584   6.921   6.169
10652SOL    HW132855   1.655   6.852   6.180
10652SOL    HW232856   1.536   6.934   6.256
10653SOL     OW32857   4.060   6.183   4.724
10653SOL    HW132858   4.109   6.215   4.805
10653SOL    HW232859   4.119   6.124   4.670
10654SOL     OW32860   5.022   1.875   3.936
10654SOL    HW132861   4.984   1.817   4.009
10654SOL    HW232862   5.028   1.821   3.852
10655SOL     OW32863   1.992   4.546   1.410
10655SOL    HW132864   1.962   4.625   1.355
10655SOL    HW232865   1.988   4.463   1.354
10656SOL     OW32866   5.854   1.408   2.375
10656SOL    HW132867   5.785   1.335   2.375
10656SOL    HW232868   5.891   1.419   2.283
10657SOL     OW32869   5.777   1.094   4.585
10657SOL    HW132870   5.776   0.996   4.567
10657SOL    HW232871   5.751   1.111   4.680
10658SOL     OW32872   5.793   3.876   5.300
10658SOL    HW132873   5.848   3.879   5.383
10658SOL    HW232874   5.820   3.798   5.244
10659SOL     OW32875   1.330   4.810   1.037
10659SOL    HW132876   1.417   4.843   0.999
10659SOL    HW232877   1.255   4.862   0.997
10660SOL     OW32878   5.998   3.496   5.643
10660SOL    HW132879   5.960   3.470   5.732
10660SOL    HW232880   5.927   3.494   5.574
10661SOL     OW32881   1.553   4.976   0.678
10661SOL    HW132882   1.463   4.952   0.640
10661SOL    HW232883   1.611   4.895   0.680
10662SOL     OW32884   3.582   1.096   2.489
10662SOL    HW132885   3.654   1.070   2.555
10662SOL    HW232886   3.622   1.098   2.397
10663SOL     OW32887   0.803   1.689   3.506
10663SOL    HW132888   0.865   1.719   3.434
10663SOL    HW232889   0.840   1.607   3.550
10664SOL     OW32890   0.599   5.420   4.709
10664SOL    HW132891   0.613   5.417   4.808
10664SOL    HW232892   0.583   5.515   4.681
10665SOL     OW32893   2.182   2.586   6.662
10665SOL    HW132894   2.244   2.658   6.630
10665SOL    HW232895   2.231   2.499   6.665
10666SOL     OW32896   3.582   3.358   1.612
10666SOL    HW132897   3.526   3.432   1.651
10666SOL    HW232898   3.676   3.367   1.642
10667SOL     OW32899   4.615   1.156   3.487
10667SOL    HW132900   4.688   1.225   3.491
10667SOL    HW232901   4.641   1.077   3.541
10668SOL     OW32902   3.316   2.139   5.553
10668SOL    HW132903   3.293   2.159   5.457
10668SOL    HW232904   3.328   2.040   5.564
10669SOL     OW32905   5.839   0.631   0.772
10669SOL    HW132906   5.808   0.544   0.734
10669SOL    HW232907   5.923   0.659   0.725
10670SOL     OW32908   5.389   4.255   4.524
10670SOL    HW132909   5.339   4.196   4.461
10670SOL    HW232910   5.460   4.305   4.473
10671SOL     OW32911   1.052   1.541   4.469
10671SOL    HW132912   1.089   1.564   4.379
10671SOL    HW232913   0.998   1.619   4.503
10672SOL     OW32914   6.310   4.248   1.753
10672SOL    HW132915   6.308   4.252   1.653
10672SOL    HW232916   6.336   4.156   1.781
10673SOL     OW32917   1.968   6.894   0.530
10673SOL    HW132918   1.979   6.875   0.432
10673SOL    HW232919   2.058   6.901   0.573
10674SOL     OW32920   4.139   3.642   4.341
10674SOL    HW132921   4.136   3.560   4.284
10674SOL    HW232922   4.066   3.705   4.313
10675SOL     OW32923   3.148   0.656   6.314
10675SOL    HW132924   3.109   0.705   6.392
10675SOL    HW232925   3.248   0.653   6.323
10676SOL     OW32926   6.974   5.898   4.773
10676SOL    HW132927   6.996   5.835   4.847
10676SOL    HW232928   6.988   5.992   4.803
10677SOL     OW32929   1.261   1.053   1.212
10677SOL    HW132930   1.311   1.024   1.294
10677SOL    HW232931   1.318   1.040   1.132
10678SOL     OW32932   4.207   4.695   3.864
10678SOL    HW132933   4.245   4.783   3.835
10678SOL    HW232934   4.280   4.636   3.896
10679SOL     OW32935   3.781   5.504   6.612
10679SOL    HW132936   3.866   5.482   6.564
10679SOL    HW232937   3.802   5.534   6.705
10680SOL     OW32938   3.688   1.682   4.060
10680SOL    HW132939   3.603   1.685   4.007
10680SOL    HW232940   3.747   1.758   4.034
10681SOL     OW32941   0.142   3.374   6.998
10681SOL    HW132942   0.152   3.448   6.932
10681SOL    HW232943   0.206   3.300   6.975
10682SOL     OW32944   0.202   3.073   5.166
10682SOL    HW132945   0.151   3.098   5.084
10682SOL    HW232946   0.174   2.982   5.197
10683SOL     OW32947   4.433   0.568   3.683
10683SOL    HW132948   4.411   0.596   3.589
10683SOL    HW232949   4.491   0.486   3.681
10684SOL     OW32950   4.199   5.352   1.560
10684SOL    HW132951   4.216   5.363   1.658
10684SOL    HW232952   4.187   5.442   1.518
10685SOL     OW32953   0.234   5.676   0.829
10685SOL    HW132954   0.231   5.588   0.780
10685SOL    HW232955   0.276   5.745   0.770
10686SOL     OW32956   2.217   4.328   6.344
10686SOL    HW132957   2.182   4.409   6.391
10686SOL    HW232958   2.160   4.309   6.264
10687SOL     OW32959   6.529   4.592   3.988
10687SOL    HW132960   6.445   4.539   3.983
10687SOL    HW232961   6.520   4.674   3.931
10688SOL     OW32962   5.081   1.978   2.756
10688SOL    HW132963   5.027   2.043   2.703
10688SOL    HW232964   5.070   1.996   2.854
10689SOL     OW32965   6.875   6.933   1.811
10689SOL    HW132966   6.780   6.937   1.840
10689SOL    HW232967   6.880   6.941   1.711
10690SOL     OW32968   0.345   5.044   3.091
10690SOL    HW132969   0.401   5.031   3.172
10690SOL    HW232970   0.272   4.977   3.090
10691SOL     OW32971   1.898   1.528   1.659
10691SOL    HW132972   1.866   1.621   1.641
10691SOL    HW232973   1.994   1.520   1.631
10692SOL     OW32974   2.894   0.401   4.341
10692SOL    HW132975   2.823   0.360   4.283
10692SOL    HW232976   2.885   0.366   4.434
10693SOL     OW32977   0.888   6.200   1.084
10693SOL    HW132978   0.870   6.289   1.127
10693SOL    HW232979   0.844   6.128   1.137
10694SOL     OW32980   5.389   6.724   6.445
10694SOL    HW132981   5.340   6.638   6.429
10694SOL    HW232982   5.325   6.800   6.442
10695SOL     OW32983   1.271   2.345   1.194
10695SOL    HW132984   1.303   2.250   1.193
10695SOL    HW232985   1.198   2.356   1.127
10696SOL     OW32986   6.515   3.763   4.418
10696SOL    HW132987   6.507   3.678   4.471
10696SOL    HW232988   6.559   3.833   4.475
10697SOL     OW32989   0.069   6.956   5.798
10697SOL    HW132990   6.994   6.924   5.788
10697SOL    HW232991   0.091   7.018   5.722
10698SOL     OW32992   4.883   4.039   0.232
10698SOL    HW132993   4.957   4.066   0.170
10698SOL    HW232994   4.921   3.985   0.308
10699SOL     OW32995   3.741   4.869   0.993
10699SOL    HW132996   3.839   4.867   0.974
10699SOL    HW232997   3.691   4.832   0.914
10700SOL     OW32998   5.312   6.904   0.569
10700SOL    HW132999   5.303   6.805   0.568
10700SOL    HW233000   5.393   6.930   0.622
10701SOL     OW33001   3.384   0.026   6.187
10701SOL    HW133002   3.290   7.017   6.205
10701SOL    HW233003   3.411   7.015   6.096
10702SOL     OW33004   5.057   3.470   2.468
10702SOL    HW133005   5.109   3.385   2.466
10702SOL    HW233006   4.990   3.469   2.393
10703SOL     OW33007   2.249   2.856   5.699
10703SOL    HW133008   2.199   2.865   5.613
10703SOL    HW233009   2.228   2.934   5.759
10704SOL     OW33010   0.161   4.792   2.446
10704SOL    HW133011   0.138   4.793   2.349
10704SOL    HW233012   0.260   4.778   2.457
10705SOL     OW33013   6.026   5.505   1.569
10705SOL    HW133014   5.964   5.575   1.535
10705SOL    HW233015   6.096   5.486   1.500
10706SOL     OW33016   3.582   0.061   2.127
10706SOL    HW133017   3.662   0.103   2.084
10706SOL    HW233018   3.499   0.110   2.098
10707SOL     OW33019   0.900   0.030   3.725
10707SOL    HW133020   0.896   0.013   3.627
10707SOL    HW233021   0.807   0.040   3.761
10708SOL     OW33022   3.883   1.386   1.312
10708SOL    HW133023   3.811   1.436   1.360
10708SOL    HW233024   3.864   1.288   1.318
10709SOL     OW33025   5.180   5.044   4.935
10709SOL    HW133026   5.220   5.130   4.964
10709SOL    HW233027   5.252   4.975   4.923
10710SOL     OW33028   5.977   0.815   3.794
10710SOL    HW133029   5.922   0.892   3.762
10710SOL    HW233030   5.946   0.787   3.886
10711SOL     OW33031   1.786   6.692   3.820
10711SOL    HW133032   1.746   6.703   3.911
10711SOL    HW233033   1.748   6.761   3.759
10712SOL     OW33034   2.977   0.535   2.987
10712SOL    HW133035   3.043   0.501   3.054
10712SOL    HW233036   2.977   0.635   2.988
10713SOL     OW33037   0.925   3.175   0.836
10713SOL    HW133038   1.022   3.191   0.852
10713SOL    HW233039   0.906   3.176   0.738
10714SOL     OW33040   4.269   3.281   5.765
10714SOL    HW133041   4.294   3.227   5.684
10714SOL    HW233042   4.170   3.279   5.776
10715SOL     OW33043   4.681   0.252   2.073
10715SOL    HW133044   4.683   0.162   2.116
10715SOL    HW233045   4.703   0.322   2.140
10716SOL     OW33046   6.068   3.157   3.693
10716SOL    HW133047   6.144   3.097   3.667
10716SOL    HW233048   6.018   3.183   3.610
10717SOL     OW33049   1.895   2.954   1.420
10717SOL    HW133050   1.916   2.888   1.492
10717SOL    HW233051   1.980   2.988   1.380
10718SOL     OW33052   0.867   3.657   0.141
10718SOL    HW133053   0.934   3.667   0.067
10718SOL    HW233054   0.813   3.575   0.126
10719SOL     OW33055   0.199   5.470   2.393
10719SOL    HW133056   0.138   5.453   2.470
10719SOL    HW233057   0.280   5.413   2.401
10720SOL     OW33058   6.867   5.017   4.884
10720SOL    HW133059   6.840   5.100   4.834
10720SOL    HW233060   6.953   4.982   4.847
10721SOL     OW33061   5.135   3.779   5.481
10721SOL    HW133062   5.061   3.771   5.415
10721SOL    HW233063   5.110   3.731   5.565
10722SOL     OW33064   0.962   4.997   0.780
10722SOL    HW133065   0.967   5.097   0.780
10722SOL    HW233066   0.917   4.966   0.696
10723SOL     OW33067   0.212   2.699   6.582
10723SOL    HW133068   0.310   2.718   6.595
10723SOL    HW233069   0.160   2.783   6.596
10724SOL     OW33070   6.110   6.933   6.286
10724SOL    HW133071   6.024   6.927   6.337
10724SOL    HW233072   6.109   6.867   6.211
10725SOL     OW33073   1.506   6.055   5.274
10725SOL    HW133074   1.581   6.005   5.231
10725SOL    HW233075   1.423   6.045   5.219
10726SOL     OW33076   5.663   0.779   3.910
10726SOL    HW133077   5.748   0.802   3.957
10726SOL    HW233078   5.589   0.837   3.945
10727SOL     OW33079   0.305   5.513   5.620
10727SOL    HW133080   0.254   5.553   5.696
10727SOL    HW233081   0.302   5.414   5.626
10728SOL     OW33082   1.946   5.015   6.482
10728SOL    HW133083   2.004   5.066   6.419
10728SOL    HW233084   1.861   5.066   6.498
10729SOL     OW33085   4.714   1.065   3.096
10729SOL    HW133086   4.614   1.073   3.096
10729SOL    HW233087   4.755   1.156   3.093
10730SOL     OW33088   1.365   0.954   0.983
10730SOL    HW133089   1.270   0.935   1.008
10730SOL    HW233090   1.398   0.885   0.919
10731SOL     OW33091   3.515   1.006   1.149
10731SOL    HW133092   3.524   1.094   1.195
10731SOL    HW233093   3.438   0.955   1.188
10732SOL     OW33094   6.389   4.781   4.909
10732SOL    HW133095   6.477   4.763   4.865
10732SOL    HW233096   6.381   4.725   4.992
10733SOL     OW33097   6.848   1.387   6.467
10733SOL    HW133098   6.886   1.424   6.382
10733SOL    HW233099   6.753   1.416   6.476
10734SOL     OW33100   0.809   0.952   0.090
10734SOL    HW133101   0.835   0.928   0.184
10734SOL    HW233102   0.892   0.966   0.036
10735SOL     OW33103   0.441   2.921   2.502
10735SOL    HW133104   0.423   3.011   2.541
10735SOL    HW233105   0.450   2.854   2.575
10736SOL     OW33106   1.166   0.625   3.577
10736SOL    HW133107   1.137   0.533   3.550
10736SOL    HW233108   1.208   0.622   3.667
10737SOL     OW33109   1.048   1.715   6.923
10737SOL    HW133110   1.069   1.621   6.952
10737SOL    HW233111   0.976   1.752   6.982
10738SOL     OW33112   2.373   0.462   2.834
10738SOL    HW133113   2.464   0.504   2.835
10738SOL    HW233114   2.340   0.459   2.739
10739SOL     OW33115   1.613   1.069   1.064
10739SOL    HW133116   1.540   1.025   1.013
10739SOL    HW233117   1.625   1.163   1.032
10740SOL     OW33118   0.106   5.216   4.850
10740SOL    HW133119   0.026   5.162   4.878
10740SOL    HW233120   0.179   5.155   4.822
10741SOL     OW33121   4.492   0.857   1.055
10741SOL    HW133122   4.502   0.758   1.049
10741SOL    HW233123   4.458   0.893   0.967
10742SOL     OW33124   5.514   6.891   1.607
10742SOL    HW133125   5.515   6.964   1.538
10742SOL    HW233126   5.582   6.912   1.677
10743SOL     OW33127   1.303   1.517   5.546
10743SOL    HW133128   1.242   1.575   5.600
10743SOL    HW233129   1.314   1.555   5.455
10744SOL     OW33130   3.009   1.536   0.693
10744SOL    HW133131   2.942   1.514   0.764
10744SOL    HW233132   3.082   1.593   0.731
10745SOL     OW33133   0.100   5.749   6.313
10745SOL    HW133134   0.091   5.708   6.222
10745SOL    HW233135   0.179   5.708   6.359
10746SOL     OW33136   2.771   4.646   1.165
10746SOL    HW133137   2.756   4.629   1.263
10746SOL    HW233138   2.738   4.737   1.142
10747SOL     OW33139   4.293   1.520   4.566
10747SOL    HW133140   4.293   1.422   4.587
10747SOL    HW233141   4.316   1.571   4.649
10748SOL     OW33142   5.917   1.217   0.551
10748SOL    HW133143   5.854   1.143   0.526
10748SOL    HW233144   5.864   1.300   0.567
10749SOL     OW33145   6.825   5.455   3.476
10749SOL    HW133146   6.834   5.391   3.400
10749SOL    HW233147   6.750   5.425   3.536
10750SOL     OW33148   4.896   5.792   4.207
10750SOL    HW133149   4.898   5.841   4.120
10750SOL    HW233150   4.979   5.814   4.259
10751SOL     OW33151   1.859   4.907   4.680
10751SOL    HW133152   1.783   4.901   4.615
10751SOL    HW233153   1.822   4.915   4.773
10752SOL     OW33154   6.267   4.336   5.458
10752SOL    HW133155   6.326   4.414   5.436
10752SOL    HW233156   6.258   4.329   5.558
10753SOL     OW33157   5.200   4.608   4.573
10753SOL    HW133158   5.114   4.656   4.559
10753SOL    HW233159   5.243   4.587   4.485
10754SOL     OW33160   0.556   0.529   3.351
10754SOL    HW133161   0.643   0.486   3.325
10754SOL    HW233162   0.522   0.584   3.275
10755SOL     OW33163   6.915   0.763   0.543
10755SOL    HW133164   6.831   0.815   0.558
10755SOL    HW233165   6.919   0.732   0.448
10756SOL     OW33166   6.452   4.988   6.782
10756SOL    HW133167   6.386   5.056   6.752
10756SOL    HW233168   6.430   4.899   6.742
10757SOL     OW33169   1.679   2.610   0.451
10757SOL    HW133170   1.688   2.614   0.551
10757SOL    HW233171   1.625   2.529   0.426
10758SOL     OW33172   0.963   6.141   4.223
10758SOL    HW133173   1.014   6.075   4.279
10758SOL    HW233174   0.867   6.142   4.252
10759SOL     OW33175   1.914   3.353   1.563
10759SOL    HW133176   1.962   3.426   1.515
10759SOL    HW233177   1.978   3.279   1.584
10760SOL     OW33178   5.468   6.946   2.170
10760SOL    HW133179   5.534   6.878   2.139
10760SOL    HW233180   5.505   0.018   2.156
10761SOL     OW33181   0.722   6.154   6.094
10761SOL    HW133182   0.812   6.196   6.107
10761SOL    HW233183   0.732   6.068   6.044
10762SOL     OW33184   3.242   2.164   4.338
10762SOL    HW133185   3.320   2.105   4.316
10762SOL    HW233186   3.274   2.246   4.385
10763SOL     OW33187   4.764   6.895   3.080
10763SOL    HW133188   4.775   6.817   3.019
10763SOL    HW233189   4.682   6.946   3.055
10764SOL     OW33190   5.191   2.150   5.983
10764SOL    HW133191   5.290   2.157   5.986
10764SOL    HW233192   5.159   2.087   6.053
10765SOL     OW33193   5.114   2.545   0.989
10765SOL    HW133194   5.156   2.630   1.021
10765SOL    HW233195   5.185   2.476   0.975
10766SOL     OW33196   4.489   5.115   0.667
10766SOL    HW133197   4.445   5.124   0.756
10766SOL    HW233198   4.491   5.018   0.641
10767SOL     OW33199   1.695   0.387   0.654
10767SOL    HW133200   1.598   0.406   0.665
10767SOL    HW233201   1.707   0.302   0.603
10768SOL     OW33202   4.931   5.361   1.365
10768SOL    HW133203   4.963   5.290   1.427
10768SOL    HW233204   5.004   5.388   1.303
10769SOL     OW33205   2.151   3.957   5.343
10769SOL    HW133206   2.237   3.940   5.296
10769SOL    HW233207   2.136   3.887   5.413
10770SOL     OW33208   5.518   6.375   4.264
10770SOL    HW133209   5.550   6.281   4.279
10770SOL    HW233210   5.444   6.395   4.329
10771SOL     OW33211   5.230   0.354   3.320
10771SOL    HW133212   5.239   0.434   3.379
10771SOL    HW233213   5.226   0.271   3.375
10772SOL     OW33214   6.035   0.097   4.003
10772SOL    HW133215   6.100   0.034   3.962
10772SOL    HW233216   6.078   0.187   4.015
10773SOL     OW33217   6.071   5.185   6.381
10773SOL    HW133218   6.022   5.098   6.371
10773SOL    HW233219   6.025   5.255   6.326
10774SOL     OW33220   2.392   1.909   6.048
10774SOL    HW133221   2.388   1.813   6.076
10774SOL    HW233222   2.486   1.933   6.023
10775SOL     OW33223   0.452   4.205   2.263
10775SOL    HW133224   0.410   4.115   2.253
10775SOL    HW233225   0.398   4.260   2.327
10776SOL     OW33226   0.516   0.914   6.269
10776SOL    HW133227   0.525   0.858   6.351
10776SOL    HW233228   0.464   0.997   6.291
10777SOL     OW33229   4.061   5.480   1.991
10777SOL    HW133230   4.085   5.504   2.085
10777SOL    HW233231   3.975   5.430   1.989
10778SOL     OW33232   5.033   6.818   3.986
10778SOL    HW133233   4.980   6.779   4.061
10778SOL    HW233234   5.093   6.749   3.947
10779SOL     OW33235   6.281   2.750   3.709
10779SOL    HW133236   6.276   2.841   3.666
10779SOL    HW233237   6.231   2.684   3.653
10780SOL     OW33238   1.752   0.696   4.352
10780SOL    HW133239   1.807   0.756   4.293
10780SOL    HW233240   1.719   0.618   4.299
10781SOL     OW33241   4.492   1.449   4.187
10781SOL    HW133242   4.495   1.386   4.109
10781SOL    HW233243   4.422   1.518   4.170
10782SOL     OW33244   7.002   1.154   2.648
10782SOL    HW133245   6.937   1.209   2.701
10782SOL    HW233246   6.970   1.060   2.643
10783SOL     OW33247   0.605   1.922   2.737
10783SOL    HW133248   0.702   1.921   2.715
10783SOL    HW233249   0.572   1.827   2.745
10784SOL     OW33250   4.071   6.896   3.957
10784SOL    HW133251   4.127   6.816   3.981
10784SOL    HW233252   4.112   6.977   3.998
10785SOL     OW33253   0.649   4.448   0.489
10785SOL    HW133254   0.635   4.470   0.586
10785SOL    HW233255   0.588   4.503   0.433
10786SOL     OW33256   6.144   4.705   3.314
10786SOL    HW133257   6.135   4.651   3.230
10786SOL    HW233258   6.069   4.684   3.376
10787SOL     OW33259   1.279   1.386   6.049
10787SOL    HW133260   1.239   1.472   6.080
10787SOL    HW233261   1.359   1.364   6.106
10788SOL     OW33262   1.381   4.235   0.524
10788SOL    HW133263   1.358   4.292   0.603
10788SOL    HW233264   1.444   4.285   0.465
10789SOL     OW33265   6.483   3.439   6.502
10789SOL    HW133266   6.528   3.395   6.580
10789SOL    HW233267   6.426   3.514   6.535
10790SOL     OW33268   0.604   0.465   1.979
10790SOL    HW133269   0.589   0.367   1.964
10790SOL    HW233270   0.609   0.512   1.892
10791SOL     OW33271   0.246   6.293   1.750
10791SOL    HW133272   0.300   6.272   1.668
10791SOL    HW233273   0.148   6.281   1.729
10792SOL     OW33274   3.237   3.171   5.133
10792SOL    HW133275   3.137   3.180   5.136
10792SOL    HW233276   3.274   3.230   5.062
10793SOL     OW33277   6.024   3.033   5.860
10793SOL    HW133278   6.110   3.015   5.908
10793SOL    HW233279   5.953   2.971   5.895
10794SOL     OW33280   4.121   3.535   4.591
10794SOL    HW133281   4.129   3.572   4.499
10794SOL    HW233282   4.209   3.498   4.620
10795SOL     OW33283   0.211   5.508   2.694
10795SOL    HW133284   0.213   5.420   2.647
10795SOL    HW233285   0.295   5.519   2.747
10796SOL     OW33286   6.592   6.527   5.653
10796SOL    HW133287   6.536   6.588   5.709
10796SOL    HW233288   6.535   6.489   5.579
10797SOL     OW33289   2.723   2.328   1.272
10797SOL    HW133290   2.726   2.245   1.215
10797SOL    HW233291   2.636   2.331   1.322
10798SOL     OW33292   2.838   0.866   0.272
10798SOL    HW133293   2.758   0.865   0.212
10798SOL    HW233294   2.828   0.937   0.341
10799SOL     OW33295   4.197   1.227   2.064
10799SOL    HW133296   4.187   1.166   1.986
10799SOL    HW233297   4.122   1.294   2.065
10800SOL     OW33298   0.683   6.648   5.274
10800SOL    HW133299   0.687   6.566   5.217
10800SOL    HW233300   0.694   6.729   5.216
10801SOL     OW33301   1.024   0.333   6.989
10801SOL    HW133302   1.092   0.347   0.041
10801SOL    HW233303   0.942   0.291   0.010
10802SOL     OW33304   0.460   0.363   2.566
10802SOL    HW133305   0.439   0.315   2.481
10802SOL    HW233306   0.510   0.447   2.545
10803SOL     OW33307   1.728   5.787   5.603
10803SOL    HW133308   1.760   5.870   5.557
10803SOL    HW233309   1.629   5.792   5.614
10804SOL     OW33310   5.704   3.583   2.938
10804SOL    HW133311   5.691   3.497   2.986
10804SOL    HW233312   5.615   3.626   2.921
10805SOL     OW33313   4.737   0.346   5.322
10805SOL    HW133314   4.673   0.376   5.251
10805SOL    HW233315   4.828   0.339   5.283
10806SOL     OW33316   3.858   3.769   6.095
10806SOL    HW133317   3.909   3.850   6.063
10806SOL    HW233318   3.916   3.716   6.157
10807SOL     OW33319   1.744   6.705   3.374
10807SOL    HW133320   1.788   6.734   3.289
10807SOL    HW233321   1.646   6.727   3.369
10808SOL     OW33322   0.594   3.243   6.214
10808SOL    HW133323   0.647   3.245   6.299
10808SOL    HW233324   0.509   3.295   6.228
10809SOL     OW33325   2.276   4.410   4.036
10809SOL    HW133326   2.289   4.362   3.950
10809SOL    HW233327   2.259   4.344   4.109
10810SOL     OW33328   0.256   0.294   4.220
10810SOL    HW133329   0.254   0.370   4.154
10810SOL    HW233330   0.165   0.255   4.227
10811SOL     OW33331   4.746   4.670   5.634
10811SOL    HW133332   4.812   4.599   5.611
10811SOL    HW233333   4.655   4.629   5.647
10812SOL     OW33334   6.964   3.574   0.647
10812SOL    HW133335   6.943   3.653   0.588
10812SOL    HW233336   6.929   3.591   0.739
10813SOL     OW33337   0.850   3.648   5.911
10813SOL    HW133338   0.896   3.562   5.892
10813SOL    HW233339   0.794   3.674   5.832
10814SOL     OW33340   2.062   0.173   6.617
10814SOL    HW133341   1.987   0.137   6.671
10814SOL    HW233342   2.058   0.273   6.617
10815SOL     OW33343   4.915   3.110   3.068
10815SOL    HW133344   4.934   3.171   2.991
10815SOL    HW233345   4.991   3.110   3.132
10816SOL     OW33346   3.124   3.051   2.897
10816SOL    HW133347   3.217   3.019   2.877
10816SOL    HW233348   3.067   3.041   2.815
10817SOL     OW33349   3.629   0.241   3.406
10817SOL    HW133350   3.663   0.335   3.415
10817SOL    HW233351   3.704   0.181   3.382
10818SOL     OW33352   4.619   4.059   5.292
10818SOL    HW133353   4.551   3.992   5.263
10818SOL    HW233354   4.614   4.070   5.392
10819SOL     OW33355   6.309   5.435   6.696
10819SOL    HW133356   6.231   5.372   6.702
10819SOL    HW233357   6.386   5.388   6.653
10820SOL     OW33358   0.544   5.255   4.085
10820SOL    HW133359   0.515   5.282   3.993
10820SOL    HW233360   0.582   5.335   4.132
10821SOL     OW33361   4.380   6.841   3.172
10821SOL    HW133362   4.372   6.786   3.089
10821SOL    HW233363   4.465   6.819   3.219
10822SOL     OW33364   6.262   2.024   2.310
10822SOL    HW133365   6.162   2.034   2.314
10822SOL    HW233366   6.284   1.933   2.273
10823SOL     OW33367   0.832   0.605   2.774
10823SOL    HW133368   0.757   0.647   2.723
10823SOL    HW233369   0.913   0.663   2.768
10824SOL     OW33370   0.144   0.884   2.483
10824SOL    HW133371   0.068   0.874   2.548
10824SOL    HW233372   0.109   0.919   2.396
10825SOL     OW33373   2.008   1.878   0.411
10825SOL    HW133374   2.031   1.786   0.380
10825SOL    HW233375   2.058   1.945   0.356
10826SOL     OW33376   0.892   1.175   2.782
10826SOL    HW133377   0.970   1.238   2.788
10826SOL    HW233378   0.911   1.104   2.714
10827SOL     OW33379   0.215   3.464   4.616
10827SOL    HW133380   0.215   3.487   4.714
10827SOL    HW233381   0.131   3.414   4.594
10828SOL     OW33382   1.912   4.446   0.971
10828SOL    HW133383   1.867   4.364   1.007
10828SOL    HW233384   1.880   4.526   1.023
10829SOL     OW33385   5.226   2.870   0.134
10829SOL    HW133386   5.182   2.788   0.098
10829SOL    HW233387   5.197   2.886   0.228
10830SOL     OW33388   4.227   1.978   3.194
10830SOL    HW133389   4.284   1.959   3.114
10830SOL    HW233390   4.164   1.902   3.208
10831SOL     OW33391   2.993   6.374   1.876
10831SOL    HW133392   3.003   6.470   1.848
10831SOL    HW233393   2.989   6.369   1.975
10832SOL     OW33394   6.900   3.641   6.302
10832SOL    HW133395   6.818   3.592   6.273
10832SOL    HW233396   6.893   3.737   6.275
10833SOL     OW33397   0.511   1.572   0.755
10833SOL    HW133398   0.560   1.656   0.779
10833SOL    HW233399   0.505   1.513   0.836
10834SOL     OW33400   6.234   1.564   0.336
10834SOL    HW133401   6.231   1.546   0.238
10834SOL    HW233402   6.173   1.500   0.383
10835SOL     OW33403   5.860   3.699   0.139
10835SOL    HW133404   5.798   3.621   0.149
10835SOL    HW233405   5.838   3.748   0.054
10836SOL     OW33406   0.711   1.486   3.131
10836SOL    HW133407   0.782   1.430   3.175
10836SOL    HW233408   0.633   1.496   3.193
10837SOL     OW33409   6.935   5.008   2.070
10837SOL    HW133410   6.932   5.086   2.132
10837SOL    HW233411   6.847   5.000   2.022
10838SOL     OW33412   6.229   6.573   3.981
10838SOL    HW133413   6.229   6.639   3.906
10838SOL    HW233414   6.143   6.521   3.979
10839SOL     OW33415   4.454   3.962   0.993
10839SOL    HW133416   4.434   3.865   1.011
10839SOL    HW233417   4.383   4.000   0.934
10840SOL     OW33418   3.355   6.454   1.983
10840SOL    HW133419   3.284   6.500   2.035
10840SOL    HW233420   3.444   6.493   2.006
10841SOL     OW33421   5.847   4.769   4.893
10841SOL    HW133422   5.845   4.729   4.985
10841SOL    HW233423   5.783   4.720   4.834
10842SOL     OW33424   5.293   2.358   1.435
10842SOL    HW133425   5.282   2.390   1.529
10842SOL    HW233426   5.296   2.436   1.372
10843SOL     OW33427   1.478   1.186   1.410
10843SOL    HW133428   1.504   1.221   1.501
10843SOL    HW233429   1.437   1.095   1.420
10844SOL     OW33430   0.137   4.859   3.086
10844SOL    HW133431   0.065   4.818   3.141
10844SOL    HW233432   0.098   4.929   3.027
10845SOL     OW33433   4.197   6.213   5.332
10845SOL    HW133434   4.138   6.181   5.259
10845SOL    HW233435   4.144   6.226   5.415
10846SOL     OW33436   5.490   0.533   6.446
10846SOL    HW133437   5.419   0.603   6.441
10846SOL    HW233438   5.454   0.448   6.407
10847SOL     OW33439   3.251   2.512   6.996
10847SOL    HW133440   3.329   2.532   6.938
10847SOL    HW233441   3.176   2.575   6.974
10848SOL     OW33442   1.077   4.598   1.177
10848SOL    HW133443   1.097   4.616   1.081
10848SOL    HW233444   1.024   4.514   1.186
10849SOL     OW33445   2.666   4.614   4.049
10849SOL    HW133446   2.577   4.596   4.091
10849SOL    HW233447   2.678   4.554   3.970
10850SOL     OW33448   3.729   6.330   6.295
10850SOL    HW133449   3.629   6.330   6.304
10850SOL    HW233450   3.769   6.362   6.381
10851SOL     OW33451   3.306   3.972   0.695
10851SOL    HW133452   3.250   4.039   0.647
10851SOL    HW233453   3.314   3.889   0.639
10852SOL     OW33454   1.448   0.950   6.710
10852SOL    HW133455   1.377   0.989   6.768
10852SOL    HW233456   1.433   0.978   6.615
10853SOL     OW33457   2.567   3.138   5.643
10853SOL    HW133458   2.591   3.041   5.642
10853SOL    HW233459   2.491   3.154   5.580
10854SOL     OW33460   4.412   5.236   5.368
10854SOL    HW133461   4.436   5.139   5.370
10854SOL    HW233462   4.361   5.255   5.284
10855SOL     OW33463   3.574   0.922   0.176
10855SOL    HW133464   3.491   0.889   0.129
10855SOL    HW233465   3.596   0.860   0.251
10856SOL     OW33466   5.953   1.529   0.460
10856SOL    HW133467   5.927   1.534   0.556
10856SOL    HW233468   5.930   1.616   0.415
10857SOL     OW33469   0.966   2.490   2.349
10857SOL    HW133470   1.045   2.440   2.315
10857SOL    HW233471   0.993   2.546   2.428
10858SOL     OW33472   0.776   0.588   0.448
10858SOL    HW133473   0.788   0.622   0.541
10858SOL    HW233474   0.860   0.544   0.417
10859SOL     OW33475   0.625   4.812   4.635
10859SOL    HW133476   0.717   4.826   4.671
10859SOL    HW233477   0.612   4.870   4.555
10860SOL     OW33478   0.220   3.166   4.555
10860SOL    HW133479   0.183   3.106   4.626
10860SOL    HW233480   0.256   3.249   4.597
10861SOL     OW33481   3.260   3.769   3.326
10861SOL    HW133482   3.261   3.815   3.237
10861SOL    HW233483   3.227   3.834   3.395
10862SOL     OW33484   1.024   1.188   5.624
10862SOL    HW133485   1.051   1.249   5.699
10862SOL    HW233486   1.050   1.094   5.647
10863SOL     OW33487   2.354   0.477   4.872
10863SOL    HW133488   2.443   0.437   4.896
10863SOL    HW233489   2.351   0.572   4.903
10864SOL     OW33490   3.269   5.735   6.994
10864SOL    HW133491   3.360   5.750   0.013
10864SOL    HW233492   3.265   5.774   6.902
10865SOL     OW33493   6.526   1.375   0.875
10865SOL    HW133494   6.446   1.418   0.832
10865SOL    HW233495   6.516   1.276   0.871
10866SOL     OW33496   5.195   4.761   0.978
10866SOL    HW133497   5.192   4.665   0.948
10866SOL    HW233498   5.180   4.820   0.899
10867SOL     OW33499   3.483   4.436   0.678
10867SOL    HW133500   3.513   4.495   0.753
10867SOL    HW233501   3.457   4.347   0.714
10868SOL     OW33502   4.664   1.656   3.680
10868SOL    HW133503   4.762   1.672   3.697
10868SOL    HW233504   4.636   1.572   3.726
10869NA      NA33505   6.619   3.015   4.962
10870NA      NA33506   4.524   4.563   5.100
10871NA      NA33507   1.135   2.813   1.495
10872NA      NA33508   4.990   3.694   5.130
10873NA      NA33509   4.083   2.312   5.271
10874NA      NA33510   3.552   4.832   1.677
10875NA      NA33511   6.704   5.047   6.808
10876NA      NA33512   3.272   3.126   4.757
10877NA      NA33513   4.346   5.908   0.033
10878NA      NA33514   4.412   6.332   4.926
10879NA      NA33515   6.439   5.151   2.569
10880NA      NA33516   2.231   7.006   3.841
10881NA      NA33517   4.084   5.734   1.901
10882NA      NA33518   3.580   3.895   2.026
   7.01968   7.01968   7.01968
