Generated by trjconv : CNT in water t= 480.00000
33518
    1C        C    1   2.844   2.765   4.745
    1C        C    2   2.895   2.711   4.865
    1C        C    3   2.840   2.768   4.981
    1C        C    4   2.847   2.769   4.258
    1C        C    5   2.898   2.720   4.380
    1C        C    6   2.845   2.766   4.502
    1C        C    7   3.009   2.631   4.623
    1C        C    8   2.896   2.716   4.624
    1C        C    9   3.077   2.602   4.743
    1C        C   10   3.010   2.629   4.864
    1C        C   11   3.185   2.501   4.981
    1C        C   12   3.062   2.567   4.978
    1C        C   13   2.846   2.763   3.770
    1C        C   14   2.895   2.712   3.892
    1C        C   15   2.851   2.769   4.013
    1C        C   16   3.017   2.640   4.137
    1C        C   17   2.901   2.721   4.136
    1C        C   18   3.081   2.610   4.259
    1C        C   19   3.015   2.640   4.380
    1C        C   20   3.206   2.548   4.503
    1C        C   21   3.074   2.599   4.502
    1C        C   22   3.274   2.522   4.624
    1C        C   23   3.206   2.541   4.746
    1C        C   24   3.412   2.480   4.866
    1C        C   25   3.271   2.500   4.866
    1C        C   26   3.493   2.469   4.980
    1C        C   27   2.854   2.766   3.280
    1C        C   28   2.905   2.722   3.403
    1C        C   29   2.855   2.771   3.526
    1C        C   30   3.013   2.631   3.649
    1C        C   31   2.901   2.717   3.648
    1C        C   32   3.073   2.595   3.772
    1C        C   33   3.009   2.629   3.893
    1C        C   34   3.205   2.544   4.014
    1C        C   35   3.074   2.597   4.015
    1C        C   36   3.272   2.528   4.137
    1C        C   37   3.210   2.552   4.261
    1C        C   38   3.414   2.494   4.380
    1C        C   39   3.276   2.524   4.383
    1C        C   40   3.485   2.500   4.502
    1C        C   41   3.413   2.497   4.624
    1C        C   42   3.627   2.479   4.742
    1C        C   43   3.485   2.478   4.743
    1C        C   44   3.706   2.484   4.859
    1C        C   45   3.632   2.477   4.977
    1C        C   46   2.835   2.749   2.789
    1C        C   47   2.890   2.708   2.913
    1C        C   48   2.839   2.754   3.036
    1C        C   49   3.015   2.632   3.158
    1C        C   50   2.898   2.711   3.157
    1C        C   51   3.076   2.599   3.281
    1C        C   52   3.017   2.636   3.404
    1C        C   53   3.205   2.541   3.524
    1C        C   54   3.073   2.593   3.527
    1C        C   55   3.271   2.520   3.647
    1C        C   56   3.205   2.544   3.770
    1C        C   57   3.413   2.502   3.893
    1C        C   58   3.274   2.526   3.892
    1C        C   59   3.483   2.499   4.016
    1C        C   60   3.411   2.504   4.137
    1C        C   61   3.625   2.502   4.255
    1C        C   62   3.484   2.490   4.258
    1C        C   63   3.696   2.503   4.377
    1C        C   64   3.627   2.503   4.500
    1C        C   65   3.833   2.540   4.620
    1C        C   66   3.698   2.499   4.621
    1C        C   67   3.905   2.558   4.740
    1C        C   68   3.842   2.521   4.861
    1C        C   69   4.057   2.577   4.977
    1C        C   70   3.925   2.530   4.974
    1C        C   71   2.819   2.731   2.302
    1C        C   72   2.879   2.690   2.424
    1C        C   73   2.832   2.743   2.546
    1C        C   74   3.005   2.622   2.668
    1C        C   75   2.885   2.697   2.668
    1C        C   76   3.068   2.589   2.790
    1C        C   77   3.007   2.628   2.911
    1C        C   78   3.199   2.537   3.035
    1C        C   79   3.072   2.598   3.033
    1C        C   80   3.268   2.514   3.156
    1C        C   81   3.203   2.538   3.279
    1C        C   82   3.410   2.493   3.402
    1C        C   83   3.271   2.517   3.402
    1C        C   84   3.479   2.490   3.525
    1C        C   85   3.410   2.494   3.648
    1C        C   86   3.622   2.493   3.767
    1C        C   87   3.481   2.488   3.770
    1C        C   88   3.693   2.506   3.888
    1C        C   89   3.625   2.502   4.012
    1C        C   90   3.831   2.553   4.134
    1C        C   91   3.696   2.512   4.133
    1C        C   92   3.898   2.575   4.256
    1C        C   93   3.832   2.541   4.377
    1C        C   94   4.025   2.631   4.498
    1C        C   95   3.900   2.565   4.498
    1C        C   96   4.087   2.668   4.619
    1C        C   97   4.029   2.628   4.741
    1C        C   98   4.191   2.761   4.861
    1C        C   99   4.102   2.649   4.862
    1C        C  100   4.212   2.840   4.975
    1C        C  101   2.819   2.730   2.065
    1C        C  102   2.986   2.589   2.187
    1C        C  103   2.874   2.677   2.183
    1C        C  104   3.060   2.571   2.307
    1C        C  105   2.999   2.616   2.426
    1C        C  106   3.196   2.529   2.546
    1C        C  107   3.065   2.582   2.546
    1C        C  108   3.263   2.513   2.669
    1C        C  109   3.198   2.535   2.793
    1C        C  110   3.407   2.490   2.912
    1C        C  111   3.268   2.511   2.914
    1C        C  112   3.479   2.491   3.034
    1C        C  113   3.408   2.498   3.157
    1C        C  114   3.620   2.497   3.277
    1C        C  115   3.479   2.488   3.279
    1C        C  116   3.688   2.512   3.400
    1C        C  117   3.620   2.501   3.523
    1C        C  118   3.827   2.547   3.644
    1C        C  119   3.691   2.511   3.645
    1C        C  120   3.894   2.577   3.765
    1C        C  121   3.828   2.549   3.887
    1C        C  122   4.016   2.646   4.012
    1C        C  123   3.893   2.578   4.009
    1C        C  124   4.082   2.679   4.133
    1C        C  125   4.024   2.638   4.255
    1C        C  126   4.193   2.765   4.376
    1C        C  127   4.084   2.675   4.377
    1C        C  128   4.243   2.817   4.497
    1C        C  129   4.192   2.763   4.617
    1C        C  130   4.326   2.929   4.739
    1C        C  131   4.238   2.817   4.739
    1C        C  132   4.353   3.002   4.857
    1C        C  133   4.287   2.957   4.972
    1C        C  134   3.170   2.467   2.073
    1C        C  135   3.035   2.504   2.082
    1C        C  136   3.255   2.475   2.184
    1C        C  137   3.192   2.516   2.303
    1C        C  138   3.401   2.477   2.423
    1C        C  139   3.261   2.496   2.425
    1C        C  140   3.472   2.481   2.545
    1C        C  141   3.402   2.491   2.667
    1C        C  142   3.615   2.500   2.788
    1C        C  143   3.474   2.485   2.788
    1C        C  144   3.686   2.506   2.910
    1C        C  145   3.620   2.495   3.034
    1C        C  146   3.827   2.546   3.153
    1C        C  147   3.692   2.504   3.155
    1C        C  148   3.891   2.572   3.276
    1C        C  149   3.825   2.546   3.399
    1C        C  150   4.018   2.634   3.518
    1C        C  151   3.893   2.569   3.521
    1C        C  152   4.077   2.675   3.640
    1C        C  153   4.019   2.643   3.764
    1C        C  154   4.188   2.766   3.886
    1C        C  155   4.075   2.681   3.888
    1C        C  156   4.244   2.812   4.008
    1C        C  157   4.195   2.763   4.131
    1C        C  158   4.334   2.923   4.252
    1C        C  159   4.245   2.812   4.253
    1C        C  160   4.370   2.986   4.373
    1C        C  161   4.328   2.930   4.496
    1C        C  162   4.438   3.111   4.614
    1C        C  163   4.371   2.987   4.618
    1C        C  164   4.472   3.180   4.733
    1C        C  165   4.432   3.119   4.854
    1C        C  166   4.503   3.319   4.972
    1C        C  167   4.475   3.183   4.970
    1C        C  168   3.474   2.432   2.072
    1C        C  169   3.394   2.449   2.185
    1C        C  170   3.614   2.465   2.305
    1C        C  171   3.472   2.459   2.302
    1C        C  172   3.687   2.484   2.424
    1C        C  173   3.614   2.488   2.544
    1C        C  174   3.820   2.544   2.665
    1C        C  175   3.685   2.504   2.665
    1C        C  176   3.887   2.568   2.787
    1C        C  177   3.823   2.543   2.910
    1C        C  178   4.020   2.629   3.031
    1C        C  179   3.893   2.566   3.030
    1C        C  180   4.080   2.667   3.153
    1C        C  181   4.017   2.635   3.275
    1C        C  182   4.196   2.751   3.396
    1C        C  183   4.081   2.670   3.397
    1C        C  184   4.244   2.805   3.517
    1C        C  185   4.192   2.758   3.640
    1C        C  186   4.337   2.911   3.764
    1C        C  187   4.243   2.805   3.762
    1C        C  188   4.375   2.975   3.884
    1C        C  189   4.333   2.921   4.008
    1C        C  190   4.446   3.102   4.126
    1C        C  191   4.376   2.980   4.130
    1C        C  192   4.467   3.170   4.248
    1C        C  193   4.439   3.109   4.373
    1C        C  194   4.506   3.313   4.491
    1C        C  195   4.471   3.176   4.493
    1C        C  196   4.518   3.387   4.611
    1C        C  197   4.504   3.318   4.733
    1C        C  198   4.547   3.532   4.849
    1C        C  199   4.520   3.392   4.853
    1C        C  200   4.584   3.617   4.958
    1C        C  201   3.614   2.420   2.071
    1C        C  202   3.825   2.509   2.183
    1C        C  203   3.689   2.464   2.184
    1C        C  204   3.894   2.541   2.303
    1C        C  205   3.824   2.519   2.424
    1C        C  206   4.014   2.627   2.543
    1C        C  207   3.889   2.560   2.543
    1C        C  208   4.075   2.663   2.665
    1C        C  209   4.012   2.634   2.788
    1C        C  210   4.193   2.749   2.906
    1C        C  211   4.078   2.667   2.908
    1C        C  212   4.250   2.794   3.027
    1C        C  213   4.195   2.749   3.149
    1C        C  214   4.335   2.907   3.270
    1C        C  215   4.247   2.797   3.272
    1C        C  216   4.372   2.966   3.394
    1C        C  217   4.334   2.914   3.519
    1C        C  218   4.436   3.099   3.638
    1C        C  219   4.373   2.972   3.642
    1C        C  220   4.465   3.166   3.759
    1C        C  221   4.442   3.099   3.881
    1C        C  222   4.504   3.303   4.002
    1C        C  223   4.472   3.165   4.003
    1C        C  224   4.512   3.376   4.122
    1C        C  225   4.498   3.308   4.245
    1C        C  226   4.518   3.520   4.365
    1C        C  227   4.512   3.379   4.367
    1C        C  228   4.511   3.595   4.484
    1C        C  229   4.525   3.528   4.608
    1C        C  230   4.507   3.743   4.725
    1C        C  231   4.534   3.603   4.727
    1C        C  232   4.495   3.819   4.844
    1C        C  233   4.545   3.752   4.956
    1C        C  234   4.020   2.598   2.063
    1C        C  235   3.891   2.548   2.066
    1C        C  236   4.083   2.646   2.180
    1C        C  237   4.020   2.607   2.300
    1C        C  238   4.196   2.732   2.420
    1C        C  239   4.080   2.651   2.421
    1C        C  240   4.251   2.783   2.540
    1C        C  241   4.191   2.744   2.662
    1C        C  242   4.333   2.904   2.780
    1C        C  243   4.247   2.792   2.783
    1C        C  244   4.373   2.961   2.903
    1C        C  245   4.340   2.903   3.027
    1C        C  246   4.443   3.090   3.148
    1C        C  247   4.375   2.966   3.149
    1C        C  248   4.462   3.157   3.271
    1C        C  249   4.432   3.094   3.393
    1C        C  250   4.494   3.299   3.512
    1C        C  251   4.459   3.162   3.514
    1C        C  252   4.501   3.369   3.634
    1C        C  253   4.495   3.304   3.759
    1C        C  254   4.522   3.515   3.875
    1C        C  255   4.513   3.374   3.880
    1C        C  256   4.516   3.585   3.998
    1C        C  257   4.514   3.518   4.122
    1C        C  258   4.479   3.728   4.241
    1C        C  259   4.509   3.590   4.243
    1C        C  260   4.467   3.801   4.361
    1C        C  261   4.479   3.733   4.485
    1C        C  262   4.414   3.936   4.599
    1C        C  263   4.465   3.805   4.605
    1C        C  264   4.390   4.007   4.719
    1C        C  265   4.432   3.945   4.839
    1C        C  266   4.318   4.131   4.956
    1C        C  267   4.392   4.014   4.954
    1C        C  268   4.261   2.773   2.060
    1C        C  269   4.196   2.730   2.177
    1C        C  270   4.341   2.888   2.298
    1C        C  271   4.251   2.777   2.298
    1C        C  272   4.387   2.949   2.417
    1C        C  273   4.346   2.888   2.537
    1C        C  274   4.449   3.078   2.659
    1C        C  275   4.380   2.955   2.657
    1C        C  276   4.479   3.144   2.780
    1C        C  277   4.448   3.081   2.903
    1C        C  278   4.504   3.288   3.019
    1C        C  279   4.472   3.151   3.023
    1C        C  280   4.508   3.359   3.142
    1C        C  281   4.495   3.295   3.267
    1C        C  282   4.513   3.507   3.386
    1C        C  283   4.509   3.366   3.388
    1C        C  284   4.510   3.578   3.508
    1C        C  285   4.514   3.510   3.632
    1C        C  286   4.485   3.722   3.749
    1C        C  287   4.516   3.584   3.752
    1C        C  288   4.467   3.789   3.872
    1C        C  289   4.487   3.724   3.996
    1C        C  290   4.424   3.929   4.111
    1C        C  291   4.467   3.794   4.117
    1C        C  292   4.392   3.996   4.232
    1C        C  293   4.417   3.933   4.356
    1C        C  294   4.327   4.128   4.475
    1C        C  295   4.387   4.000   4.476
    1C        C  296   4.285   4.190   4.596
    1C        C  297   4.323   4.133   4.719
    1C        C  298   4.195   4.311   4.837
    1C        C  299   4.283   4.199   4.838
    1C        C  300   4.164   4.398   4.947
    1C        C  301   4.347   2.882   2.061
    1C        C  302   4.468   3.066   2.172
    1C        C  303   4.389   2.946   2.178
    1C        C  304   4.478   3.140   2.293
    1C        C  305   4.446   3.077   2.415
    1C        C  306   4.512   3.280   2.532
    1C        C  307   4.473   3.145   2.537
    1C        C  308   4.521   3.352   2.653
    1C        C  309   4.511   3.282   2.775
    1C        C  310   4.524   3.496   2.897
    1C        C  311   4.518   3.355   2.896
    1C        C  312   4.517   3.568   3.019
    1C        C  313   4.509   3.500   3.143
    1C        C  314   4.481   3.715   3.262
    1C        C  315   4.506   3.575   3.262
    1C        C  316   4.468   3.785   3.383
    1C        C  317   4.483   3.717   3.506
    1C        C  318   4.418   3.922   3.624
    1C        C  319   4.462   3.788   3.627
    1C        C  320   4.391   3.987   3.747
    1C        C  321   4.416   3.921   3.869
    1C        C  322   4.312   4.109   3.987
    1C        C  323   4.392   3.992   3.989
    1C        C  324   4.273   4.169   4.109
    1C        C  325   4.322   4.118   4.231
    1C        C  326   4.185   4.281   4.351
    1C        C  327   4.285   4.181   4.352
    1C        C  328   4.132   4.334   4.471
    1C        C  329   4.189   4.293   4.594
    1C        C  330   4.019   4.428   4.713
    1C        C  331   4.138   4.349   4.712
    1C        C  332   3.963   4.481   4.831
    1C        C  333   4.049   4.478   4.942
    1C        C  334   4.552   3.263   2.056
    1C        C  335   4.537   3.124   2.061
    1C        C  336   4.540   3.345   2.169
    1C        C  337   4.514   3.277   2.289
    1C        C  338   4.516   3.492   2.407
    1C        C  339   4.520   3.351   2.410
    1C        C  340   4.512   3.562   2.530
    1C        C  341   4.518   3.493   2.653
    1C        C  342   4.486   3.704   2.773
    1C        C  343   4.513   3.566   2.775
    1C        C  344   4.470   3.775   2.894
    1C        C  345   4.489   3.707   3.016
    1C        C  346   4.417   3.910   3.135
    1C        C  347   4.467   3.778   3.136
    1C        C  348   4.387   3.979   3.255
    1C        C  349   4.419   3.917   3.378
    1C        C  350   4.316   4.104   3.498
    1C        C  351   4.386   3.982   3.500
    1C        C  352   4.274   4.163   3.620
    1C        C  353   4.317   4.107   3.743
    1C        C  354   4.176   4.269   3.863
    1C        C  355   4.272   4.164   3.864
    1C        C  356   4.121   4.317   3.983
    1C        C  357   4.177   4.273   4.106
    1C        C  358   4.011   4.400   4.229
    1C        C  359   4.131   4.325   4.228
    1C        C  360   3.952   4.443   4.350
    1C        C  361   4.016   4.414   4.472
    1C        C  362   3.822   4.509   4.592
    1C        C  363   3.954   4.458   4.592
    1C        C  364   3.759   4.549   4.711
    1C        C  365   3.834   4.537   4.831
    1C        C  366   3.621   4.590   4.947
    1C        C  367   3.759   4.571   4.944
    1C        C  368   4.511   3.561   2.050
    1C        C  369   4.523   3.486   2.167
    1C        C  370   4.496   3.703   2.285
    1C        C  371   4.518   3.563   2.285
    1C        C  372   4.480   3.773   2.407
    1C        C  373   4.498   3.703   2.528
    1C        C  374   4.421   3.903   2.648
    1C        C  375   4.474   3.772   2.649
    1C        C  376   4.384   3.968   2.768
    1C        C  377   4.423   3.908   2.890
    1C        C  378   4.318   4.093   3.007
    1C        C  379   4.392   3.973   3.011
    1C        C  380   4.269   4.148   3.128
    1C        C  381   4.310   4.097   3.254
    1C        C  382   4.172   4.259   3.373
    1C        C  383   4.270   4.156   3.375
    1C        C  384   4.125   4.312   3.494
    1C        C  385   4.178   4.266   3.617
    1C        C  386   4.005   4.389   3.740
    1C        C  387   4.124   4.312   3.739
    1C        C  388   3.945   4.430   3.861
    1C        C  389   4.003   4.395   3.985
    1C        C  390   3.815   4.485   4.106
    1C        C  391   3.946   4.433   4.108
    1C        C  392   3.751   4.511   4.229
    1C        C  393   3.822   4.500   4.350
    1C        C  394   3.613   4.549   4.470
    1C        C  395   3.752   4.527   4.470
    1C        C  396   3.544   4.564   4.592
    1C        C  397   3.619   4.569   4.712
    1C        C  398   3.405   4.545   4.834
    1C        C  399   3.544   4.570   4.832
    1C        C  400   3.339   4.517   4.954
    1C        C  401   4.498   3.700   2.049
    1C        C  402   4.444   3.911   2.163
    1C        C  403   4.487   3.777   2.166
    1C        C  404   4.405   3.973   2.283
    1C        C  405   4.433   3.906   2.404
    1C        C  406   4.323   4.089   2.524
    1C        C  407   4.400   3.970   2.526
    1C        C  408   4.275   4.148   2.643
    1C        C  409   4.310   4.088   2.765
    1C        C  410   4.172   4.250   2.887
    1C        C  411   4.272   4.150   2.886
    1C        C  412   4.122   4.301   3.009
    1C        C  413   4.175   4.253   3.131
    1C        C  414   4.002   4.383   3.248
    1C        C  415   4.121   4.306   3.250
    1C        C  416   3.942   4.416   3.372
    1C        C  417   4.007   4.390   3.495
    1C        C  418   3.813   4.477   3.618
    1C        C  419   3.944   4.422   3.617
    1C        C  420   3.746   4.501   3.740
    1C        C  421   3.814   4.484   3.862
    1C        C  422   3.608   4.536   3.984
    1C        C  423   3.746   4.505   3.984
    1C        C  424   3.539   4.540   4.107
    1C        C  425   3.612   4.535   4.228
    1C        C  426   3.399   4.542   4.353
    1C        C  427   3.540   4.547   4.349
    1C        C  428   3.328   4.543   4.475
    1C        C  429   3.403   4.556   4.594
    1C        C  430   3.193   4.508   4.719
    1C        C  431   3.332   4.537   4.714
    1C        C  432   3.123   4.487   4.841
    1C        C  433   3.201   4.501   4.957
    1C        C  434   4.382   4.124   2.049
    1C        C  435   4.441   3.997   2.052
    1C        C  436   4.301   4.162   2.160
    1C        C  437   4.331   4.095   2.282
    1C        C  438   4.179   4.245   2.400
    1C        C  439   4.282   4.148   2.403
    1C        C  440   4.124   4.296   2.520
    1C        C  441   4.176   4.249   2.643
    1C        C  442   4.004   4.376   2.762
    1C        C  443   4.121   4.297   2.764
    1C        C  444   3.941   4.414   2.883
    1C        C  445   4.006   4.381   3.004
    1C        C  446   3.811   4.470   3.127
    1C        C  447   3.940   4.415   3.125
    1C        C  448   3.746   4.493   3.250
    1C        C  449   3.812   4.471   3.373
    1C        C  450   3.608   4.525   3.494
    1C        C  451   3.747   4.499   3.495
    1C        C  452   3.538   4.533   3.617
    1C        C  453   3.607   4.527   3.740
    1C        C  454   3.396   4.536   3.862
    1C        C  455   3.537   4.537   3.862
    1C        C  456   3.328   4.527   3.986
    1C        C  457   3.398   4.531   4.108
    1C        C  458   3.189   4.503   4.233
    1C        C  459   3.328   4.529   4.231
    1C        C  460   3.124   4.480   4.356
    1C        C  461   3.192   4.505   4.478
    1C        C  462   2.993   4.427   4.602
    1C        C  463   3.123   4.482   4.599
    1C        C  464   2.926   4.400   4.723
    1C        C  465   2.989   4.435   4.845
    1C        C  466   2.800   4.333   4.961
    1C        C  467   2.907   4.424   4.961
    1C        C  468   4.122   4.287   2.039
    1C        C  469   4.187   4.249   2.157
    1C        C  470   4.006   4.368   2.275
    1C        C  471   4.127   4.294   2.278
    1C        C  472   3.944   4.401   2.398
    1C        C  473   4.006   4.373   2.522
    1C        C  474   3.810   4.467   2.639
    1C        C  475   3.940   4.413   2.641
    1C        C  476   3.743   4.491   2.761
    1C        C  477   3.811   4.469   2.883
    1C        C  478   3.604   4.514   3.008
    1C        C  479   3.743   4.490   3.004
    1C        C  480   3.534   4.523   3.131
    1C        C  481   3.607   4.517   3.251
    1C        C  482   3.395   4.526   3.376
    1C        C  483   3.536   4.529   3.373
    1C        C  484   3.324   4.520   3.498
    1C        C  485   3.397   4.530   3.618
    1C        C  486   3.187   4.497   3.742
    1C        C  487   3.325   4.525   3.740
    1C        C  488   3.124   4.472   3.866
    1C        C  489   3.191   4.494   3.989
    1C        C  490   2.996   4.415   4.112
    1C        C  491   3.121   4.480   4.112
    1C        C  492   2.937   4.379   4.236
    1C        C  493   2.995   4.422   4.357
    1C        C  494   2.824   4.299   4.483
    1C        C  495   2.933   4.389   4.479
    1C        C  496   2.765   4.256   4.604
    1C        C  497   2.813   4.313   4.724
    1C        C  498   2.666   4.159   4.843
    1C        C  499   2.757   4.268   4.845
    1C        C  500   2.595   4.114   4.955
    1C        C  501   4.001   4.355   2.039
    1C        C  502   3.811   4.463   2.154
    1C        C  503   3.939   4.402   2.156
    1C        C  504   3.743   4.476   2.277
    1C        C  505   3.811   4.449   2.397
    1C        C  506   3.601   4.502   2.519
    1C        C  507   3.740   4.473   2.517
    1C        C  508   3.532   4.515   2.641
    1C        C  509   3.603   4.511   2.763
    1C        C  510   3.392   4.519   2.882
    1C        C  511   3.533   4.518   2.885
    1C        C  512   3.324   4.511   3.006
    1C        C  513   3.392   4.522   3.129
    1C        C  514   3.187   4.488   3.256
    1C        C  515   3.324   4.519   3.253
    1C        C  516   3.118   4.464   3.377
    1C        C  517   3.187   4.485   3.499
    1C        C  518   2.990   4.412   3.622
    1C        C  519   3.119   4.469   3.622
    1C        C  520   2.936   4.372   3.746
    1C        C  521   2.999   4.408   3.867
    1C        C  522   2.828   4.285   3.993
    1C        C  523   2.940   4.370   3.991
    1C        C  524   2.781   4.237   4.118
    1C        C  525   2.827   4.291   4.240
    1C        C  526   2.690   4.131   4.363
    1C        C  527   2.775   4.244   4.362
    1C        C  528   2.649   4.075   4.486
    1C        C  529   2.677   4.146   4.605
    1C        C  530   2.571   3.961   4.726
    1C        C  531   2.629   4.091   4.725
    1C        C  532   2.540   3.896   4.849
    1C        C  533   2.536   3.987   4.959
    1C        C  534   3.615   4.554   2.036
    1C        C  535   3.749   4.513   2.039
    1C        C  536   3.536   4.531   2.154
    1C        C  537   3.604   4.508   2.276
    1C        C  538   3.390   4.515   2.398
    1C        C  539   3.531   4.514   2.397
    1C        C  540   3.320   4.505   2.521
    1C        C  541   3.391   4.511   2.643
    1C        C  542   3.179   4.479   2.767
    1C        C  543   3.317   4.508   2.763
    1C        C  544   3.115   4.459   2.891
    1C        C  545   3.186   4.481   3.011
    1C        C  546   2.995   4.395   3.133
    1C        C  547   3.120   4.460   3.134
    1C        C  548   2.932   4.363   3.255
    1C        C  549   2.990   4.405   3.377
    1C        C  550   2.822   4.282   3.505
    1C        C  551   2.929   4.374   3.500
    1C        C  552   2.773   4.232   3.627
    1C        C  553   2.826   4.282   3.748
    1C        C  554   2.698   4.119   3.875
    1C        C  555   2.775   4.237   3.871
    1C        C  556   2.659   4.061   3.998
    1C        C  557   2.693   4.126   4.119
    1C        C  558   2.591   3.942   4.243
    1C        C  559   2.649   4.071   4.241
    1C        C  560   2.566   3.876   4.365
    1C        C  561   2.593   3.945   4.485
    1C        C  562   2.525   3.748   4.613
    1C        C  563   2.561   3.884   4.608
    1C        C  564   2.512   3.677   4.734
    1C        C  565   2.517   3.755   4.853
    1C        C  566   2.534   3.543   4.975
    1C        C  567   2.519   3.682   4.972
    1C        C  568   3.326   4.471   2.040
    1C        C  569   3.396   4.509   2.156
    1C        C  570   3.183   4.462   2.277
    1C        C  571   3.320   4.502   2.276
    1C        C  572   3.114   4.450   2.400
    1C        C  573   3.183   4.472   2.521
    1C        C  574   2.988   4.390   2.647
    1C        C  575   3.115   4.452   2.643
    1C        C  576   2.928   4.356   2.770
    1C        C  577   2.992   4.390   2.891
    1C        C  578   2.817   4.272   3.015
    1C        C  579   2.929   4.357   3.013
    1C        C  580   2.767   4.225   3.138
    1C        C  581   2.823   4.273   3.259
    1C        C  582   2.690   4.114   3.383
    1C        C  583   2.776   4.226   3.384
    1C        C  584   2.658   4.053   3.507
    1C        C  585   2.693   4.115   3.629
    1C        C  586   2.590   3.935   3.755
    1C        C  587   2.654   4.061   3.754
    1C        C  588   2.565   3.870   3.877
    1C        C  589   2.592   3.937   3.999
    1C        C  590   2.529   3.737   4.125
    1C        C  591   2.567   3.873   4.122
    1C        C  592   2.513   3.669   4.248
    1C        C  593   2.524   3.741   4.370
    1C        C  594   2.508   3.532   4.495
    1C        C  595   2.516   3.673   4.493
    1C        C  596   2.517   3.462   4.617
    1C        C  597   2.517   3.535   4.738
    1C        C  598   2.527   3.322   4.859
    1C        C  599   2.525   3.464   4.860
    1C        C  600   2.526   3.245   4.975
    1C        C  601   3.192   4.439   2.040
    1C        C  602   2.978   4.392   2.158
    1C        C  603   3.115   4.434   2.156
    1C        C  604   2.920   4.355   2.282
    1C        C  605   2.983   4.396   2.402
    1C        C  606   2.813   4.271   2.525
    1C        C  607   2.926   4.357   2.525
    1C        C  608   2.766   4.220   2.648
    1C        C  609   2.817   4.269   2.771
    1C        C  610   2.678   4.110   2.892
    1C        C  611   2.765   4.221   2.893
    1C        C  612   2.645   4.051   3.016
    1C        C  613   2.686   4.109   3.138
    1C        C  614   2.582   3.929   3.264
    1C        C  615   2.648   4.053   3.263
    1C        C  616   2.561   3.864   3.388
    1C        C  617   2.593   3.928   3.510
    1C        C  618   2.527   3.730   3.636
    1C        C  619   2.564   3.866   3.634
    1C        C  620   2.520   3.661   3.759
    1C        C  621   2.534   3.732   3.880
    1C        C  622   2.511   3.525   4.007
    1C        C  623   2.522   3.666   4.004
    1C        C  624   2.510   3.456   4.130
    1C        C  625   2.507   3.528   4.251
    1C        C  626   2.538   3.320   4.376
    1C        C  627   2.511   3.459   4.374
    1C        C  628   2.559   3.251   4.498
    1C        C  629   2.542   3.323   4.618
    1C        C  630   2.592   3.114   4.738
    1C        C  631   2.550   3.250   4.739
    1C        C  632   2.615   3.048   4.862
    1C        C  633   2.561   3.109   4.979
    1C        C  634   2.774   4.308   2.053
    1C        C  635   2.888   4.389   2.046
    1C        C  636   2.742   4.228   2.164
    1C        C  637   2.803   4.274   2.283
    1C        C  638   2.674   4.107   2.407
    1C        C  639   2.756   4.223   2.406
    1C        C  640   2.643   4.043   2.528
    1C        C  641   2.682   4.106   2.649
    1C        C  642   2.580   3.921   2.773
    1C        C  643   2.640   4.049   2.771
    1C        C  644   2.560   3.855   2.897
    1C        C  645   2.587   3.923   3.018
    1C        C  646   2.522   3.725   3.146
    1C        C  647   2.561   3.861   3.142
    1C        C  648   2.509   3.657   3.269
    1C        C  649   2.528   3.727   3.390
    1C        C  650   2.507   3.518   3.518
    1C        C  651   2.516   3.659   3.514
    1C        C  652   2.508   3.448   3.641
    1C        C  653   2.512   3.520   3.763
    1C        C  654   2.539   3.312   3.886
    1C        C  655   2.513   3.451   3.886
    1C        C  656   2.558   3.248   4.011
    1C        C  657   2.537   3.317   4.132
    1C        C  658   2.608   3.119   4.253
    1C        C  659   2.557   3.250   4.255
    1C        C  660   2.642   3.056   4.375
    1C        C  661   2.611   3.120   4.497
    1C        C  662   2.716   2.937   4.623
    1C        C  663   2.635   3.052   4.619
    1C        C  664   2.754   2.875   4.745
    1C        C  665   2.694   2.929   4.862
    1C        C  666   2.745   2.870   4.979
    1C        C  667   2.674   4.020   2.051
    1C        C  668   2.685   4.099   2.166
    1C        C  669   2.578   3.914   2.288
    1C        C  670   2.640   4.042   2.287
    1C        C  671   2.547   3.850   2.410
    1C        C  672   2.578   3.918   2.530
    1C        C  673   2.515   3.717   2.656
    1C        C  674   2.548   3.854   2.653
    1C        C  675   2.503   3.649   2.779
    1C        C  676   2.522   3.719   2.900
    1C        C  677   2.499   3.512   3.029
    1C        C  678   2.511   3.653   3.024
    1C        C  679   2.505   3.443   3.152
    1C        C  680   2.506   3.516   3.273
    1C        C  681   2.530   3.307   3.396
    1C        C  682   2.513   3.447   3.396
    1C        C  683   2.554   3.241   3.519
    1C        C  684   2.534   3.309   3.642
    1C        C  685   2.610   3.113   3.766
    1C        C  686   2.554   3.243   3.765
    1C        C  687   2.643   3.052   3.889
    1C        C  688   2.609   3.116   4.010
    1C        C  689   2.717   2.934   4.136
    1C        C  690   2.640   3.053   4.133
    1C        C  691   2.752   2.873   4.259
    1C        C  692   2.713   2.934   4.380
    1C        C  693   2.756   2.876   4.502
    1C        C  694   2.615   3.893   2.049
    1C        C  695   2.514   3.708   2.174
    1C        C  696   2.567   3.839   2.169
    1C        C  697   2.495   3.638   2.295
    1C        C  698   2.513   3.713   2.414
    1C        C  699   2.485   3.503   2.541
    1C        C  700   2.500   3.643   2.536
    1C        C  701   2.499   3.435   2.663
    1C        C  702   2.492   3.508   2.784
    1C        C  703   2.532   3.303   2.907
    1C        C  704   2.500   3.440   2.908
    1C        C  705   2.553   3.236   3.030
    1C        C  706   2.535   3.304   3.152
    1C        C  707   2.603   3.106   3.275
    1C        C  708   2.548   3.236   3.275
    1C        C  709   2.640   3.047   3.398
    1C        C  710   2.611   3.113   3.520
    1C        C  711   2.713   2.928   3.647
    1C        C  712   2.643   3.051   3.643
    1C        C  713   2.754   2.870   3.769
    1C        C  714   2.716   2.931   3.891
    1C        C  715   2.763   2.880   4.014
    1C        C  716   2.449   3.500   2.060
    1C        C  717   2.483   3.636   2.059
    1C        C  718   2.465   3.421   2.179
    1C        C  719   2.472   3.498   2.298
    1C        C  720   2.513   3.292   2.422
    1C        C  721   2.477   3.429   2.421
    1C        C  722   2.541   3.226   2.543
    1C        C  723   2.523   3.295   2.665
    1C        C  724   2.595   3.097   2.789
    1C        C  725   2.542   3.228   2.788
    1C        C  726   2.631   3.038   2.912
    1C        C  727   2.600   3.103   3.033
    1C        C  728   2.711   2.920   3.156
    1C        C  729   2.634   3.039   3.155
    1C        C  730   2.754   2.866   3.279
    1C        C  731   2.719   2.930   3.400
    1C        C  732   2.759   2.875   3.524
    1C        C  733   2.484   3.195   2.070
    1C        C  734   2.483   3.279   2.182
    1C        C  735   2.587   3.090   2.302
    1C        C  736   2.524   3.217   2.303
    1C        C  737   2.619   3.025   2.424
    1C        C  738   2.599   3.097   2.544
    1C        C  739   2.699   2.912   2.667
    1C        C  740   2.624   3.032   2.667
    1C        C  741   2.746   2.858   2.789
    1C        C  742   2.708   2.920   2.910
    1C        C  743   2.749   2.862   3.033
    1C        C  744   2.540   3.068   2.072
    1C        C  745   2.684   2.899   2.184
    1C        C  746   2.614   3.022   2.182
    1C        C  747   2.727   2.839   2.304
    1C        C  748   2.689   2.902   2.425
    1C        C  749   2.739   2.849   2.546
    1C        C  750   2.730   2.837   2.067
    1C        C  751   3.660   2.311   1.983
    1C        O  752   3.648   2.187   2.006
    1C        O  753   3.641   2.332   1.846
    1C        C  754   4.617   3.038   1.970
    1C        O  755   4.569   2.987   1.866
    1C        O  756   4.757   3.043   1.958
    1C        C  757   4.445   4.216   1.952
    1C        O  758   4.519   4.313   1.983
    1C        O  759   4.410   4.208   1.816
    1C        C  760   3.606   4.680   1.959
    1C        O  761   3.674   4.782   1.990
    1C        O  762   3.553   4.688   1.830
    1C        C  763   2.886   4.487   1.936
    1C        O  764   2.923   4.456   1.819
    1C        O  765   2.897   4.623   1.968
    1C        C  766   2.353   3.461   1.955
    1C        O  767   2.391   3.416   1.843
    1C        O  768   2.217   3.491   1.963
    1C        C  769   4.705   3.582   5.036
    1C        O  770   4.706   3.592   5.161
    1C        O  771   4.829   3.627   4.988
    1C        C  772   4.263   4.430   5.052
    1C        O  773   4.225   4.430   5.172
    1C        O  774   4.359   4.527   5.019
    1C        C  775   4.152   2.512   5.069
    1C        O  776   4.236   2.427   5.029
    1C        O  777   4.144   2.519   5.209
    1C        C  778   2.870   4.542   5.043
    1C        O  779   2.807   4.640   4.995
    1C        O  780   2.912   4.574   5.172
    1C        C  781   2.473   3.042   5.078
    1C        O  782   2.357   3.001   5.047
    1C        O  783   2.495   3.029   5.214
    1C        C  784   2.420   3.988   5.051
    1C        O  785   2.319   4.048   5.006
    1C        O  786   2.442   3.983   5.189
    1C        C  787   2.946   2.409   2.011
    1C        O  788   2.958   2.410   1.885
    1C        O  789   2.829   2.361   2.067
    1C        C  790   3.187   2.399   5.088
    1C        O  791   3.191   2.275   5.067
    1C        O  792   3.255   2.422   5.209
    1C        H  793   4.316   2.988   5.071
    1C        H  794   4.157   2.813   5.062
    1C        H  795   4.533   3.125   5.038
    1C        H  796   4.481   3.371   5.063
    1C        H  797   4.547   3.805   5.049
    1C        H  798   4.385   3.960   5.047
    1C        H  799   4.267   4.151   5.049
    1C        H  800   4.051   4.565   5.005
    1C        H  801   3.808   4.577   5.039
    1C        H  802   3.574   4.637   5.031
    1C        H  803   3.396   4.500   5.043
    1C        H  804   3.151   4.522   5.049
    1C        H  805   3.891   2.494   5.069
    1C        H  806   3.682   2.440   5.064
    1C        H  807   3.004   2.553   5.067
    1C        H  808   3.449   2.482   5.076
    1C        H  809   2.864   2.721   5.074
    1C        H  810   2.718   2.912   5.073
    1C        H  811   2.463   3.281   5.054
    1C        H  812   2.565   3.497   5.066
    1C        H  813   2.506   3.735   5.064
    1C        H  814   2.555   4.184   5.025
    1C        H  815   2.723   4.354   5.033
    1C        H  816   2.694   2.866   1.970
    1C        H  817   2.804   2.660   1.985
    1C        H  818   3.205   2.419   1.983
    1C        H  819   3.426   2.436   1.976
    1C        H  820   3.838   2.547   1.972
    1C        H  821   4.083   2.567   1.983
    1C        H  822   4.258   2.713   1.972
    1C        H  823   4.355   2.936   1.968
    1C        H  824   4.566   3.312   1.962
    1C        H  825   4.481   3.510   1.960
    1C        H  826   4.521   3.747   1.956
    1C        H  827   3.782   4.472   1.946
    1C        H  828   3.942   4.333   1.953
    1C        H  829   4.191   4.323   1.965
    1C        H  830   4.466   3.950   1.959
    1C        H  831   2.593   3.854   1.951
    1C        H  832   2.718   4.059   1.961
    1C        H  833   2.693   4.330   1.986
    1C        H  834   3.378   4.493   1.949
    1C        H  835   3.137   4.456   1.949
    1C        H  836   2.532   3.008   1.983
    1C        H  837   2.449   3.228   1.974
    1C        H  838   2.450   3.690   1.973
    2V3OU   H29  839   2.795   3.550   5.310
    2V3OU   C27  840   2.781   3.502   5.410
    2V3OU   H27  841   2.720   3.558   5.485
    2V3OU   H28  842   2.729   3.403   5.398
    2V3OU   O11  843   2.904   3.464   5.471
    2V3OU   C15  844   2.913   3.401   5.594
    2V3OU   C13  845   3.046   3.377   5.635
    2V3OU   C14  846   3.075   3.266   5.715
    2V3OU   C16  847   2.973   3.184   5.763
    2V3OU    H6  848   2.994   3.098   5.828
    2V3OU   C12  849   3.214   3.224   5.743
    2V3OU    O2  850   3.237   3.115   5.800
    2V3OU   C10  851   3.322   3.310   5.693
    2V3OU    C8  852   3.455   3.271   5.700
    2V3OU   O10  853   3.490   3.156   5.762
    2V3OU   H26  854   3.406   3.112   5.783
    2V3OU    C6  855   3.565   3.345   5.645
    2V3OU    C5  856   3.539   3.463   5.576
    2V3OU    C4  857   3.703   3.291   5.650
    2V3OU    H4  858   3.721   3.229   5.743
    2V3OU    H5  859   3.718   3.223   5.560
    2V3OU    C2  860   3.815   3.395   5.643
    2V3OU    O6  861   3.809   3.482   5.757
    2V3OU   H21  862   3.761   3.564   5.736
    2V3OU    C3  863   3.781   3.489   5.528
    2V3OU    H2  864   3.858   3.570   5.529
    2V3OU    H3  865   3.782   3.434   5.430
    2V3OU   C25  866   3.950   3.326   5.625
    2V3OU    O7  867   3.995   3.290   5.516
    2V3OU   C26  868   4.027   3.289   5.751
    2V3OU   H22  869   4.057   3.381   5.807
    2V3OU   H23  870   4.118   3.229   5.724
    2V3OU    O8  871   3.961   3.207   5.844
    2V3OU   H24  872   3.921   3.267   5.909
    2V3OU    C1  873   3.648   3.561   5.543
    2V3OU    H1  874   3.624   3.618   5.449
    2V3OU    O3  875   3.660   3.655   5.651
    2V3OU   C19  876   3.620   3.792   5.638
    2V3OU    H9  877   3.522   3.796   5.582
    2V3OU    O4  878   3.712   3.853   5.550
    2V3OU   C20  879   3.845   3.878   5.597
    2V3OU   H10  880   3.891   3.775   5.604
    2V3OU   C24  881   3.608   3.854   5.777
    2V3OU   H16  882   3.541   3.790   5.841
    2V3OU   H17  883   3.557   3.952   5.760
    2V3OU   C23  884   3.750   3.869   5.831
    2V3OU   H15  885   3.797   3.766   5.842
    2V3OU    N1  886   3.732   3.942   5.955
    2V3OU   H19  887   3.803   3.914   6.019
    2V3OU   H20  888   3.646   3.929   6.004
    2V3OU   C21  889   3.843   3.948   5.733
    2V3OU   H11  890   3.945   3.926   5.776
    2V3OU    O5  891   3.827   4.090   5.729
    2V3OU   H18  892   3.777   4.103   5.811
    2V3OU   C22  893   3.911   3.949   5.481
    2V3OU   H12  894   3.859   4.046   5.461
    2V3OU   H13  895   3.900   3.890   5.387
    2V3OU   H14  896   4.021   3.960   5.499
    2V3OU   C11  897   3.154   3.471   5.602
    2V3OU    O1  898   3.125   3.578   5.544
    2V3OU    C9  899   3.295   3.431   5.624
    2V3OU    C7  900   3.401   3.500   5.566
    2V3OU    O9  901   3.386   3.614   5.491
    2V3OU   H25  902   3.290   3.627   5.501
    2V3OU   C17  903   2.815   3.313   5.642
    2V3OU    H7  904   2.711   3.342   5.626
    2V3OU   C18  905   2.840   3.207   5.729
    2V3OU    H8  906   2.755   3.145   5.763
    3SOL     OW  907   3.932   3.025   3.710
    3SOL    HW1  908   4.008   3.080   3.676
    3SOL    HW2  909   3.879   2.989   3.634
    4SOL     OW  910   6.420   6.174   0.815
    4SOL    HW1  911   6.465   6.180   0.725
    4SOL    HW2  912   6.322   6.158   0.802
    5SOL     OW  913   4.983   1.641   0.532
    5SOL    HW1  914   4.947   1.717   0.478
    5SOL    HW2  915   5.061   1.673   0.586
    6SOL     OW  916   5.383   1.425   3.078
    6SOL    HW1  917   5.392   1.459   2.985
    6SOL    HW2  918   5.386   1.325   3.077
    7SOL     OW  919   1.773   4.037   3.873
    7SOL    HW1  920   1.689   4.016   3.923
    7SOL    HW2  921   1.819   4.115   3.917
    8SOL     OW  922   1.119   3.353   5.116
    8SOL    HW1  923   1.090   3.283   5.052
    8SOL    HW2  924   1.195   3.319   5.172
    9SOL     OW  925   6.980   0.954   6.778
    9SOL    HW1  926   6.925   1.030   6.744
    9SOL    HW2  927   7.012   0.900   6.700
   10SOL     OW  928   5.305   4.692   1.845
   10SOL    HW1  929   5.322   4.662   1.751
   10SOL    HW2  930   5.209   4.678   1.867
   11SOL     OW  931   2.364   2.390   0.238
   11SOL    HW1  932   2.397   2.319   0.300
   11SOL    HW2  933   2.441   2.445   0.205
   12SOL     OW  934   3.473   5.204   2.728
   12SOL    HW1  935   3.550   5.223   2.666
   12SOL    HW2  936   3.446   5.108   2.719
   13SOL     OW  937   5.801   6.142   1.019
   13SOL    HW1  938   5.781   6.114   1.113
   13SOL    HW2  939   5.828   6.238   1.018
   14SOL     OW  940   4.248   6.044   5.688
   14SOL    HW1  941   4.331   5.991   5.704
   14SOL    HW2  942   4.228   6.099   5.770
   15SOL     OW  943   0.724   6.521   5.804
   15SOL    HW1  944   0.769   6.434   5.826
   15SOL    HW2  945   0.762   6.558   5.719
   16SOL     OW  946   1.895   4.552   4.499
   16SOL    HW1  947   1.916   4.644   4.465
   16SOL    HW2  948   1.980   4.501   4.511
   17SOL     OW  949   6.278   0.829   5.817
   17SOL    HW1  950   6.251   0.862   5.907
   17SOL    HW2  951   6.373   0.798   5.820
   18SOL     OW  952   2.745   0.733   6.047
   18SOL    HW1  953   2.666   0.792   6.030
   18SOL    HW2  954   2.729   0.678   6.129
   19SOL     OW  955   2.785   6.925   2.743
   19SOL    HW1  956   2.722   6.878   2.804
   19SOL    HW2  957   2.864   6.957   2.796
   20SOL     OW  958   6.341   1.575   5.248
   20SOL    HW1  959   6.301   1.634   5.178
   20SOL    HW2  960   6.270   1.517   5.287
   21SOL     OW  961   2.485   4.473   2.635
   21SOL    HW1  962   2.415   4.420   2.586
   21SOL    HW2  963   2.559   4.496   2.572
   22SOL     OW  964   1.473   0.596   6.799
   22SOL    HW1  965   1.510   0.645   6.720
   22SOL    HW2  966   1.516   0.505   6.805
   23SOL     OW  967   5.661   5.140   1.447
   23SOL    HW1  968   5.584   5.187   1.403
   23SOL    HW2  969   5.746   5.188   1.426
   24SOL     OW  970   4.138   0.888   0.786
   24SOL    HW1  971   4.217   0.922   0.837
   24SOL    HW2  972   4.066   0.861   0.849
   25SOL     OW  973   1.939   0.879   4.816
   25SOL    HW1  974   1.975   0.963   4.775
   25SOL    HW2  975   1.859   0.848   4.764
   26SOL     OW  976   0.724   2.667   6.508
   26SOL    HW1  977   0.723   2.581   6.458
   26SOL    HW2  978   0.764   2.653   6.598
   27SOL     OW  979   6.220   0.807   1.779
   27SOL    HW1  980   6.238   0.718   1.737
   27SOL    HW2  981   6.300   0.834   1.833
   28SOL     OW  982   2.626   0.829   5.377
   28SOL    HW1  983   2.692   0.895   5.414
   28SOL    HW2  984   2.550   0.818   5.441
   29SOL     OW  985   0.228   6.977   1.002
   29SOL    HW1  986   0.292   0.024   1.043
   29SOL    HW2  987   0.280   6.905   0.955
   30SOL     OW  988   4.892   0.365   5.198
   30SOL    HW1  989   4.830   0.334   5.125
   30SOL    HW2  990   4.858   0.333   5.286
   31SOL     OW  991   0.922   3.535   5.424
   31SOL    HW1  992   0.929   3.436   5.428
   31SOL    HW2  993   0.848   3.566   5.483
   32SOL     OW  994   3.771   0.543   1.194
   32SOL    HW1  995   3.849   0.592   1.231
   32SOL    HW2  996   3.687   0.576   1.237
   33SOL     OW  997   1.949   5.519   6.250
   33SOL    HW1  998   1.978   5.506   6.155
   33SOL    HW2  999   1.850   5.506   6.256
   34SOL     OW 1000   3.194   5.198   5.263
   34SOL    HW1 1001   3.280   5.148   5.253
   34SOL    HW2 1002   3.160   5.225   5.173
   35SOL     OW 1003   2.096   3.795   6.901
   35SOL    HW1 1004   2.147   3.716   6.868
   35SOL    HW2 1005   2.002   3.769   6.921
   36SOL     OW 1006   4.213   1.398   3.795
   36SOL    HW1 1007   4.224   1.419   3.698
   36SOL    HW2 1008   4.271   1.319   3.818
   37SOL     OW 1009   2.671   0.330   4.175
   37SOL    HW1 1010   2.708   0.297   4.088
   37SOL    HW2 1011   2.730   0.299   4.250
   38SOL     OW 1012   1.148   3.348   3.032
   38SOL    HW1 1013   1.234   3.396   3.015
   38SOL    HW2 1014   1.102   3.331   2.945
   39SOL     OW 1015   6.764   4.183   0.463
   39SOL    HW1 1016   6.836   4.227   0.516
   39SOL    HW2 1017   6.690   4.249   0.446
   40SOL     OW 1018   4.459   1.478   1.076
   40SOL    HW1 1019   4.556   1.499   1.075
   40SOL    HW2 1020   4.428   1.468   1.171
   41SOL     OW 1021   5.137   4.036   1.834
   41SOL    HW1 1022   5.146   4.101   1.909
   41SOL    HW2 1023   5.139   4.085   1.747
   42SOL     OW 1024   2.388   4.882   6.980
   42SOL    HW1 1025   2.427   4.836   6.900
   42SOL    HW2 1026   2.333   4.960   6.949
   43SOL     OW 1027   4.163   0.265   4.792
   43SOL    HW1 1028   4.081   0.306   4.751
   43SOL    HW2 1029   4.179   0.307   4.881
   44SOL     OW 1030   6.388   1.058   5.678
   44SOL    HW1 1031   6.474   1.018   5.708
   44SOL    HW2 1032   6.318   1.043   5.748
   45SOL     OW 1033   2.329   4.867   5.886
   45SOL    HW1 1034   2.345   4.960   5.854
   45SOL    HW2 1035   2.386   4.849   5.966
   46SOL     OW 1036   1.128   3.579   4.511
   46SOL    HW1 1037   1.055   3.586   4.579
   46SOL    HW2 1038   1.142   3.668   4.468
   47SOL     OW 1039   6.660   3.737   0.521
   47SOL    HW1 1040   6.700   3.811   0.574
   47SOL    HW2 1041   6.632   3.771   0.431
   48SOL     OW 1042   6.347   3.072   0.905
   48SOL    HW1 1043   6.441   3.046   0.882
   48SOL    HW2 1044   6.349   3.152   0.966
   49SOL     OW 1045   2.999   3.666   6.668
   49SOL    HW1 1046   3.055   3.743   6.637
   49SOL    HW2 1047   2.970   3.612   6.589
   50SOL     OW 1048   6.037   2.359   0.755
   50SOL    HW1 1049   5.946   2.392   0.781
   50SOL    HW2 1050   6.107   2.422   0.790
   51SOL     OW 1051   1.653   5.197   2.665
   51SOL    HW1 1052   1.703   5.139   2.601
   51SOL    HW2 1053   1.669   5.293   2.641
   52SOL     OW 1054   5.696   2.825   2.128
   52SOL    HW1 1055   5.701   2.736   2.173
   52SOL    HW2 1056   5.661   2.813   2.035
   53SOL     OW 1057   3.843   0.620   2.100
   53SOL    HW1 1058   3.882   0.659   2.183
   53SOL    HW2 1059   3.744   0.638   2.098
   54SOL     OW 1060   5.113   0.711   6.621
   54SOL    HW1 1061   5.209   0.714   6.595
   54SOL    HW2 1062   5.072   0.625   6.591
   55SOL     OW 1063   1.515   4.122   6.230
   55SOL    HW1 1064   1.561   4.051   6.176
   55SOL    HW2 1065   1.428   4.087   6.264
   56SOL     OW 1066   0.750   2.388   6.909
   56SOL    HW1 1067   0.700   2.470   6.884
   56SOL    HW2 1068   0.841   2.391   6.868
   57SOL     OW 1069   4.502   6.452   0.560
   57SOL    HW1 1070   4.432   6.383   0.579
   57SOL    HW2 1071   4.545   6.481   0.646
   58SOL     OW 1072   0.900   0.209   0.164
   58SOL    HW1 1073   0.803   0.222   0.146
   58SOL    HW2 1074   0.940   0.153   0.091
   59SOL     OW 1075   4.463   3.074   5.357
   59SOL    HW1 1076   4.545   3.129   5.345
   59SOL    HW2 1077   4.382   3.131   5.346
   60SOL     OW 1078   5.476   2.102   1.781
   60SOL    HW1 1079   5.522   2.142   1.701
   60SOL    HW2 1080   5.394   2.155   1.802
   61SOL     OW 1081   1.545   5.843   4.515
   61SOL    HW1 1082   1.497   5.784   4.451
   61SOL    HW2 1083   1.480   5.884   4.579
   62SOL     OW 1084   5.922   3.408   2.947
   62SOL    HW1 1085   5.903   3.311   2.929
   62SOL    HW2 1086   5.845   3.463   2.913
   63SOL     OW 1087   4.269   0.434   5.980
   63SOL    HW1 1088   4.276   0.524   5.937
   63SOL    HW2 1089   4.228   0.443   6.071
   64SOL     OW 1090   1.128   3.634   5.044
   64SOL    HW1 1091   1.108   3.541   5.074
   64SOL    HW2 1092   1.206   3.633   4.982
   65SOL     OW 1093   1.009   5.773   4.869
   65SOL    HW1 1094   0.980   5.724   4.787
   65SOL    HW2 1095   0.971   5.865   4.867
   66SOL     OW 1096   3.859   1.336   2.027
   66SOL    HW1 1097   3.857   1.238   2.005
   66SOL    HW2 1098   3.794   1.355   2.100
   67SOL     OW 1099   6.973   3.235   1.299
   67SOL    HW1 1100   6.987   3.224   1.201
   67SOL    HW2 1101   6.877   3.218   1.322
   68SOL     OW 1102   6.851   1.682   6.341
   68SOL    HW1 1103   6.764   1.647   6.305
   68SOL    HW2 1104   6.881   1.759   6.284
   69SOL     OW 1105   1.182   5.868   6.309
   69SOL    HW1 1106   1.190   5.807   6.387
   69SOL    HW2 1107   1.127   5.824   6.238
   70SOL     OW 1108   5.191   4.031   3.520
   70SOL    HW1 1109   5.165   3.943   3.481
   70SOL    HW2 1110   5.164   4.034   3.616
   71SOL     OW 1111   5.347   2.015   3.994
   71SOL    HW1 1112   5.254   2.006   3.961
   71SOL    HW2 1113   5.393   2.091   3.946
   72SOL     OW 1114   0.658   1.152   2.929
   72SOL    HW1 1115   0.682   1.058   2.908
   72SOL    HW2 1116   0.739   1.201   2.961
   73SOL     OW 1117   2.993   0.350   0.418
   73SOL    HW1 1118   2.967   0.254   0.416
   73SOL    HW2 1119   3.059   0.365   0.492
   74SOL     OW 1120   2.415   2.038   1.063
   74SOL    HW1 1121   2.492   2.091   1.097
   74SOL    HW2 1122   2.425   2.023   0.965
   75SOL     OW 1123   2.843   3.286   0.576
   75SOL    HW1 1124   2.916   3.316   0.514
   75SOL    HW2 1125   2.762   3.342   0.561
   76SOL     OW 1126   3.610   4.927   5.763
   76SOL    HW1 1127   3.568   4.873   5.690
   76SOL    HW2 1128   3.538   4.959   5.826
   77SOL     OW 1129   0.984   5.254   4.241
   77SOL    HW1 1130   1.037   5.177   4.275
   77SOL    HW2 1131   1.045   5.332   4.226
   78SOL     OW 1132   4.835   1.938   1.495
   78SOL    HW1 1133   4.923   1.895   1.515
   78SOL    HW2 1134   4.807   1.994   1.573
   79SOL     OW 1135   1.274   4.537   2.946
   79SOL    HW1 1136   1.205   4.492   3.003
   79SOL    HW2 1137   1.339   4.468   2.913
   80SOL     OW 1138   3.801   1.710   5.232
   80SOL    HW1 1139   3.729   1.779   5.234
   80SOL    HW2 1140   3.881   1.745   5.183
   81SOL     OW 1141   4.503   5.382   1.500
   81SOL    HW1 1142   4.590   5.381   1.450
   81SOL    HW2 1143   4.499   5.302   1.561
   82SOL     OW 1144   2.702   6.274   2.022
   82SOL    HW1 1145   2.749   6.263   2.110
   82SOL    HW2 1146   2.603   6.267   2.036
   83SOL     OW 1147   5.236   1.397   4.336
   83SOL    HW1 1148   5.284   1.481   4.358
   83SOL    HW2 1149   5.296   1.318   4.352
   84SOL     OW 1150   5.592   3.048   2.504
   84SOL    HW1 1151   5.664   3.060   2.436
   84SOL    HW2 1152   5.505   3.029   2.457
   85SOL     OW 1153   2.589   6.438   4.075
   85SOL    HW1 1154   2.687   6.416   4.074
   85SOL    HW2 1155   2.537   6.361   4.038
   86SOL     OW 1156   5.683   6.959   6.808
   86SOL    HW1 1157   5.762   0.001   6.821
   86SOL    HW2 1158   5.598   7.010   6.822
   87SOL     OW 1159   1.851   4.037   6.384
   87SOL    HW1 1160   1.947   4.022   6.411
   87SOL    HW2 1161   1.848   4.097   6.304
   88SOL     OW 1162   3.242   3.418   1.305
   88SOL    HW1 1163   3.143   3.406   1.312
   88SOL    HW2 1164   3.272   3.482   1.375
   89SOL     OW 1165   3.279   3.549   3.667
   89SOL    HW1 1166   3.217   3.588   3.735
   89SOL    HW2 1167   3.326   3.623   3.619
   90SOL     OW 1168   5.522   3.814   1.599
   90SOL    HW1 1169   5.434   3.831   1.644
   90SOL    HW2 1170   5.506   3.762   1.515
   91SOL     OW 1171   4.432   5.137   5.700
   91SOL    HW1 1172   4.529   5.133   5.677
   91SOL    HW2 1173   4.380   5.165   5.620
   92SOL     OW 1174   4.918   3.983   0.360
   92SOL    HW1 1175   4.983   4.018   0.292
   92SOL    HW2 1176   4.946   3.891   0.388
   93SOL     OW 1177   2.799   3.445   1.944
   93SOL    HW1 1178   2.706   3.427   1.975
   93SOL    HW2 1179   2.841   3.359   1.915
   94SOL     OW 1180   2.957   2.212   4.208
   94SOL    HW1 1181   2.973   2.207   4.307
   94SOL    HW2 1182   2.890   2.284   4.189
   95SOL     OW 1183   0.283   0.083   4.043
   95SOL    HW1 1184   0.267   0.056   4.138
   95SOL    HW2 1185   0.289   0.183   4.038
   96SOL     OW 1186   6.552   4.982   0.015
   96SOL    HW1 1187   6.565   5.079   0.036
   96SOL    HW2 1188   6.610   4.957   6.956
   97SOL     OW 1189   2.289   4.298   5.619
   97SOL    HW1 1190   2.285   4.394   5.590
   97SOL    HW2 1191   2.370   4.284   5.675
   98SOL     OW 1192   1.597   2.082   3.561
   98SOL    HW1 1193   1.594   2.108   3.465
   98SOL    HW2 1194   1.551   1.994   3.574
   99SOL     OW 1195   3.223   3.654   4.856
   99SOL    HW1 1196   3.321   3.663   4.836
   99SOL    HW2 1197   3.179   3.603   4.783
  100SOL     OW 1198   6.870   0.859   4.880
  100SOL    HW1 1199   6.957   0.883   4.923
  100SOL    HW2 1200   6.888   0.828   4.786
  101SOL     OW 1201   5.883   3.949   2.423
  101SOL    HW1 1202   5.785   3.943   2.446
  101SOL    HW2 1203   5.892   3.969   2.326
  102SOL     OW 1204   4.381   0.461   0.131
  102SOL    HW1 1205   4.326   0.406   0.193
  102SOL    HW2 1206   4.344   0.456   0.038
  103SOL     OW 1207   1.958   1.302   1.940
  103SOL    HW1 1208   2.033   1.235   1.943
  103SOL    HW2 1209   1.996   1.394   1.948
  104SOL     OW 1210   6.469   5.011   1.976
  104SOL    HW1 1211   6.431   4.977   1.890
  104SOL    HW2 1212   6.410   5.085   2.011
  105SOL     OW 1213   6.794   0.456   5.690
  105SOL    HW1 1214   6.869   0.466   5.625
  105SOL    HW2 1215   6.789   0.537   5.749
  106SOL     OW 1216   4.384   3.533   1.030
  106SOL    HW1 1217   4.400   3.629   1.009
  106SOL    HW2 1218   4.472   3.486   1.042
  107SOL     OW 1219   5.748   7.006   1.812
  107SOL    HW1 1220   5.658   0.021   1.786
  107SOL    HW2 1221   5.767   6.920   1.766
  108SOL     OW 1222   2.684   1.302   4.097
  108SOL    HW1 1223   2.613   1.239   4.067
  108SOL    HW2 1224   2.698   1.292   4.196
  109SOL     OW 1225   1.697   1.521   4.487
  109SOL    HW1 1226   1.645   1.561   4.411
  109SOL    HW2 1227   1.633   1.484   4.555
  110SOL     OW 1228   3.109   4.370   5.712
  110SOL    HW1 1229   3.160   4.284   5.720
  110SOL    HW2 1230   3.131   4.414   5.625
  111SOL     OW 1231   6.138   2.942   0.806
  111SOL    HW1 1232   6.059   2.968   0.861
  111SOL    HW2 1233   6.218   2.993   0.837
  112SOL     OW 1234   5.069   6.576   6.373
  112SOL    HW1 1235   5.086   6.488   6.329
  112SOL    HW2 1236   5.049   6.645   6.303
  113SOL     OW 1237   0.263   5.376   2.729
  113SOL    HW1 1238   0.262   5.475   2.745
  113SOL    HW2 1239   0.300   5.330   2.810
  114SOL     OW 1240   6.937   2.723   2.025
  114SOL    HW1 1241   6.862   2.751   1.965
  114SOL    HW2 1242   6.963   2.628   2.003
  115SOL     OW 1243   5.542   6.962   3.460
  115SOL    HW1 1244   5.639   6.977   3.480
  115SOL    HW2 1245   5.533   6.914   3.373
  116SOL     OW 1246   0.337   5.238   0.431
  116SOL    HW1 1247   0.410   5.234   0.499
  116SOL    HW2 1248   0.272   5.309   0.456
  117SOL     OW 1249   2.311   2.929   6.766
  117SOL    HW1 1250   2.288   2.984   6.685
  117SOL    HW2 1251   2.227   2.907   6.816
  118SOL     OW 1252   0.579   2.264   2.619
  118SOL    HW1 1253   0.633   2.238   2.539
  118SOL    HW2 1254   0.634   2.253   2.702
  119SOL     OW 1255   6.146   6.805   5.424
  119SOL    HW1 1256   6.078   6.874   5.398
  119SOL    HW2 1257   6.102   6.717   5.436
  120SOL     OW 1258   5.326   1.950   4.710
  120SOL    HW1 1259   5.415   1.910   4.730
  120SOL    HW2 1260   5.276   1.889   4.648
  121SOL     OW 1261   0.379   5.168   6.969
  121SOL    HW1 1262   0.388   5.076   7.008
  121SOL    HW2 1263   0.366   5.161   6.870
  122SOL     OW 1264   6.494   4.558   6.332
  122SOL    HW1 1265   6.547   4.640   6.354
  122SOL    HW2 1266   6.469   4.559   6.236
  123SOL     OW 1267   0.593   2.269   1.461
  123SOL    HW1 1268   0.638   2.320   1.388
  123SOL    HW2 1269   0.579   2.329   1.540
  124SOL     OW 1270   1.664   2.726   6.936
  124SOL    HW1 1271   1.687   2.815   6.899
  124SOL    HW2 1272   1.707   2.654   6.881
  125SOL     OW 1273   4.317   3.170   0.442
  125SOL    HW1 1274   4.404   3.143   0.399
  125SOL    HW2 1275   4.246   3.179   0.373
  126SOL     OW 1276   3.879   3.030   4.516
  126SOL    HW1 1277   3.906   3.012   4.421
  126SOL    HW2 1278   3.951   3.081   4.562
  127SOL     OW 1279   0.469   5.620   5.918
  127SOL    HW1 1280   0.445   5.690   5.850
  127SOL    HW2 1281   0.553   5.574   5.890
  128SOL     OW 1282   5.036   3.880   0.001
  128SOL    HW1 1283   4.974   3.823   0.054
  128SOL    HW2 1284   5.126   3.835   7.013
  129SOL     OW 1285   1.233   5.780   2.320
  129SOL    HW1 1286   1.172   5.813   2.391
  129SOL    HW2 1287   1.300   5.851   2.298
  130SOL     OW 1288   6.298   3.201   4.054
  130SOL    HW1 1289   6.221   3.137   4.053
  130SOL    HW2 1290   6.382   3.152   4.032
  131SOL     OW 1291   0.280   2.359   3.227
  131SOL    HW1 1292   0.317   2.425   3.291
  131SOL    HW2 1293   0.259   2.274   3.275
  132SOL     OW 1294   3.329   2.954   0.934
  132SOL    HW1 1295   3.264   3.027   0.911
  132SOL    HW2 1296   3.290   2.897   1.006
  133SOL     OW 1297   6.186   6.436   6.345
  133SOL    HW1 1298   6.088   6.439   6.367
  133SOL    HW2 1299   6.202   6.484   6.259
  134SOL     OW 1300   5.685   1.667   1.418
  134SOL    HW1 1301   5.745   1.685   1.340
  134SOL    HW2 1302   5.630   1.748   1.437
  135SOL     OW 1303   4.904   3.651   3.620
  135SOL    HW1 1304   4.976   3.657   3.689
  135SOL    HW2 1305   4.898   3.558   3.586
  136SOL     OW 1306   3.251   0.385   6.411
  136SOL    HW1 1307   3.292   0.321   6.346
  136SOL    HW2 1308   3.223   0.468   6.363
  137SOL     OW 1309   3.091   3.923   6.301
  137SOL    HW1 1310   3.129   4.011   6.272
  137SOL    HW2 1311   2.994   3.918   6.275
  138SOL     OW 1312   1.346   5.129   6.368
  138SOL    HW1 1313   1.398   5.046   6.348
  138SOL    HW2 1314   1.330   5.180   6.284
  139SOL     OW 1315   1.266   6.964   0.832
  139SOL    HW1 1316   1.311   6.994   0.916
  139SOL    HW2 1317   1.265   0.021   0.765
  140SOL     OW 1318   3.977   0.438   1.534
  140SOL    HW1 1319   4.004   0.468   1.442
  140SOL    HW2 1320   4.021   0.351   1.554
  141SOL     OW 1321   0.523   3.130   0.285
  141SOL    HW1 1322   0.564   3.117   0.376
  141SOL    HW2 1323   0.581   3.192   0.232
  142SOL     OW 1324   1.870   3.418   1.217
  142SOL    HW1 1325   1.785   3.434   1.166
  142SOL    HW2 1326   1.873   3.478   1.297
  143SOL     OW 1327   4.805   6.733   2.350
  143SOL    HW1 1328   4.900   6.713   2.329
  143SOL    HW2 1329   4.789   6.723   2.448
  144SOL     OW 1330   3.203   5.789   3.556
  144SOL    HW1 1331   3.252   5.729   3.620
  144SOL    HW2 1332   3.131   5.737   3.511
  145SOL     OW 1333   0.209   4.544   3.618
  145SOL    HW1 1334   0.293   4.597   3.609
  145SOL    HW2 1335   0.230   4.456   3.659
  146SOL     OW 1336   4.914   0.673   6.328
  146SOL    HW1 1337   4.848   0.734   6.373
  146SOL    HW2 1338   4.934   0.596   6.388
  147SOL     OW 1339   4.712   1.043   5.117
  147SOL    HW1 1340   4.657   0.968   5.155
  147SOL    HW2 1341   4.677   1.066   5.027
  148SOL     OW 1342   1.532   5.691   1.540
  148SOL    HW1 1343   1.608   5.749   1.511
  148SOL    HW2 1344   1.559   5.636   1.619
  149SOL     OW 1345   2.059   2.511   4.732
  149SOL    HW1 1346   2.007   2.444   4.679
  149SOL    HW2 1347   2.135   2.545   4.677
  150SOL     OW 1348   4.381   1.708   4.964
  150SOL    HW1 1349   4.356   1.621   5.006
  150SOL    HW2 1350   4.422   1.692   4.875
  151SOL     OW 1351   4.700   2.753   1.133
  151SOL    HW1 1352   4.766   2.816   1.173
  151SOL    HW2 1353   4.727   2.659   1.153
  152SOL     OW 1354   0.053   2.228   0.531
  152SOL    HW1 1355   0.071   2.249   0.435
  152SOL    HW2 1356   0.076   2.307   0.587
  153SOL     OW 1357   2.394   1.327   3.573
  153SOL    HW1 1358   2.414   1.393   3.646
  153SOL    HW2 1359   2.321   1.266   3.603
  154SOL     OW 1360   6.660   2.127   2.581
  154SOL    HW1 1361   6.714   2.203   2.619
  154SOL    HW2 1362   6.574   2.162   2.545
  155SOL     OW 1363   0.002   5.825   2.845
  155SOL    HW1 1364   0.026   5.919   2.869
  155SOL    HW2 1365   0.049   5.798   2.761
  156SOL     OW 1366   5.242   2.937   0.497
  156SOL    HW1 1367   5.335   2.939   0.460
  156SOL    HW2 1368   5.217   3.027   0.530
  157SOL     OW 1369   5.075   6.150   0.847
  157SOL    HW1 1370   5.139   6.226   0.842
  157SOL    HW2 1371   4.998   6.174   0.907
  158SOL     OW 1372   0.579   3.064   3.948
  158SOL    HW1 1373   0.655   3.022   3.998
  158SOL    HW2 1374   0.563   3.156   3.983
  159SOL     OW 1375   6.074   5.700   0.223
  159SOL    HW1 1376   6.006   5.627   0.218
  159SOL    HW2 1377   6.166   5.660   0.215
  160SOL     OW 1378   6.150   6.759   1.651
  160SOL    HW1 1379   6.202   6.781   1.568
  160SOL    HW2 1380   6.214   6.741   1.726
  161SOL     OW 1381   0.432   6.754   1.236
  161SOL    HW1 1382   0.444   6.828   1.170
  161SOL    HW2 1383   0.362   6.691   1.203
  162SOL     OW 1384   4.399   6.539   6.266
  162SOL    HW1 1385   4.337   6.550   6.189
  162SOL    HW2 1386   4.483   6.493   6.235
  163SOL     OW 1387   0.897   3.681   2.713
  163SOL    HW1 1388   0.835   3.729   2.652
  163SOL    HW2 1389   0.934   3.745   2.780
  164SOL     OW 1390   2.707   2.110   3.626
  164SOL    HW1 1391   2.614   2.147   3.616
  164SOL    HW2 1392   2.726   2.095   3.723
  165SOL     OW 1393   0.507   6.797   3.575
  165SOL    HW1 1394   0.506   6.738   3.656
  165SOL    HW2 1395   0.597   6.793   3.531
  166SOL     OW 1396   6.852   4.013   3.113
  166SOL    HW1 1397   6.810   4.030   3.024
  166SOL    HW2 1398   6.795   4.054   3.184
  167SOL     OW 1399   2.912   1.943   6.498
  167SOL    HW1 1400   2.817   1.974   6.496
  167SOL    HW2 1401   2.964   1.988   6.426
  168SOL     OW 1402   3.945   3.734   1.476
  168SOL    HW1 1403   3.941   3.655   1.537
  168SOL    HW2 1404   4.037   3.743   1.438
  169SOL     OW 1405   4.786   1.898   0.953
  169SOL    HW1 1406   4.722   1.840   1.003
  169SOL    HW2 1407   4.828   1.964   1.016
  170SOL     OW 1408   6.193   5.908   1.826
  170SOL    HW1 1409   6.192   6.008   1.832
  170SOL    HW2 1410   6.099   5.873   1.828
  171SOL     OW 1411   3.466   3.301   0.912
  171SOL    HW1 1412   3.390   3.306   0.847
  171SOL    HW2 1413   3.495   3.206   0.922
  172SOL     OW 1414   0.697   2.139   6.546
  172SOL    HW1 1415   0.736   2.167   6.458
  172SOL    HW2 1416   0.609   2.093   6.530
  173SOL     OW 1417   6.435   1.116   4.294
  173SOL    HW1 1418   6.376   1.049   4.338
  173SOL    HW2 1419   6.441   1.097   4.196
  174SOL     OW 1420   5.233   4.530   4.795
  174SOL    HW1 1421   5.184   4.580   4.724
  174SOL    HW2 1422   5.316   4.579   4.819
  175SOL     OW 1423   0.206   0.176   2.226
  175SOL    HW1 1424   0.210   0.272   2.254
  175SOL    HW2 1425   0.229   0.117   2.304
  176SOL     OW 1426   6.184   4.010   1.607
  176SOL    HW1 1427   6.204   4.088   1.549
  176SOL    HW2 1428   6.149   4.041   1.695
  177SOL     OW 1429   5.752   2.152   4.032
  177SOL    HW1 1430   5.709   2.242   4.040
  177SOL    HW2 1431   5.738   2.116   3.940
  178SOL     OW 1432   2.912   6.140   5.174
  178SOL    HW1 1433   2.945   6.187   5.092
  178SOL    HW2 1434   2.812   6.141   5.175
  179SOL     OW 1435   3.521   4.326   1.611
  179SOL    HW1 1436   3.480   4.241   1.645
  179SOL    HW2 1437   3.484   4.404   1.663
  180SOL     OW 1438   3.480   0.812   0.304
  180SOL    HW1 1439   3.394   0.864   0.311
  180SOL    HW2 1440   3.543   0.861   0.243
  181SOL     OW 1441   3.123   1.745   5.559
  181SOL    HW1 1442   3.191   1.792   5.615
  181SOL    HW2 1443   3.077   1.812   5.499
  182SOL     OW 1444   3.439   2.564   6.526
  182SOL    HW1 1445   3.445   2.642   6.463
  182SOL    HW2 1446   3.381   2.588   6.603
  183SOL     OW 1447   3.514   0.673   3.531
  183SOL    HW1 1448   3.421   0.644   3.554
  183SOL    HW2 1449   3.533   0.652   3.436
  184SOL     OW 1450   5.073   5.968   3.584
  184SOL    HW1 1451   5.172   5.962   3.581
  184SOL    HW2 1452   5.040   6.024   3.507
  185SOL     OW 1453   0.013   0.598   5.007
  185SOL    HW1 1454   6.965   0.524   5.023
  185SOL    HW2 1455   6.984   0.686   5.009
  186SOL     OW 1456   4.345   6.636   4.981
  186SOL    HW1 1457   4.252   6.661   4.954
  186SOL    HW2 1458   4.355   6.536   4.975
  187SOL     OW 1459   4.171   6.242   1.516
  187SOL    HW1 1460   4.220   6.170   1.566
  187SOL    HW2 1461   4.074   6.220   1.513
  188SOL     OW 1462   1.335   3.199   2.766
  188SOL    HW1 1463   1.405   3.161   2.827
  188SOL    HW2 1464   1.378   3.248   2.691
  189SOL     OW 1465   6.050   5.013   5.912
  189SOL    HW1 1466   6.079   4.984   5.820
  189SOL    HW2 1467   6.131   5.034   5.967
  190SOL     OW 1468   5.642   0.866   0.310
  190SOL    HW1 1469   5.561   0.816   0.341
  190SOL    HW2 1470   5.632   0.963   0.332
  191SOL     OW 1471   0.232   1.274   5.683
  191SOL    HW1 1472   0.237   1.352   5.620
  191SOL    HW2 1473   0.136   1.251   5.699
  192SOL     OW 1474   7.000   5.155   1.255
  192SOL    HW1 1475   0.080   5.159   1.275
  192SOL    HW2 1476   6.979   5.218   1.180
  193SOL     OW 1477   2.794   6.366   0.236
  193SOL    HW1 1478   2.792   6.339   0.140
  193SOL    HW2 1479   2.719   6.430   0.254
  194SOL     OW 1480   3.757   6.459   2.323
  194SOL    HW1 1481   3.806   6.528   2.376
  194SOL    HW2 1482   3.745   6.491   2.229
  195SOL     OW 1483   3.352   1.383   1.277
  195SOL    HW1 1484   3.431   1.332   1.310
  195SOL    HW2 1485   3.379   1.479   1.261
  196SOL     OW 1486   3.053   2.258   0.231
  196SOL    HW1 1487   3.007   2.229   0.147
  196SOL    HW2 1488   3.000   2.330   0.275
  197SOL     OW 1489   2.072   6.611   0.485
  197SOL    HW1 1490   2.120   6.683   0.434
  197SOL    HW2 1491   2.031   6.651   0.567
  198SOL     OW 1492   4.037   0.409   6.590
  198SOL    HW1 1493   4.029   0.376   6.496
  198SOL    HW2 1494   4.112   0.362   6.636
  199SOL     OW 1495   0.260   0.374   2.416
  199SOL    HW1 1496   0.258   0.381   2.516
  199SOL    HW2 1497   0.337   0.428   2.381
  200SOL     OW 1498   0.711   3.872   2.880
  200SOL    HW1 1499   0.772   3.803   2.921
  200SOL    HW2 1500   0.765   3.932   2.822
  201SOL     OW 1501   4.514   1.127   6.717
  201SOL    HW1 1502   4.571   1.187   6.660
  201SOL    HW2 1503   4.508   1.037   6.675
  202SOL     OW 1504   3.595   0.877   2.457
  202SOL    HW1 1505   3.500   0.892   2.481
  202SOL    HW2 1506   3.622   0.942   2.385
  203SOL     OW 1507   5.671   2.647   7.015
  203SOL    HW1 1508   5.719   2.727   0.034
  203SOL    HW2 1509   5.736   2.588   6.967
  204SOL     OW 1510   2.534   6.252   1.586
  204SOL    HW1 1511   2.550   6.202   1.501
  204SOL    HW2 1512   2.489   6.192   1.652
  205SOL     OW 1513   6.085   0.896   0.080
  205SOL    HW1 1514   6.151   0.954   0.031
  205SOL    HW2 1515   6.114   0.886   0.175
  206SOL     OW 1516   0.474   4.644   1.873
  206SOL    HW1 1517   0.389   4.666   1.922
  206SOL    HW2 1518   0.552   4.661   1.933
  207SOL     OW 1519   4.727   1.428   5.447
  207SOL    HW1 1520   4.756   1.364   5.376
  207SOL    HW2 1521   4.634   1.460   5.427
  208SOL     OW 1522   3.349   4.472   6.273
  208SOL    HW1 1523   3.253   4.463   6.300
  208SOL    HW2 1524   3.406   4.476   6.355
  209SOL     OW 1525   6.414   5.470   5.619
  209SOL    HW1 1526   6.343   5.443   5.553
  209SOL    HW2 1527   6.424   5.570   5.617
  210SOL     OW 1528   3.552   2.055   2.244
  210SOL    HW1 1529   3.588   2.098   2.161
  210SOL    HW2 1530   3.453   2.071   2.250
  211SOL     OW 1531   1.240   2.028   1.469
  211SOL    HW1 1532   1.202   2.087   1.398
  211SOL    HW2 1533   1.238   1.933   1.438
  212SOL     OW 1534   0.633   4.620   3.828
  212SOL    HW1 1535   0.682   4.549   3.778
  212SOL    HW2 1536   0.552   4.582   3.871
  213SOL     OW 1537   4.190   2.554   6.901
  213SOL    HW1 1538   4.197   2.628   6.834
  213SOL    HW2 1539   4.142   2.476   6.860
  214SOL     OW 1540   1.068   0.099   2.621
  214SOL    HW1 1541   1.166   0.107   2.600
  214SOL    HW2 1542   1.027   0.190   2.627
  215SOL     OW 1543   3.339   3.280   2.473
  215SOL    HW1 1544   3.333   3.193   2.522
  215SOL    HW2 1545   3.354   3.263   2.375
  216SOL     OW 1546   1.294   6.206   5.618
  216SOL    HW1 1547   1.290   6.155   5.533
  216SOL    HW2 1548   1.268   6.147   5.694
  217SOL     OW 1549   0.237   2.629   3.609
  217SOL    HW1 1550   0.283   2.718   3.614
  217SOL    HW2 1551   0.251   2.579   3.694
  218SOL     OW 1552   1.071   3.960   5.426
  218SOL    HW1 1553   1.137   3.983   5.355
  218SOL    HW2 1554   1.117   3.910   5.499
  219SOL     OW 1555   4.775   5.248   0.225
  219SOL    HW1 1556   4.758   5.284   0.317
  219SOL    HW2 1557   4.688   5.223   0.183
  220SOL     OW 1558   1.782   4.542   1.103
  220SOL    HW1 1559   1.830   4.459   1.073
  220SOL    HW2 1560   1.698   4.517   1.151
  221SOL     OW 1561   6.696   2.639   3.915
  221SOL    HW1 1562   6.605   2.674   3.891
  221SOL    HW2 1563   6.693   2.539   3.919
  222SOL     OW 1564   1.436   6.395   5.270
  222SOL    HW1 1565   1.346   6.439   5.275
  222SOL    HW2 1566   1.508   6.465   5.275
  223SOL     OW 1567   6.409   3.980   1.827
  223SOL    HW1 1568   6.338   4.014   1.765
  223SOL    HW2 1569   6.367   3.951   1.912
  224SOL     OW 1570   3.445   1.975   1.989
  224SOL    HW1 1571   3.472   1.885   1.957
  224SOL    HW2 1572   3.510   2.044   1.956
  225SOL     OW 1573   0.426   0.004   0.585
  225SOL    HW1 1574   0.338   0.003   0.633
  225SOL    HW2 1575   0.469   6.933   0.592
  226SOL     OW 1576   0.225   5.495   1.170
  226SOL    HW1 1577   0.312   5.460   1.205
  226SOL    HW2 1578   0.232   5.593   1.155
  227SOL     OW 1579   1.641   3.073   3.443
  227SOL    HW1 1580   1.586   3.152   3.471
  227SOL    HW2 1581   1.668   3.084   3.348
  228SOL     OW 1582   3.804   0.099   2.890
  228SOL    HW1 1583   3.833   0.185   2.847
  228SOL    HW2 1584   3.828   0.100   2.987
  229SOL     OW 1585   5.699   5.389   2.659
  229SOL    HW1 1586   5.650   5.347   2.736
  229SOL    HW2 1587   5.667   5.348   2.574
  230SOL     OW 1588   1.599   4.378   5.535
  230SOL    HW1 1589   1.565   4.372   5.441
  230SOL    HW2 1590   1.698   4.373   5.536
  231SOL     OW 1591   0.533   1.986   6.801
  231SOL    HW1 1592   0.481   1.920   6.747
  231SOL    HW2 1593   0.546   1.950   6.893
  232SOL     OW 1594   2.186   4.881   6.313
  232SOL    HW1 1595   2.221   4.878   6.219
  232SOL    HW2 1596   2.126   4.802   6.328
  233SOL     OW 1597   2.919   1.161   6.249
  233SOL    HW1 1598   2.948   1.087   6.309
  233SOL    HW2 1599   2.823   1.148   6.223
  234SOL     OW 1600   3.105   5.858   0.125
  234SOL    HW1 1601   3.062   5.787   0.180
  234SOL    HW2 1602   3.038   5.928   0.102
  235SOL     OW 1603   3.346   3.056   5.043
  235SOL    HW1 1604   3.322   3.045   4.947
  235SOL    HW2 1605   3.440   3.027   5.058
  236SOL     OW 1606   6.951   2.223   5.295
  236SOL    HW1 1607   0.020   2.183   5.324
  236SOL    HW2 1608   6.929   2.300   5.354
  237SOL     OW 1609   0.237   0.376   1.804
  237SOL    HW1 1610   0.216   0.280   1.825
  237SOL    HW2 1611   0.229   0.430   1.888
  238SOL     OW 1612   6.438   2.192   2.203
  238SOL    HW1 1613   6.390   2.143   2.130
  238SOL    HW2 1614   6.537   2.187   2.186
  239SOL     OW 1615   0.420   5.435   0.746
  239SOL    HW1 1616   0.377   5.499   0.683
  239SOL    HW2 1617   0.483   5.375   0.695
  240SOL     OW 1618   6.581   3.786   5.298
  240SOL    HW1 1619   6.595   3.718   5.226
  240SOL    HW2 1620   6.513   3.752   5.363
  241SOL     OW 1621   6.605   1.644   3.662
  241SOL    HW1 1622   6.506   1.656   3.657
  241SOL    HW2 1623   6.630   1.557   3.621
  242SOL     OW 1624   2.338   2.385   3.256
  242SOL    HW1 1625   2.387   2.433   3.183
  242SOL    HW2 1626   2.332   2.287   3.234
  243SOL     OW 1627   4.451   1.380   5.463
  243SOL    HW1 1628   4.370   1.351   5.514
  243SOL    HW2 1629   4.432   1.468   5.419
  244SOL     OW 1630   6.704   0.654   6.160
  244SOL    HW1 1631   6.781   0.656   6.096
  244SOL    HW2 1632   6.656   0.567   6.151
  245SOL     OW 1633   5.978   2.151   3.499
  245SOL    HW1 1634   5.909   2.092   3.456
  245SOL    HW2 1635   6.061   2.151   3.443
  246SOL     OW 1636   5.096   3.348   3.731
  246SOL    HW1 1637   5.119   3.321   3.638
  246SOL    HW2 1638   5.043   3.275   3.775
  247SOL     OW 1639   3.263   0.609   3.629
  247SOL    HW1 1640   3.204   0.668   3.574
  247SOL    HW2 1641   3.219   0.590   3.717
  248SOL     OW 1642   5.491   1.655   2.648
  248SOL    HW1 1643   5.496   1.737   2.590
  248SOL    HW2 1644   5.500   1.574   2.590
  249SOL     OW 1645   2.404   6.798   3.756
  249SOL    HW1 1646   2.488   6.790   3.701
  249SOL    HW2 1647   2.412   6.741   3.837
  250SOL     OW 1648   5.191   3.050   6.162
  250SOL    HW1 1649   5.284   3.052   6.125
  250SOL    HW2 1650   5.141   2.972   6.125
  251SOL     OW 1651   2.079   2.427   0.660
  251SOL    HW1 1652   2.037   2.369   0.590
  251SOL    HW2 1653   2.085   2.521   0.627
  252SOL     OW 1654   0.337   1.563   6.739
  252SOL    HW1 1655   0.387   1.491   6.691
  252SOL    HW2 1656   0.250   1.579   6.693
  253SOL     OW 1657   1.695   3.909   5.169
  253SOL    HW1 1658   1.738   3.865   5.248
  253SOL    HW2 1659   1.595   3.899   5.176
  254SOL     OW 1660   5.563   3.444   5.511
  254SOL    HW1 1661   5.575   3.506   5.588
  254SOL    HW2 1662   5.491   3.378   5.532
  255SOL     OW 1663   3.302   2.105   3.285
  255SOL    HW1 1664   3.289   2.136   3.379
  255SOL    HW2 1665   3.373   2.035   3.282
  256SOL     OW 1666   6.682   5.664   0.276
  256SOL    HW1 1667   6.621   5.715   0.337
  256SOL    HW2 1668   6.694   5.715   0.191
  257SOL     OW 1669   3.195   5.441   6.424
  257SOL    HW1 1670   3.161   5.529   6.456
  257SOL    HW2 1671   3.161   5.423   6.332
  258SOL     OW 1672   5.320   3.686   4.302
  258SOL    HW1 1673   5.356   3.702   4.394
  258SOL    HW2 1674   5.346   3.761   4.242
  259SOL     OW 1675   1.445   1.760   3.039
  259SOL    HW1 1676   1.535   1.769   2.997
  259SOL    HW2 1677   1.408   1.669   3.020
  260SOL     OW 1678   6.759   6.811   5.825
  260SOL    HW1 1679   6.697   6.804   5.903
  260SOL    HW2 1680   6.850   6.778   5.852
  261SOL     OW 1681   1.310   2.034   2.723
  261SOL    HW1 1682   1.371   2.096   2.772
  261SOL    HW2 1683   1.325   2.043   2.624
  262SOL     OW 1684   1.634   4.883   1.947
  262SOL    HW1 1685   1.614   4.786   1.964
  262SOL    HW2 1686   1.733   4.897   1.951
  263SOL     OW 1687   0.123   1.889   5.282
  263SOL    HW1 1688   0.204   1.871   5.226
  263SOL    HW2 1689   0.130   1.980   5.322
  264SOL     OW 1690   2.828   4.157   6.171
  264SOL    HW1 1691   2.820   4.066   6.212
  264SOL    HW2 1692   2.917   4.167   6.128
  265SOL     OW 1693   5.558   5.408   5.818
  265SOL    HW1 1694   5.607   5.411   5.731
  265SOL    HW2 1695   5.604   5.468   5.884
  266SOL     OW 1696   3.505   2.201   6.913
  266SOL    HW1 1697   3.442   2.252   6.971
  266SOL    HW2 1698   3.576   2.159   6.969
  267SOL     OW 1699   1.584   1.534   5.720
  267SOL    HW1 1700   1.631   1.578   5.797
  267SOL    HW2 1701   1.554   1.443   5.747
  268SOL     OW 1702   3.376   5.865   4.016
  268SOL    HW1 1703   3.433   5.793   3.976
  268SOL    HW2 1704   3.434   5.933   4.060
  269SOL     OW 1705   1.673   1.199   5.755
  269SOL    HW1 1706   1.723   1.229   5.674
  269SOL    HW2 1707   1.719   1.120   5.795
  270SOL     OW 1708   5.321   6.935   4.454
  270SOL    HW1 1709   5.244   6.998   4.457
  270SOL    HW2 1710   5.307   6.868   4.381
  271SOL     OW 1711   1.552   1.706   6.717
  271SOL    HW1 1712   1.569   1.786   6.774
  271SOL    HW2 1713   1.632   1.646   6.718
  272SOL     OW 1714   5.068   5.821   2.369
  272SOL    HW1 1715   5.124   5.774   2.301
  272SOL    HW2 1716   4.988   5.766   2.390
  273SOL     OW 1717   3.015   6.727   5.041
  273SOL    HW1 1718   3.108   6.699   5.061
  273SOL    HW2 1719   3.014   6.790   4.963
  274SOL     OW 1720   5.838   1.752   0.988
  274SOL    HW1 1721   5.769   1.680   0.992
  274SOL    HW2 1722   5.880   1.763   1.078
  275SOL     OW 1723   5.601   5.860   5.027
  275SOL    HW1 1724   5.515   5.809   5.018
  275SOL    HW2 1725   5.591   5.950   4.985
  276SOL     OW 1726   0.276   6.470   3.714
  276SOL    HW1 1727   0.348   6.488   3.782
  276SOL    HW2 1728   0.209   6.406   3.753
  277SOL     OW 1729   4.971   1.962   5.789
  277SOL    HW1 1730   5.045   2.003   5.842
  277SOL    HW2 1731   4.886   1.964   5.842
  278SOL     OW 1732   5.921   3.272   3.448
  278SOL    HW1 1733   5.859   3.304   3.377
  278SOL    HW2 1734   5.982   3.347   3.476
  279SOL     OW 1735   1.004   3.916   4.425
  279SOL    HW1 1736   1.004   4.008   4.462
  279SOL    HW2 1737   0.911   3.879   4.427
  280SOL     OW 1738   3.085   0.810   3.539
  280SOL    HW1 1739   3.060   0.830   3.634
  280SOL    HW2 1740   3.017   0.848   3.477
  281SOL     OW 1741   5.322   6.693   4.610
  281SOL    HW1 1742   5.334   6.782   4.565
  281SOL    HW2 1743   5.392   6.682   4.681
  282SOL     OW 1744   1.726   2.415   0.182
  282SOL    HW1 1745   1.770   2.327   0.166
  282SOL    HW2 1746   1.705   2.424   0.280
  283SOL     OW 1747   6.410   2.585   4.578
  283SOL    HW1 1748   6.474   2.538   4.639
  283SOL    HW2 1749   6.324   2.602   4.627
  284SOL     OW 1750   4.683   5.350   3.098
  284SOL    HW1 1751   4.615   5.328   3.027
  284SOL    HW2 1752   4.749   5.415   3.061
  285SOL     OW 1753   4.464   0.511   5.600
  285SOL    HW1 1754   4.465   0.526   5.501
  285SOL    HW2 1755   4.524   0.577   5.644
  286SOL     OW 1756   2.474   4.875   5.633
  286SOL    HW1 1757   2.383   4.851   5.667
  286SOL    HW2 1758   2.525   4.923   5.705
  287SOL     OW 1759   3.164   0.143   6.539
  287SOL    HW1 1760   3.214   0.208   6.481
  287SOL    HW2 1761   3.133   0.190   6.622
  288SOL     OW 1762   3.944   0.999   1.135
  288SOL    HW1 1763   3.905   0.952   1.214
  288SOL    HW2 1764   3.898   0.969   1.052
  289SOL     OW 1765   6.152   5.927   3.418
  289SOL    HW1 1766   6.164   6.026   3.422
  289SOL    HW2 1767   6.213   5.883   3.485
  290SOL     OW 1768   3.402   0.732   6.293
  290SOL    HW1 1769   3.494   0.700   6.270
  290SOL    HW2 1770   3.379   0.810   6.235
  291SOL     OW 1771   3.533   0.272   5.138
  291SOL    HW1 1772   3.517   0.312   5.048
  291SOL    HW2 1773   3.456   0.213   5.162
  292SOL     OW 1774   4.991   0.685   4.129
  292SOL    HW1 1775   5.013   0.783   4.128
  292SOL    HW2 1776   4.957   0.660   4.220
  293SOL     OW 1777   5.645   6.830   2.155
  293SOL    HW1 1778   5.700   6.912   2.171
  293SOL    HW2 1779   5.595   6.807   2.239
  294SOL     OW 1780   5.779   1.160   6.235
  294SOL    HW1 1781   5.777   1.259   6.253
  294SOL    HW2 1782   5.843   1.141   6.161
  295SOL     OW 1783   1.438   0.995   4.983
  295SOL    HW1 1784   1.509   1.032   4.922
  295SOL    HW2 1785   1.372   1.067   5.005
  296SOL     OW 1786   0.174   2.137   1.061
  296SOL    HW1 1787   0.127   2.218   1.096
  296SOL    HW2 1788   0.232   2.099   1.132
  297SOL     OW 1789   5.184   3.527   3.265
  297SOL    HW1 1790   5.223   3.555   3.178
  297SOL    HW2 1791   5.153   3.608   3.316
  298SOL     OW 1792   4.369   0.542   6.402
  298SOL    HW1 1793   4.409   0.634   6.401
  298SOL    HW2 1794   4.438   0.477   6.434
  299SOL     OW 1795   0.772   0.491   6.966
  299SOL    HW1 1796   0.749   0.551   6.889
  299SOL    HW2 1797   0.710   0.509   0.024
  300SOL     OW 1798   4.108   0.000   3.661
  300SOL    HW1 1799   4.104   6.981   3.569
  300SOL    HW2 1800   4.018   7.008   3.705
  301SOL     OW 1801   6.643   5.544   0.541
  301SOL    HW1 1802   6.593   5.600   0.475
  301SOL    HW2 1803   6.675   5.461   0.497
  302SOL     OW 1804   0.124   5.246   2.136
  302SOL    HW1 1805   0.123   5.342   2.163
  302SOL    HW2 1806   0.215   5.223   2.100
  303SOL     OW 1807   5.287   5.747   3.293
  303SOL    HW1 1808   5.207   5.780   3.243
  303SOL    HW2 1809   5.356   5.717   3.227
  304SOL     OW 1810   2.807   5.967   4.843
  304SOL    HW1 1811   2.835   5.879   4.883
  304SOL    HW2 1812   2.840   5.972   4.748
  305SOL     OW 1813   0.940   2.921   1.683
  305SOL    HW1 1814   1.020   2.884   1.635
  305SOL    HW2 1815   0.930   2.875   1.771
  306SOL     OW 1816   0.046   6.857   3.009
  306SOL    HW1 1817   6.995   6.925   3.033
  306SOL    HW2 1818   0.098   6.888   2.929
  307SOL     OW 1819   3.399   2.912   4.208
  307SOL    HW1 1820   3.369   2.834   4.262
  307SOL    HW2 1821   3.347   2.916   4.122
  308SOL     OW 1822   6.058   2.218   3.213
  308SOL    HW1 1823   6.096   2.274   3.140
  308SOL    HW2 1824   6.128   2.203   3.283
  309SOL     OW 1825   1.661   6.126   6.637
  309SOL    HW1 1826   1.634   6.071   6.558
  309SOL    HW2 1827   1.668   6.222   6.610
  310SOL     OW 1828   5.347   0.276   5.633
  310SOL    HW1 1829   5.355   0.199   5.571
  310SOL    HW2 1830   5.299   0.248   5.716
  311SOL     OW 1831   1.934   5.898   2.601
  311SOL    HW1 1832   1.889   5.983   2.629
  311SOL    HW2 1833   1.944   5.897   2.502
  312SOL     OW 1834   3.729   0.544   3.634
  312SOL    HW1 1835   3.782   0.512   3.556
  312SOL    HW2 1836   3.645   0.587   3.603
  313SOL     OW 1837   3.085   3.440   2.680
  313SOL    HW1 1838   3.021   3.505   2.638
  313SOL    HW2 1839   3.043   3.350   2.687
  314SOL     OW 1840   3.178   5.564   6.116
  314SOL    HW1 1841   3.086   5.600   6.108
  314SOL    HW2 1842   3.220   5.558   6.025
  315SOL     OW 1843   6.370   0.679   4.373
  315SOL    HW1 1844   6.352   0.609   4.304
  315SOL    HW2 1845   6.454   0.729   4.349
  316SOL     OW 1846   4.006   1.075   6.144
  316SOL    HW1 1847   4.033   1.032   6.230
  316SOL    HW2 1848   3.907   1.070   6.133
  317SOL     OW 1849   1.096   1.882   1.075
  317SOL    HW1 1850   1.151   1.846   1.151
  317SOL    HW2 1851   1.037   1.809   1.039
  318SOL     OW 1852   0.398   0.326   5.019
  318SOL    HW1 1853   0.428   0.372   5.103
  318SOL    HW2 1854   0.299   0.336   5.010
  319SOL     OW 1855   1.081   1.439   2.990
  319SOL    HW1 1856   1.020   1.517   2.980
  319SOL    HW2 1857   1.175   1.467   2.969
  320SOL     OW 1858   5.985   2.367   6.037
  320SOL    HW1 1859   5.987   2.340   5.941
  320SOL    HW2 1860   6.020   2.292   6.094
  321SOL     OW 1861   4.619   3.212   0.357
  321SOL    HW1 1862   4.593   3.227   0.261
  321SOL    HW2 1863   4.656   3.120   0.367
  322SOL     OW 1864   3.014   3.348   6.070
  322SOL    HW1 1865   3.090   3.309   6.121
  322SOL    HW2 1866   2.928   3.321   6.111
  323SOL     OW 1867   1.211   3.514   1.977
  323SOL    HW1 1868   1.182   3.474   1.890
  323SOL    HW2 1869   1.252   3.604   1.960
  324SOL     OW 1870   0.761   0.483   3.293
  324SOL    HW1 1871   0.835   0.495   3.226
  324SOL    HW2 1872   0.770   0.393   3.336
  325SOL     OW 1873   6.533   3.740   1.236
  325SOL    HW1 1874   6.630   3.719   1.224
  325SOL    HW2 1875   6.487   3.664   1.281
  326SOL     OW 1876   0.930   6.435   6.496
  326SOL    HW1 1877   0.887   6.411   6.409
  326SOL    HW2 1878   1.028   6.420   6.489
  327SOL     OW 1879   5.227   5.751   4.146
  327SOL    HW1 1880   5.199   5.798   4.062
  327SOL    HW2 1881   5.240   5.654   4.127
  328SOL     OW 1882   2.042   4.071   2.846
  328SOL    HW1 1883   2.105   4.026   2.909
  328SOL    HW2 1884   1.966   4.009   2.824
  329SOL     OW 1885   3.081   2.883   1.632
  329SOL    HW1 1886   3.143   2.845   1.563
  329SOL    HW2 1887   3.076   2.821   1.710
  330SOL     OW 1888   2.929   5.111   0.902
  330SOL    HW1 1889   2.866   5.124   0.979
  330SOL    HW2 1890   2.893   5.040   0.841
  331SOL     OW 1891   6.515   5.397   6.374
  331SOL    HW1 1892   6.527   5.400   6.473
  331SOL    HW2 1893   6.418   5.388   6.353
  332SOL     OW 1894   5.820   2.349   3.415
  332SOL    HW1 1895   5.880   2.279   3.454
  332SOL    HW2 1896   5.863   2.387   3.333
  333SOL     OW 1897   3.138   0.789   5.788
  333SOL    HW1 1898   3.131   0.758   5.693
  333SOL    HW2 1899   3.062   0.849   5.809
  334SOL     OW 1900   3.461   3.817   3.257
  334SOL    HW1 1901   3.385   3.881   3.268
  334SOL    HW2 1902   3.546   3.868   3.241
  335SOL     OW 1903   3.551   1.642   0.938
  335SOL    HW1 1904   3.645   1.614   0.922
  335SOL    HW2 1905   3.524   1.616   1.031
  336SOL     OW 1906   2.821   1.831   4.081
  336SOL    HW1 1907   2.757   1.755   4.075
  336SOL    HW2 1908   2.844   1.848   4.177
  337SOL     OW 1909   1.176   1.042   5.599
  337SOL    HW1 1910   1.160   1.141   5.607
  337SOL    HW2 1911   1.246   1.014   5.665
  338SOL     OW 1912   4.315   1.466   1.324
  338SOL    HW1 1913   4.310   1.388   1.385
  338SOL    HW2 1914   4.290   1.549   1.374
  339SOL     OW 1915   3.873   6.247   4.785
  339SOL    HW1 1916   3.839   6.310   4.715
  339SOL    HW2 1917   3.858   6.153   4.756
  340SOL     OW 1918   5.280   2.340   4.361
  340SOL    HW1 1919   5.260   2.327   4.264
  340SOL    HW2 1920   5.307   2.253   4.402
  341SOL     OW 1921   6.136   0.010   3.092
  341SOL    HW1 1922   6.063   0.075   3.073
  341SOL    HW2 1923   6.222   0.044   3.055
  342SOL     OW 1924   4.269   2.325   2.205
  342SOL    HW1 1925   4.321   2.365   2.130
  342SOL    HW2 1926   4.251   2.396   2.274
  343SOL     OW 1927   6.892   6.138   2.406
  343SOL    HW1 1928   6.954   6.118   2.482
  343SOL    HW2 1929   6.914   6.229   2.369
  344SOL     OW 1930   1.009   1.959   0.737
  344SOL    HW1 1931   0.936   1.906   0.694
  344SOL    HW2 1932   0.972   2.010   0.815
  345SOL     OW 1933   6.620   3.513   3.902
  345SOL    HW1 1934   6.551   3.585   3.893
  345SOL    HW2 1935   6.582   3.426   3.870
  346SOL     OW 1936   1.929   6.446   3.544
  346SOL    HW1 1937   1.897   6.360   3.582
  346SOL    HW2 1938   1.945   6.436   3.446
  347SOL     OW 1939   2.373   5.302   0.559
  347SOL    HW1 1940   2.349   5.231   0.625
  347SOL    HW2 1941   2.331   5.281   0.470
  348SOL     OW 1942   4.404   5.060   1.190
  348SOL    HW1 1943   4.418   5.061   1.091
  348SOL    HW2 1944   4.485   5.098   1.235
  349SOL     OW 1945   5.633   4.422   1.574
  349SOL    HW1 1946   5.638   4.521   1.560
  349SOL    HW2 1947   5.591   4.380   1.493
  350SOL     OW 1948   3.235   2.578   0.362
  350SOL    HW1 1949   3.289   2.543   0.438
  350SOL    HW2 1950   3.282   2.654   0.319
  351SOL     OW 1951   3.275   4.430   0.934
  351SOL    HW1 1952   3.336   4.356   0.905
  351SOL    HW2 1953   3.181   4.396   0.940
  352SOL     OW 1954   4.031   0.292   3.103
  352SOL    HW1 1955   4.047   0.267   3.007
  352SOL    HW2 1956   4.053   0.389   3.116
  353SOL     OW 1957   2.123   6.544   6.165
  353SOL    HW1 1958   2.098   6.616   6.230
  353SOL    HW2 1959   2.162   6.585   6.083
  354SOL     OW 1960   0.449   2.851   0.340
  354SOL    HW1 1961   0.489   2.943   0.338
  354SOL    HW2 1962   0.506   2.789   0.286
  355SOL     OW 1963   1.358   1.407   2.664
  355SOL    HW1 1964   1.288   1.478   2.654
  355SOL    HW2 1965   1.445   1.448   2.691
  356SOL     OW 1966   1.542   0.932   6.008
  356SOL    HW1 1967   1.521   0.868   6.083
  356SOL    HW2 1968   1.551   0.881   5.923
  357SOL     OW 1969   5.149   0.244   5.290
  357SOL    HW1 1970   5.145   0.246   5.390
  357SOL    HW2 1971   5.118   0.331   5.253
  358SOL     OW 1972   3.628   5.570   6.585
  358SOL    HW1 1973   3.612   5.510   6.663
  358SOL    HW2 1974   3.722   5.557   6.552
  359SOL     OW 1975   2.125   2.107   2.771
  359SOL    HW1 1976   2.094   2.012   2.765
  359SOL    HW2 1977   2.222   2.111   2.749
  360SOL     OW 1978   1.056   4.335   4.189
  360SOL    HW1 1979   0.972   4.317   4.240
  360SOL    HW2 1980   1.093   4.425   4.215
  361SOL     OW 1981   6.496   1.582   2.908
  361SOL    HW1 1982   6.592   1.599   2.886
  361SOL    HW2 1983   6.475   1.486   2.892
  362SOL     OW 1984   3.723   4.741   0.759
  362SOL    HW1 1985   3.719   4.689   0.845
  362SOL    HW2 1986   3.716   4.839   0.779
  363SOL     OW 1987   5.168   5.451   1.943
  363SOL    HW1 1988   5.190   5.541   1.981
  363SOL    HW2 1989   5.181   5.452   1.844
  364SOL     OW 1990   1.062   6.405   6.117
  364SOL    HW1 1991   1.159   6.398   6.137
  364SOL    HW2 1992   1.037   6.500   6.098
  365SOL     OW 1993   4.513   1.832   3.480
  365SOL    HW1 1994   4.525   1.764   3.553
  365SOL    HW2 1995   4.449   1.902   3.511
  366SOL     OW 1996   4.955   2.098   0.125
  366SOL    HW1 1997   5.036   2.063   0.078
  366SOL    HW2 1998   4.924   2.182   0.079
  367SOL     OW 1999   5.294   1.730   5.622
  367SOL    HW1 2000   5.327   1.650   5.573
  367SOL    HW2 2001   5.210   1.763   5.579
  368SOL     OW 2002   6.553   2.190   5.622
  368SOL    HW1 2003   6.475   2.136   5.652
  368SOL    HW2 2004   6.625   2.129   5.588
  369SOL     OW 2005   6.250   3.301   2.077
  369SOL    HW1 2006   6.225   3.383   2.025
  369SOL    HW2 2007   6.166   3.250   2.099
  370SOL     OW 2008   1.220   2.946   3.681
  370SOL    HW1 2009   1.170   2.964   3.766
  370SOL    HW2 2010   1.318   2.952   3.700
  371SOL     OW 2011   1.050   4.821   0.151
  371SOL    HW1 2012   0.973   4.818   0.215
  371SOL    HW2 2013   1.094   4.910   0.157
  372SOL     OW 2014   3.407   5.960   6.101
  372SOL    HW1 2015   3.491   5.922   6.063
  372SOL    HW2 2016   3.413   6.060   6.103
  373SOL     OW 2017   5.581   5.545   3.972
  373SOL    HW1 2018   5.571   5.622   3.909
  373SOL    HW2 2019   5.531   5.565   4.057
  374SOL     OW 2020   2.899   1.972   3.112
  374SOL    HW1 2021   2.944   1.920   3.185
  374SOL    HW2 2022   2.925   1.934   3.024
  375SOL     OW 2023   1.223   5.447   4.171
  375SOL    HW1 2024   1.268   5.413   4.253
  375SOL    HW2 2025   1.268   5.410   4.090
  376SOL     OW 2026   2.925   0.644   4.118
  376SOL    HW1 2027   2.985   0.692   4.182
  376SOL    HW2 2028   2.831   0.646   4.153
  377SOL     OW 2029   0.741   1.805   6.359
  377SOL    HW1 2030   0.648   1.821   6.326
  377SOL    HW2 2031   0.739   1.746   6.440
  378SOL     OW 2032   4.100   1.147   2.175
  378SOL    HW1 2033   4.129   1.177   2.084
  378SOL    HW2 2034   4.178   1.106   2.223
  379SOL     OW 2035   5.836   1.879   6.682
  379SOL    HW1 2036   5.919   1.890   6.627
  379SOL    HW2 2037   5.849   1.804   6.747
  380SOL     OW 2038   4.131   2.344   0.703
  380SOL    HW1 2039   4.116   2.323   0.799
  380SOL    HW2 2040   4.223   2.316   0.676
  381SOL     OW 2041   1.848   3.576   2.601
  381SOL    HW1 2042   1.872   3.574   2.504
  381SOL    HW2 2043   1.932   3.578   2.656
  382SOL     OW 2044   4.929   0.860   7.013
  382SOL    HW1 2045   4.951   0.913   0.077
  382SOL    HW2 2046   4.913   0.922   6.936
  383SOL     OW 2047   4.444   2.408   0.644
  383SOL    HW1 2048   4.535   2.449   0.631
  383SOL    HW2 2049   4.445   2.313   0.613
  384SOL     OW 2050   5.606   4.143   4.681
  384SOL    HW1 2051   5.514   4.180   4.691
  384SOL    HW2 2052   5.623   4.122   4.585
  385SOL     OW 2053   4.085   3.792   0.620
  385SOL    HW1 2054   4.166   3.851   0.622
  385SOL    HW2 2055   4.016   3.832   0.560
  386SOL     OW 2056   3.931   6.334   3.504
  386SOL    HW1 2057   3.848   6.326   3.559
  386SOL    HW2 2058   3.909   6.379   3.417
  387SOL     OW 2059   2.460   6.776   3.425
  387SOL    HW1 2060   2.524   6.803   3.353
  387SOL    HW2 2061   2.432   6.681   3.412
  388SOL     OW 2062   2.139   4.413   6.271
  388SOL    HW1 2063   2.149   4.495   6.214
  388SOL    HW2 2064   2.054   4.366   6.246
  389SOL     OW 2065   3.028   3.781   3.501
  389SOL    HW1 2066   2.959   3.728   3.549
  389SOL    HW2 2067   3.097   3.718   3.462
  390SOL     OW 2068   2.238   1.123   4.174
  390SOL    HW1 2069   2.204   1.109   4.081
  390SOL    HW2 2070   2.174   1.180   4.225
  391SOL     OW 2071   1.172   3.136   6.799
  391SOL    HW1 2072   1.106   3.084   6.744
  391SOL    HW2 2073   1.236   3.072   6.843
  392SOL     OW 2074   2.349   5.626   2.670
  392SOL    HW1 2075   2.279   5.693   2.691
  392SOL    HW2 2076   2.439   5.667   2.683
  393SOL     OW 2077   6.032   4.475   5.098
  393SOL    HW1 2078   6.041   4.422   5.013
  393SOL    HW2 2079   5.939   4.508   5.107
  394SOL     OW 2080   2.174   0.657   6.678
  394SOL    HW1 2081   2.157   0.621   6.770
  394SOL    HW2 2082   2.091   0.698   6.642
  395SOL     OW 2083   5.956   3.689   1.260
  395SOL    HW1 2084   5.988   3.618   1.322
  395SOL    HW2 2085   5.959   3.777   1.306
  396SOL     OW 2086   3.365   4.135   3.751
  396SOL    HW1 2087   3.350   4.169   3.658
  396SOL    HW2 2088   3.320   4.046   3.761
  397SOL     OW 2089   4.467   2.369   5.548
  397SOL    HW1 2090   4.549   2.405   5.503
  397SOL    HW2 2091   4.390   2.429   5.528
  398SOL     OW 2092   1.086   4.927   2.044
  398SOL    HW1 2093   1.075   5.006   2.105
  398SOL    HW2 2094   1.121   4.958   1.956
  399SOL     OW 2095   4.992   5.055   1.629
  399SOL    HW1 2096   5.019   5.150   1.616
  399SOL    HW2 2097   4.945   5.022   1.547
  400SOL     OW 2098   1.236   5.682   5.049
  400SOL    HW1 2099   1.224   5.589   5.016
  400SOL    HW2 2100   1.155   5.736   5.028
  401SOL     OW 2101   4.671   1.597   0.101
  401SOL    HW1 2102   4.647   1.684   0.058
  401SOL    HW2 2103   4.696   1.531   0.030
  402SOL     OW 2104   5.527   5.375   1.393
  402SOL    HW1 2105   5.485   5.464   1.380
  402SOL    HW2 2106   5.626   5.382   1.383
  403SOL     OW 2107   5.145   2.421   5.905
  403SOL    HW1 2108   5.173   2.517   5.909
  403SOL    HW2 2109   5.065   2.407   5.963
  404SOL     OW 2110   1.105   0.385   4.563
  404SOL    HW1 2111   1.043   0.320   4.607
  404SOL    HW2 2112   1.059   0.472   4.550
  405SOL     OW 2113   0.299   2.144   0.772
  405SOL    HW1 2114   0.251   2.148   0.860
  405SOL    HW2 2115   0.310   2.236   0.736
  406SOL     OW 2116   1.933   3.021   3.876
  406SOL    HW1 2117   1.999   3.075   3.824
  406SOL    HW2 2118   1.982   2.950   3.928
  407SOL     OW 2119   3.013   0.681   4.840
  407SOL    HW1 2120   3.072   0.659   4.762
  407SOL    HW2 2121   3.035   0.621   4.916
  408SOL     OW 2122   1.963   0.840   3.912
  408SOL    HW1 2123   1.922   0.814   3.825
  408SOL    HW2 2124   1.949   0.766   3.979
  409SOL     OW 2125   5.793   3.590   3.515
  409SOL    HW1 2126   5.819   3.542   3.432
  409SOL    HW2 2127   5.702   3.629   3.503
  410SOL     OW 2128   2.562   1.286   6.688
  410SOL    HW1 2129   2.537   1.377   6.722
  410SOL    HW2 2130   2.545   1.281   6.589
  411SOL     OW 2131   6.100   4.415   5.353
  411SOL    HW1 2132   6.081   4.426   5.256
  411SOL    HW2 2133   6.042   4.478   5.406
  412SOL     OW 2134   3.777   0.689   2.550
  412SOL    HW1 2135   3.704   0.745   2.511
  412SOL    HW2 2136   3.750   0.658   2.641
  413SOL     OW 2137   3.039   6.404   0.516
  413SOL    HW1 2138   3.012   6.315   0.554
  413SOL    HW2 2139   3.108   6.446   0.575
  414SOL     OW 2140   3.934   3.936   0.470
  414SOL    HW1 2141   3.860   3.961   0.407
  414SOL    HW2 2142   3.936   4.001   0.546
  415SOL     OW 2143   2.122   6.784   1.265
  415SOL    HW1 2144   2.141   6.877   1.298
  415SOL    HW2 2145   2.054   6.741   1.325
  416SOL     OW 2146   3.969   5.924   4.916
  416SOL    HW1 2147   3.965   5.883   5.007
  416SOL    HW2 2148   4.051   5.892   4.869
  417SOL     OW 2149   4.502   6.273   1.864
  417SOL    HW1 2150   4.405   6.250   1.869
  417SOL    HW2 2151   4.518   6.333   1.785
  418SOL     OW 2152   4.958   5.622   1.198
  418SOL    HW1 2153   4.878   5.651   1.251
  418SOL    HW2 2154   4.929   5.592   1.107
  419SOL     OW 2155   6.922   6.698   1.241
  419SOL    HW1 2156   6.989   6.770   1.260
  419SOL    HW2 2157   6.948   6.648   1.159
  420SOL     OW 2158   4.994   4.887   0.522
  420SOL    HW1 2159   5.052   4.809   0.544
  420SOL    HW2 2160   4.977   4.941   0.605
  421SOL     OW 2161   2.370   6.170   6.452
  421SOL    HW1 2162   2.350   6.262   6.418
  421SOL    HW2 2163   2.303   6.106   6.414
  422SOL     OW 2164   5.336   3.945   6.740
  422SOL    HW1 2165   5.340   4.025   6.681
  422SOL    HW2 2166   5.294   3.869   6.690
  423SOL     OW 2167   6.983   3.548   6.647
  423SOL    HW1 2168   6.986   3.569   6.744
  423SOL    HW2 2169   0.035   3.480   6.625
  424SOL     OW 2170   3.018   4.119   0.110
  424SOL    HW1 2171   2.985   4.048   0.049
  424SOL    HW2 2172   3.118   4.124   0.104
  425SOL     OW 2173   3.453   1.696   0.682
  425SOL    HW1 2174   3.478   1.660   0.772
  425SOL    HW2 2175   3.447   1.621   0.616
  426SOL     OW 2176   5.360   3.847   6.406
  426SOL    HW1 2177   5.277   3.818   6.359
  426SOL    HW2 2178   5.344   3.935   6.451
  427SOL     OW 2179   5.188   3.776   1.206
  427SOL    HW1 2180   5.105   3.726   1.181
  427SOL    HW2 2181   5.263   3.747   1.147
  428SOL     OW 2182   3.877   0.894   5.303
  428SOL    HW1 2183   3.942   0.864   5.233
  428SOL    HW2 2184   3.927   0.933   5.380
  429SOL     OW 2185   1.598   5.007   0.391
  429SOL    HW1 2186   1.498   5.011   0.389
  429SOL    HW2 2187   1.631   5.048   0.476
  430SOL     OW 2188   1.233   0.272   4.997
  430SOL    HW1 2189   1.273   0.211   4.929
  430SOL    HW2 2190   1.247   0.367   4.969
  431SOL     OW 2191   3.271   1.708   0.914
  431SOL    HW1 2192   3.366   1.722   0.940
  431SOL    HW2 2193   3.240   1.618   0.947
  432SOL     OW 2194   7.016   1.492   0.968
  432SOL    HW1 2195   6.966   1.568   1.010
  432SOL    HW2 2196   6.998   1.409   1.021
  433SOL     OW 2197   3.094   6.656   5.335
  433SOL    HW1 2198   3.057   6.573   5.294
  433SOL    HW2 2199   3.062   6.663   5.430
  434SOL     OW 2200   6.352   3.137   1.541
  434SOL    HW1 2201   6.278   3.177   1.596
  434SOL    HW2 2202   6.428   3.112   1.600
  435SOL     OW 2203   2.930   4.377   0.118
  435SOL    HW1 2204   2.956   4.280   0.115
  435SOL    HW2 2205   2.969   4.424   0.039
  436SOL     OW 2206   2.197   0.698   0.545
  436SOL    HW1 2207   2.156   0.761   0.611
  436SOL    HW2 2208   2.184   0.733   0.452
  437SOL     OW 2209   6.803   0.251   6.560
  437SOL    HW1 2210   6.782   0.160   6.596
  437SOL    HW2 2211   6.739   0.318   6.598
  438SOL     OW 2212   1.226   2.863   1.586
  438SOL    HW1 2213   1.300   2.909   1.538
  438SOL    HW2 2214   1.264   2.809   1.661
  439SOL     OW 2215   6.484   5.011   2.726
  439SOL    HW1 2216   6.554   5.043   2.789
  439SOL    HW2 2217   6.408   5.076   2.723
  440SOL     OW 2218   1.153   2.456   3.995
  440SOL    HW1 2219   1.238   2.506   4.014
  440SOL    HW2 2220   1.175   2.370   3.949
  441SOL     OW 2221   1.371   1.468   3.000
  441SOL    HW1 2222   1.463   1.474   2.962
  441SOL    HW2 2223   1.354   1.375   3.031
  442SOL     OW 2224   7.016   3.651   6.911
  442SOL    HW1 2225   0.001   3.750   6.927
  442SOL    HW2 2226   7.013   3.603   6.998
  443SOL     OW 2227   0.883   4.181   4.994
  443SOL    HW1 2228   0.880   4.273   5.031
  443SOL    HW2 2229   0.857   4.115   5.065
  444SOL     OW 2230   4.562   2.461   6.298
  444SOL    HW1 2231   4.544   2.366   6.321
  444SOL    HW2 2232   4.602   2.466   6.206
  445SOL     OW 2233   2.277   4.560   3.565
  445SOL    HW1 2234   2.186   4.543   3.528
  445SOL    HW2 2235   2.330   4.614   3.500
  446SOL     OW 2236   3.573   5.034   3.875
  446SOL    HW1 2237   3.510   4.969   3.832
  446SOL    HW2 2238   3.609   5.097   3.806
  447SOL     OW 2239   6.973   5.616   0.713
  447SOL    HW1 2240   6.921   5.642   0.794
  447SOL    HW2 2241   6.923   5.642   0.630
  448SOL     OW 2242   4.254   1.202   4.537
  448SOL    HW1 2243   4.171   1.187   4.484
  448SOL    HW2 2244   4.236   1.268   4.610
  449SOL     OW 2245   5.537   1.186   4.731
  449SOL    HW1 2246   5.443   1.201   4.700
  449SOL    HW2 2247   5.587   1.272   4.729
  450SOL     OW 2248   0.335   5.953   3.707
  450SOL    HW1 2249   0.272   5.986   3.777
  450SOL    HW2 2250   0.317   5.856   3.689
  451SOL     OW 2251   0.475   1.956   2.956
  451SOL    HW1 2252   0.411   1.998   2.891
  451SOL    HW2 2253   0.555   1.922   2.906
  452SOL     OW 2254   0.343   4.478   6.772
  452SOL    HW1 2255   0.286   4.494   6.691
  452SOL    HW2 2256   0.431   4.523   6.761
  453SOL     OW 2257   3.280   1.259   6.551
  453SOL    HW1 2258   3.258   1.324   6.478
  453SOL    HW2 2259   3.246   1.295   6.638
  454SOL     OW 2260   0.669   6.104   6.691
  454SOL    HW1 2261   0.711   6.040   6.754
  454SOL    HW2 2262   0.732   6.122   6.615
  455SOL     OW 2263   6.060   0.699   4.778
  455SOL    HW1 2264   6.076   0.696   4.877
  455SOL    HW2 2265   6.143   0.670   4.731
  456SOL     OW 2266   4.483   5.738   6.381
  456SOL    HW1 2267   4.434   5.793   6.447
  456SOL    HW2 2268   4.423   5.665   6.348
  457SOL     OW 2269   2.423   4.686   3.349
  457SOL    HW1 2270   2.345   4.724   3.299
  457SOL    HW2 2271   2.484   4.639   3.284
  458SOL     OW 2272   6.157   5.153   5.417
  458SOL    HW1 2273   6.170   5.240   5.464
  458SOL    HW2 2274   6.144   5.080   5.484
  459SOL     OW 2275   1.563   0.737   2.457
  459SOL    HW1 2276   1.595   0.789   2.378
  459SOL    HW2 2277   1.512   0.657   2.426
  460SOL     OW 2278   6.597   1.904   2.732
  460SOL    HW1 2279   6.532   1.873   2.662
  460SOL    HW2 2280   6.641   1.988   2.701
  461SOL     OW 2281   4.685   6.465   5.433
  461SOL    HW1 2282   4.605   6.431   5.383
  461SOL    HW2 2283   4.701   6.408   5.513
  462SOL     OW 2284   3.179   3.068   6.638
  462SOL    HW1 2285   3.201   3.023   6.551
  462SOL    HW2 2286   3.107   3.017   6.685
  463SOL     OW 2287   0.158   4.874   3.152
  463SOL    HW1 2288   0.223   4.816   3.201
  463SOL    HW2 2289   0.067   4.863   3.191
  464SOL     OW 2290   1.399   1.627   6.224
  464SOL    HW1 2291   1.436   1.534   6.217
  464SOL    HW2 2292   1.416   1.663   6.315
  465SOL     OW 2293   0.352   2.393   3.844
  465SOL    HW1 2294   0.260   2.406   3.883
  465SOL    HW2 2295   0.365   2.296   3.821
  466SOL     OW 2296   1.471   6.808   4.073
  466SOL    HW1 2297   1.506   6.719   4.102
  466SOL    HW2 2298   1.372   6.811   4.086
  467SOL     OW 2299   1.713   0.530   5.847
  467SOL    HW1 2300   1.795   0.565   5.803
  467SOL    HW2 2301   1.656   0.483   5.779
  468SOL     OW 2302   3.818   5.458   1.090
  468SOL    HW1 2303   3.861   5.376   1.053
  468SOL    HW2 2304   3.786   5.439   1.183
  469SOL     OW 2305   2.222   5.723   6.966
  469SOL    HW1 2306   2.306   5.669   6.965
  469SOL    HW2 2307   2.221   5.781   0.029
  470SOL     OW 2308   4.108   0.850   2.511
  470SOL    HW1 2309   4.173   0.833   2.438
  470SOL    HW2 2310   4.018   0.815   2.486
  471SOL     OW 2311   2.414   2.756   4.695
  471SOL    HW1 2312   2.393   2.735   4.790
  471SOL    HW2 2313   2.435   2.671   4.646
  472SOL     OW 2314   4.612   5.718   6.131
  472SOL    HW1 2315   4.554   5.657   6.077
  472SOL    HW2 2316   4.571   5.731   6.222
  473SOL     OW 2317   0.961   2.910   2.438
  473SOL    HW1 2318   0.871   2.870   2.418
  473SOL    HW2 2319   0.948   2.997   2.486
  474SOL     OW 2320   3.961   5.162   4.853
  474SOL    HW1 2321   3.992   5.235   4.914
  474SOL    HW2 2322   3.886   5.195   4.796
  475SOL     OW 2323   0.205   6.790   6.398
  475SOL    HW1 2324   0.179   6.879   6.361
  475SOL    HW2 2325   0.138   6.761   6.466
  476SOL     OW 2326   5.933   4.868   2.387
  476SOL    HW1 2327   5.859   4.933   2.401
  476SOL    HW2 2328   6.003   4.882   2.457
  477SOL     OW 2329   2.224   5.185   4.008
  477SOL    HW1 2330   2.319   5.158   3.991
  477SOL    HW2 2331   2.174   5.107   4.047
  478SOL     OW 2332   3.547   5.568   3.627
  478SOL    HW1 2333   3.609   5.495   3.599
  478SOL    HW2 2334   3.583   5.656   3.595
  479SOL     OW 2335   2.964   2.622   0.444
  479SOL    HW1 2336   3.051   2.596   0.403
  479SOL    HW2 2337   2.934   2.552   0.508
  480SOL     OW 2338   0.885   7.007   2.393
  480SOL    HW1 2339   0.911   6.995   2.489
  480SOL    HW2 2340   0.834   6.927   2.362
  481SOL     OW 2341   3.047   0.151   1.567
  481SOL    HW1 2342   3.054   0.055   1.541
  481SOL    HW2 2343   3.138   0.187   1.586
  482SOL     OW 2344   5.935   4.803   2.753
  482SOL    HW1 2345   6.022   4.839   2.719
  482SOL    HW2 2346   5.899   4.736   2.688
  483SOL     OW 2347   5.623   1.673   1.819
  483SOL    HW1 2348   5.664   1.583   1.815
  483SOL    HW2 2349   5.536   1.673   1.769
  484SOL     OW 2350   0.690   3.124   4.240
  484SOL    HW1 2351   0.657   3.204   4.190
  484SOL    HW2 2352   0.708   3.149   4.335
  485SOL     OW 2353   3.445   5.030   2.194
  485SOL    HW1 2354   3.385   5.082   2.254
  485SOL    HW2 2355   3.400   5.018   2.105
  486SOL     OW 2356   1.023   1.047   0.064
  486SOL    HW1 2357   1.111   1.015   0.031
  486SOL    HW2 2358   0.984   0.979   0.126
  487SOL     OW 2359   0.619   2.392   0.175
  487SOL    HW1 2360   0.644   2.390   0.078
  487SOL    HW2 2361   0.701   2.381   0.231
  488SOL     OW 2362   0.212   1.941   2.129
  488SOL    HW1 2363   0.299   1.974   2.092
  488SOL    HW2 2364   0.156   1.907   2.053
  489SOL     OW 2365   3.330   6.004   0.070
  489SOL    HW1 2366   3.367   5.964   7.004
  489SOL    HW2 2367   3.240   5.965   0.089
  490SOL     OW 2368   6.195   6.408   4.160
  490SOL    HW1 2369   6.178   6.463   4.078
  490SOL    HW2 2370   6.111   6.403   4.214
  491SOL     OW 2371   0.885   2.377   2.697
  491SOL    HW1 2372   0.927   2.447   2.755
  491SOL    HW2 2373   0.796   2.410   2.664
  492SOL     OW 2374   2.764   0.030   6.456
  492SOL    HW1 2375   2.746   0.049   6.360
  492SOL    HW2 2376   2.840   6.984   6.464
  493SOL     OW 2377   6.395   4.485   5.483
  493SOL    HW1 2378   6.340   4.558   5.443
  493SOL    HW2 2379   6.345   4.398   5.476
  494SOL     OW 2380   0.179   6.845   0.002
  494SOL    HW1 2381   0.084   6.820   0.024
  494SOL    HW2 2382   0.180   6.928   6.965
  495SOL     OW 2383   4.700   4.608   1.995
  495SOL    HW1 2384   4.775   4.631   2.057
  495SOL    HW2 2385   4.708   4.512   1.967
  496SOL     OW 2386   5.282   3.447   2.995
  496SOL    HW1 2387   5.349   3.459   2.922
  496SOL    HW2 2388   5.269   3.349   3.011
  497SOL     OW 2389   3.446   1.306   4.688
  497SOL    HW1 2390   3.529   1.251   4.676
  497SOL    HW2 2391   3.367   1.245   4.694
  498SOL     OW 2392   0.165   2.970   2.327
  498SOL    HW1 2393   0.196   2.966   2.422
  498SOL    HW2 2394   0.241   3.000   2.268
  499SOL     OW 2395   3.804   0.241   5.051
  499SOL    HW1 2396   3.854   0.175   5.107
  499SOL    HW2 2397   3.710   0.249   5.086
  500SOL     OW 2398   0.611   3.461   2.692
  500SOL    HW1 2399   0.643   3.377   2.647
  500SOL    HW2 2400   0.644   3.463   2.786
  501SOL     OW 2401   1.918   3.269   6.519
  501SOL    HW1 2402   1.890   3.335   6.449
  501SOL    HW2 2403   1.843   3.206   6.538
  502SOL     OW 2404   4.595   4.714   6.720
  502SOL    HW1 2405   4.671   4.651   6.709
  502SOL    HW2 2406   4.624   4.793   6.775
  503SOL     OW 2407   6.039   4.720   5.692
  503SOL    HW1 2408   5.989   4.716   5.606
  503SOL    HW2 2409   5.995   4.661   5.759
  504SOL     OW 2410   2.430   6.296   4.432
  504SOL    HW1 2411   2.371   6.322   4.356
  504SOL    HW2 2412   2.476   6.377   4.468
  505SOL     OW 2413   4.749   0.304   5.912
  505SOL    HW1 2414   4.819   0.359   5.867
  505SOL    HW2 2415   4.693   0.361   5.971
  506SOL     OW 2416   1.808   4.178   5.307
  506SOL    HW1 2417   1.809   4.268   5.265
  506SOL    HW2 2418   1.728   4.127   5.276
  507SOL     OW 2419   3.325   6.927   4.819
  507SOL    HW1 2420   3.353   7.008   4.871
  507SOL    HW2 2421   3.261   6.954   4.748
  508SOL     OW 2422   6.537   3.822   3.079
  508SOL    HW1 2423   6.574   3.886   3.012
  508SOL    HW2 2424   6.478   3.756   3.033
  509SOL     OW 2425   4.751   1.293   1.694
  509SOL    HW1 2426   4.749   1.313   1.596
  509SOL    HW2 2427   4.679   1.345   1.740
  510SOL     OW 2428   6.601   4.544   5.294
  510SOL    HW1 2429   6.552   4.494   5.365
  510SOL    HW2 2430   6.596   4.642   5.312
  511SOL     OW 2431   0.484   6.598   0.311
  511SOL    HW1 2432   0.545   6.570   0.237
  511SOL    HW2 2433   0.525   6.570   0.399
  512SOL     OW 2434   1.590   3.560   0.003
  512SOL    HW1 2435   1.624   3.531   6.932
  512SOL    HW2 2436   1.491   3.576   7.016
  513SOL     OW 2437   6.298   5.816   3.785
  513SOL    HW1 2438   6.350   5.900   3.763
  513SOL    HW2 2439   6.354   5.736   3.764
  514SOL     OW 2440   6.249   2.014   4.063
  514SOL    HW1 2441   6.252   2.061   4.152
  514SOL    HW2 2442   6.334   1.964   4.049
  515SOL     OW 2443   2.152   6.932   5.704
  515SOL    HW1 2444   2.132   6.842   5.665
  515SOL    HW2 2445   2.069   6.969   5.746
  516SOL     OW 2446   2.103   4.688   1.346
  516SOL    HW1 2447   2.198   4.691   1.376
  516SOL    HW2 2448   2.044   4.709   1.424
  517SOL     OW 2449   4.634   0.020   1.832
  517SOL    HW1 2450   4.667   0.112   1.855
  517SOL    HW2 2451   4.695   6.970   1.872
  518SOL     OW 2452   2.431   2.314   1.319
  518SOL    HW1 2453   2.464   2.308   1.413
  518SOL    HW2 2454   2.362   2.244   1.302
  519SOL     OW 2455   0.503   0.443   6.012
  519SOL    HW1 2456   0.454   0.433   6.099
  519SOL    HW2 2457   0.570   0.370   6.003
  520SOL     OW 2458   5.503   5.231   6.141
  520SOL    HW1 2459   5.438   5.229   6.217
  520SOL    HW2 2460   5.495   5.145   6.089
  521SOL     OW 2461   0.024   1.923   6.466
  521SOL    HW1 2462   0.078   1.991   6.516
  521SOL    HW2 2463   0.080   1.883   6.394
  522SOL     OW 2464   4.028   3.293   4.952
  522SOL    HW1 2465   3.941   3.286   4.902
  522SOL    HW2 2466   4.016   3.261   5.046
  523SOL     OW 2467   6.554   0.006   3.963
  523SOL    HW1 2468   6.644   6.989   3.988
  523SOL    HW2 2469   6.484   6.981   4.021
  524SOL     OW 2470   2.962   1.081   6.551
  524SOL    HW1 2471   3.056   1.053   6.534
  524SOL    HW2 2472   2.900   1.005   6.529
  525SOL     OW 2473   2.765   3.893   6.753
  525SOL    HW1 2474   2.767   3.834   6.834
  525SOL    HW2 2475   2.846   3.953   6.754
  526SOL     OW 2476   3.190   5.293   4.450
  526SOL    HW1 2477   3.102   5.277   4.406
  526SOL    HW2 2478   3.263   5.294   4.381
  527SOL     OW 2479   7.008   1.474   6.428
  527SOL    HW1 2480   6.954   1.521   6.358
  527SOL    HW2 2481   0.013   1.537   6.502
  528SOL     OW 2482   2.110   1.652   5.202
  528SOL    HW1 2483   2.112   1.554   5.180
  528SOL    HW2 2484   2.112   1.705   5.118
  529SOL     OW 2485   1.051   5.070   4.504
  529SOL    HW1 2486   1.054   5.159   4.549
  529SOL    HW2 2487   1.138   5.023   4.516
  530SOL     OW 2488   2.464   3.256   5.394
  530SOL    HW1 2489   2.507   3.216   5.474
  530SOL    HW2 2490   2.446   3.184   5.326
  531SOL     OW 2491   0.801   0.543   1.253
  531SOL    HW1 2492   0.876   0.569   1.314
  531SOL    HW2 2493   0.815   0.449   1.222
  532SOL     OW 2494   1.044   1.327   5.633
  532SOL    HW1 2495   1.115   1.355   5.568
  532SOL    HW2 2496   0.962   1.299   5.583
  533SOL     OW 2497   5.393   6.394   4.903
  533SOL    HW1 2498   5.378   6.302   4.939
  533SOL    HW2 2499   5.477   6.395   4.850
  534SOL     OW 2500   4.473   5.270   2.939
  534SOL    HW1 2501   4.440   5.349   2.888
  534SOL    HW2 2502   4.396   5.224   2.983
  535SOL     OW 2503   0.488   4.248   3.623
  535SOL    HW1 2504   0.392   4.250   3.648
  535SOL    HW2 2505   0.531   4.166   3.660
  536SOL     OW 2506   1.442   5.472   1.386
  536SOL    HW1 2507   1.489   5.557   1.409
  536SOL    HW2 2508   1.489   5.395   1.428
  537SOL     OW 2509   2.091   0.172   2.380
  537SOL    HW1 2510   2.098   0.260   2.331
  537SOL    HW2 2511   2.181   0.147   2.415
  538SOL     OW 2512   0.935   5.908   3.229
  538SOL    HW1 2513   0.880   5.880   3.151
  538SOL    HW2 2514   0.997   5.982   3.202
  539SOL     OW 2515   1.591   5.196   2.127
  539SOL    HW1 2516   1.680   5.198   2.173
  539SOL    HW2 2517   1.544   5.110   2.148
  540SOL     OW 2518   1.276   2.341   2.113
  540SOL    HW1 2519   1.184   2.303   2.106
  540SOL    HW2 2520   1.319   2.340   2.023
  541SOL     OW 2521   3.236   6.329   5.420
  541SOL    HW1 2522   3.233   6.312   5.321
  541SOL    HW2 2523   3.143   6.332   5.456
  542SOL     OW 2524   5.800   5.571   6.951
  542SOL    HW1 2525   5.708   5.535   6.966
  542SOL    HW2 2526   5.853   5.561   0.017
  543SOL     OW 2527   0.992   4.757   6.892
  543SOL    HW1 2528   1.073   4.721   6.845
  543SOL    HW2 2529   1.019   4.798   6.979
  544SOL     OW 2530   0.690   5.189   0.813
  544SOL    HW1 2531   0.707   5.228   0.904
  544SOL    HW2 2532   0.775   5.150   0.778
  545SOL     OW 2533   3.824   1.359   2.888
  545SOL    HW1 2534   3.913   1.404   2.881
  545SOL    HW2 2535   3.777   1.390   2.971
  546SOL     OW 2536   1.211   3.345   1.126
  546SOL    HW1 2537   1.153   3.426   1.133
  546SOL    HW2 2538   1.164   3.266   1.167
  547SOL     OW 2539   2.510   3.202   0.247
  547SOL    HW1 2540   2.443   3.180   0.176
  547SOL    HW2 2541   2.493   3.294   0.281
  548SOL     OW 2542   3.936   3.013   4.244
  548SOL    HW1 2543   4.019   2.958   4.247
  548SOL    HW2 2544   3.889   2.998   4.157
  549SOL     OW 2545   5.461   3.726   1.350
  549SOL    HW1 2546   5.457   3.628   1.368
  549SOL    HW2 2547   5.540   3.746   1.291
  550SOL     OW 2548   6.453   2.850   2.547
  550SOL    HW1 2549   6.451   2.768   2.604
  550SOL    HW2 2550   6.360   2.887   2.539
  551SOL     OW 2551   6.212   2.002   0.753
  551SOL    HW1 2552   6.214   2.013   0.653
  551SOL    HW2 2553   6.128   1.955   0.780
  552SOL     OW 2554   3.570   5.521   0.864
  552SOL    HW1 2555   3.574   5.435   0.813
  552SOL    HW2 2556   3.657   5.569   0.856
  553SOL     OW 2557   2.373   1.045   1.350
  553SOL    HW1 2558   2.420   1.015   1.432
  553SOL    HW2 2559   2.355   1.143   1.355
  554SOL     OW 2560   5.927   6.314   5.252
  554SOL    HW1 2561   5.885   6.292   5.340
  554SOL    HW2 2562   5.974   6.233   5.217
  555SOL     OW 2563   1.435   4.539   4.421
  555SOL    HW1 2564   1.458   4.617   4.362
  555SOL    HW2 2565   1.479   4.456   4.386
  556SOL     OW 2566   5.750   2.601   3.863
  556SOL    HW1 2567   5.740   2.555   3.775
  556SOL    HW2 2568   5.819   2.672   3.856
  557SOL     OW 2569   7.010   6.268   6.251
  557SOL    HW1 2570   0.079   6.240   6.211
  557SOL    HW2 2571   6.951   6.303   6.178
  558SOL     OW 2572   4.060   3.758   5.097
  558SOL    HW1 2573   4.061   3.738   4.999
  558SOL    HW2 2574   3.999   3.835   5.115
  559SOL     OW 2575   0.181   6.281   6.617
  559SOL    HW1 2576   0.143   6.203   6.566
  559SOL    HW2 2577   0.204   6.354   6.553
  560SOL     OW 2578   4.513   0.123   0.473
  560SOL    HW1 2579   4.454   0.196   0.438
  560SOL    HW2 2580   4.496   0.111   0.571
  561SOL     OW 2581   5.972   6.957   0.621
  561SOL    HW1 2582   6.066   6.989   0.636
  561SOL    HW2 2583   5.948   6.969   0.525
  562SOL     OW 2584   5.140   1.273   5.551
  562SOL    HW1 2585   5.156   1.256   5.648
  562SOL    HW2 2586   5.224   1.256   5.500
  563SOL     OW 2587   3.310   6.468   4.113
  563SOL    HW1 2588   3.336   6.469   4.209
  563SOL    HW2 2589   3.250   6.546   4.093
  564SOL     OW 2590   6.812   1.144   6.677
  564SOL    HW1 2591   6.798   1.235   6.714
  564SOL    HW2 2592   6.724   1.098   6.664
  565SOL     OW 2593   4.779   3.999   5.604
  565SOL    HW1 2594   4.867   3.996   5.652
  565SOL    HW2 2595   4.755   4.094   5.583
  566SOL     OW 2596   4.812   4.557   2.935
  566SOL    HW1 2597   4.716   4.575   2.956
  566SOL    HW2 2598   4.832   4.589   2.842
  567SOL     OW 2599   3.173   3.441   4.704
  567SOL    HW1 2600   3.168   3.393   4.792
  567SOL    HW2 2601   3.088   3.491   4.688
  568SOL     OW 2602   2.189   2.071   0.331
  568SOL    HW1 2603   2.190   2.075   0.231
  568SOL    HW2 2604   2.275   2.106   0.368
  569SOL     OW 2605   2.034   3.050   1.287
  569SOL    HW1 2606   2.053   3.054   1.385
  569SOL    HW2 2607   1.937   3.071   1.271
  570SOL     OW 2608   0.607   6.334   0.744
  570SOL    HW1 2609   0.585   6.281   0.663
  570SOL    HW2 2610   0.610   6.273   0.824
  571SOL     OW 2611   4.082   5.394   2.640
  571SOL    HW1 2612   4.086   5.492   2.620
  571SOL    HW2 2613   4.096   5.342   2.556
  572SOL     OW 2614   1.212   4.098   4.936
  572SOL    HW1 2615   1.269   4.030   4.889
  572SOL    HW2 2616   1.116   4.078   4.920
  573SOL     OW 2617   3.663   1.854   5.533
  573SOL    HW1 2618   3.732   1.804   5.586
  573SOL    HW2 2619   3.572   1.832   5.569
  574SOL     OW 2620   2.033   2.068   4.381
  574SOL    HW1 2621   2.077   2.157   4.367
  574SOL    HW2 2622   1.945   2.081   4.426
  575SOL     OW 2623   5.931   2.576   0.263
  575SOL    HW1 2624   5.928   2.668   0.223
  575SOL    HW2 2625   5.928   2.582   0.362
  576SOL     OW 2626   1.221   1.418   2.205
  576SOL    HW1 2627   1.166   1.365   2.141
  576SOL    HW2 2628   1.167   1.439   2.286
  577SOL     OW 2629   3.046   1.890   3.332
  577SOL    HW1 2630   3.097   1.975   3.317
  577SOL    HW2 2631   2.998   1.895   3.420
  578SOL     OW 2632   0.542   3.597   3.808
  578SOL    HW1 2633   0.480   3.553   3.743
  578SOL    HW2 2634   0.625   3.541   3.817
  579SOL     OW 2635   4.358   2.509   0.082
  579SOL    HW1 2636   4.282   2.520   0.018
  579SOL    HW2 2637   4.341   2.563   0.164
  580SOL     OW 2638   1.323   5.536   6.309
  580SOL    HW1 2639   1.236   5.500   6.343
  580SOL    HW2 2640   1.398   5.498   6.363
  581SOL     OW 2641   4.041   3.219   2.648
  581SOL    HW1 2642   3.987   3.163   2.585
  581SOL    HW2 2643   4.039   3.176   2.739
  582SOL     OW 2644   5.285   3.524   2.346
  582SOL    HW1 2645   5.215   3.453   2.341
  582SOL    HW2 2646   5.375   3.483   2.331
  583SOL     OW 2647   2.210   4.452   0.153
  583SOL    HW1 2648   2.224   4.411   0.244
  583SOL    HW2 2649   2.294   4.445   0.100
  584SOL     OW 2650   7.005   4.950   4.986
  584SOL    HW1 2651   0.045   4.872   4.967
  584SOL    HW2 2652   6.912   4.931   4.954
  585SOL     OW 2653   0.075   1.651   6.600
  585SOL    HW1 2654   0.046   1.743   6.576
  585SOL    HW2 2655   0.042   1.628   6.691
  586SOL     OW 2656   2.452   6.697   0.336
  586SOL    HW1 2657   2.414   6.708   0.427
  586SOL    HW2 2658   2.447   6.601   0.309
  587SOL     OW 2659   1.185   3.584   5.350
  587SOL    HW1 2660   1.089   3.557   5.361
  587SOL    HW2 2661   1.207   3.656   5.416
  588SOL     OW 2662   3.258   6.529   1.523
  588SOL    HW1 2663   3.205   6.446   1.505
  588SOL    HW2 2664   3.293   6.526   1.617
  589SOL     OW 2665   3.720   5.290   2.574
  589SOL    HW1 2666   3.791   5.247   2.630
  589SOL    HW2 2667   3.708   5.239   2.489
  590SOL     OW 2668   0.114   1.586   1.895
  590SOL    HW1 2669   0.079   1.669   1.938
  590SOL    HW2 2670   0.110   1.595   1.796
  591SOL     OW 2671   3.549   6.826   3.129
  591SOL    HW1 2672   3.615   6.762   3.091
  591SOL    HW2 2673   3.533   6.806   3.225
  592SOL     OW 2674   4.898   0.908   0.449
  592SOL    HW1 2675   4.863   0.890   0.541
  592SOL    HW2 2676   4.828   0.885   0.381
  593SOL     OW 2677   4.954   2.503   3.837
  593SOL    HW1 2678   4.955   2.593   3.881
  593SOL    HW2 2679   5.018   2.503   3.761
  594SOL     OW 2680   4.108   3.208   1.572
  594SOL    HW1 2681   4.175   3.258   1.516
  594SOL    HW2 2682   4.059   3.143   1.515
  595SOL     OW 2683   3.783   6.035   3.424
  595SOL    HW1 2684   3.879   6.039   3.395
  595SOL    HW2 2685   3.742   6.125   3.413
  596SOL     OW 2686   1.409   4.190   3.058
  596SOL    HW1 2687   1.309   4.181   3.053
  596SOL    HW2 2688   1.433   4.257   3.128
  597SOL     OW 2689   4.103   1.438   5.487
  597SOL    HW1 2690   4.037   1.513   5.499
  597SOL    HW2 2691   4.105   1.412   5.391
  598SOL     OW 2692   3.800   4.640   1.287
  598SOL    HW1 2693   3.740   4.581   1.233
  598SOL    HW2 2694   3.888   4.595   1.301
  599SOL     OW 2695   5.963   6.752   2.609
  599SOL    HW1 2696   5.883   6.793   2.564
  599SOL    HW2 2697   6.016   6.824   2.654
  600SOL     OW 2698   2.185   6.827   0.284
  600SOL    HW1 2699   2.265   6.769   0.273
  600SOL    HW2 2700   2.154   6.858   0.194
  601SOL     OW 2701   3.266   5.547   4.154
  601SOL    HW1 2702   3.193   5.570   4.218
  601SOL    HW2 2703   3.259   5.451   4.130
  602SOL     OW 2704   2.361   0.528   1.356
  602SOL    HW1 2705   2.351   0.523   1.256
  602SOL    HW2 2706   2.272   0.514   1.399
  603SOL     OW 2707   4.343   1.938   3.129
  603SOL    HW1 2708   4.367   1.862   3.188
  603SOL    HW2 2709   4.298   2.009   3.183
  604SOL     OW 2710   0.629   4.151   6.346
  604SOL    HW1 2711   0.659   4.143   6.251
  604SOL    HW2 2712   0.698   4.108   6.406
  605SOL     OW 2713   5.869   0.403   4.383
  605SOL    HW1 2714   5.820   0.436   4.464
  605SOL    HW2 2715   5.938   0.471   4.356
  606SOL     OW 2716   3.234   0.122   3.667
  606SOL    HW1 2717   3.211   0.197   3.605
  606SOL    HW2 2718   3.329   0.094   3.654
  607SOL     OW 2719   5.393   0.680   4.496
  607SOL    HW1 2720   5.384   0.686   4.595
  607SOL    HW2 2721   5.308   0.708   4.452
  608SOL     OW 2722   3.951   1.394   1.323
  608SOL    HW1 2723   3.860   1.432   1.305
  608SOL    HW2 2724   4.010   1.466   1.360
  609SOL     OW 2725   3.612   3.701   4.423
  609SOL    HW1 2726   3.645   3.705   4.328
  609SOL    HW2 2727   3.587   3.793   4.453
  610SOL     OW 2728   5.015   2.466   4.441
  610SOL    HW1 2729   5.084   2.401   4.411
  610SOL    HW2 2730   5.025   2.551   4.389
  611SOL     OW 2731   0.670   6.809   0.320
  611SOL    HW1 2732   0.589   6.751   0.326
  611SOL    HW2 2733   0.645   6.904   0.341
  612SOL     OW 2734   3.112   5.583   5.819
  612SOL    HW1 2735   3.111   5.642   5.738
  612SOL    HW2 2736   3.164   5.500   5.799
  613SOL     OW 2737   3.138   1.887   6.978
  613SOL    HW1 2738   3.059   1.895   0.020
  613SOL    HW2 2739   3.109   1.850   6.890
  614SOL     OW 2740   5.065   4.720   1.189
  614SOL    HW1 2741   5.139   4.784   1.213
  614SOL    HW2 2742   5.048   4.725   1.091
  615SOL     OW 2743   6.792   6.872   0.856
  615SOL    HW1 2744   6.804   6.804   0.783
  615SOL    HW2 2745   6.877   6.924   0.867
  616SOL     OW 2746   5.919   1.597   4.419
  616SOL    HW1 2747   5.893   1.522   4.480
  616SOL    HW2 2748   5.863   1.677   4.440
  617SOL     OW 2749   0.472   5.003   5.666
  617SOL    HW1 2750   0.483   5.021   5.764
  617SOL    HW2 2751   0.488   4.906   5.648
  618SOL     OW 2752   6.795   3.528   0.395
  618SOL    HW1 2753   6.743   3.605   0.431
  618SOL    HW2 2754   6.888   3.529   0.433
  619SOL     OW 2755   2.347   0.095   6.913
  619SOL    HW1 2756   2.358   0.033   6.990
  619SOL    HW2 2757   2.426   0.156   6.908
  620SOL     OW 2758   6.628   1.349   2.810
  620SOL    HW1 2759   6.598   1.254   2.818
  620SOL    HW2 2760   6.630   1.375   2.713
  621SOL     OW 2761   3.577   0.913   6.592
  621SOL    HW1 2762   3.481   0.918   6.621
  621SOL    HW2 2763   3.591   0.832   6.536
  622SOL     OW 2764   0.967   1.757   5.150
  622SOL    HW1 2765   0.880   1.724   5.114
  622SOL    HW2 2766   0.980   1.722   5.243
  623SOL     OW 2767   6.081   6.891   4.618
  623SOL    HW1 2768   5.991   6.905   4.577
  623SOL    HW2 2769   6.151   6.930   4.558
  624SOL     OW 2770   6.166   1.118   6.252
  624SOL    HW1 2771   6.145   1.213   6.231
  624SOL    HW2 2772   6.110   1.088   6.329
  625SOL     OW 2773   2.488   1.506   0.494
  625SOL    HW1 2774   2.416   1.575   0.495
  625SOL    HW2 2775   2.471   1.441   0.420
  626SOL     OW 2776   0.340   4.962   3.710
  626SOL    HW1 2777   0.267   4.895   3.724
  626SOL    HW2 2778   0.423   4.916   3.679
  627SOL     OW 2779   6.566   0.294   6.895
  627SOL    HW1 2780   6.526   0.223   6.837
  627SOL    HW2 2781   6.626   0.352   6.841
  628SOL     OW 2782   4.809   4.747   5.831
  628SOL    HW1 2783   4.749   4.757   5.911
  628SOL    HW2 2784   4.788   4.819   5.765
  629SOL     OW 2785   0.402   6.778   6.186
  629SOL    HW1 2786   0.331   6.783   6.256
  629SOL    HW2 2787   0.489   6.753   6.228
  630SOL     OW 2788   6.715   0.919   1.177
  630SOL    HW1 2789   6.757   0.999   1.220
  630SOL    HW2 2790   6.646   0.880   1.238
  631SOL     OW 2791   2.102   2.827   4.516
  631SOL    HW1 2792   2.155   2.875   4.447
  631SOL    HW2 2793   2.161   2.810   4.596
  632SOL     OW 2794   3.534   3.694   6.759
  632SOL    HW1 2795   3.443   3.654   6.769
  632SOL    HW2 2796   3.602   3.622   6.756
  633SOL     OW 2797   1.761   5.906   1.547
  633SOL    HW1 2798   1.837   5.869   1.494
  633SOL    HW2 2799   1.783   5.999   1.576
  634SOL     OW 2800   3.140   3.076   3.943
  634SOL    HW1 2801   3.196   2.996   3.926
  634SOL    HW2 2802   3.194   3.159   3.931
  635SOL     OW 2803   5.568   1.022   6.667
  635SOL    HW1 2804   5.627   1.099   6.643
  635SOL    HW2 2805   5.477   1.056   6.689
  636SOL     OW 2806   2.828   0.837   6.504
  636SOL    HW1 2807   2.879   0.835   6.418
  636SOL    HW2 2808   2.748   0.777   6.497
  637SOL     OW 2809   6.422   1.270   2.371
  637SOL    HW1 2810   6.361   1.192   2.384
  637SOL    HW2 2811   6.482   1.253   2.293
  638SOL     OW 2812   6.288   3.653   4.142
  638SOL    HW1 2813   6.359   3.723   4.126
  638SOL    HW2 2814   6.198   3.695   4.132
  639SOL     OW 2815   5.177   4.715   2.459
  639SOL    HW1 2816   5.232   4.699   2.541
  639SOL    HW2 2817   5.087   4.672   2.470
  640SOL     OW 2818   0.785   2.197   1.703
  640SOL    HW1 2819   0.837   2.216   1.620
  640SOL    HW2 2820   0.715   2.267   1.716
  641SOL     OW 2821   2.343   5.137   4.355
  641SOL    HW1 2822   2.311   5.232   4.353
  641SOL    HW2 2823   2.426   5.128   4.299
  642SOL     OW 2824   0.600   3.738   4.755
  642SOL    HW1 2825   0.589   3.682   4.673
  642SOL    HW2 2826   0.594   3.679   4.836
  643SOL     OW 2827   4.939   5.082   7.005
  643SOL    HW1 2828   4.998   5.113   0.061
  643SOL    HW2 2829   4.948   4.983   6.995
  644SOL     OW 2830   6.969   6.368   4.796
  644SOL    HW1 2831   6.983   6.467   4.800
  644SOL    HW2 2832   0.039   6.322   4.802
  645SOL     OW 2833   3.976   5.236   1.992
  645SOL    HW1 2834   4.070   5.240   2.025
  645SOL    HW2 2835   3.918   5.193   2.061
  646SOL     OW 2836   3.979   1.402   5.205
  646SOL    HW1 2837   3.959   1.500   5.205
  646SOL    HW2 2838   3.910   1.355   5.260
  647SOL     OW 2839   4.540   2.735   5.891
  647SOL    HW1 2840   4.602   2.686   5.830
  647SOL    HW2 2841   4.446   2.707   5.872
  648SOL     OW 2842   5.721   1.388   3.345
  648SOL    HW1 2843   5.809   1.400   3.299
  648SOL    HW2 2844   5.710   1.291   3.371
  649SOL     OW 2845   2.330   5.854   0.584
  649SOL    HW1 2846   2.236   5.819   0.580
  649SOL    HW2 2847   2.393   5.781   0.557
  650SOL     OW 2848   0.142   4.539   0.823
  650SOL    HW1 2849   0.180   4.446   0.825
  650SOL    HW2 2850   0.079   4.551   0.900
  651SOL     OW 2851   1.552   0.271   4.822
  651SOL    HW1 2852   1.576   0.255   4.918
  651SOL    HW2 2853   1.600   0.205   4.764
  652SOL     OW 2854   3.951   6.174   2.093
  652SOL    HW1 2855   3.948   6.148   1.997
  652SOL    HW2 2856   3.912   6.265   2.104
  653SOL     OW 2857   0.878   6.878   1.992
  653SOL    HW1 2858   0.947   6.949   2.006
  653SOL    HW2 2859   0.788   6.912   2.019
  654SOL     OW 2860   0.231   6.750   4.968
  654SOL    HW1 2861   0.314   6.754   4.913
  654SOL    HW2 2862   0.255   6.726   5.063
  655SOL     OW 2863   6.737   4.043   2.443
  655SOL    HW1 2864   6.653   4.046   2.496
  655SOL    HW2 2865   6.749   3.952   2.404
  656SOL     OW 2866   3.809   6.112   0.301
  656SOL    HW1 2867   3.718   6.075   0.286
  656SOL    HW2 2868   3.805   6.212   0.300
  657SOL     OW 2869   3.797   3.388   1.906
  657SOL    HW1 2870   3.883   3.341   1.887
  657SOL    HW2 2871   3.796   3.477   1.859
  658SOL     OW 2872   1.812   2.879   4.468
  658SOL    HW1 2873   1.810   2.972   4.432
  658SOL    HW2 2874   1.906   2.852   4.486
  659SOL     OW 2875   2.418   6.073   6.070
  659SOL    HW1 2876   2.488   6.130   6.113
  659SOL    HW2 2877   2.431   5.977   6.097
  660SOL     OW 2878   5.541   4.539   2.514
  660SOL    HW1 2879   5.539   4.604   2.438
  660SOL    HW2 2880   5.481   4.571   2.587
  661SOL     OW 2881   4.352   4.643   4.384
  661SOL    HW1 2882   4.391   4.613   4.296
  661SOL    HW2 2883   4.252   4.647   4.376
  662SOL     OW 2884   4.927   3.476   0.307
  662SOL    HW1 2885   4.830   3.466   0.328
  662SOL    HW2 2886   4.976   3.393   0.335
  663SOL     OW 2887   0.616   4.270   0.603
  663SOL    HW1 2888   0.564   4.223   0.675
  663SOL    HW2 2889   0.553   4.315   0.540
  664SOL     OW 2890   1.882   6.795   6.871
  664SOL    HW1 2891   1.845   6.859   6.804
  664SOL    HW2 2892   1.981   6.786   6.858
  665SOL     OW 2893   4.163   5.162   1.276
  665SOL    HW1 2894   4.194   5.191   1.366
  665SOL    HW2 2895   4.239   5.118   1.227
  666SOL     OW 2896   3.026   1.602   0.308
  666SOL    HW1 2897   2.927   1.587   0.303
  666SOL    HW2 2898   3.063   1.551   0.385
  667SOL     OW 2899   1.013   2.936   3.066
  667SOL    HW1 2900   1.047   2.980   2.983
  667SOL    HW2 2901   1.002   2.838   3.049
  668SOL     OW 2902   5.485   0.045   0.124
  668SOL    HW1 2903   5.583   0.059   0.135
  668SOL    HW2 2904   5.445   0.016   0.211
  669SOL     OW 2905   1.601   5.875   3.115
  669SOL    HW1 2906   1.628   5.850   3.023
  669SOL    HW2 2907   1.612   5.797   3.176
  670SOL     OW 2908   3.393   2.910   3.443
  670SOL    HW1 2909   3.351   2.908   3.353
  670SOL    HW2 2910   3.323   2.898   3.513
  671SOL     OW 2911   1.896   0.005   5.885
  671SOL    HW1 2912   1.931   6.931   5.903
  671SOL    HW2 2913   1.878   0.051   5.972
  672SOL     OW 2914   2.520   2.598   3.833
  672SOL    HW1 2915   2.438   2.608   3.776
  672SOL    HW2 2916   2.497   2.616   3.929
  673SOL     OW 2917   5.704   0.124   1.327
  673SOL    HW1 2918   5.686   0.123   1.228
  673SOL    HW2 2919   5.702   0.031   1.362
  674SOL     OW 2920   0.459   1.830   3.438
  674SOL    HW1 2921   0.456   1.929   3.454
  674SOL    HW2 2922   0.398   1.807   3.362
  675SOL     OW 2923   6.126   2.892   5.018
  675SOL    HW1 2924   6.123   2.865   4.922
  675SOL    HW2 2925   6.129   2.992   5.025
  676SOL     OW 2926   2.060   4.429   4.267
  676SOL    HW1 2927   2.076   4.344   4.217
  676SOL    HW2 2928   2.139   4.449   4.326
  677SOL     OW 2929   6.295   7.000   0.615
  677SOL    HW1 2930   6.334   0.067   0.581
  677SOL    HW2 2931   6.305   6.997   0.714
  678SOL     OW 2932   2.363   1.642   6.600
  678SOL    HW1 2933   2.403   1.596   6.679
  678SOL    HW2 2934   2.270   1.671   6.621
  679SOL     OW 2935   5.165   6.967   2.991
  679SOL    HW1 2936   5.125   0.037   2.966
  679SOL    HW2 2937   5.120   6.894   2.940
  680SOL     OW 2938   4.915   4.290   5.126
  680SOL    HW1 2939   5.005   4.324   5.100
  680SOL    HW2 2940   4.867   4.259   5.044
  681SOL     OW 2941   0.793   6.785   1.733
  681SOL    HW1 2942   0.843   6.829   1.659
  681SOL    HW2 2943   0.820   6.825   1.821
  682SOL     OW 2944   2.139   5.948   0.922
  682SOL    HW1 2945   2.127   5.893   0.839
  682SOL    HW2 2946   2.085   5.909   0.996
  683SOL     OW 2947   5.479   1.324   0.561
  683SOL    HW1 2948   5.562   1.377   0.546
  683SOL    HW2 2949   5.404   1.385   0.586
  684SOL     OW 2950   0.192   5.858   6.073
  684SOL    HW1 2951   0.107   5.806   6.070
  684SOL    HW2 2952   0.269   5.795   6.085
  685SOL     OW 2953   5.887   0.326   5.427
  685SOL    HW1 2954   5.930   0.275   5.501
  685SOL    HW2 2955   5.899   0.424   5.442
  686SOL     OW 2956   5.272   4.896   2.906
  686SOL    HW1 2957   5.256   4.807   2.948
  686SOL    HW2 2958   5.322   4.883   2.820
  687SOL     OW 2959   6.428   3.487   5.785
  687SOL    HW1 2960   6.477   3.513   5.868
  687SOL    HW2 2961   6.494   3.480   5.709
  688SOL     OW 2962   0.038   4.187   5.651
  688SOL    HW1 2963   6.990   4.251   5.612
  688SOL    HW2 2964   7.015   4.096   5.658
  689SOL     OW 2965   5.810   3.622   5.855
  689SOL    HW1 2966   5.784   3.595   5.947
  689SOL    HW2 2967   5.860   3.709   5.859
  690SOL     OW 2968   1.466   1.802   3.348
  690SOL    HW1 2969   1.471   1.885   3.293
  690SOL    HW2 2970   1.526   1.732   3.309
  691SOL     OW 2971   0.764   2.987   6.432
  691SOL    HW1 2972   0.696   2.924   6.469
  691SOL    HW2 2973   0.760   2.986   6.332
  692SOL     OW 2974   1.940   0.427   3.162
  692SOL    HW1 2975   1.943   0.527   3.165
  692SOL    HW2 2976   2.028   0.389   3.189
  693SOL     OW 2977   6.993   1.836   1.877
  693SOL    HW1 2978   6.921   1.879   1.822
  693SOL    HW2 2979   6.968   1.839   1.973
  694SOL     OW 2980   1.697   0.449   1.335
  694SOL    HW1 2981   1.678   0.353   1.356
  694SOL    HW2 2982   1.793   0.470   1.354
  695SOL     OW 2983   4.266   6.439   5.714
  695SOL    HW1 2984   4.217   6.403   5.635
  695SOL    HW2 2985   4.245   6.385   5.795
  696SOL     OW 2986   4.352   5.527   2.342
  696SOL    HW1 2987   4.406   5.600   2.300
  696SOL    HW2 2988   4.255   5.540   2.320
  697SOL     OW 2989   1.178   4.325   3.495
  697SOL    HW1 2990   1.269   4.290   3.473
  697SOL    HW2 2991   1.180   4.425   3.496
  698SOL     OW 2992   4.498   0.061   3.556
  698SOL    HW1 2993   4.576   0.119   3.580
  698SOL    HW2 2994   4.443   0.044   3.637
  699SOL     OW 2995   1.776   4.227   1.038
  699SOL    HW1 2996   1.846   4.260   1.102
  699SOL    HW2 2997   1.779   4.282   0.954
  700SOL     OW 2998   2.153   1.636   4.497
  700SOL    HW1 2999   2.208   1.719   4.490
  700SOL    HW2 3000   2.187   1.579   4.572
  701SOL     OW 3001   0.230   4.411   6.075
  701SOL    HW1 3002   0.193   4.337   6.020
  701SOL    HW2 3003   0.277   4.373   6.155
  702SOL     OW 3004   5.352   5.951   4.518
  702SOL    HW1 3005   5.398   5.987   4.437
  702SOL    HW2 3006   5.312   5.862   4.496
  703SOL     OW 3007   3.738   3.786   6.554
  703SOL    HW1 3008   3.767   3.692   6.567
  703SOL    HW2 3009   3.648   3.799   6.597
  704SOL     OW 3010   2.150   6.943   0.037
  704SOL    HW1 3011   2.067   6.993   0.010
  704SOL    HW2 3012   2.168   6.870   6.989
  705SOL     OW 3013   6.092   2.216   2.325
  705SOL    HW1 3014   6.097   2.116   2.337
  705SOL    HW2 3015   6.046   2.236   2.238
  706SOL     OW 3016   3.487   1.820   3.535
  706SOL    HW1 3017   3.514   1.744   3.594
  706SOL    HW2 3018   3.425   1.786   3.464
  707SOL     OW 3019   5.285   0.951   1.516
  707SOL    HW1 3020   5.367   0.966   1.460
  707SOL    HW2 3021   5.280   1.023   1.585
  708SOL     OW 3022   4.275   0.847   1.853
  708SOL    HW1 3023   4.191   0.823   1.902
  708SOL    HW2 3024   4.286   0.787   1.774
  709SOL     OW 3025   0.930   4.930   0.393
  709SOL    HW1 3026   0.861   4.906   0.461
  709SOL    HW2 3027   0.923   5.028   0.372
  710SOL     OW 3028   2.986   3.850   2.700
  710SOL    HW1 3029   3.080   3.860   2.666
  710SOL    HW2 3030   2.956   3.936   2.740
  711SOL     OW 3031   0.416   0.732   4.276
  711SOL    HW1 3032   0.410   0.803   4.207
  711SOL    HW2 3033   0.473   0.763   4.352
  712SOL     OW 3034   1.547   3.863   1.586
  712SOL    HW1 3035   1.599   3.907   1.659
  712SOL    HW2 3036   1.563   3.764   1.588
  713SOL     OW 3037   3.818   2.989   2.733
  713SOL    HW1 3038   3.755   2.931   2.784
  713SOL    HW2 3039   3.807   2.973   2.635
  714SOL     OW 3040   4.684   5.139   4.932
  714SOL    HW1 3041   4.671   5.041   4.915
  714SOL    HW2 3042   4.693   5.187   4.845
  715SOL     OW 3043   4.495   6.783   6.189
  715SOL    HW1 3044   4.557   6.706   6.175
  715SOL    HW2 3045   4.414   6.753   6.238
  716SOL     OW 3046   0.141   4.686   1.414
  716SOL    HW1 3047   0.102   4.700   1.323
  716SOL    HW2 3048   0.101   4.604   1.455
  717SOL     OW 3049   6.539   2.365   0.656
  717SOL    HW1 3050   6.491   2.453   0.660
  717SOL    HW2 3051   6.484   2.295   0.702
  718SOL     OW 3052   3.871   3.818   6.170
  718SOL    HW1 3053   3.929   3.800   6.250
  718SOL    HW2 3054   3.918   3.786   6.087
  719SOL     OW 3055   5.626   4.089   0.973
  719SOL    HW1 3056   5.616   4.103   1.072
  719SOL    HW2 3057   5.662   3.997   0.955
  720SOL     OW 3058   2.548   1.575   6.393
  720SOL    HW1 3059   2.524   1.490   6.347
  720SOL    HW2 3060   2.470   1.608   6.445
  721SOL     OW 3061   1.401   0.257   5.804
  721SOL    HW1 3062   1.306   0.266   5.774
  721SOL    HW2 3063   1.433   0.164   5.788
  722SOL     OW 3064   3.798   0.118   4.801
  722SOL    HW1 3065   3.878   0.069   4.766
  722SOL    HW2 3066   3.812   0.138   4.898
  723SOL     OW 3067   0.994   2.787   2.009
  723SOL    HW1 3068   1.023   2.848   2.083
  723SOL    HW2 3069   1.057   2.709   2.005
  724SOL     OW 3070   0.065   0.903   5.027
  724SOL    HW1 3071   0.076   0.994   5.067
  724SOL    HW2 3072   0.149   0.851   5.040
  725SOL     OW 3073   1.896   4.957   1.930
  725SOL    HW1 3074   1.973   5.011   1.964
  725SOL    HW2 3075   1.920   4.917   1.842
  726SOL     OW 3076   4.194   6.898   6.308
  726SOL    HW1 3077   4.098   6.869   6.309
  726SOL    HW2 3078   4.227   6.903   6.214
  727SOL     OW 3079   2.964   4.926   4.199
  727SOL    HW1 3080   2.951   4.875   4.115
  727SOL    HW2 3081   3.029   5.001   4.184
  728SOL     OW 3082   6.903   4.039   5.176
  728SOL    HW1 3083   6.927   4.127   5.136
  728SOL    HW2 3084   6.877   3.975   5.103
  729SOL     OW 3085   2.426   0.118   1.792
  729SOL    HW1 3086   2.500   0.140   1.729
  729SOL    HW2 3087   2.446   0.155   1.883
  730SOL     OW 3088   5.752   0.558   3.773
  730SOL    HW1 3089   5.754   0.481   3.708
  730SOL    HW2 3090   5.845   0.576   3.806
  731SOL     OW 3091   5.503   3.700   3.984
  731SOL    HW1 3092   5.536   3.655   4.066
  731SOL    HW2 3093   5.565   3.680   3.908
  732SOL     OW 3094   6.250   2.877   1.076
  732SOL    HW1 3095   6.163   2.843   1.040
  732SOL    HW2 3096   6.299   2.926   1.004
  733SOL     OW 3097   4.841   4.440   3.768
  733SOL    HW1 3098   4.748   4.476   3.778
  733SOL    HW2 3099   4.868   4.445   3.672
  734SOL     OW 3100   6.430   4.570   1.006
  734SOL    HW1 3101   6.469   4.509   1.075
  734SOL    HW2 3102   6.335   4.545   0.990
  735SOL     OW 3103   1.765   4.403   6.457
  735SOL    HW1 3104   1.682   4.347   6.449
  735SOL    HW2 3105   1.793   4.407   6.552
  736SOL     OW 3106   6.298   0.932   3.522
  736SOL    HW1 3107   6.378   0.990   3.539
  736SOL    HW2 3108   6.220   0.989   3.498
  737SOL     OW 3109   5.318   3.394   0.676
  737SOL    HW1 3110   5.269   3.481   0.685
  737SOL    HW2 3111   5.322   3.349   0.764
  738SOL     OW 3112   0.720   3.981   4.036
  738SOL    HW1 3113   0.659   3.928   4.094
  738SOL    HW2 3114   0.678   3.993   3.946
  739SOL     OW 3115   4.241   6.102   6.367
  739SOL    HW1 3116   4.245   6.202   6.361
  739SOL    HW2 3117   4.175   6.067   6.301
  740SOL     OW 3118   6.545   6.582   1.787
  740SOL    HW1 3119   6.501   6.542   1.707
  740SOL    HW2 3120   6.644   6.588   1.772
  741SOL     OW 3121   1.858   0.243   2.578
  741SOL    HW1 3122   1.912   0.202   2.504
  741SOL    HW2 3123   1.761   0.236   2.555
  742SOL     OW 3124   1.027   0.060   3.272
  742SOL    HW1 3125   1.010   6.980   3.267
  742SOL    HW2 3126   1.094   0.079   3.343
  743SOL     OW 3127   2.125   3.831   4.305
  743SOL    HW1 3128   2.132   3.771   4.225
  743SOL    HW2 3129   2.178   3.914   4.290
  744SOL     OW 3130   0.038   5.335   0.733
  744SOL    HW1 3131   7.006   5.421   0.738
  744SOL    HW2 3132   0.103   5.330   0.809
  745SOL     OW 3133   1.502   5.769   2.688
  745SOL    HW1 3134   1.511   5.797   2.592
  745SOL    HW2 3135   1.416   5.805   2.725
  746SOL     OW 3136   1.688   0.825   5.263
  746SOL    HW1 3137   1.716   0.809   5.358
  746SOL    HW2 3138   1.748   0.895   5.222
  747SOL     OW 3139   5.032   4.794   3.261
  747SOL    HW1 3140   5.027   4.865   3.190
  747SOL    HW2 3141   5.019   4.836   3.351
  748SOL     OW 3142   5.003   3.524   1.336
  748SOL    HW1 3143   5.068   3.576   1.391
  748SOL    HW2 3144   5.046   3.438   1.307
  749SOL     OW 3145   6.894   1.855   5.354
  749SOL    HW1 3146   6.822   1.830   5.289
  749SOL    HW2 3147   6.976   1.882   5.303
  750SOL     OW 3148   2.283   4.339   0.388
  750SOL    HW1 3149   2.224   4.259   0.394
  750SOL    HW2 3150   2.369   4.321   0.435
  751SOL     OW 3151   4.198   0.941   0.183
  751SOL    HW1 3152   4.159   1.022   0.139
  751SOL    HW2 3153   4.152   0.859   0.147
  752SOL     OW 3154   4.815   2.169   1.666
  752SOL    HW1 3155   4.718   2.147   1.658
  752SOL    HW2 3156   4.828   2.240   1.736
  753SOL     OW 3157   2.009   2.839   4.181
  753SOL    HW1 3158   2.094   2.847   4.233
  753SOL    HW2 3159   1.947   2.913   4.207
  754SOL     OW 3160   3.933   5.616   6.930
  754SOL    HW1 3161   3.907   5.677   6.855
  754SOL    HW2 3162   3.990   5.542   6.895
  755SOL     OW 3163   0.298   6.359   0.561
  755SOL    HW1 3164   0.295   6.397   0.468
  755SOL    HW2 3165   0.361   6.282   0.563
  756SOL     OW 3166   5.012   0.559   2.743
  756SOL    HW1 3167   5.061   0.618   2.679
  756SOL    HW2 3168   4.932   0.607   2.779
  757SOL     OW 3169   0.293   0.140   3.750
  757SOL    HW1 3170   0.318   0.080   3.827
  757SOL    HW2 3171   0.233   0.213   3.783
  758SOL     OW 3172   3.914   1.972   0.989
  758SOL    HW1 3173   3.891   1.876   1.004
  758SOL    HW2 3174   3.846   2.013   0.928
  759SOL     OW 3175   1.458   1.549   0.048
  759SOL    HW1 3176   1.363   1.568   0.070
  759SOL    HW2 3177   1.514   1.558   0.130
  760SOL     OW 3178   4.895   1.268   6.179
  760SOL    HW1 3179   4.886   1.245   6.082
  760SOL    HW2 3180   4.989   1.299   6.197
  761SOL     OW 3181   5.876   2.489   6.931
  761SOL    HW1 3182   5.883   2.409   6.990
  761SOL    HW2 3183   5.965   2.510   6.891
  762SOL     OW 3184   2.248   6.768   4.163
  762SOL    HW1 3185   2.153   6.757   4.133
  762SOL    HW2 3186   2.310   6.741   4.089
  763SOL     OW 3187   4.243   5.778   6.815
  763SOL    HW1 3188   4.342   5.771   6.810
  763SOL    HW2 3189   4.202   5.704   6.761
  764SOL     OW 3190   4.097   1.472   2.020
  764SOL    HW1 3191   4.071   1.562   2.054
  764SOL    HW2 3192   4.021   1.408   2.035
  765SOL     OW 3193   6.860   0.051   3.046
  765SOL    HW1 3194   6.905   0.096   3.123
  765SOL    HW2 3195   6.791   0.113   3.008
  766SOL     OW 3196   0.252   6.469   0.318
  766SOL    HW1 3197   0.220   6.457   0.224
  766SOL    HW2 3198   0.343   6.511   0.317
  767SOL     OW 3199   6.196   6.636   2.947
  767SOL    HW1 3200   6.138   6.556   2.964
  767SOL    HW2 3201   6.231   6.633   2.854
  768SOL     OW 3202   2.635   6.402   3.163
  768SOL    HW1 3203   2.669   6.400   3.069
  768SOL    HW2 3204   2.549   6.453   3.166
  769SOL     OW 3205   4.228   0.798   5.389
  769SOL    HW1 3206   4.160   0.778   5.459
  769SOL    HW2 3207   4.264   0.712   5.352
  770SOL     OW 3208   2.985   4.869   3.927
  770SOL    HW1 3209   3.063   4.929   3.947
  770SOL    HW2 3210   2.976   4.859   3.828
  771SOL     OW 3211   0.872   5.145   3.133
  771SOL    HW1 3212   0.797   5.207   3.116
  771SOL    HW2 3213   0.850   5.054   3.097
  772SOL     OW 3214   0.059   3.724   6.223
  772SOL    HW1 3215   0.121   3.768   6.287
  772SOL    HW2 3216   0.088   3.630   6.206
  773SOL     OW 3217   7.000   3.646   2.497
  773SOL    HW1 3218   0.069   3.689   2.519
  773SOL    HW2 3219   7.009   3.547   2.506
  774SOL     OW 3220   1.461   1.014   1.075
  774SOL    HW1 3221   1.415   0.955   1.142
  774SOL    HW2 3222   1.552   1.038   1.110
  775SOL     OW 3223   1.500   2.376   4.513
  775SOL    HW1 3224   1.492   2.278   4.494
  775SOL    HW2 3225   1.497   2.391   4.612
  776SOL     OW 3226   2.559   0.394   6.120
  776SOL    HW1 3227   2.612   0.454   6.179
  776SOL    HW2 3228   2.496   0.449   6.065
  777SOL     OW 3229   4.100   1.618   1.129
  777SOL    HW1 3230   4.129   1.534   1.175
  777SOL    HW2 3231   4.129   1.615   1.033
  778SOL     OW 3232   4.264   6.461   3.863
  778SOL    HW1 3233   4.225   6.403   3.935
  778SOL    HW2 3234   4.346   6.417   3.826
  779SOL     OW 3235   0.950   2.157   1.901
  779SOL    HW1 3236   0.894   2.188   1.823
  779SOL    HW2 3237   1.013   2.086   1.871
  780SOL     OW 3238   6.096   3.457   4.770
  780SOL    HW1 3239   6.050   3.369   4.780
  780SOL    HW2 3240   6.084   3.511   4.854
  781SOL     OW 3241   6.755   0.832   6.512
  781SOL    HW1 3242   6.768   0.736   6.487
  781SOL    HW2 3243   6.774   0.890   6.433
  782SOL     OW 3244   6.630   2.770   0.817
  782SOL    HW1 3245   6.550   2.723   0.779
  782SOL    HW2 3246   6.678   2.818   0.744
  783SOL     OW 3247   2.466   5.054   0.397
  783SOL    HW1 3248   2.562   5.080   0.385
  783SOL    HW2 3249   2.458   4.992   0.474
  784SOL     OW 3250   4.397   0.950   4.961
  784SOL    HW1 3251   4.355   0.995   5.041
  784SOL    HW2 3252   4.416   0.855   4.983
  785SOL     OW 3253   6.259   2.188   3.394
  785SOL    HW1 3254   6.323   2.262   3.413
  785SOL    HW2 3255   6.306   2.100   3.407
  786SOL     OW 3256   0.031   6.676   0.298
  786SOL    HW1 3257   0.084   6.614   0.240
  786SOL    HW2 3258   0.091   6.715   0.369
  787SOL     OW 3259   2.796   1.982   6.110
  787SOL    HW1 3260   2.819   2.070   6.152
  787SOL    HW2 3261   2.741   1.928   6.173
  788SOL     OW 3262   1.440   3.393   3.988
  788SOL    HW1 3263   1.537   3.413   3.975
  788SOL    HW2 3264   1.400   3.366   3.900
  789SOL     OW 3265   5.394   4.196   1.719
  789SOL    HW1 3266   5.415   4.292   1.707
  789SOL    HW2 3267   5.296   4.181   1.704
  790SOL     OW 3268   3.110   1.304   3.371
  790SOL    HW1 3269   3.047   1.317   3.447
  790SOL    HW2 3270   3.186   1.245   3.400
  791SOL     OW 3271   3.062   1.322   4.411
  791SOL    HW1 3272   3.067   1.327   4.510
  791SOL    HW2 3273   3.117   1.395   4.370
  792SOL     OW 3274   5.650   0.393   3.316
  792SOL    HW1 3275   5.589   0.389   3.237
  792SOL    HW2 3276   5.745   0.388   3.286
  793SOL     OW 3277   5.193   0.467   0.306
  793SOL    HW1 3278   5.235   0.414   0.232
  793SOL    HW2 3279   5.093   0.457   0.302
  794SOL     OW 3280   2.194   5.291   5.920
  794SOL    HW1 3281   2.241   5.253   5.999
  794SOL    HW2 3282   2.260   5.340   5.863
  795SOL     OW 3283   4.481   4.229   6.312
  795SOL    HW1 3284   4.427   4.293   6.366
  795SOL    HW2 3285   4.552   4.278   6.262
  796SOL     OW 3286   0.293   2.312   0.008
  796SOL    HW1 3287   0.243   2.383   6.976
  796SOL    HW2 3288   0.328   2.244   6.961
  797SOL     OW 3289   6.047   2.867   4.123
  797SOL    HW1 3290   6.033   2.964   4.143
  797SOL    HW2 3291   6.114   2.829   4.187
  798SOL     OW 3292   5.203   1.225   6.368
  798SOL    HW1 3293   5.215   1.266   6.458
  798SOL    HW2 3294   5.292   1.218   6.322
  799SOL     OW 3295   6.792   2.205   2.957
  799SOL    HW1 3296   6.781   2.282   3.021
  799SOL    HW2 3297   6.706   2.191   2.907
  800SOL     OW 3298   6.219   1.027   2.433
  800SOL    HW1 3299   6.161   1.066   2.504
  800SOL    HW2 3300   6.292   0.973   2.476
  801SOL     OW 3301   0.011   2.213   2.797
  801SOL    HW1 3302   6.940   2.238   2.834
  801SOL    HW2 3303   0.083   2.257   2.851
  802SOL     OW 3304   5.650   1.034   0.546
  802SOL    HW1 3305   5.709   1.102   0.502
  802SOL    HW2 3306   5.556   1.045   0.512
  803SOL     OW 3307   6.439   5.939   4.479
  803SOL    HW1 3308   6.495   5.927   4.561
  803SOL    HW2 3309   6.497   5.962   4.401
  804SOL     OW 3310   0.808   6.844   6.755
  804SOL    HW1 3311   0.717   6.823   6.789
  804SOL    HW2 3312   0.806   6.851   6.656
  805SOL     OW 3313   2.812   2.956   6.106
  805SOL    HW1 3314   2.903   2.980   6.072
  805SOL    HW2 3315   2.766   3.038   6.141
  806SOL     OW 3316   5.137   1.097   0.696
  806SOL    HW1 3317   5.100   1.129   0.609
  806SOL    HW2 3318   5.092   1.144   0.771
  807SOL     OW 3319   1.294   0.132   3.532
  807SOL    HW1 3320   1.271   0.143   3.628
  807SOL    HW2 3321   1.361   0.202   3.506
  808SOL     OW 3322   5.378   3.238   5.684
  808SOL    HW1 3323   5.286   3.249   5.721
  808SOL    HW2 3324   5.372   3.212   5.588
  809SOL     OW 3325   0.383   4.255   6.472
  809SOL    HW1 3326   0.461   4.210   6.430
  809SOL    HW2 3327   0.300   4.201   6.456
  810SOL     OW 3328   5.508   3.638   0.042
  810SOL    HW1 3329   5.561   3.686   6.990
  810SOL    HW2 3330   5.494   3.543   0.013
  811SOL     OW 3331   5.269   4.743   3.671
  811SOL    HW1 3332   5.300   4.796   3.592
  811SOL    HW2 3333   5.293   4.792   3.755
  812SOL     OW 3334   0.211   0.172   1.342
  812SOL    HW1 3335   0.184   0.225   1.262
  812SOL    HW2 3336   0.129   0.150   1.396
  813SOL     OW 3337   5.167   5.156   2.333
  813SOL    HW1 3338   5.195   5.179   2.240
  813SOL    HW2 3339   5.140   5.239   2.382
  814SOL     OW 3340   6.073   6.007   2.119
  814SOL    HW1 3341   6.125   6.037   2.039
  814SOL    HW2 3342   6.088   6.071   2.194
  815SOL     OW 3343   6.452   1.967   1.161
  815SOL    HW1 3344   6.538   1.948   1.113
  815SOL    HW2 3345   6.388   1.892   1.145
  816SOL     OW 3346   6.744   6.139   1.121
  816SOL    HW1 3347   6.661   6.193   1.137
  816SOL    HW2 3348   6.773   6.096   1.207
  817SOL     OW 3349   1.790   3.125   2.267
  817SOL    HW1 3350   1.888   3.126   2.251
  817SOL    HW2 3351   1.766   3.045   2.322
  818SOL     OW 3352   6.133   1.181   0.639
  818SOL    HW1 3353   6.148   1.104   0.578
  818SOL    HW2 3354   6.060   1.159   0.704
  819SOL     OW 3355   0.004   3.088   4.037
  819SOL    HW1 3356   0.008   3.179   4.080
  819SOL    HW2 3357   0.096   3.050   4.033
  820SOL     OW 3358   1.143   3.110   4.920
  820SOL    HW1 3359   1.153   3.188   4.858
  820SOL    HW2 3360   1.230   3.060   4.924
  821SOL     OW 3361   1.518   3.313   6.726
  821SOL    HW1 3362   1.526   3.270   6.636
  821SOL    HW2 3363   1.421   3.322   6.749
  822SOL     OW 3364   1.304   3.622   4.820
  822SOL    HW1 3365   1.299   3.722   4.822
  822SOL    HW2 3366   1.384   3.594   4.767
  823SOL     OW 3367   4.082   4.568   0.116
  823SOL    HW1 3368   4.123   4.503   0.180
  823SOL    HW2 3369   4.021   4.630   0.166
  824SOL     OW 3370   5.229   2.683   5.134
  824SOL    HW1 3371   5.230   2.776   5.171
  824SOL    HW2 3372   5.248   2.617   5.208
  825SOL     OW 3373   2.163   3.935   2.591
  825SOL    HW1 3374   2.123   4.010   2.643
  825SOL    HW2 3375   2.188   3.967   2.499
  826SOL     OW 3376   6.501   3.644   6.718
  826SOL    HW1 3377   6.466   3.584   6.646
  826SOL    HW2 3378   6.425   3.697   6.757
  827SOL     OW 3379   3.611   5.757   0.171
  827SOL    HW1 3380   3.612   5.705   0.086
  827SOL    HW2 3381   3.596   5.854   0.150
  828SOL     OW 3382   5.634   0.400   5.976
  828SOL    HW1 3383   5.733   0.390   5.970
  828SOL    HW2 3384   5.612   0.492   6.009
  829SOL     OW 3385   3.040   3.248   4.542
  829SOL    HW1 3386   2.986   3.221   4.622
  829SOL    HW2 3387   3.118   3.303   4.571
  830SOL     OW 3388   4.560   4.178   5.336
  830SOL    HW1 3389   4.586   4.195   5.431
  830SOL    HW2 3390   4.531   4.264   5.294
  831SOL     OW 3391   7.008   1.223   5.773
  831SOL    HW1 3392   6.940   1.196   5.705
  831SOL    HW2 3393   6.966   1.285   5.839
  832SOL     OW 3394   2.455   1.904   6.511
  832SOL    HW1 3395   2.421   1.963   6.584
  832SOL    HW2 3396   2.436   1.808   6.534
  833SOL     OW 3397   6.505   6.573   6.094
  833SOL    HW1 3398   6.455   6.637   6.036
  833SOL    HW2 3399   6.583   6.619   6.135
  834SOL     OW 3400   2.923   3.589   4.186
  834SOL    HW1 3401   2.965   3.679   4.172
  834SOL    HW2 3402   2.957   3.549   4.271
  835SOL     OW 3403   3.627   6.909   3.598
  835SOL    HW1 3404   3.540   6.890   3.551
  835SOL    HW2 3405   3.701   6.864   3.549
  836SOL     OW 3406   2.899   0.950   0.355
  836SOL    HW1 3407   2.925   0.990   0.267
  836SOL    HW2 3408   2.967   0.974   0.424
  837SOL     OW 3409   4.920   1.453   5.884
  837SOL    HW1 3410   4.951   1.478   5.793
  837SOL    HW2 3411   4.924   1.354   5.896
  838SOL     OW 3412   2.050   5.503   3.719
  838SOL    HW1 3413   1.971   5.448   3.691
  838SOL    HW2 3414   2.047   5.591   3.672
  839SOL     OW 3415   3.144   1.966   2.853
  839SOL    HW1 3416   3.224   2.018   2.882
  839SOL    HW2 3417   3.168   1.869   2.843
  840SOL     OW 3418   0.685   1.345   0.099
  840SOL    HW1 3419   0.641   1.344   0.010
  840SOL    HW2 3420   0.692   1.251   0.133
  841SOL     OW 3421   0.496   3.605   7.004
  841SOL    HW1 3422   0.417   3.591   6.943
  841SOL    HW2 3423   0.579   3.574   6.958
  842SOL     OW 3424   3.948   4.887   2.680
  842SOL    HW1 3425   3.879   4.866   2.750
  842SOL    HW2 3426   4.035   4.909   2.725
  843SOL     OW 3427   6.681   1.730   2.025
  843SOL    HW1 3428   6.687   1.818   1.979
  843SOL    HW2 3429   6.586   1.697   2.024
  844SOL     OW 3430   4.828   5.893   0.856
  844SOL    HW1 3431   4.851   5.823   0.787
  844SOL    HW2 3432   4.902   5.898   0.923
  845SOL     OW 3433   0.458   4.623   5.207
  845SOL    HW1 3434   0.512   4.565   5.147
  845SOL    HW2 3435   0.437   4.709   5.160
  846SOL     OW 3436   6.546   1.516   6.515
  846SOL    HW1 3437   6.600   1.570   6.579
  846SOL    HW2 3438   6.584   1.523   6.423
  847SOL     OW 3439   4.887   3.523   2.179
  847SOL    HW1 3440   4.900   3.621   2.163
  847SOL    HW2 3441   4.929   3.472   2.104
  848SOL     OW 3442   5.864   0.817   6.268
  848SOL    HW1 3443   5.869   0.726   6.226
  848SOL    HW2 3444   5.843   0.807   6.365
  849SOL     OW 3445   0.399   5.182   4.377
  849SOL    HW1 3446   0.445   5.262   4.338
  849SOL    HW2 3447   0.465   5.127   4.427
  850SOL     OW 3448   3.999   0.719   2.789
  850SOL    HW1 3449   4.004   0.698   2.692
  850SOL    HW2 3450   3.945   0.802   2.803
  851SOL     OW 3451   1.421   0.626   0.209
  851SOL    HW1 3452   1.358   0.566   0.159
  851SOL    HW2 3453   1.435   0.590   0.301
  852SOL     OW 3454   1.956   3.596   6.560
  852SOL    HW1 3455   1.884   3.657   6.595
  852SOL    HW2 3456   1.931   3.563   6.469
  853SOL     OW 3457   0.683   3.624   1.353
  853SOL    HW1 3458   0.613   3.686   1.391
  853SOL    HW2 3459   0.717   3.663   1.267
  854SOL     OW 3460   5.236   5.695   2.086
  854SOL    HW1 3461   5.326   5.654   2.100
  854SOL    HW2 3462   5.243   5.770   2.021
  855SOL     OW 3463   5.025   6.725   1.874
  855SOL    HW1 3464   5.033   6.708   1.775
  855SOL    HW2 3465   5.117   6.736   1.913
  856SOL     OW 3466   2.388   6.583   5.035
  856SOL    HW1 3467   2.310   6.582   4.972
  856SOL    HW2 3468   2.376   6.512   5.104
  857SOL     OW 3469   6.050   2.982   1.817
  857SOL    HW1 3470   6.074   3.075   1.788
  857SOL    HW2 3471   5.984   2.943   1.752
  858SOL     OW 3472   3.198   4.652   1.302
  858SOL    HW1 3473   3.131   4.583   1.331
  858SOL    HW2 3474   3.290   4.613   1.310
  859SOL     OW 3475   6.572   4.789   0.201
  859SOL    HW1 3476   6.664   4.805   0.236
  859SOL    HW2 3477   6.537   4.873   0.160
  860SOL     OW 3478   2.376   5.003   1.139
  860SOL    HW1 3479   2.436   4.935   1.097
  860SOL    HW2 3480   2.291   4.958   1.169
  861SOL     OW 3481   3.421   5.663   5.814
  861SOL    HW1 3482   3.388   5.572   5.788
  861SOL    HW2 3483   3.412   5.725   5.736
  862SOL     OW 3484   4.656   4.383   4.294
  862SOL    HW1 3485   4.671   4.349   4.386
  862SOL    HW2 3486   4.734   4.360   4.236
  863SOL     OW 3487   5.858   1.302   1.231
  863SOL    HW1 3488   5.926   1.236   1.200
  863SOL    HW2 3489   5.882   1.335   1.322
  864SOL     OW 3490   6.378   4.097   2.875
  864SOL    HW1 3491   6.325   4.045   2.942
  864SOL    HW2 3492   6.335   4.187   2.862
  865SOL     OW 3493   1.973   6.354   4.363
  865SOL    HW1 3494   2.032   6.423   4.404
  865SOL    HW2 3495   1.913   6.397   4.296
  866SOL     OW 3496   3.107   1.929   1.918
  866SOL    HW1 3497   3.205   1.908   1.926
  866SOL    HW2 3498   3.057   1.844   1.900
  867SOL     OW 3499   2.183   3.292   6.331
  867SOL    HW1 3500   2.095   3.264   6.368
  867SOL    HW2 3501   2.192   3.259   6.237
  868SOL     OW 3502   5.238   2.136   3.300
  868SOL    HW1 3503   5.152   2.100   3.334
  868SOL    HW2 3504   5.269   2.210   3.359
  869SOL     OW 3505   6.131   5.548   2.776
  869SOL    HW1 3506   6.051   5.540   2.835
  869SOL    HW2 3507   6.122   5.485   2.699
  870SOL     OW 3508   6.914   1.226   1.098
  870SOL    HW1 3509   6.968   1.161   1.044
  870SOL    HW2 3510   6.897   1.188   1.188
  871SOL     OW 3511   6.028   2.714   0.995
  871SOL    HW1 3512   5.948   2.705   0.935
  871SOL    HW2 3513   6.011   2.665   1.080
  872SOL     OW 3514   5.786   1.975   3.440
  872SOL    HW1 3515   5.812   1.879   3.452
  872SOL    HW2 3516   5.686   1.984   3.448
  873SOL     OW 3517   4.190   6.952   5.185
  873SOL    HW1 3518   4.228   7.006   5.261
  873SOL    HW2 3519   4.239   6.865   5.178
  874SOL     OW 3520   0.682   3.349   5.757
  874SOL    HW1 3521   0.740   3.301   5.823
  874SOL    HW2 3522   0.687   3.304   5.668
  875SOL     OW 3523   6.753   4.129   0.104
  875SOL    HW1 3524   6.762   4.090   0.195
  875SOL    HW2 3525   6.706   4.065   0.044
  876SOL     OW 3526   0.369   3.417   1.712
  876SOL    HW1 3527   0.380   3.488   1.643
  876SOL    HW2 3528   0.388   3.328   1.671
  877SOL     OW 3529   5.825   5.876   0.457
  877SOL    HW1 3530   5.897   5.930   0.413
  877SOL    HW2 3531   5.775   5.934   0.522
  878SOL     OW 3532   2.786   4.775   0.470
  878SOL    HW1 3533   2.814   4.868   0.449
  878SOL    HW2 3534   2.834   4.711   0.410
  879SOL     OW 3535   4.461   2.480   2.465
  879SOL    HW1 3536   4.440   2.435   2.378
  879SOL    HW2 3537   4.519   2.420   2.519
  880SOL     OW 3538   3.953   5.343   0.364
  880SOL    HW1 3539   3.944   5.273   0.435
  880SOL    HW2 3540   3.886   5.415   0.381
  881SOL     OW 3541   4.118   5.146   5.193
  881SOL    HW1 3542   4.200   5.144   5.136
  881SOL    HW2 3543   4.071   5.058   5.187
  882SOL     OW 3544   1.224   1.351   4.733
  882SOL    HW1 3545   1.247   1.290   4.809
  882SOL    HW2 3546   1.302   1.410   4.713
  883SOL     OW 3547   3.063   5.338   6.205
  883SOL    HW1 3548   3.122   5.260   6.189
  883SOL    HW2 3549   3.100   5.418   6.157
  884SOL     OW 3550   5.228   3.617   1.492
  884SOL    HW1 3551   5.279   3.566   1.561
  884SOL    HW2 3552   5.290   3.648   1.420
  885SOL     OW 3553   4.696   6.548   0.010
  885SOL    HW1 3554   4.777   6.543   0.068
  885SOL    HW2 3555   4.623   6.597   0.058
  886SOL     OW 3556   4.157   1.976   6.214
  886SOL    HW1 3557   4.098   2.053   6.188
  886SOL    HW2 3558   4.117   1.929   6.293
  887SOL     OW 3559   4.144   0.512   6.214
  887SOL    HW1 3560   4.220   0.521   6.279
  887SOL    HW2 3561   4.125   0.602   6.173
  888SOL     OW 3562   6.270   5.916   3.121
  888SOL    HW1 3563   6.354   5.969   3.138
  888SOL    HW2 3564   6.191   5.972   3.146
  889SOL     OW 3565   0.935   6.656   4.654
  889SOL    HW1 3566   1.023   6.677   4.613
  889SOL    HW2 3567   0.938   6.679   4.752
  890SOL     OW 3568   2.759   4.684   2.166
  890SOL    HW1 3569   2.680   4.625   2.178
  890SOL    HW2 3570   2.819   4.646   2.095
  891SOL     OW 3571   5.175   3.346   6.655
  891SOL    HW1 3572   5.192   3.309   6.563
  891SOL    HW2 3573   5.084   3.317   6.686
  892SOL     OW 3574   2.130   4.466   1.185
  892SOL    HW1 3575   2.227   4.477   1.207
  892SOL    HW2 3576   2.076   4.529   1.241
  893SOL     OW 3577   1.276   0.172   0.105
  893SOL    HW1 3578   1.216   0.171   0.025
  893SOL    HW2 3579   1.317   0.081   0.117
  894SOL     OW 3580   0.836   5.833   3.966
  894SOL    HW1 3581   0.834   5.753   3.906
  894SOL    HW2 3582   0.894   5.815   4.045
  895SOL     OW 3583   2.573   6.771   5.144
  895SOL    HW1 3584   2.489   6.724   5.116
  895SOL    HW2 3585   2.575   6.780   5.243
  896SOL     OW 3586   5.668   6.876   2.880
  896SOL    HW1 3587   5.584   6.844   2.836
  896SOL    HW2 3588   5.730   6.912   2.810
  897SOL     OW 3589   5.432   2.416   5.968
  897SOL    HW1 3590   5.394   2.350   6.032
  897SOL    HW2 3591   5.394   2.401   5.877
  898SOL     OW 3592   5.840   6.586   3.578
  898SOL    HW1 3593   5.763   6.567   3.640
  898SOL    HW2 3594   5.873   6.679   3.595
  899SOL     OW 3595   0.662   4.861   5.285
  899SOL    HW1 3596   0.687   4.888   5.378
  899SOL    HW2 3597   0.563   4.867   5.274
  900SOL     OW 3598   0.640   5.760   3.321
  900SOL    HW1 3599   0.705   5.785   3.249
  900SOL    HW2 3600   0.668   5.802   3.407
  901SOL     OW 3601   6.108   1.742   3.592
  901SOL    HW1 3602   6.035   1.768   3.528
  901SOL    HW2 3603   6.070   1.683   3.664
  902SOL     OW 3604   0.289   6.215   0.058
  902SOL    HW1 3605   0.205   6.219   0.003
  902SOL    HW2 3606   0.352   6.149   0.018
  903SOL     OW 3607   1.165   5.364   0.534
  903SOL    HW1 3608   1.164   5.391   0.630
  903SOL    HW2 3609   1.257   5.373   0.497
  904SOL     OW 3610   1.938   1.601   3.469
  904SOL    HW1 3611   1.850   1.559   3.491
  904SOL    HW2 3612   1.932   1.700   3.482
  905SOL     OW 3613   5.357   2.327   4.912
  905SOL    HW1 3614   5.298   2.247   4.927
  905SOL    HW2 3615   5.313   2.390   4.848
  906SOL     OW 3616   5.927   3.893   5.755
  906SOL    HW1 3617   6.017   3.937   5.752
  906SOL    HW2 3618   5.884   3.909   5.844
  907SOL     OW 3619   6.412   2.587   2.626
  907SOL    HW1 3620   6.492   2.566   2.569
  907SOL    HW2 3621   6.328   2.563   2.576
  908SOL     OW 3622   1.957   0.917   4.503
  908SOL    HW1 3623   2.054   0.940   4.508
  908SOL    HW2 3624   1.914   0.969   4.429
  909SOL     OW 3625   3.382   1.307   1.844
  909SOL    HW1 3626   3.292   1.302   1.885
  909SOL    HW2 3627   3.434   1.225   1.867
  910SOL     OW 3628   2.269   2.093   1.284
  910SOL    HW1 3629   2.171   2.080   1.298
  910SOL    HW2 3630   2.292   2.074   1.189
  911SOL     OW 3631   0.131   4.312   1.119
  911SOL    HW1 3632   0.098   4.272   1.033
  911SOL    HW2 3633   0.075   4.277   1.194
  912SOL     OW 3634   1.241   0.520   5.528
  912SOL    HW1 3635   1.206   0.608   5.561
  912SOL    HW2 3636   1.165   0.458   5.511
  913SOL     OW 3637   2.645   0.923   1.973
  913SOL    HW1 3638   2.678   0.932   1.879
  913SOL    HW2 3639   2.678   1.000   2.028
  914SOL     OW 3640   3.313   6.446   2.769
  914SOL    HW1 3641   3.226   6.482   2.801
  914SOL    HW2 3642   3.297   6.371   2.705
  915SOL     OW 3643   0.881   2.442   0.285
  915SOL    HW1 3644   0.972   2.451   0.324
  915SOL    HW2 3645   0.822   2.515   0.320
  916SOL     OW 3646   2.201   3.094   2.855
  916SOL    HW1 3647   2.169   3.174   2.803
  916SOL    HW2 3648   2.285   3.060   2.814
  917SOL     OW 3649   3.554   1.950   0.244
  917SOL    HW1 3650   3.565   1.852   0.232
  917SOL    HW2 3651   3.459   1.977   0.224
  918SOL     OW 3652   1.415   0.717   6.199
  918SOL    HW1 3653   1.343   0.721   6.130
  918SOL    HW2 3654   1.485   0.652   6.170
  919SOL     OW 3655   2.659   6.063   2.377
  919SOL    HW1 3656   2.655   5.978   2.324
  919SOL    HW2 3657   2.602   6.054   2.459
  920SOL     OW 3658   2.339   0.327   4.075
  920SOL    HW1 3659   2.432   0.348   4.103
  920SOL    HW2 3660   2.274   0.372   4.136
  921SOL     OW 3661   5.343   4.833   5.369
  921SOL    HW1 3662   5.293   4.919   5.382
  921SOL    HW2 3663   5.277   4.760   5.350
  922SOL     OW 3664   2.481   4.061   0.108
  922SOL    HW1 3665   2.570   4.023   0.133
  922SOL    HW2 3666   2.492   4.157   0.083
  923SOL     OW 3667   3.919   0.073   6.459
  923SOL    HW1 3668   3.922   0.085   6.558
  923SOL    HW2 3669   3.956   0.155   6.415
  924SOL     OW 3670   5.491   3.549   3.306
  924SOL    HW1 3671   5.406   3.530   3.256
  924SOL    HW2 3672   5.563   3.487   3.275
  925SOL     OW 3673   6.427   1.839   2.975
  925SOL    HW1 3674   6.463   1.750   2.948
  925SOL    HW2 3675   6.429   1.847   3.074
  926SOL     OW 3676   5.249   6.314   1.051
  926SOL    HW1 3677   5.320   6.332   0.983
  926SOL    HW2 3678   5.291   6.273   1.132
  927SOL     OW 3679   3.835   5.113   5.340
  927SOL    HW1 3680   3.859   5.161   5.424
  927SOL    HW2 3681   3.887   5.028   5.335
  928SOL     OW 3682   0.747   1.377   1.357
  928SOL    HW1 3683   0.723   1.301   1.297
  928SOL    HW2 3684   0.665   1.426   1.384
  929SOL     OW 3685   0.689   2.226   2.051
  929SOL    HW1 3686   0.772   2.182   2.017
  929SOL    HW2 3687   0.711   2.284   2.129
  930SOL     OW 3688   5.029   6.476   3.857
  930SOL    HW1 3689   4.981   6.437   3.935
  930SOL    HW2 3690   5.049   6.573   3.874
  931SOL     OW 3691   1.435   2.827   1.906
  931SOL    HW1 3692   1.358   2.842   1.969
  931SOL    HW2 3693   1.448   2.908   1.849
  932SOL     OW 3694   4.464   6.740   1.519
  932SOL    HW1 3695   4.527   6.689   1.578
  932SOL    HW2 3696   4.488   6.837   1.519
  933SOL     OW 3697   2.156   6.033   2.820
  933SOL    HW1 3698   2.220   5.966   2.856
  933SOL    HW2 3699   2.201   6.087   2.748
  934SOL     OW 3700   3.348   0.890   5.292
  934SOL    HW1 3701   3.290   0.953   5.343
  934SOL    HW2 3702   3.298   0.855   5.213
  935SOL     OW 3703   3.407   3.053   6.215
  935SOL    HW1 3704   3.453   3.089   6.297
  935SOL    HW2 3705   3.469   2.991   6.168
  936SOL     OW 3706   0.513   1.551   1.396
  936SOL    HW1 3707   0.465   1.610   1.331
  936SOL    HW2 3708   0.448   1.513   1.462
  937SOL     OW 3709   4.724   2.314   4.179
  937SOL    HW1 3710   4.710   2.389   4.244
  937SOL    HW2 3711   4.692   2.229   4.220
  938SOL     OW 3712   0.269   2.705   0.124
  938SOL    HW1 3713   0.363   2.722   0.154
  938SOL    HW2 3714   0.270   2.636   0.051
  939SOL     OW 3715   6.241   0.925   6.060
  939SOL    HW1 3716   6.335   0.897   6.080
  939SOL    HW2 3717   6.211   0.992   6.127
  940SOL     OW 3718   0.301   0.784   4.608
  940SOL    HW1 3719   0.249   0.711   4.653
  940SOL    HW2 3720   0.244   0.826   4.536
  941SOL     OW 3721   5.608   2.567   4.723
  941SOL    HW1 3722   5.560   2.531   4.644
  941SOL    HW2 3723   5.566   2.532   4.807
  942SOL     OW 3724   5.290   6.583   5.048
  942SOL    HW1 3725   5.303   6.674   5.009
  942SOL    HW2 3726   5.334   6.514   4.990
  943SOL     OW 3727   5.152   1.996   0.723
  943SOL    HW1 3728   5.202   2.010   0.809
  943SOL    HW2 3729   5.204   2.036   0.648
  944SOL     OW 3730   6.083   3.882   4.516
  944SOL    HW1 3731   6.088   3.945   4.594
  944SOL    HW2 3732   6.146   3.806   4.530
  945SOL     OW 3733   5.348   4.260   4.679
  945SOL    HW1 3734   5.320   4.164   4.674
  945SOL    HW2 3735   5.283   4.311   4.736
  946SOL     OW 3736   5.833   2.424   5.215
  946SOL    HW1 3737   5.872   2.496   5.158
  946SOL    HW2 3738   5.734   2.430   5.214
  947SOL     OW 3739   1.967   3.192   5.545
  947SOL    HW1 3740   2.004   3.212   5.454
  947SOL    HW2 3741   2.041   3.196   5.612
  948SOL     OW 3742   3.308   1.891   0.513
  948SOL    HW1 3743   3.353   1.848   0.591
  948SOL    HW2 3744   3.320   1.990   0.518
  949SOL     OW 3745   5.522   6.296   6.230
  949SOL    HW1 3746   5.526   6.390   6.196
  949SOL    HW2 3747   5.471   6.294   6.316
  950SOL     OW 3748   4.230   5.315   1.488
  950SOL    HW1 3749   4.201   5.360   1.403
  950SOL    HW2 3750   4.329   5.319   1.496
  951SOL     OW 3751   1.084   2.077   2.901
  951SOL    HW1 3752   1.144   2.023   2.843
  951SOL    HW2 3753   1.031   2.016   2.960
  952SOL     OW 3754   4.972   2.361   2.105
  952SOL    HW1 3755   4.985   2.435   2.039
  952SOL    HW2 3756   5.045   2.294   2.096
  953SOL     OW 3757   4.048   6.896   6.799
  953SOL    HW1 3758   3.992   6.972   6.765
  953SOL    HW2 3759   3.995   6.841   6.863
  954SOL     OW 3760   6.146   5.964   0.726
  954SOL    HW1 3761   6.152   6.064   0.732
  954SOL    HW2 3762   6.071   5.939   0.665
  955SOL     OW 3763   6.743   6.567   2.539
  955SOL    HW1 3764   6.679   6.551   2.614
  955SOL    HW2 3765   6.698   6.549   2.452
  956SOL     OW 3766   0.803   2.426   0.784
  956SOL    HW1 3767   0.727   2.459   0.727
  956SOL    HW2 3768   0.785   2.332   0.811
  957SOL     OW 3769   2.515   6.175   5.046
  957SOL    HW1 3770   2.569   6.091   5.051
  957SOL    HW2 3771   2.429   6.156   4.998
  958SOL     OW 3772   5.243   2.503   0.904
  958SOL    HW1 3773   5.191   2.447   0.969
  958SOL    HW2 3774   5.208   2.597   0.907
  959SOL     OW 3775   1.818   4.330   2.615
  959SOL    HW1 3776   1.808   4.254   2.551
  959SOL    HW2 3777   1.758   4.405   2.586
  960SOL     OW 3778   1.878   5.112   4.921
  960SOL    HW1 3779   1.892   5.060   4.837
  960SOL    HW2 3780   1.965   5.154   4.948
  961SOL     OW 3781   3.848   6.962   2.075
  961SOL    HW1 3782   3.882   6.953   2.169
  961SOL    HW2 3783   3.922   6.945   2.011
  962SOL     OW 3784   1.613   0.019   4.697
  962SOL    HW1 3785   1.628   0.085   4.623
  962SOL    HW2 3786   1.701   7.005   4.730
  963SOL     OW 3787   6.612   6.792   1.049
  963SOL    HW1 3788   6.669   6.849   0.990
  963SOL    HW2 3789   6.651   6.700   1.054
  964SOL     OW 3790   5.538   3.788   1.929
  964SOL    HW1 3791   5.537   3.794   1.829
  964SOL    HW2 3792   5.456   3.739   1.960
  965SOL     OW 3793   0.459   1.940   0.750
  965SOL    HW1 3794   0.393   1.866   0.737
  965SOL    HW2 3795   0.414   2.028   0.735
  966SOL     OW 3796   0.076   2.179   2.016
  966SOL    HW1 3797   7.000   2.156   2.040
  966SOL    HW2 3798   0.139   2.133   2.078
  967SOL     OW 3799   1.034   6.087   2.055
  967SOL    HW1 3800   1.095   6.058   1.981
  967SOL    HW2 3801   1.013   6.184   2.045
  968SOL     OW 3802   5.454   3.001   3.015
  968SOL    HW1 3803   5.426   2.906   3.007
  968SOL    HW2 3804   5.387   3.051   3.070
  969SOL     OW 3805   4.030   5.790   5.417
  969SOL    HW1 3806   3.988   5.705   5.384
  969SOL    HW2 3807   4.096   5.770   5.489
  970SOL     OW 3808   4.370   2.223   5.261
  970SOL    HW1 3809   4.319   2.179   5.187
  970SOL    HW2 3810   4.310   2.235   5.340
  971SOL     OW 3811   6.740   1.522   1.818
  971SOL    HW1 3812   6.817   1.460   1.832
  971SOL    HW2 3813   6.744   1.596   1.884
  972SOL     OW 3814   6.249   5.436   1.021
  972SOL    HW1 3815   6.329   5.402   1.071
  972SOL    HW2 3816   6.280   5.497   0.948
  973SOL     OW 3817   5.513   4.352   5.673
  973SOL    HW1 3818   5.524   4.253   5.665
  973SOL    HW2 3819   5.529   4.380   5.768
  974SOL     OW 3820   2.887   1.037   4.139
  974SOL    HW1 3821   2.838   1.044   4.052
  974SOL    HW2 3822   2.830   1.073   4.213
  975SOL     OW 3823   3.809   6.627   5.490
  975SOL    HW1 3824   3.815   6.623   5.390
  975SOL    HW2 3825   3.849   6.544   5.528
  976SOL     OW 3826   0.168   4.421   3.979
  976SOL    HW1 3827   0.109   4.472   3.916
  976SOL    HW2 3828   0.205   4.484   4.047
  977SOL     OW 3829   1.990   1.314   4.240
  977SOL    HW1 3830   1.933   1.246   4.287
  977SOL    HW2 3831   1.933   1.372   4.182
  978SOL     OW 3832   6.081   3.126   4.266
  978SOL    HW1 3833   5.988   3.143   4.298
  978SOL    HW2 3834   6.117   3.209   4.222
  979SOL     OW 3835   5.891   0.881   3.733
  979SOL    HW1 3836   5.809   0.937   3.721
  979SOL    HW2 3837   5.875   0.789   3.697
  980SOL     OW 3838   6.634   1.039   4.757
  980SOL    HW1 3839   6.699   1.009   4.828
  980SOL    HW2 3840   6.670   1.121   4.712
  981SOL     OW 3841   6.955   2.660   5.536
  981SOL    HW1 3842   7.011   2.645   5.617
  981SOL    HW2 3843   6.887   2.731   5.555
  982SOL     OW 3844   1.869   2.804   1.421
  982SOL    HW1 3845   1.919   2.781   1.505
  982SOL    HW2 3846   1.840   2.900   1.425
  983SOL     OW 3847   5.535   1.806   3.120
  983SOL    HW1 3848   5.629   1.779   3.139
  983SOL    HW2 3849   5.474   1.727   3.131
  984SOL     OW 3850   4.862   1.512   4.780
  984SOL    HW1 3851   4.836   1.418   4.804
  984SOL    HW2 3852   4.905   1.513   4.690
  985SOL     OW 3853   3.290   5.591   0.434
  985SOL    HW1 3854   3.295   5.548   0.524
  985SOL    HW2 3855   3.360   5.662   0.427
  986SOL     OW 3856   4.458   4.858   6.510
  986SOL    HW1 3857   4.492   4.795   6.580
  986SOL    HW2 3858   4.536   4.896   6.460
  987SOL     OW 3859   4.134   0.156   2.470
  987SOL    HW1 3860   4.229   0.137   2.493
  987SOL    HW2 3861   4.105   0.240   2.515
  988SOL     OW 3862   3.180   3.474   1.999
  988SOL    HW1 3863   3.101   3.504   2.053
  988SOL    HW2 3864   3.245   3.549   1.989
  989SOL     OW 3865   0.459   0.001   6.075
  989SOL    HW1 3866   0.438   6.925   6.102
  989SOL    HW2 3867   0.483   0.004   5.978
  990SOL     OW 3868   4.710   6.874   4.042
  990SOL    HW1 3869   4.650   6.944   4.003
  990SOL    HW2 3870   4.711   6.793   3.983
  991SOL     OW 3871   6.739   1.267   4.648
  991SOL    HW1 3872   6.832   1.277   4.611
  991SOL    HW2 3873   6.674   1.307   4.584
  992SOL     OW 3874   0.939   3.349   0.232
  992SOL    HW1 3875   0.890   3.424   0.277
  992SOL    HW2 3876   1.001   3.306   0.297
  993SOL     OW 3877   3.282   5.187   3.089
  993SOL    HW1 3878   3.286   5.093   3.054
  993SOL    HW2 3879   3.223   5.242   3.029
  994SOL     OW 3880   2.861   3.552   3.094
  994SOL    HW1 3881   2.829   3.630   3.148
  994SOL    HW2 3882   2.923   3.584   3.023
  995SOL     OW 3883   1.231   1.626   4.649
  995SOL    HW1 3884   1.285   1.675   4.718
  995SOL    HW2 3885   1.290   1.601   4.572
  996SOL     OW 3886   1.621   3.789   2.533
  996SOL    HW1 3887   1.591   3.721   2.600
  996SOL    HW2 3888   1.542   3.823   2.482
  997SOL     OW 3889   6.478   0.803   1.339
  997SOL    HW1 3890   6.525   0.851   1.414
  997SOL    HW2 3891   6.396   0.853   1.313
  998SOL     OW 3892   4.970   0.173   2.923
  998SOL    HW1 3893   4.895   0.130   2.873
  998SOL    HW2 3894   4.989   0.263   2.884
  999SOL     OW 3895   0.011   4.836   1.187
  999SOL    HW1 3896   0.019   4.891   1.105
  999SOL    HW2 3897   6.970   4.882   1.253
 1000SOL     OW 3898   3.469   1.708   4.189
 1000SOL    HW1 3899   3.440   1.687   4.283
 1000SOL    HW2 3900   3.393   1.691   4.127
 1001SOL     OW 3901   4.967   0.401   5.770
 1001SOL    HW1 3902   4.968   0.322   5.709
 1001SOL    HW2 3903   4.999   0.482   5.720
 1002SOL     OW 3904   6.512   1.155   0.994
 1002SOL    HW1 3905   6.577   1.164   0.919
 1002SOL    HW2 3906   6.532   1.224   1.064
 1003SOL     OW 3907   3.861   5.786   2.476
 1003SOL    HW1 3908   3.814   5.731   2.545
 1003SOL    HW2 3909   3.809   5.784   2.391
 1004SOL     OW 3910   5.724   6.685   6.825
 1004SOL    HW1 3911   5.737   6.641   6.736
 1004SOL    HW2 3912   5.686   6.777   6.812
 1005SOL     OW 3913   0.097   6.488   3.404
 1005SOL    HW1 3914   0.195   6.469   3.394
 1005SOL    HW2 3915   0.071   6.562   3.342
 1006SOL     OW 3916   2.138   4.851   1.097
 1006SOL    HW1 3917   2.143   4.771   1.157
 1006SOL    HW2 3918   2.159   4.824   1.004
 1007SOL     OW 3919   0.100   0.831   3.765
 1007SOL    HW1 3920   0.149   0.842   3.851
 1007SOL    HW2 3921   0.072   0.736   3.754
 1008SOL     OW 3922   2.107   3.442   3.429
 1008SOL    HW1 3923   2.069   3.405   3.514
 1008SOL    HW2 3924   2.040   3.430   3.356
 1009SOL     OW 3925   1.350   5.971   5.440
 1009SOL    HW1 3926   1.367   5.903   5.369
 1009SOL    HW2 3927   1.407   5.950   5.520
 1010SOL     OW 3928   4.482   2.067   0.196
 1010SOL    HW1 3929   4.502   2.139   0.130
 1010SOL    HW2 3930   4.396   2.087   0.243
 1011SOL     OW 3931   3.468   6.374   3.202
 1011SOL    HW1 3932   3.464   6.338   3.109
 1011SOL    HW2 3933   3.388   6.430   3.220
 1012SOL     OW 3934   5.260   5.435   6.940
 1012SOL    HW1 3935   5.222   5.477   0.004
 1012SOL    HW2 3936   5.349   5.474   6.920
 1013SOL     OW 3937   0.838   1.234   1.560
 1013SOL    HW1 3938   0.764   1.174   1.589
 1013SOL    HW2 3939   0.806   1.293   1.486
 1014SOL     OW 3940   4.349   6.896   5.610
 1014SOL    HW1 3941   4.330   6.811   5.658
 1014SOL    HW2 3942   4.442   6.926   5.630
 1015SOL     OW 3943   3.526   5.636   4.186
 1015SOL    HW1 3944   3.426   5.625   4.183
 1015SOL    HW2 3945   3.550   5.706   4.253
 1016SOL     OW 3946   4.035   2.875   1.171
 1016SOL    HW1 3947   4.101   2.897   1.243
 1016SOL    HW2 3948   4.072   2.802   1.114
 1017SOL     OW 3949   3.951   1.989   6.636
 1017SOL    HW1 3950   3.853   1.974   6.642
 1017SOL    HW2 3951   3.969   2.076   6.592
 1018SOL     OW 3952   1.943   3.007   2.791
 1018SOL    HW1 3953   2.042   3.011   2.805
 1018SOL    HW2 3954   1.909   3.098   2.769
 1019SOL     OW 3955   0.005   1.746   6.906
 1019SOL    HW1 3956   6.931   1.783   6.893
 1019SOL    HW2 3957   0.069   1.820   6.925
 1020SOL     OW 3958   2.771   1.316   1.555
 1020SOL    HW1 3959   2.770   1.400   1.608
 1020SOL    HW2 3960   2.728   1.332   1.466
 1021SOL     OW 3961   6.505   1.538   0.999
 1021SOL    HW1 3962   6.535   1.453   1.043
 1021SOL    HW2 3963   6.584   1.590   0.969
 1022SOL     OW 3964   4.232   3.570   6.051
 1022SOL    HW1 3965   4.307   3.624   6.090
 1022SOL    HW2 3966   4.162   3.631   6.015
 1023SOL     OW 3967   5.556   1.212   2.847
 1023SOL    HW1 3968   5.479   1.265   2.814
 1023SOL    HW2 3969   5.529   1.160   2.928
 1024SOL     OW 3970   6.531   1.241   3.657
 1024SOL    HW1 3971   6.435   1.267   3.666
 1024SOL    HW2 3972   6.580   1.312   3.607
 1025SOL     OW 3973   3.281   4.895   1.226
 1025SOL    HW1 3974   3.248   4.809   1.267
 1025SOL    HW2 3975   3.290   4.883   1.128
 1026SOL     OW 3976   1.456   2.350   0.280
 1026SOL    HW1 3977   1.525   2.366   0.209
 1026SOL    HW2 3978   1.374   2.402   0.257
 1027SOL     OW 3979   2.858   4.821   2.402
 1027SOL    HW1 3980   2.820   4.756   2.335
 1027SOL    HW2 3981   2.954   4.840   2.378
 1028SOL     OW 3982   1.419   6.282   0.707
 1028SOL    HW1 3983   1.380   6.231   0.785
 1028SOL    HW2 3984   1.349   6.341   0.668
 1029SOL     OW 3985   2.452   0.402   6.477
 1029SOL    HW1 3986   2.518   0.340   6.518
 1029SOL    HW2 3987   2.377   0.418   6.542
 1030SOL     OW 3988   4.014   3.597   4.860
 1030SOL    HW1 3989   4.061   3.524   4.910
 1030SOL    HW2 3990   3.916   3.590   4.877
 1031SOL     OW 3991   2.453   5.689   2.128
 1031SOL    HW1 3992   2.391   5.612   2.145
 1031SOL    HW2 3993   2.417   5.744   2.053
 1032SOL     OW 3994   1.699   0.847   4.615
 1032SOL    HW1 3995   1.773   0.855   4.548
 1032SOL    HW2 3996   1.632   0.779   4.583
 1033SOL     OW 3997   2.569   5.962   2.599
 1033SOL    HW1 3998   2.666   5.946   2.582
 1033SOL    HW2 3999   2.541   5.910   2.680
 1034SOL     OW 4000   1.274   4.496   3.845
 1034SOL    HW1 4001   1.185   4.489   3.800
 1034SOL    HW2 4002   1.276   4.579   3.902
 1035SOL     OW 4003   2.492   1.488   4.287
 1035SOL    HW1 4004   2.497   1.399   4.332
 1035SOL    HW2 4005   2.419   1.487   4.219
 1036SOL     OW 4006   4.255   2.197   0.271
 1036SOL    HW1 4007   4.254   2.266   0.199
 1036SOL    HW2 4008   4.162   2.168   0.291
 1037SOL     OW 4009   2.058   1.950   6.716
 1037SOL    HW1 4010   2.019   1.862   6.688
 1037SOL    HW2 4011   2.072   1.950   6.815
 1038SOL     OW 4012   2.068   1.192   5.024
 1038SOL    HW1 4013   2.095   1.149   4.938
 1038SOL    HW2 4014   1.969   1.206   5.025
 1039SOL     OW 4015   3.886   1.971   3.628
 1039SOL    HW1 4016   3.811   2.022   3.670
 1039SOL    HW2 4017   3.850   1.902   3.566
 1040SOL     OW 4018   6.422   4.399   3.051
 1040SOL    HW1 4019   6.520   4.384   3.034
 1040SOL    HW2 4020   6.397   4.353   3.136
 1041SOL     OW 4021   1.253   0.951   4.592
 1041SOL    HW1 4022   1.257   0.917   4.686
 1041SOL    HW2 4023   1.194   1.032   4.588
 1042SOL     OW 4024   5.476   4.983   0.594
 1042SOL    HW1 4025   5.392   5.037   0.597
 1042SOL    HW2 4026   5.519   4.992   0.504
 1043SOL     OW 4027   2.807   1.432   6.180
 1043SOL    HW1 4028   2.826   1.335   6.197
 1043SOL    HW2 4029   2.873   1.468   6.116
 1044SOL     OW 4030   4.296   3.341   1.738
 1044SOL    HW1 4031   4.228   3.356   1.666
 1044SOL    HW2 4032   4.347   3.257   1.720
 1045SOL     OW 4033   3.165   1.508   3.186
 1045SOL    HW1 4034   3.155   1.450   3.267
 1045SOL    HW2 4035   3.261   1.513   3.160
 1046SOL     OW 4036   4.348   0.477   2.113
 1046SOL    HW1 4037   4.259   0.511   2.142
 1046SOL    HW2 4038   4.413   0.553   2.109
 1047SOL     OW 4039   0.905   4.493   2.642
 1047SOL    HW1 4040   0.960   4.565   2.685
 1047SOL    HW2 4041   0.928   4.405   2.683
 1048SOL     OW 4042   5.197   4.596   5.287
 1048SOL    HW1 4043   5.254   4.545   5.352
 1048SOL    HW2 4044   5.169   4.536   5.213
 1049SOL     OW 4045   0.194   3.261   5.089
 1049SOL    HW1 4046   0.216   3.164   5.094
 1049SOL    HW2 4047   0.101   3.273   5.055
 1050SOL     OW 4048   3.589   0.563   0.247
 1050SOL    HW1 4049   3.531   0.636   0.283
 1050SOL    HW2 4050   3.535   0.479   0.238
 1051SOL     OW 4051   4.883   4.454   1.528
 1051SOL    HW1 4052   4.949   4.451   1.602
 1051SOL    HW2 4053   4.836   4.542   1.528
 1052SOL     OW 4054   3.582   0.155   4.411
 1052SOL    HW1 4055   3.555   0.191   4.500
 1052SOL    HW2 4056   3.505   0.107   4.369
 1053SOL     OW 4057   4.297   4.674   3.694
 1053SOL    HW1 4058   4.260   4.714   3.610
 1053SOL    HW2 4059   4.389   4.641   3.678
 1054SOL     OW 4060   3.434   6.028   4.733
 1054SOL    HW1 4061   3.503   6.067   4.672
 1054SOL    HW2 4062   3.343   6.059   4.705
 1055SOL     OW 4063   4.381   5.396   4.892
 1055SOL    HW1 4064   4.294   5.443   4.906
 1055SOL    HW2 4065   4.390   5.370   4.796
 1056SOL     OW 4066   1.977   6.626   5.022
 1056SOL    HW1 4067   1.926   6.541   5.032
 1056SOL    HW2 4068   2.057   6.611   4.964
 1057SOL     OW 4069   3.273   3.906   2.051
 1057SOL    HW1 4070   3.342   3.978   2.043
 1057SOL    HW2 4071   3.233   3.889   1.961
 1058SOL     OW 4072   3.554   1.090   1.899
 1058SOL    HW1 4073   3.653   1.103   1.909
 1058SOL    HW2 4074   3.536   1.043   1.813
 1059SOL     OW 4075   4.017   2.050   1.291
 1059SOL    HW1 4076   4.013   1.974   1.226
 1059SOL    HW2 4077   3.977   2.132   1.250
 1060SOL     OW 4078   2.282   1.775   5.819
 1060SOL    HW1 4079   2.341   1.847   5.782
 1060SOL    HW2 4080   2.302   1.763   5.916
 1061SOL     OW 4081   2.979   5.551   1.676
 1061SOL    HW1 4082   2.990   5.453   1.689
 1061SOL    HW2 4083   2.899   5.583   1.727
 1062SOL     OW 4084   5.508   5.178   4.675
 1062SOL    HW1 4085   5.542   5.165   4.582
 1062SOL    HW2 4086   5.572   5.137   4.740
 1063SOL     OW 4087   2.133   2.489   6.320
 1063SOL    HW1 4088   2.164   2.416   6.259
 1063SOL    HW2 4089   2.046   2.525   6.288
 1064SOL     OW 4090   6.673   2.831   1.919
 1064SOL    HW1 4091   6.617   2.794   1.993
 1064SOL    HW2 4092   6.668   2.770   1.840
 1065SOL     OW 4093   6.695   6.677   4.807
 1065SOL    HW1 4094   6.786   6.646   4.780
 1065SOL    HW2 4095   6.674   6.644   4.899
 1066SOL     OW 4096   4.346   0.897   3.608
 1066SOL    HW1 4097   4.379   0.992   3.608
 1066SOL    HW2 4098   4.247   0.896   3.594
 1067SOL     OW 4099   1.728   3.311   1.479
 1067SOL    HW1 4100   1.706   3.398   1.522
 1067SOL    HW2 4101   1.661   3.290   1.408
 1068SOL     OW 4102   0.507   3.840   1.901
 1068SOL    HW1 4103   0.521   3.894   1.985
 1068SOL    HW2 4104   0.499   3.743   1.925
 1069SOL     OW 4105   3.817   3.908   1.311
 1069SOL    HW1 4106   3.855   3.995   1.343
 1069SOL    HW2 4107   3.859   3.833   1.361
 1070SOL     OW 4108   2.294   0.969   0.013
 1070SOL    HW1 4109   2.322   0.984   6.937
 1070SOL    HW2 4110   2.356   0.902   0.056
 1071SOL     OW 4111   4.314   6.888   3.170
 1071SOL    HW1 4112   4.299   6.828   3.249
 1071SOL    HW2 4113   4.351   6.976   3.202
 1072SOL     OW 4114   4.007   5.790   3.213
 1072SOL    HW1 4115   4.025   5.862   3.280
 1072SOL    HW2 4116   4.089   5.733   3.203
 1073SOL     OW 4117   2.473   4.784   2.764
 1073SOL    HW1 4118   2.409   4.847   2.721
 1073SOL    HW2 4119   2.466   4.694   2.720
 1074SOL     OW 4120   1.428   5.562   1.921
 1074SOL    HW1 4121   1.396   5.570   1.827
 1074SOL    HW2 4122   1.355   5.589   1.984
 1075SOL     OW 4123   0.083   4.496   4.400
 1075SOL    HW1 4124   0.049   4.590   4.407
 1075SOL    HW2 4125   0.007   4.432   4.407
 1076SOL     OW 4126   0.368   4.694   3.253
 1076SOL    HW1 4127   0.442   4.754   3.223
 1076SOL    HW2 4128   0.403   4.630   3.322
 1077SOL     OW 4129   4.834   0.230   0.476
 1077SOL    HW1 4130   4.760   0.283   0.435
 1077SOL    HW2 4131   4.803   0.137   0.495
 1078SOL     OW 4132   0.747   2.076   1.125
 1078SOL    HW1 4133   0.700   2.001   1.171
 1078SOL    HW2 4134   0.748   2.157   1.184
 1079SOL     OW 4135   2.429   5.696   3.111
 1079SOL    HW1 4136   2.516   5.736   3.137
 1079SOL    HW2 4137   2.444   5.618   3.049
 1080SOL     OW 4138   1.769   5.084   4.340
 1080SOL    HW1 4139   1.840   5.128   4.285
 1080SOL    HW2 4140   1.764   4.987   4.316
 1081SOL     OW 4141   1.881   0.669   6.934
 1081SOL    HW1 4142   1.793   0.713   6.950
 1081SOL    HW2 4143   1.873   0.571   6.950
 1082SOL     OW 4144   1.956   6.756   5.933
 1082SOL    HW1 4145   2.037   6.698   5.924
 1082SOL    HW2 4146   1.879   6.712   5.886
 1083SOL     OW 4147   3.923   3.396   1.156
 1083SOL    HW1 4148   4.010   3.437   1.182
 1083SOL    HW2 4149   3.877   3.359   1.237
 1084SOL     OW 4150   6.496   3.985   0.539
 1084SOL    HW1 4151   6.551   4.000   0.621
 1084SOL    HW2 4152   6.411   3.941   0.564
 1085SOL     OW 4153   2.154   3.726   4.060
 1085SOL    HW1 4154   2.115   3.792   3.994
 1085SOL    HW2 4155   2.248   3.704   4.033
 1086SOL     OW 4156   4.286   5.062   1.950
 1086SOL    HW1 4157   4.248   5.133   2.009
 1086SOL    HW2 4158   4.358   5.101   1.893
 1087SOL     OW 4159   4.381   2.815   5.335
 1087SOL    HW1 4160   4.282   2.826   5.337
 1087SOL    HW2 4161   4.425   2.905   5.342
 1088SOL     OW 4162   4.989   3.958   3.245
 1088SOL    HW1 4163   4.920   3.944   3.316
 1088SOL    HW2 4164   4.944   3.974   3.157
 1089SOL     OW 4165   6.694   0.224   2.924
 1089SOL    HW1 4166   6.632   0.197   2.850
 1089SOL    HW2 4167   6.709   0.323   2.920
 1090SOL     OW 4168   0.847   1.667   5.605
 1090SOL    HW1 4169   0.828   1.756   5.647
 1090SOL    HW2 4170   0.796   1.596   5.654
 1091SOL     OW 4171   1.064   1.836   4.901
 1091SOL    HW1 4172   1.022   1.795   4.982
 1091SOL    HW2 4173   1.149   1.882   4.928
 1092SOL     OW 4174   2.245   4.340   0.951
 1092SOL    HW1 4175   2.184   4.386   1.016
 1092SOL    HW2 4176   2.330   4.314   0.998
 1093SOL     OW 4177   0.515   1.826   2.235
 1093SOL    HW1 4178   0.428   1.832   2.285
 1093SOL    HW2 4179   0.525   1.906   2.176
 1094SOL     OW 4180   0.457   6.081   1.891
 1094SOL    HW1 4181   0.417   6.095   1.801
 1094SOL    HW2 4182   0.429   5.991   1.926
 1095SOL     OW 4183   5.606   3.752   6.273
 1095SOL    HW1 4184   5.650   3.826   6.222
 1095SOL    HW2 4185   5.525   3.788   6.321
 1096SOL     OW 4186   3.369   4.523   1.699
 1096SOL    HW1 4187   3.274   4.555   1.706
 1096SOL    HW2 4188   3.430   4.592   1.738
 1097SOL     OW 4189   1.588   5.239   5.593
 1097SOL    HW1 4190   1.520   5.166   5.589
 1097SOL    HW2 4191   1.552   5.316   5.646
 1098SOL     OW 4192   4.316   2.056   2.430
 1098SOL    HW1 4193   4.293   2.140   2.479
 1098SOL    HW2 4194   4.381   2.077   2.357
 1099SOL     OW 4195   3.649   1.659   2.975
 1099SOL    HW1 4196   3.552   1.674   2.989
 1099SOL    HW2 4197   3.700   1.737   3.012
 1100SOL     OW 4198   0.985   0.472   0.131
 1100SOL    HW1 4199   0.917   0.513   0.069
 1100SOL    HW2 4200   0.967   0.374   0.140
 1101SOL     OW 4201   5.697   2.714   0.853
 1101SOL    HW1 4202   5.619   2.672   0.899
 1101SOL    HW2 4203   5.709   2.808   0.886
 1102SOL     OW 4204   0.881   4.806   3.271
 1102SOL    HW1 4205   0.844   4.714   3.282
 1102SOL    HW2 4206   0.919   4.816   3.178
 1103SOL     OW 4207   0.393   2.883   1.164
 1103SOL    HW1 4208   0.302   2.916   1.140
 1103SOL    HW2 4209   0.420   2.810   1.101
 1104SOL     OW 4210   2.835   4.790   6.374
 1104SOL    HW1 4211   2.875   4.803   6.464
 1104SOL    HW2 4212   2.908   4.775   6.307
 1105SOL     OW 4213   4.168   5.072   0.056
 1105SOL    HW1 4214   4.213   5.055   0.144
 1105SOL    HW2 4215   4.224   5.134   0.001
 1106SOL     OW 4216   0.515   2.253   6.798
 1106SOL    HW1 4217   0.591   2.306   6.834
 1106SOL    HW2 4218   0.547   2.161   6.773
 1107SOL     OW 4219   1.275   0.487   0.511
 1107SOL    HW1 4220   1.190   0.538   0.495
 1107SOL    HW2 4221   1.287   0.471   0.609
 1108SOL     OW 4222   0.699   1.888   4.829
 1108SOL    HW1 4223   0.774   1.952   4.814
 1108SOL    HW2 4224   0.616   1.938   4.852
 1109SOL     OW 4225   5.047   0.911   3.995
 1109SOL    HW1 4226   5.046   1.011   3.995
 1109SOL    HW2 4227   4.971   0.878   3.940
 1110SOL     OW 4228   3.342   2.865   2.174
 1110SOL    HW1 4229   3.319   2.792   2.110
 1110SOL    HW2 4230   3.259   2.894   2.222
 1111SOL     OW 4231   5.890   0.218   0.120
 1111SOL    HW1 4232   5.984   0.184   0.120
 1111SOL    HW2 4233   5.861   0.237   0.214
 1112SOL     OW 4234   6.271   0.737   2.662
 1112SOL    HW1 4235   6.338   0.691   2.721
 1112SOL    HW2 4236   6.314   0.815   2.617
 1113SOL     OW 4237   6.779   3.805   2.147
 1113SOL    HW1 4238   6.761   3.730   2.084
 1113SOL    HW2 4239   6.749   3.781   2.239
 1114SOL     OW 4240   4.872   1.210   4.811
 1114SOL    HW1 4241   4.934   1.153   4.864
 1114SOL    HW2 4242   4.782   1.167   4.807
 1115SOL     OW 4243   2.445   3.333   0.900
 1115SOL    HW1 4244   2.474   3.245   0.863
 1115SOL    HW2 4245   2.446   3.402   0.828
 1116SOL     OW 4246   4.616   6.598   4.661
 1116SOL    HW1 4247   4.654   6.687   4.686
 1116SOL    HW2 4248   4.619   6.587   4.562
 1117SOL     OW 4249   2.807   3.441   1.138
 1117SOL    HW1 4250   2.784   3.346   1.118
 1117SOL    HW2 4251   2.722   3.493   1.152
 1118SOL     OW 4252   2.141   3.687   3.320
 1118SOL    HW1 4253   2.127   3.591   3.347
 1118SOL    HW2 4254   2.236   3.713   3.338
 1119SOL     OW 4255   3.992   3.910   1.719
 1119SOL    HW1 4256   3.927   3.873   1.653
 1119SOL    HW2 4257   4.008   4.007   1.698
 1120SOL     OW 4258   4.122   1.072   4.231
 1120SOL    HW1 4259   4.086   1.123   4.310
 1120SOL    HW2 4260   4.119   0.974   4.251
 1121SOL     OW 4261   5.221   3.208   2.023
 1121SOL    HW1 4262   5.299   3.160   2.064
 1121SOL    HW2 4263   5.253   3.289   1.974
 1122SOL     OW 4264   5.107   4.104   0.164
 1122SOL    HW1 4265   5.074   4.070   0.075
 1122SOL    HW2 4266   5.108   4.204   0.163
 1123SOL     OW 4267   3.471   0.596   2.524
 1123SOL    HW1 4268   3.511   0.593   2.432
 1123SOL    HW2 4269   3.425   0.683   2.538
 1124SOL     OW 4270   0.908   4.422   4.445
 1124SOL    HW1 4271   0.932   4.334   4.484
 1124SOL    HW2 4272   0.964   4.494   4.487
 1125SOL     OW 4273   3.593   3.380   5.140
 1125SOL    HW1 4274   3.608   3.289   5.100
 1125SOL    HW2 4275   3.562   3.371   5.234
 1126SOL     OW 4276   5.264   6.348   2.110
 1126SOL    HW1 4277   5.327   6.425   2.117
 1126SOL    HW2 4278   5.316   6.262   2.117
 1127SOL     OW 4279   1.184   5.042   0.164
 1127SOL    HW1 4280   1.114   5.112   0.153
 1127SOL    HW2 4281   1.274   5.082   0.146
 1128SOL     OW 4282   2.422   2.033   4.594
 1128SOL    HW1 4283   2.433   2.045   4.495
 1128SOL    HW2 4284   2.492   2.085   4.642
 1129SOL     OW 4285   5.307   0.534   6.930
 1129SOL    HW1 4286   5.337   0.486   6.848
 1129SOL    HW2 4287   5.298   0.469   7.005
 1130SOL     OW 4288   6.798   4.514   6.514
 1130SOL    HW1 4289   6.890   4.479   6.531
 1130SOL    HW2 4290   6.734   4.472   6.578
 1131SOL     OW 4291   0.658   5.346   6.219
 1131SOL    HW1 4292   0.561   5.329   6.203
 1131SOL    HW2 4293   0.712   5.299   6.150
 1132SOL     OW 4294   5.604   0.289   5.707
 1132SOL    HW1 4295   5.505   0.296   5.689
 1132SOL    HW2 4296   5.623   0.320   5.800
 1133SOL     OW 4297   0.104   3.757   1.559
 1133SOL    HW1 4298   0.106   3.662   1.527
 1133SOL    HW2 4299   0.173   3.769   1.630
 1134SOL     OW 4300   5.504   2.708   6.051
 1134SOL    HW1 4301   5.595   2.750   6.053
 1134SOL    HW2 4302   5.514   2.608   6.056
 1135SOL     OW 4303   3.554   1.996   2.917
 1135SOL    HW1 4304   3.521   1.949   2.836
 1135SOL    HW2 4305   3.654   2.005   2.912
 1136SOL     OW 4306   3.694   5.132   4.164
 1136SOL    HW1 4307   3.664   5.060   4.226
 1136SOL    HW2 4308   3.640   5.128   4.080
 1137SOL     OW 4309   1.859   1.140   6.112
 1137SOL    HW1 4310   1.921   1.071   6.074
 1137SOL    HW2 4311   1.769   1.129   6.070
 1138SOL     OW 4312   0.908   4.389   5.514
 1138SOL    HW1 4313   0.980   4.322   5.493
 1138SOL    HW2 4314   0.943   4.481   5.497
 1139SOL     OW 4315   1.423   6.068   1.664
 1139SOL    HW1 4316   1.397   6.021   1.580
 1139SOL    HW2 4317   1.436   6.166   1.644
 1140SOL     OW 4318   3.752   1.757   3.490
 1140SOL    HW1 4319   3.726   1.667   3.454
 1140SOL    HW2 4320   3.687   1.825   3.458
 1141SOL     OW 4321   6.643   5.689   5.251
 1141SOL    HW1 4322   6.602   5.764   5.303
 1141SOL    HW2 4323   6.646   5.714   5.154
 1142SOL     OW 4324   6.529   0.775   4.164
 1142SOL    HW1 4325   6.452   0.712   4.157
 1142SOL    HW2 4326   6.513   0.855   4.106
 1143SOL     OW 4327   4.201   1.987   2.870
 1143SOL    HW1 4328   4.263   1.983   2.948
 1143SOL    HW2 4329   4.147   2.071   2.874
 1144SOL     OW 4330   6.801   5.963   4.979
 1144SOL    HW1 4331   6.784   5.864   4.985
 1144SOL    HW2 4332   6.892   5.979   4.942
 1145SOL     OW 4333   1.093   5.119   4.976
 1145SOL    HW1 4334   1.039   5.038   4.998
 1145SOL    HW2 4335   1.039   5.180   4.917
 1146SOL     OW 4336   5.454   2.109   0.738
 1146SOL    HW1 4337   5.533   2.048   0.738
 1146SOL    HW2 4338   5.427   2.130   0.644
 1147SOL     OW 4339   6.404   2.473   1.548
 1147SOL    HW1 4340   6.435   2.424   1.631
 1147SOL    HW2 4341   6.393   2.570   1.569
 1148SOL     OW 4342   3.844   0.126   0.388
 1148SOL    HW1 4343   3.896   0.187   0.447
 1148SOL    HW2 4344   3.885   0.035   0.390
 1149SOL     OW 4345   6.556   2.961   2.280
 1149SOL    HW1 4346   6.505   2.938   2.363
 1149SOL    HW2 4347   6.651   2.934   2.291
 1150SOL     OW 4348   1.229   4.621   6.838
 1150SOL    HW1 4349   1.265   4.711   6.859
 1150SOL    HW2 4350   1.239   4.602   6.741
 1151SOL     OW 4351   4.741   5.198   6.815
 1151SOL    HW1 4352   4.798   5.162   6.888
 1151SOL    HW2 4353   4.775   5.166   6.727
 1152SOL     OW 4354   0.953   0.227   4.702
 1152SOL    HW1 4355   0.942   0.138   4.747
 1152SOL    HW2 4356   0.905   0.297   4.754
 1153SOL     OW 4357   2.335   5.073   2.731
 1153SOL    HW1 4358   2.377   5.128   2.659
 1153SOL    HW2 4359   2.340   5.121   2.818
 1154SOL     OW 4360   1.239   5.525   1.727
 1154SOL    HW1 4361   1.225   5.622   1.706
 1154SOL    HW2 4362   1.234   5.472   1.642
 1155SOL     OW 4363   3.781   5.961   2.132
 1155SOL    HW1 4364   3.829   5.916   2.057
 1155SOL    HW2 4365   3.832   6.042   2.161
 1156SOL     OW 4366   2.148   0.440   4.200
 1156SOL    HW1 4367   2.119   0.498   4.277
 1156SOL    HW2 4368   2.072   0.431   4.135
 1157SOL     OW 4369   0.769   2.707   3.885
 1157SOL    HW1 4370   0.741   2.789   3.936
 1157SOL    HW2 4371   0.708   2.631   3.909
 1158SOL     OW 4372   4.655   5.257   5.168
 1158SOL    HW1 4373   4.657   5.205   5.082
 1158SOL    HW2 4374   4.599   5.209   5.235
 1159SOL     OW 4375   4.825   5.194   3.374
 1159SOL    HW1 4376   4.807   5.264   3.442
 1159SOL    HW2 4377   4.794   5.227   3.284
 1160SOL     OW 4378   2.883   3.729   0.289
 1160SOL    HW1 4379   2.924   3.674   0.217
 1160SOL    HW2 4380   2.899   3.686   0.378
 1161SOL     OW 4381   5.456   0.517   3.701
 1161SOL    HW1 4382   5.522   0.458   3.653
 1161SOL    HW2 4383   5.476   0.515   3.799
 1162SOL     OW 4384   3.763   4.306   1.722
 1162SOL    HW1 4385   3.687   4.308   1.656
 1162SOL    HW2 4386   3.755   4.225   1.780
 1163SOL     OW 4387   5.046   2.674   2.958
 1163SOL    HW1 4388   5.079   2.587   2.921
 1163SOL    HW2 4389   4.946   2.677   2.953
 1164SOL     OW 4390   5.705   3.431   3.842
 1164SOL    HW1 4391   5.738   3.374   3.766
 1164SOL    HW2 4392   5.730   3.388   3.929
 1165SOL     OW 4393   1.112   5.132   2.523
 1165SOL    HW1 4394   1.072   5.047   2.556
 1165SOL    HW2 4395   1.204   5.143   2.562
 1166SOL     OW 4396   4.171   2.985   6.660
 1166SOL    HW1 4397   4.201   3.018   6.571
 1166SOL    HW2 4398   4.191   2.887   6.668
 1167SOL     OW 4399   4.955   1.568   5.161
 1167SOL    HW1 4400   4.995   1.575   5.070
 1167SOL    HW2 4401   5.016   1.516   5.221
 1168SOL     OW 4402   5.799   6.237   3.208
 1168SOL    HW1 4403   5.737   6.162   3.232
 1168SOL    HW2 4404   5.755   6.325   3.227
 1169SOL     OW 4405   1.009   3.249   1.866
 1169SOL    HW1 4406   1.076   3.304   1.815
 1169SOL    HW2 4407   0.920   3.257   1.822
 1170SOL     OW 4408   2.905   0.508   1.380
 1170SOL    HW1 4409   2.927   0.411   1.366
 1170SOL    HW2 4410   2.816   0.515   1.425
 1171SOL     OW 4411   2.618   6.270   0.477
 1171SOL    HW1 4412   2.707   6.240   0.441
 1171SOL    HW2 4413   2.581   6.341   0.418
 1172SOL     OW 4414   3.169   3.503   5.270
 1172SOL    HW1 4415   3.122   3.524   5.185
 1172SOL    HW2 4416   3.126   3.553   5.345
 1173SOL     OW 4417   4.052   0.275   6.358
 1173SOL    HW1 4418   4.138   0.323   6.338
 1173SOL    HW2 4419   3.975   0.332   6.328
 1174SOL     OW 4420   2.870   6.204   1.127
 1174SOL    HW1 4421   2.849   6.212   1.029
 1174SOL    HW2 4422   2.832   6.118   1.161
 1175SOL     OW 4423   6.343   4.966   5.874
 1175SOL    HW1 4424   6.306   4.980   5.782
 1175SOL    HW2 4425   6.385   5.051   5.906
 1176SOL     OW 4426   6.135   4.094   0.520
 1176SOL    HW1 4427   6.165   4.053   0.606
 1176SOL    HW2 4428   6.208   4.152   0.483
 1177SOL     OW 4429   6.442   2.622   6.635
 1177SOL    HW1 4430   6.384   2.703   6.629
 1177SOL    HW2 4431   6.386   2.542   6.657
 1178SOL     OW 4432   5.889   4.215   1.983
 1178SOL    HW1 4433   5.939   4.147   1.929
 1178SOL    HW2 4434   5.841   4.278   1.920
 1179SOL     OW 4435   2.811   5.484   6.178
 1179SOL    HW1 4436   2.854   5.570   6.150
 1179SOL    HW2 4437   2.882   5.417   6.201
 1180SOL     OW 4438   2.507   2.080   4.141
 1180SOL    HW1 4439   2.419   2.076   4.189
 1180SOL    HW2 4440   2.546   1.989   4.135
 1181SOL     OW 4441   2.424   4.409   2.955
 1181SOL    HW1 4442   2.338   4.447   2.919
 1181SOL    HW2 4443   2.495   4.418   2.885
 1182SOL     OW 4444   1.568   4.047   3.241
 1182SOL    HW1 4445   1.645   3.988   3.216
 1182SOL    HW2 4446   1.495   4.038   3.173
 1183SOL     OW 4447   4.723   5.719   1.328
 1183SOL    HW1 4448   4.647   5.679   1.276
 1183SOL    HW2 4449   4.719   5.685   1.422
 1184SOL     OW 4450   3.170   2.989   5.490
 1184SOL    HW1 4451   3.082   2.943   5.501
 1184SOL    HW2 4452   3.178   3.022   5.396
 1185SOL     OW 4453   1.954   1.335   6.785
 1185SOL    HW1 4454   1.959   1.235   6.791
 1185SOL    HW2 4455   1.928   1.361   6.692
 1186SOL     OW 4456   4.670   1.700   4.889
 1186SOL    HW1 4457   4.755   1.661   4.852
 1186SOL    HW2 4458   4.692   1.772   4.954
 1187SOL     OW 4459   0.007   0.729   5.695
 1187SOL    HW1 4460   0.045   0.646   5.656
 1187SOL    HW2 4461   6.950   0.761   5.638
 1188SOL     OW 4462   1.146   6.919   5.634
 1188SOL    HW1 4463   1.210   6.871   5.573
 1188SOL    HW2 4464   1.122   6.859   5.710
 1189SOL     OW 4465   5.946   1.281   2.043
 1189SOL    HW1 4466   6.020   1.224   2.007
 1189SOL    HW2 4467   5.859   1.232   2.035
 1190SOL     OW 4468   4.253   5.144   3.009
 1190SOL    HW1 4469   4.184   5.074   2.991
 1190SOL    HW2 4470   4.208   5.229   3.038
 1191SOL     OW 4471   3.138   5.250   6.627
 1191SOL    HW1 4472   3.084   5.173   6.593
 1191SOL    HW2 4473   3.143   5.321   6.557
 1192SOL     OW 4474   5.214   5.235   2.799
 1192SOL    HW1 4475   5.139   5.177   2.767
 1192SOL    HW2 4476   5.266   5.186   2.869
 1193SOL     OW 4477   4.707   0.369   3.763
 1193SOL    HW1 4478   4.780   0.359   3.696
 1193SOL    HW2 4479   4.742   0.418   3.844
 1194SOL     OW 4480   6.005   0.327   0.657
 1194SOL    HW1 4481   5.996   0.305   0.560
 1194SOL    HW2 4482   5.934   0.392   0.683
 1195SOL     OW 4483   4.142   0.769   6.081
 1195SOL    HW1 4484   4.241   0.750   6.087
 1195SOL    HW2 4485   4.125   0.838   6.012
 1196SOL     OW 4486   0.578   5.366   2.222
 1196SOL    HW1 4487   0.505   5.366   2.291
 1196SOL    HW2 4488   0.658   5.319   2.259
 1197SOL     OW 4489   3.291   5.145   6.097
 1197SOL    HW1 4490   3.379   5.103   6.121
 1197SOL    HW2 4491   3.258   5.107   6.011
 1198SOL     OW 4492   2.826   1.495   2.918
 1198SOL    HW1 4493   2.780   1.544   2.844
 1198SOL    HW2 4494   2.906   1.447   2.882
 1199SOL     OW 4495   4.005   3.788   2.730
 1199SOL    HW1 4496   4.067   3.763   2.655
 1199SOL    HW2 4497   3.918   3.820   2.693
 1200SOL     OW 4498   2.981   4.166   0.403
 1200SOL    HW1 4499   2.899   4.111   0.415
 1200SOL    HW2 4500   3.007   4.168   0.307
 1201SOL     OW 4501   1.339   0.534   5.054
 1201SOL    HW1 4502   1.354   0.630   5.078
 1201SOL    HW2 4503   1.411   0.477   5.095
 1202SOL     OW 4504   6.031   6.574   4.699
 1202SOL    HW1 4505   6.032   6.564   4.798
 1202SOL    HW2 4506   6.036   6.671   4.675
 1203SOL     OW 4507   5.554   0.372   1.536
 1203SOL    HW1 4508   5.576   0.289   1.587
 1203SOL    HW2 4509   5.560   0.451   1.597
 1204SOL     OW 4510   2.728   0.524   0.413
 1204SOL    HW1 4511   2.788   0.471   0.353
 1204SOL    HW2 4512   2.644   0.548   0.364
 1205SOL     OW 4513   0.509   2.755   5.671
 1205SOL    HW1 4514   0.473   2.826   5.611
 1205SOL    HW2 4515   0.470   2.666   5.646
 1206SOL     OW 4516   1.386   1.657   4.408
 1206SOL    HW1 4517   1.392   1.642   4.309
 1206SOL    HW2 4518   1.322   1.731   4.427
 1207SOL     OW 4519   5.528   6.699   6.603
 1207SOL    HW1 4520   5.430   6.703   6.587
 1207SOL    HW2 4521   5.559   6.785   6.644
 1208SOL     OW 4522   4.124   3.558   3.525
 1208SOL    HW1 4523   4.180   3.548   3.442
 1208SOL    HW2 4524   4.056   3.630   3.511
 1209SOL     OW 4525   6.200   5.374   4.214
 1209SOL    HW1 4526   6.148   5.292   4.241
 1209SOL    HW2 4527   6.259   5.351   4.137
 1210SOL     OW 4528   3.446   6.821   2.724
 1210SOL    HW1 4529   3.494   6.906   2.747
 1210SOL    HW2 4530   3.355   6.842   2.688
 1211SOL     OW 4531   1.052   4.176   4.524
 1211SOL    HW1 4532   1.123   4.247   4.522
 1211SOL    HW2 4533   1.052   4.132   4.613
 1212SOL     OW 4534   2.008   4.144   4.622
 1212SOL    HW1 4535   1.908   4.137   4.620
 1212SOL    HW2 4536   2.046   4.058   4.656
 1213SOL     OW 4537   5.854   2.399   5.493
 1213SOL    HW1 4538   5.852   2.406   5.393
 1213SOL    HW2 4539   5.822   2.485   5.533
 1214SOL     OW 4540   2.362   2.781   3.403
 1214SOL    HW1 4541   2.282   2.737   3.363
 1214SOL    HW2 4542   2.337   2.870   3.440
 1215SOL     OW 4543   0.715   4.484   1.858
 1215SOL    HW1 4544   0.695   4.536   1.942
 1215SOL    HW2 4545   0.652   4.511   1.786
 1216SOL     OW 4546   2.437   0.240   2.063
 1216SOL    HW1 4547   2.528   0.252   2.103
 1216SOL    HW2 4548   2.369   0.235   2.135
 1217SOL     OW 4549   1.230   0.651   2.101
 1217SOL    HW1 4550   1.285   0.568   2.092
 1217SOL    HW2 4551   1.174   0.663   2.019
 1218SOL     OW 4552   0.981   3.718   3.380
 1218SOL    HW1 4553   1.051   3.655   3.347
 1218SOL    HW2 4554   0.895   3.669   3.390
 1219SOL     OW 4555   3.096   6.083   2.338
 1219SOL    HW1 4556   3.088   5.984   2.325
 1219SOL    HW2 4557   3.192   6.109   2.335
 1220SOL     OW 4558   6.388   3.516   3.252
 1220SOL    HW1 4559   6.444   3.434   3.260
 1220SOL    HW2 4560   6.400   3.573   3.334
 1221SOL     OW 4561   4.559   3.262   0.095
 1221SOL    HW1 4562   4.617   3.338   0.066
 1221SOL    HW2 4563   4.599   3.176   0.064
 1222SOL     OW 4564   0.086   6.327   1.260
 1222SOL    HW1 4565   0.017   6.352   1.328
 1222SOL    HW2 4566   0.082   6.390   1.183
 1223SOL     OW 4567   6.169   6.480   5.158
 1223SOL    HW1 4568   6.234   6.528   5.217
 1223SOL    HW2 4569   6.084   6.465   5.207
 1224SOL     OW 4570   5.796   5.006   2.083
 1224SOL    HW1 4571   5.721   5.072   2.075
 1224SOL    HW2 4572   5.883   5.055   2.088
 1225SOL     OW 4573   4.736   1.989   0.300
 1225SOL    HW1 4574   4.646   2.011   0.263
 1225SOL    HW2 4575   4.807   2.024   0.238
 1226SOL     OW 4576   5.278   5.327   1.025
 1226SOL    HW1 4577   5.255   5.287   0.937
 1226SOL    HW2 4578   5.345   5.269   1.072
 1227SOL     OW 4579   4.933   4.104   6.434
 1227SOL    HW1 4580   4.890   4.080   6.521
 1227SOL    HW2 4581   4.938   4.203   6.425
 1228SOL     OW 4582   3.803   3.358   3.036
 1228SOL    HW1 4583   3.828   3.442   2.989
 1228SOL    HW2 4584   3.823   3.367   3.134
 1229SOL     OW 4585   2.001   5.220   2.662
 1229SOL    HW1 4586   2.083   5.201   2.609
 1229SOL    HW2 4587   2.022   5.214   2.760
 1230SOL     OW 4588   5.633   4.900   1.308
 1230SOL    HW1 4589   5.617   4.972   1.376
 1230SOL    HW2 4590   5.675   4.939   1.226
 1231SOL     OW 4591   1.685   2.431   6.241
 1231SOL    HW1 4592   1.668   2.449   6.338
 1231SOL    HW2 4593   1.644   2.343   6.216
 1232SOL     OW 4594   3.203   0.314   5.681
 1232SOL    HW1 4595   3.168   0.254   5.609
 1232SOL    HW2 4596   3.303   0.312   5.680
 1233SOL     OW 4597   0.929   5.575   5.445
 1233SOL    HW1 4598   1.025   5.580   5.416
 1233SOL    HW2 4599   0.881   5.657   5.413
 1234SOL     OW 4600   0.263   3.386   0.086
 1234SOL    HW1 4601   0.193   3.344   0.029
 1234SOL    HW2 4602   0.293   3.321   0.156
 1235SOL     OW 4603   6.120   4.801   1.134
 1235SOL    HW1 4604   6.216   4.817   1.112
 1235SOL    HW2 4605   6.063   4.832   1.058
 1236SOL     OW 4606   1.780   1.748   2.496
 1236SOL    HW1 4607   1.714   1.673   2.491
 1236SOL    HW2 4608   1.824   1.761   2.407
 1237SOL     OW 4609   0.381   0.044   5.172
 1237SOL    HW1 4610   0.302   0.038   5.111
 1237SOL    HW2 4611   0.417   0.137   5.169
 1238SOL     OW 4612   0.158   0.547   4.775
 1238SOL    HW1 4613   0.131   0.574   4.868
 1238SOL    HW2 4614   0.086   0.492   4.735
 1239SOL     OW 4615   5.553   5.136   5.117
 1239SOL    HW1 4616   5.591   5.224   5.088
 1239SOL    HW2 4617   5.514   5.088   5.038
 1240SOL     OW 4618   0.048   4.412   2.777
 1240SOL    HW1 4619   6.982   4.359   2.787
 1240SOL    HW2 4620   0.041   4.471   2.697
 1241SOL     OW 4621   5.047   4.908   5.143
 1241SOL    HW1 4622   5.005   4.987   5.098
 1241SOL    HW2 4623   5.035   4.827   5.086
 1242SOL     OW 4624   1.318   4.977   0.417
 1242SOL    HW1 4625   1.239   4.985   0.357
 1242SOL    HW2 4626   1.292   4.929   0.501
 1243SOL     OW 4627   1.218   4.351   4.655
 1243SOL    HW1 4628   1.316   4.361   4.674
 1243SOL    HW2 4629   1.177   4.442   4.643
 1244SOL     OW 4630   5.691   6.994   5.381
 1244SOL    HW1 4631   5.771   7.015   5.437
 1244SOL    HW2 4632   5.716   7.000   5.285
 1245SOL     OW 4633   4.757   6.972   0.884
 1245SOL    HW1 4634   4.731   6.951   0.789
 1245SOL    HW2 4635   4.763   0.053   0.895
 1246SOL     OW 4636   5.187   1.024   0.194
 1246SOL    HW1 4637   5.171   0.932   0.229
 1246SOL    HW2 4638   5.100   1.068   0.174
 1247SOL     OW 4639   0.075   6.861   3.471
 1247SOL    HW1 4640   0.039   6.797   3.403
 1247SOL    HW2 4641   0.106   6.811   3.551
 1248SOL     OW 4642   1.381   6.425   3.993
 1248SOL    HW1 4643   1.419   6.444   3.902
 1248SOL    HW2 4644   1.350   6.330   3.996
 1249SOL     OW 4645   5.549   5.478   7.012
 1249SOL    HW1 4646   5.542   5.387   6.973
 1249SOL    HW2 4647   5.555   5.471   0.094
 1250SOL     OW 4648   6.574   3.338   4.997
 1250SOL    HW1 4649   6.550   3.378   4.909
 1250SOL    HW2 4650   6.612   3.247   4.984
 1251SOL     OW 4651   3.137   0.781   2.847
 1251SOL    HW1 4652   3.060   0.746   2.900
 1251SOL    HW2 4653   3.104   0.841   2.774
 1252SOL     OW 4654   1.877   5.913   6.413
 1252SOL    HW1 4655   1.810   5.966   6.361
 1252SOL    HW2 4656   1.832   5.872   6.493
 1253SOL     OW 4657   3.221   0.606   0.972
 1253SOL    HW1 4658   3.271   0.568   0.895
 1253SOL    HW2 4659   3.189   0.532   1.032
 1254SOL     OW 4660   6.031   0.709   2.265
 1254SOL    HW1 4661   6.122   0.677   2.291
 1254SOL    HW2 4662   5.962   0.646   2.301
 1255SOL     OW 4663   5.645   1.499   5.571
 1255SOL    HW1 4664   5.691   1.581   5.536
 1255SOL    HW2 4665   5.700   1.418   5.550
 1256SOL     OW 4666   1.202   5.489   3.800
 1256SOL    HW1 4667   1.270   5.430   3.842
 1256SOL    HW2 4668   1.110   5.451   3.815
 1257SOL     OW 4669   0.566   6.353   4.147
 1257SOL    HW1 4670   0.569   6.329   4.050
 1257SOL    HW2 4671   0.482   6.318   4.188
 1258SOL     OW 4672   4.619   6.732   4.944
 1258SOL    HW1 4673   4.626   6.785   4.860
 1258SOL    HW2 4674   4.527   6.693   4.951
 1259SOL     OW 4675   6.379   0.256   4.513
 1259SOL    HW1 4676   6.318   0.321   4.467
 1259SOL    HW2 4677   6.436   0.305   4.579
 1260SOL     OW 4678   2.314   0.904   1.947
 1260SOL    HW1 4679   2.395   0.931   1.894
 1260SOL    HW2 4680   2.237   0.963   1.922
 1261SOL     OW 4681   6.079   4.223   6.159
 1261SOL    HW1 4682   6.086   4.123   6.154
 1261SOL    HW2 4683   5.996   4.248   6.209
 1262SOL     OW 4684   4.692   5.145   0.536
 1262SOL    HW1 4685   4.609   5.168   0.585
 1262SOL    HW2 4686   4.717   5.050   0.555
 1263SOL     OW 4687   6.728   2.150   1.339
 1263SOL    HW1 4688   6.768   2.239   1.320
 1263SOL    HW2 4689   6.747   2.087   1.264
 1264SOL     OW 4690   0.437   3.419   3.554
 1264SOL    HW1 4691   0.366   3.464   3.500
 1264SOL    HW2 4692   0.526   3.432   3.509
 1265SOL     OW 4693   6.829   5.252   4.866
 1265SOL    HW1 4694   6.928   5.242   4.870
 1265SOL    HW2 4695   6.805   5.326   4.803
 1266SOL     OW 4696   2.285   1.852   4.729
 1266SOL    HW1 4697   2.331   1.924   4.678
 1266SOL    HW2 4698   2.186   1.865   4.723
 1267SOL     OW 4699   0.035   5.061   2.743
 1267SOL    HW1 4700   6.960   5.091   2.724
 1267SOL    HW2 4701   0.061   5.089   2.835
 1268SOL     OW 4702   6.139   3.132   6.793
 1268SOL    HW1 4703   6.110   3.187   6.714
 1268SOL    HW2 4704   6.235   3.107   6.782
 1269SOL     OW 4705   6.975   5.440   5.486
 1269SOL    HW1 4706   0.001   5.381   5.418
 1269SOL    HW2 4707   6.955   5.388   5.568
 1270SOL     OW 4708   1.926   3.142   4.698
 1270SOL    HW1 4709   1.934   3.229   4.747
 1270SOL    HW2 4710   1.872   3.077   4.752
 1271SOL     OW 4711   4.822   0.697   2.898
 1271SOL    HW1 4712   4.846   0.790   2.872
 1271SOL    HW2 4713   4.820   0.689   2.998
 1272SOL     OW 4714   0.739   6.177   1.765
 1272SOL    HW1 4715   0.681   6.232   1.826
 1272SOL    HW2 4716   0.695   6.089   1.749
 1273SOL     OW 4717   2.757   6.218   6.605
 1273SOL    HW1 4718   2.696   6.169   6.543
 1273SOL    HW2 4719   2.741   6.187   6.699
 1274SOL     OW 4720   6.877   2.184   1.781
 1274SOL    HW1 4721   6.791   2.146   1.745
 1274SOL    HW2 4722   6.954   2.140   1.736
 1275SOL     OW 4723   3.342   2.128   3.980
 1275SOL    HW1 4724   3.363   2.079   3.896
 1275SOL    HW2 4725   3.424   2.136   4.036
 1276SOL     OW 4726   6.665   0.257   3.202
 1276SOL    HW1 4727   6.763   0.248   3.215
 1276SOL    HW2 4728   6.644   0.255   3.104
 1277SOL     OW 4729   0.298   0.844   5.193
 1277SOL    HW1 4730   0.325   0.935   5.160
 1277SOL    HW2 4731   0.355   0.819   5.271
 1278SOL     OW 4732   1.965   2.004   6.032
 1278SOL    HW1 4733   1.921   2.077   6.084
 1278SOL    HW2 4734   2.047   2.040   5.987
 1279SOL     OW 4735   2.506   5.196   6.984
 1279SOL    HW1 4736   2.486   5.282   0.013
 1279SOL    HW2 4737   2.420   5.152   6.957
 1280SOL     OW 4738   2.009   6.931   3.205
 1280SOL    HW1 4739   2.034   7.017   3.161
 1280SOL    HW2 4740   2.028   6.855   3.143
 1281SOL     OW 4741   1.129   6.359   3.479
 1281SOL    HW1 4742   1.069   6.279   3.488
 1281SOL    HW2 4743   1.113   6.402   3.391
 1282SOL     OW 4744   0.378   0.819   1.783
 1282SOL    HW1 4745   0.418   0.749   1.842
 1282SOL    HW2 4746   0.405   0.801   1.688
 1283SOL     OW 4747   5.769   5.649   5.931
 1283SOL    HW1 4748   5.789   5.553   5.949
 1283SOL    HW2 4749   5.799   5.672   5.838
 1284SOL     OW 4750   2.708   2.454   1.759
 1284SOL    HW1 4751   2.640   2.497   1.818
 1284SOL    HW2 4752   2.780   2.413   1.815
 1285SOL     OW 4753   4.409   2.586   5.197
 1285SOL    HW1 4754   4.436   2.666   5.250
 1285SOL    HW2 4755   4.310   2.574   5.201
 1286SOL     OW 4756   6.300   4.876   1.779
 1286SOL    HW1 4757   6.333   4.788   1.812
 1286SOL    HW2 4758   6.202   4.871   1.761
 1287SOL     OW 4759   0.222   5.556   6.820
 1287SOL    HW1 4760   0.168   5.514   6.893
 1287SOL    HW2 4761   0.161   5.590   6.749
 1288SOL     OW 4762   6.131   3.043   2.227
 1288SOL    HW1 4763   6.080   3.004   2.150
 1288SOL    HW2 4764   6.090   3.131   2.253
 1289SOL     OW 4765   0.679   5.811   2.730
 1289SOL    HW1 4766   0.597   5.866   2.714
 1289SOL    HW2 4767   0.659   5.715   2.710
 1290SOL     OW 4768   0.751   6.212   1.465
 1290SOL    HW1 4769   0.729   6.201   1.562
 1290SOL    HW2 4770   0.763   6.309   1.445
 1291SOL     OW 4771   2.391   6.102   6.742
 1291SOL    HW1 4772   2.330   6.175   6.772
 1291SOL    HW2 4773   2.395   6.101   6.642
 1292SOL     OW 4774   0.978   6.045   0.539
 1292SOL    HW1 4775   0.969   6.122   0.603
 1292SOL    HW2 4776   0.918   6.060   0.461
 1293SOL     OW 4777   0.453   2.206   6.125
 1293SOL    HW1 4778   0.486   2.258   6.204
 1293SOL    HW2 4779   0.415   2.269   6.057
 1294SOL     OW 4780   0.988   2.235   2.350
 1294SOL    HW1 4781   0.995   2.331   2.323
 1294SOL    HW2 4782   1.024   2.177   2.278
 1295SOL     OW 4783   6.025   2.783   1.520
 1295SOL    HW1 4784   6.037   2.738   1.609
 1295SOL    HW2 4785   6.112   2.822   1.490
 1296SOL     OW 4786   3.526   1.762   6.069
 1296SOL    HW1 4787   3.479   1.791   6.152
 1296SOL    HW2 4788   3.550   1.841   6.013
 1297SOL     OW 4789   6.464   1.204   5.934
 1297SOL    HW1 4790   6.521   1.146   5.876
 1297SOL    HW2 4791   6.480   1.181   6.030
 1298SOL     OW 4792   5.603   2.782   3.158
 1298SOL    HW1 4793   5.568   2.851   3.221
 1298SOL    HW2 4794   5.537   2.708   3.148
 1299SOL     OW 4795   1.047   4.153   3.950
 1299SOL    HW1 4796   1.041   4.222   4.022
 1299SOL    HW2 4797   1.053   4.062   3.992
 1300SOL     OW 4798   3.766   2.670   1.465
 1300SOL    HW1 4799   3.753   2.623   1.552
 1300SOL    HW2 4800   3.764   2.769   1.480
 1301SOL     OW 4801   1.395   0.105   3.784
 1301SOL    HW1 4802   1.365   0.009   3.779
 1301SOL    HW2 4803   1.480   0.110   3.837
 1302SOL     OW 4804   3.337   6.449   4.865
 1302SOL    HW1 4805   3.399   6.373   4.881
 1302SOL    HW2 4806   3.252   6.416   4.824
 1303SOL     OW 4807   3.439   1.674   1.182
 1303SOL    HW1 4808   3.356   1.710   1.225
 1303SOL    HW2 4809   3.516   1.735   1.203
 1304SOL     OW 4810   3.040   0.727   6.660
 1304SOL    HW1 4811   2.965   0.779   6.619
 1304SOL    HW2 4812   3.123   0.738   6.605
 1305SOL     OW 4813   4.718   7.003   5.349
 1305SOL    HW1 4814   4.649   6.962   5.289
 1305SOL    HW2 4815   4.800   0.004   5.296
 1306SOL     OW 4816   0.689   4.537   4.332
 1306SOL    HW1 4817   0.606   4.489   4.361
 1306SOL    HW2 4818   0.769   4.482   4.355
 1307SOL     OW 4819   1.144   2.279   4.265
 1307SOL    HW1 4820   1.195   2.352   4.310
 1307SOL    HW2 4821   1.199   2.196   4.262
 1308SOL     OW 4822   4.525   6.019   3.587
 1308SOL    HW1 4823   4.560   6.042   3.496
 1308SOL    HW2 4824   4.491   5.925   3.586
 1309SOL     OW 4825   5.972   2.918   4.582
 1309SOL    HW1 4826   6.052   2.897   4.638
 1309SOL    HW2 4827   5.906   2.970   4.636
 1310SOL     OW 4828   5.650   3.426   4.846
 1310SOL    HW1 4829   5.649   3.346   4.787
 1310SOL    HW2 4830   5.697   3.404   4.932
 1311SOL     OW 4831   6.080   5.870   5.076
 1311SOL    HW1 4832   6.116   5.857   5.169
 1311SOL    HW2 4833   6.032   5.787   5.047
 1312SOL     OW 4834   0.858   6.509   0.343
 1312SOL    HW1 4835   0.947   6.550   0.322
 1312SOL    HW2 4836   0.796   6.525   0.267
 1313SOL     OW 4837   3.479   5.190   4.567
 1313SOL    HW1 4838   3.505   5.257   4.497
 1313SOL    HW2 4839   3.562   5.149   4.605
 1314SOL     OW 4840   0.417   1.607   5.185
 1314SOL    HW1 4841   0.319   1.605   5.168
 1314SOL    HW2 4842   0.466   1.576   5.104
 1315SOL     OW 4843   2.087   1.429   2.524
 1315SOL    HW1 4844   2.133   1.493   2.463
 1315SOL    HW2 4845   2.154   1.386   2.584
 1316SOL     OW 4846   2.932   6.868   3.208
 1316SOL    HW1 4847   2.896   6.809   3.281
 1316SOL    HW2 4848   3.028   6.847   3.192
 1317SOL     OW 4849   0.355   5.701   3.851
 1317SOL    HW1 4850   0.431   5.763   3.871
 1317SOL    HW2 4851   0.391   5.612   3.822
 1318SOL     OW 4852   0.193   6.762   0.517
 1318SOL    HW1 4853   0.210   6.677   0.566
 1318SOL    HW2 4854   0.195   6.838   0.583
 1319SOL     OW 4855   6.300   1.119   6.655
 1319SOL    HW1 4856   6.285   1.173   6.573
 1319SOL    HW2 4857   6.227   1.051   6.665
 1320SOL     OW 4858   5.318   5.712   6.439
 1320SOL    HW1 4859   5.374   5.656   6.500
 1320SOL    HW2 4860   5.355   5.709   6.347
 1321SOL     OW 4861   3.079   2.457   6.818
 1321SOL    HW1 4862   3.097   2.522   6.892
 1321SOL    HW2 4863   3.163   2.441   6.767
 1322SOL     OW 4864   6.586   1.329   4.037
 1322SOL    HW1 4865   6.597   1.254   3.972
 1322SOL    HW2 4866   6.491   1.360   4.037
 1323SOL     OW 4867   6.830   1.692   4.829
 1323SOL    HW1 4868   6.895   1.727   4.896
 1323SOL    HW2 4869   6.767   1.764   4.802
 1324SOL     OW 4870   1.575   3.543   1.283
 1324SOL    HW1 4871   1.489   3.493   1.280
 1324SOL    HW2 4872   1.615   3.545   1.191
 1325SOL     OW 4873   2.935   5.964   2.584
 1325SOL    HW1 4874   2.942   6.018   2.500
 1325SOL    HW2 4875   3.001   5.889   2.582
 1326SOL     OW 4876   5.669   3.239   4.613
 1326SOL    HW1 4877   5.587   3.240   4.556
 1326SOL    HW2 4878   5.691   3.144   4.637
 1327SOL     OW 4879   3.767   5.361   3.121
 1327SOL    HW1 4880   3.722   5.403   3.199
 1327SOL    HW2 4881   3.702   5.352   3.045
 1328SOL     OW 4882   2.504   2.534   6.209
 1328SOL    HW1 4883   2.484   2.549   6.306
 1328SOL    HW2 4884   2.420   2.509   6.161
 1329SOL     OW 4885   0.638   0.787   0.587
 1329SOL    HW1 4886   0.588   0.757   0.669
 1329SOL    HW2 4887   0.710   0.850   0.614
 1330SOL     OW 4888   6.314   6.701   1.438
 1330SOL    HW1 4889   6.319   6.710   1.339
 1330SOL    HW2 4890   6.378   6.766   1.481
 1331SOL     OW 4891   5.205   0.542   2.354
 1331SOL    HW1 4892   5.168   0.520   2.263
 1331SOL    HW2 4893   5.160   0.486   2.423
 1332SOL     OW 4894   4.331   1.171   1.393
 1332SOL    HW1 4895   4.391   1.154   1.316
 1332SOL    HW2 4896   4.375   1.139   1.477
 1333SOL     OW 4897   3.704   4.256   5.315
 1333SOL    HW1 4898   3.799   4.279   5.293
 1333SOL    HW2 4899   3.652   4.243   5.230
 1334SOL     OW 4900   0.056   4.014   4.493
 1334SOL    HW1 4901   0.110   4.087   4.451
 1334SOL    HW2 4902   0.117   3.943   4.528
 1335SOL     OW 4903   2.756   4.947   3.250
 1335SOL    HW1 4904   2.708   4.878   3.196
 1335SOL    HW2 4905   2.794   5.016   3.189
 1336SOL     OW 4906   0.501   0.524   5.317
 1336SOL    HW1 4907   0.477   0.608   5.366
 1336SOL    HW2 4908   0.578   0.541   5.257
 1337SOL     OW 4909   2.124   2.008   6.309
 1337SOL    HW1 4910   2.145   2.104   6.326
 1337SOL    HW2 4911   2.047   2.001   6.246
 1338SOL     OW 4912   4.205   5.474   0.426
 1338SOL    HW1 4913   4.146   5.395   0.444
 1338SOL    HW2 4914   4.159   5.534   0.360
 1339SOL     OW 4915   6.362   4.189   5.032
 1339SOL    HW1 4916   6.263   4.199   5.021
 1339SOL    HW2 4917   6.384   4.094   5.056
 1340SOL     OW 4918   1.330   1.947   6.985
 1340SOL    HW1 4919   1.368   1.901   0.047
 1340SOL    HW2 4920   1.384   2.028   6.964
 1341SOL     OW 4921   3.548   1.130   4.144
 1341SOL    HW1 4922   3.491   1.145   4.064
 1341SOL    HW2 4923   3.524   1.198   4.214
 1342SOL     OW 4924   0.492   6.555   0.903
 1342SOL    HW1 4925   0.486   6.477   0.841
 1342SOL    HW2 4926   0.588   6.576   0.921
 1343SOL     OW 4927   4.239   5.381   3.144
 1343SOL    HW1 4928   4.291   5.351   3.224
 1343SOL    HW2 4929   4.245   5.481   3.136
 1344SOL     OW 4930   6.173   1.288   3.201
 1344SOL    HW1 4931   6.236   1.365   3.187
 1344SOL    HW2 4932   6.095   1.297   3.139
 1345SOL     OW 4933   0.101   0.393   2.943
 1345SOL    HW1 4934   0.010   0.427   2.920
 1345SOL    HW2 4935   0.108   0.297   2.914
 1346SOL     OW 4936   0.348   0.873   3.936
 1346SOL    HW1 4937   0.419   0.936   3.904
 1346SOL    HW2 4938   0.373   0.779   3.911
 1347SOL     OW 4939   5.997   0.222   3.510
 1347SOL    HW1 4940   5.970   0.265   3.424
 1347SOL    HW2 4941   6.065   0.151   3.492
 1348SOL     OW 4942   5.497   4.615   4.867
 1348SOL    HW1 4943   5.472   4.612   4.964
 1348SOL    HW2 4944   5.545   4.531   4.843
 1349SOL     OW 4945   3.825   3.398   6.562
 1349SOL    HW1 4946   3.884   3.331   6.609
 1349SOL    HW2 4947   3.730   3.383   6.589
 1350SOL     OW 4948   3.189   0.582   6.255
 1350SOL    HW1 4949   3.149   0.581   6.163
 1350SOL    HW2 4950   3.269   0.642   6.256
 1351SOL     OW 4951   0.998   0.638   4.525
 1351SOL    HW1 4952   1.065   0.700   4.483
 1351SOL    HW2 4953   0.979   0.668   4.618
 1352SOL     OW 4954   0.146   0.562   3.599
 1352SOL    HW1 4955   0.223   0.590   3.657
 1352SOL    HW2 4956   0.167   0.473   3.557
 1353SOL     OW 4957   1.226   4.101   3.727
 1353SOL    HW1 4958   1.151   4.141   3.780
 1353SOL    HW2 4959   1.256   4.166   3.657
 1354SOL     OW 4960   0.277   6.207   2.399
 1354SOL    HW1 4961   0.349   6.138   2.405
 1354SOL    HW2 4962   0.195   6.166   2.360
 1355SOL     OW 4963   4.719   3.027   0.015
 1355SOL    HW1 4964   4.778   2.949   7.011
 1355SOL    HW2 4965   4.625   3.008   7.003
 1356SOL     OW 4966   2.906   3.622   2.599
 1356SOL    HW1 4967   2.806   3.619   2.607
 1356SOL    HW2 4968   2.939   3.713   2.625
 1357SOL     OW 4969   2.783   2.913   5.577
 1357SOL    HW1 4970   2.835   2.861   5.509
 1357SOL    HW2 4971   2.743   2.850   5.644
 1358SOL     OW 4972   1.883   2.188   6.204
 1358SOL    HW1 4973   1.909   2.284   6.216
 1358SOL    HW2 4974   1.823   2.160   6.280
 1359SOL     OW 4975   6.157   1.690   0.125
 1359SOL    HW1 4976   6.253   1.717   0.119
 1359SOL    HW2 4977   6.150   1.598   0.163
 1360SOL     OW 4978   3.541   3.825   3.856
 1360SOL    HW1 4979   3.493   3.796   3.773
 1360SOL    HW2 4980   3.628   3.777   3.863
 1361SOL     OW 4981   0.859   6.178   0.327
 1361SOL    HW1 4982   0.947   6.213   0.357
 1361SOL    HW2 4983   0.790   6.250   0.332
 1362SOL     OW 4984   2.588   2.752   5.742
 1362SOL    HW1 4985   2.526   2.767   5.819
 1362SOL    HW2 4986   2.682   2.752   5.775
 1363SOL     OW 4987   5.854   6.335   2.283
 1363SOL    HW1 4988   5.870   6.417   2.337
 1363SOL    HW2 4989   5.756   6.315   2.279
 1364SOL     OW 4990   6.715   3.429   1.506
 1364SOL    HW1 4991   6.642   3.497   1.513
 1364SOL    HW2 4992   6.683   3.342   1.542
 1365SOL     OW 4993   0.815   3.856   6.265
 1365SOL    HW1 4994   0.742   3.903   6.214
 1365SOL    HW2 4995   0.804   3.873   6.363
 1366SOL     OW 4996   6.024   1.546   0.511
 1366SOL    HW1 4997   6.071   1.519   0.427
 1366SOL    HW2 4998   5.955   1.615   0.490
 1367SOL     OW 4999   1.053   5.868   4.488
 1367SOL    HW1 5000   1.102   5.852   4.573
 1367SOL    HW2 5001   1.091   5.810   4.416
 1368SOL     OW 5002   0.884   6.584   5.285
 1368SOL    HW1 5003   0.917   6.678   5.297
 1368SOL    HW2 5004   0.904   6.553   5.192
 1369SOL     OW 5005   2.838   6.633   3.346
 1369SOL    HW1 5006   2.834   6.615   3.444
 1369SOL    HW2 5007   2.748   6.617   3.306
 1370SOL     OW 5008   6.961   2.215   3.243
 1370SOL    HW1 5009   6.894   2.283   3.214
 1370SOL    HW2 5010   0.009   2.200   3.169
 1371SOL     OW 5011   5.966   1.892   4.849
 1371SOL    HW1 5012   6.063   1.891   4.828
 1371SOL    HW2 5013   5.952   1.919   4.944
 1372SOL     OW 5014   6.883   2.264   0.133
 1372SOL    HW1 5015   6.928   2.284   0.220
 1372SOL    HW2 5016   6.825   2.341   0.107
 1373SOL     OW 5017   4.619   2.599   1.924
 1373SOL    HW1 5018   4.656   2.670   1.984
 1373SOL    HW2 5019   4.579   2.641   1.842
 1374SOL     OW 5020   4.499   4.759   0.321
 1374SOL    HW1 5021   4.586   4.750   0.370
 1374SOL    HW2 5022   4.500   4.701   0.240
 1375SOL     OW 5023   5.754   5.681   4.326
 1375SOL    HW1 5024   5.715   5.644   4.410
 1375SOL    HW2 5025   5.810   5.762   4.347
 1376SOL     OW 5026   2.429   4.909   6.130
 1376SOL    HW1 5027   2.436   5.003   6.164
 1376SOL    HW2 5028   2.494   4.851   6.179
 1377SOL     OW 5029   1.322   1.125   2.907
 1377SOL    HW1 5030   1.254   1.135   2.835
 1377SOL    HW2 5031   1.410   1.161   2.876
 1378SOL     OW 5032   4.756   2.411   4.526
 1378SOL    HW1 5033   4.740   2.324   4.480
 1378SOL    HW2 5034   4.854   2.431   4.524
 1379SOL     OW 5035   5.190   5.154   1.355
 1379SOL    HW1 5036   5.109   5.101   1.329
 1379SOL    HW2 5037   5.178   5.249   1.326
 1380SOL     OW 5038   0.291   5.434   1.449
 1380SOL    HW1 5039   0.388   5.455   1.445
 1380SOL    HW2 5040   0.238   5.516   1.426
 1381SOL     OW 5041   6.043   2.414   5.775
 1381SOL    HW1 5042   5.978   2.488   5.758
 1381SOL    HW2 5043   6.136   2.450   5.773
 1382SOL     OW 5044   4.177   2.679   0.255
 1382SOL    HW1 5045   4.195   2.641   0.345
 1382SOL    HW2 5046   4.090   2.643   0.220
 1383SOL     OW 5047   0.187   1.020   1.816
 1383SOL    HW1 5048   0.252   0.944   1.816
 1383SOL    HW2 5049   0.101   0.990   1.858
 1384SOL     OW 5050   5.582   1.059   1.659
 1384SOL    HW1 5051   5.646   1.129   1.690
 1384SOL    HW2 5052   5.632   0.978   1.629
 1385SOL     OW 5053   1.241   5.643   2.094
 1385SOL    HW1 5054   1.246   5.710   2.168
 1385SOL    HW2 5055   1.148   5.640   2.058
 1386SOL     OW 5056   3.256   5.777   4.412
 1386SOL    HW1 5057   3.176   5.742   4.362
 1386SOL    HW2 5058   3.290   5.707   4.475
 1387SOL     OW 5059   3.599   5.819   2.308
 1387SOL    HW1 5060   3.608   5.879   2.228
 1387SOL    HW2 5061   3.508   5.829   2.347
 1388SOL     OW 5062   6.405   0.141   1.357
 1388SOL    HW1 5063   6.479   0.090   1.313
 1388SOL    HW2 5064   6.317   0.109   1.321
 1389SOL     OW 5065   6.111   0.967   2.920
 1389SOL    HW1 5066   6.189   0.911   2.892
 1389SOL    HW2 5067   6.121   1.059   2.880
 1390SOL     OW 5068   6.989   1.836   6.144
 1390SOL    HW1 5069   6.955   1.890   6.068
 1390SOL    HW2 5070   0.068   1.855   6.159
 1391SOL     OW 5071   0.403   2.504   2.918
 1391SOL    HW1 5072   0.304   2.501   2.931
 1391SOL    HW2 5073   0.434   2.420   2.875
 1392SOL     OW 5074   4.864   5.298   5.568
 1392SOL    HW1 5075   4.941   5.286   5.630
 1392SOL    HW2 5076   4.894   5.346   5.485
 1393SOL     OW 5077   4.288   0.281   5.625
 1393SOL    HW1 5078   4.346   0.362   5.621
 1393SOL    HW2 5079   4.311   0.227   5.707
 1394SOL     OW 5080   3.132   5.688   5.569
 1394SOL    HW1 5081   3.168   5.597   5.548
 1394SOL    HW2 5082   3.054   5.707   5.508
 1395SOL     OW 5083   3.773   4.601   5.969
 1395SOL    HW1 5084   3.862   4.555   5.970
 1395SOL    HW2 5085   3.701   4.535   5.949
 1396SOL     OW 5086   5.924   6.114   4.564
 1396SOL    HW1 5087   5.896   6.196   4.614
 1396SOL    HW2 5088   6.022   6.118   4.544
 1397SOL     OW 5089   4.502   6.351   4.738
 1397SOL    HW1 5090   4.535   6.374   4.829
 1397SOL    HW2 5091   4.532   6.421   4.673
 1398SOL     OW 5092   1.329   1.634   5.153
 1398SOL    HW1 5093   1.263   1.631   5.229
 1398SOL    HW2 5094   1.320   1.551   5.098
 1399SOL     OW 5095   2.951   6.077   1.648
 1399SOL    HW1 5096   2.952   6.023   1.732
 1399SOL    HW2 5097   2.958   6.016   1.569
 1400SOL     OW 5098   6.856   0.387   1.878
 1400SOL    HW1 5099   6.918   0.322   1.835
 1400SOL    HW2 5100   6.878   0.397   1.975
 1401SOL     OW 5101   0.374   1.634   4.858
 1401SOL    HW1 5102   0.321   1.550   4.850
 1401SOL    HW2 5103   0.313   1.713   4.855
 1402SOL     OW 5104   0.139   3.023   0.469
 1402SOL    HW1 5105   0.187   2.940   0.499
 1402SOL    HW2 5106   0.078   3.054   0.541
 1403SOL     OW 5107   2.606   6.871   2.429
 1403SOL    HW1 5108   2.570   6.785   2.391
 1403SOL    HW2 5109   2.700   6.857   2.460
 1404SOL     OW 5110   5.396   0.763   0.079
 1404SOL    HW1 5111   5.383   0.691   0.011
 1404SOL    HW2 5112   5.465   0.828   0.046
 1405SOL     OW 5113   2.059   3.564   0.824
 1405SOL    HW1 5114   1.972   3.550   0.775
 1405SOL    HW2 5115   2.134   3.525   0.770
 1406SOL     OW 5116   0.974   3.912   1.204
 1406SOL    HW1 5117   1.053   3.941   1.259
 1406SOL    HW2 5118   0.894   3.965   1.230
 1407SOL     OW 5119   6.625   1.371   2.528
 1407SOL    HW1 5120   6.547   1.344   2.472
 1407SOL    HW2 5121   6.673   1.446   2.484
 1408SOL     OW 5122   5.344   0.950   6.359
 1408SOL    HW1 5123   5.443   0.948   6.348
 1408SOL    HW2 5124   5.320   1.004   6.439
 1409SOL     OW 5125   0.162   0.929   4.415
 1409SOL    HW1 5126   0.242   0.988   4.403
 1409SOL    HW2 5127   0.080   0.986   4.417
 1410SOL     OW 5128   0.829   3.157   6.872
 1410SOL    HW1 5129   0.836   3.174   6.774
 1410SOL    HW2 5130   0.734   3.169   6.902
 1411SOL     OW 5131   1.741   6.818   2.562
 1411SOL    HW1 5132   1.684   6.895   2.590
 1411SOL    HW2 5133   1.721   6.739   2.620
 1412SOL     OW 5134   1.344   2.919   0.411
 1412SOL    HW1 5135   1.292   2.891   0.492
 1412SOL    HW2 5136   1.281   2.929   0.334
 1413SOL     OW 5137   2.380   0.643   4.324
 1413SOL    HW1 5138   2.429   0.631   4.410
 1413SOL    HW2 5139   2.293   0.595   4.328
 1414SOL     OW 5140   2.539   1.827   1.793
 1414SOL    HW1 5141   2.570   1.872   1.709
 1414SOL    HW2 5142   2.572   1.733   1.794
 1415SOL     OW 5143   4.096   6.742   4.954
 1415SOL    HW1 5144   4.017   6.764   4.896
 1415SOL    HW2 5145   4.067   6.742   5.050
 1416SOL     OW 5146   4.256   4.657   2.187
 1416SOL    HW1 5147   4.311   4.618   2.113
 1416SOL    HW2 5148   4.160   4.660   2.159
 1417SOL     OW 5149   2.778   2.312   6.858
 1417SOL    HW1 5150   2.756   2.294   6.953
 1417SOL    HW2 5151   2.736   2.398   6.829
 1418SOL     OW 5152   3.252   3.979   2.629
 1418SOL    HW1 5153   3.305   4.009   2.708
 1418SOL    HW2 5154   3.299   4.006   2.545
 1419SOL     OW 5155   3.603   6.584   4.823
 1419SOL    HW1 5156   3.625   6.577   4.726
 1419SOL    HW2 5157   3.516   6.538   4.840
 1420SOL     OW 5158   1.112   6.163   2.306
 1420SOL    HW1 5159   1.045   6.232   2.331
 1420SOL    HW2 5160   1.097   6.133   2.212
 1421SOL     OW 5161   2.770   2.265   2.577
 1421SOL    HW1 5162   2.841   2.272   2.507
 1421SOL    HW2 5163   2.683   2.242   2.535
 1422SOL     OW 5164   2.036   4.821   1.663
 1422SOL    HW1 5165   2.069   4.764   1.738
 1422SOL    HW2 5166   2.099   4.814   1.586
 1423SOL     OW 5167   5.034   6.827   2.550
 1423SOL    HW1 5168   5.032   6.923   2.578
 1423SOL    HW2 5169   4.953   6.780   2.584
 1424SOL     OW 5170   5.894   5.084   5.488
 1424SOL    HW1 5171   5.850   5.074   5.398
 1424SOL    HW2 5172   5.974   5.143   5.479
 1425SOL     OW 5173   1.865   6.769   3.868
 1425SOL    HW1 5174   1.963   6.768   3.890
 1425SOL    HW2 5175   1.815   6.817   3.939
 1426SOL     OW 5176   1.240   1.667   5.433
 1426SOL    HW1 5177   1.249   1.653   5.532
 1426SOL    HW2 5178   1.144   1.663   5.407
 1427SOL     OW 5179   6.258   0.362   3.893
 1427SOL    HW1 5180   6.350   0.355   3.857
 1427SOL    HW2 5181   6.196   0.392   3.821
 1428SOL     OW 5182   5.817   2.350   0.193
 1428SOL    HW1 5183   5.873   2.293   0.133
 1428SOL    HW2 5184   5.871   2.429   0.223
 1429SOL     OW 5185   6.352   0.223   0.461
 1429SOL    HW1 5186   6.306   0.183   0.381
 1429SOL    HW2 5187   6.447   0.242   0.438
 1430SOL     OW 5188   1.759   4.461   3.692
 1430SOL    HW1 5189   1.783   4.372   3.654
 1430SOL    HW2 5190   1.821   4.483   3.767
 1431SOL     OW 5191   2.452   1.033   2.186
 1431SOL    HW1 5192   2.530   1.097   2.183
 1431SOL    HW2 5193   2.420   1.016   2.092
 1432SOL     OW 5194   1.966   1.108   2.592
 1432SOL    HW1 5195   1.898   1.055   2.643
 1432SOL    HW2 5196   1.974   1.199   2.632
 1433SOL     OW 5197   4.196   0.387   3.955
 1433SOL    HW1 5198   4.132   0.456   3.920
 1433SOL    HW2 5199   4.221   0.324   3.881
 1434SOL     OW 5200   0.582   1.036   5.630
 1434SOL    HW1 5201   0.550   1.119   5.677
 1434SOL    HW2 5202   0.546   1.034   5.537
 1435SOL     OW 5203   5.730   1.557   3.082
 1435SOL    HW1 5204   5.756   1.653   3.098
 1435SOL    HW2 5205   5.769   1.500   3.155
 1436SOL     OW 5206   4.255   3.976   0.151
 1436SOL    HW1 5207   4.184   3.915   0.187
 1436SOL    HW2 5208   4.213   4.060   0.118
 1437SOL     OW 5209   2.903   1.588   3.168
 1437SOL    HW1 5210   2.998   1.575   3.199
 1437SOL    HW2 5211   2.894   1.556   3.074
 1438SOL     OW 5212   3.134   6.813   1.123
 1438SOL    HW1 5213   3.204   6.754   1.164
 1438SOL    HW2 5214   3.047   6.763   1.118
 1439SOL     OW 5215   0.232   5.583   2.456
 1439SOL    HW1 5216   0.305   5.651   2.461
 1439SOL    HW2 5217   0.268   5.498   2.417
 1440SOL     OW 5218   3.105   3.985   0.861
 1440SOL    HW1 5219   3.013   3.954   0.883
 1440SOL    HW2 5220   3.149   3.920   0.799
 1441SOL     OW 5221   6.074   6.608   1.342
 1441SOL    HW1 5222   6.169   6.617   1.372
 1441SOL    HW2 5223   6.013   6.632   1.418
 1442SOL     OW 5224   5.752   5.710   0.240
 1442SOL    HW1 5225   5.730   5.783   0.175
 1442SOL    HW2 5226   5.775   5.749   0.329
 1443SOL     OW 5227   0.979   2.422   2.959
 1443SOL    HW1 5228   0.914   2.371   3.016
 1443SOL    HW2 5229   1.057   2.362   2.937
 1444SOL     OW 5230   5.831   6.263   0.063
 1444SOL    HW1 5231   5.831   6.226   0.156
 1444SOL    HW2 5232   5.779   6.349   0.061
 1445SOL     OW 5233   0.606   3.400   2.299
 1445SOL    HW1 5234   0.528   3.453   2.332
 1445SOL    HW2 5235   0.644   3.346   2.374
 1446SOL     OW 5236   6.156   6.730   6.670
 1446SOL    HW1 5237   6.241   6.768   6.706
 1446SOL    HW2 5238   6.174   6.639   6.632
 1447SOL     OW 5239   6.014   5.170   4.268
 1447SOL    HW1 5240   5.932   5.164   4.212
 1447SOL    HW2 5241   5.989   5.195   4.361
 1448SOL     OW 5242   0.587   2.740   5.307
 1448SOL    HW1 5243   0.654   2.738   5.381
 1448SOL    HW2 5244   0.551   2.833   5.296
 1449SOL     OW 5245   1.569   3.674   4.705
 1449SOL    HW1 5246   1.645   3.669   4.639
 1449SOL    HW2 5247   1.555   3.769   4.732
 1450SOL     OW 5248   1.803   1.982   5.278
 1450SOL    HW1 5249   1.753   2.030   5.350
 1450SOL    HW2 5250   1.819   1.887   5.306
 1451SOL     OW 5251   2.463   6.738   1.657
 1451SOL    HW1 5252   2.483   6.644   1.630
 1451SOL    HW2 5253   2.504   6.757   1.746
 1452SOL     OW 5254   4.369   3.321   6.311
 1452SOL    HW1 5255   4.284   3.328   6.259
 1452SOL    HW2 5256   4.378   3.401   6.371
 1453SOL     OW 5257   0.749   4.201   5.687
 1453SOL    HW1 5258   0.810   4.122   5.680
 1453SOL    HW2 5259   0.799   4.284   5.661
 1454SOL     OW 5260   2.874   2.296   3.500
 1454SOL    HW1 5261   2.828   2.236   3.566
 1454SOL    HW2 5262   2.917   2.240   3.429
 1455SOL     OW 5263   1.396   6.115   2.366
 1455SOL    HW1 5264   1.445   6.049   2.423
 1455SOL    HW2 5265   1.300   6.090   2.361
 1456SOL     OW 5266   6.582   5.597   5.853
 1456SOL    HW1 5267   6.601   5.504   5.885
 1456SOL    HW2 5268   6.626   5.611   5.764
 1457SOL     OW 5269   0.765   3.963   6.520
 1457SOL    HW1 5270   0.753   3.880   6.573
 1457SOL    HW2 5271   0.814   4.031   6.574
 1458SOL     OW 5272   6.021   5.316   5.921
 1458SOL    HW1 5273   5.970   5.236   5.950
 1458SOL    HW2 5274   6.048   5.306   5.825
 1459SOL     OW 5275   4.906   6.333   5.244
 1459SOL    HW1 5276   4.962   6.395   5.189
 1459SOL    HW2 5277   4.830   6.383   5.286
 1460SOL     OW 5278   2.095   6.227   5.252
 1460SOL    HW1 5279   2.064   6.256   5.342
 1460SOL    HW2 5280   2.170   6.161   5.262
 1461SOL     OW 5281   6.997   2.965   2.112
 1461SOL    HW1 5282   6.991   2.867   2.092
 1461SOL    HW2 5283   0.053   2.981   2.177
 1462SOL     OW 5284   0.991   0.001   0.587
 1462SOL    HW1 5285   1.052   0.071   0.624
 1462SOL    HW2 5286   0.926   0.044   0.524
 1463SOL     OW 5287   1.821   6.211   6.876
 1463SOL    HW1 5288   1.885   6.140   6.903
 1463SOL    HW2 5289   1.778   6.185   6.789
 1464SOL     OW 5290   6.945   4.234   4.870
 1464SOL    HW1 5291   6.922   4.162   4.805
 1464SOL    HW2 5292   0.011   4.279   4.842
 1465SOL     OW 5293   1.672   1.547   3.537
 1465SOL    HW1 5294   1.653   1.590   3.449
 1465SOL    HW2 5295   1.586   1.528   3.585
 1466SOL     OW 5296   3.975   2.514   1.543
 1466SOL    HW1 5297   3.936   2.432   1.584
 1466SOL    HW2 5298   3.902   2.569   1.503
 1467SOL     OW 5299   1.154   0.852   3.699
 1467SOL    HW1 5300   1.210   0.790   3.753
 1467SOL    HW2 5301   1.058   0.824   3.705
 1468SOL     OW 5302   2.896   6.301   1.794
 1468SOL    HW1 5303   2.812   6.280   1.843
 1468SOL    HW2 5304   2.921   6.224   1.736
 1469SOL     OW 5305   6.100   5.649   3.318
 1469SOL    HW1 5306   6.094   5.641   3.218
 1469SOL    HW2 5307   6.145   5.735   3.342
 1470SOL     OW 5308   6.210   2.553   0.867
 1470SOL    HW1 5309   6.138   2.611   0.904
 1470SOL    HW2 5310   6.263   2.514   0.943
 1471SOL     OW 5311   5.889   6.708   1.541
 1471SOL    HW1 5312   5.966   6.746   1.592
 1471SOL    HW2 5313   5.836   6.648   1.600
 1472SOL     OW 5314   2.334   6.912   5.923
 1472SOL    HW1 5315   2.273   6.962   5.862
 1472SOL    HW2 5316   2.362   6.972   5.998
 1473SOL     OW 5317   3.293   4.964   4.569
 1473SOL    HW1 5318   3.349   5.046   4.574
 1473SOL    HW2 5319   3.290   4.931   4.475
 1474SOL     OW 5320   4.401   4.327   1.356
 1474SOL    HW1 5321   4.430   4.318   1.451
 1474SOL    HW2 5322   4.423   4.243   1.306
 1475SOL     OW 5323   5.142   0.750   0.393
 1475SOL    HW1 5324   5.049   0.785   0.405
 1475SOL    HW2 5325   5.139   0.662   0.347
 1476SOL     OW 5326   4.013   1.129   1.705
 1476SOL    HW1 5327   4.038   1.156   1.612
 1476SOL    HW2 5328   4.096   1.106   1.756
 1477SOL     OW 5329   4.492   5.644   1.220
 1477SOL    HW1 5330   4.423   5.691   1.166
 1477SOL    HW2 5331   4.494   5.547   1.195
 1478SOL     OW 5332   5.173   5.631   5.459
 1478SOL    HW1 5333   5.109   5.603   5.530
 1478SOL    HW2 5334   5.200   5.726   5.473
 1479SOL     OW 5335   3.606   3.524   1.322
 1479SOL    HW1 5336   3.685   3.568   1.279
 1479SOL    HW2 5337   3.542   3.494   1.252
 1480SOL     OW 5338   3.213   0.797   5.067
 1480SOL    HW1 5339   3.125   0.824   5.106
 1480SOL    HW2 5340   3.204   0.789   4.968
 1481SOL     OW 5341   5.054   2.476   4.951
 1481SOL    HW1 5342   5.081   2.507   4.860
 1481SOL    HW2 5343   5.099   2.533   5.020
 1482SOL     OW 5344   4.309   0.270   0.351
 1482SOL    HW1 5345   4.243   0.201   0.322
 1482SOL    HW2 5346   4.261   0.344   0.399
 1483SOL     OW 5347   4.298   1.110   6.010
 1483SOL    HW1 5348   4.381   1.166   6.009
 1483SOL    HW2 5349   4.226   1.156   5.959
 1484SOL     OW 5350   2.883   5.526   4.474
 1484SOL    HW1 5351   2.787   5.535   4.501
 1484SOL    HW2 5352   2.897   5.437   4.430
 1485SOL     OW 5353   5.262   2.337   2.621
 1485SOL    HW1 5354   5.203   2.261   2.593
 1485SOL    HW2 5355   5.276   2.399   2.543
 1486SOL     OW 5356   5.265   6.832   3.312
 1486SOL    HW1 5357   5.278   6.819   3.410
 1486SOL    HW2 5358   5.324   6.905   3.279
 1487SOL     OW 5359   6.625   0.192   0.414
 1487SOL    HW1 5360   6.646   0.222   0.321
 1487SOL    HW2 5361   6.686   0.236   0.479
 1488SOL     OW 5362   6.458   0.890   3.007
 1488SOL    HW1 5363   6.500   0.809   3.049
 1488SOL    HW2 5364   6.395   0.932   3.072
 1489SOL     OW 5365   4.075   5.016   6.356
 1489SOL    HW1 5366   4.016   5.068   6.293
 1489SOL    HW2 5367   4.035   4.925   6.370
 1490SOL     OW 5368   0.448   2.373   1.933
 1490SOL    HW1 5369   0.538   2.358   1.972
 1490SOL    HW2 5370   0.408   2.456   1.973
 1491SOL     OW 5371   7.005   3.181   1.752
 1491SOL    HW1 5372   6.983   3.278   1.749
 1491SOL    HW2 5373   6.939   3.134   1.811
 1492SOL     OW 5374   6.102   1.149   3.452
 1492SOL    HW1 5375   6.049   1.221   3.496
 1492SOL    HW2 5376   6.128   1.177   3.360
 1493SOL     OW 5377   4.648   2.311   5.957
 1493SOL    HW1 5378   4.589   2.288   5.879
 1493SOL    HW2 5379   4.651   2.233   6.020
 1494SOL     OW 5380   5.441   3.067   6.057
 1494SOL    HW1 5381   5.491   3.028   5.980
 1494SOL    HW2 5382   5.502   3.128   6.109
 1495SOL     OW 5383   5.953   3.790   3.818
 1495SOL    HW1 5384   5.956   3.888   3.797
 1495SOL    HW2 5385   5.858   3.759   3.819
 1496SOL     OW 5386   6.867   6.109   7.005
 1496SOL    HW1 5387   6.831   6.200   0.011
 1496SOL    HW2 5388   6.956   6.119   6.962
 1497SOL     OW 5389   5.633   3.102   2.851
 1497SOL    HW1 5390   5.563   3.069   2.914
 1497SOL    HW2 5391   5.591   3.164   2.784
 1498SOL     OW 5392   3.349   4.948   0.938
 1498SOL    HW1 5393   3.287   5.022   0.916
 1498SOL    HW2 5394   3.319   4.864   0.894
 1499SOL     OW 5395   0.037   3.932   6.043
 1499SOL    HW1 5396   0.029   3.877   6.126
 1499SOL    HW2 5397   6.992   3.897   5.973
 1500SOL     OW 5398   0.618   5.432   1.118
 1500SOL    HW1 5399   0.543   5.478   1.071
 1500SOL    HW2 5400   0.705   5.477   1.097
 1501SOL     OW 5401   5.593   1.703   6.166
 1501SOL    HW1 5402   5.605   1.625   6.103
 1501SOL    HW2 5403   5.659   1.695   6.241
 1502SOL     OW 5404   6.530   0.708   6.655
 1502SOL    HW1 5405   6.605   0.745   6.600
 1502SOL    HW2 5406   6.561   0.694   6.749
 1503SOL     OW 5407   0.782   3.888   2.216
 1503SOL    HW1 5408   0.816   3.796   2.195
 1503SOL    HW2 5409   0.695   3.882   2.264
 1504SOL     OW 5410   0.537   0.628   3.334
 1504SOL    HW1 5411   0.618   0.571   3.328
 1504SOL    HW2 5412   0.553   0.714   3.285
 1505SOL     OW 5413   5.827   6.232   4.893
 1505SOL    HW1 5414   5.927   6.225   4.884
 1505SOL    HW2 5415   5.792   6.295   4.824
 1506SOL     OW 5416   1.381   1.523   0.647
 1506SOL    HW1 5417   1.464   1.577   0.631
 1506SOL    HW2 5418   1.402   1.447   0.709
 1507SOL     OW 5419   1.336   2.481   4.313
 1507SOL    HW1 5420   1.384   2.437   4.389
 1507SOL    HW2 5421   1.324   2.578   4.332
 1508SOL     OW 5422   0.918   0.630   0.599
 1508SOL    HW1 5423   0.933   0.728   0.587
 1508SOL    HW2 5424   0.868   0.615   0.685
 1509SOL     OW 5425   5.113   0.893   4.751
 1509SOL    HW1 5426   5.049   0.915   4.677
 1509SOL    HW2 5427   5.067   0.904   4.839
 1510SOL     OW 5428   3.717   6.724   4.181
 1510SOL    HW1 5429   3.815   6.732   4.200
 1510SOL    HW2 5430   3.704   6.690   4.088
 1511SOL     OW 5431   4.047   3.762   4.002
 1511SOL    HW1 5432   4.065   3.704   3.923
 1511SOL    HW2 5433   4.098   3.728   4.081
 1512SOL     OW 5434   6.446   5.851   1.252
 1512SOL    HW1 5435   6.534   5.808   1.270
 1512SOL    HW2 5436   6.460   5.940   1.209
 1513SOL     OW 5437   2.645   6.992   6.194
 1513SOL    HW1 5438   2.592   0.030   6.131
 1513SOL    HW2 5439   2.584   6.936   6.250
 1514SOL     OW 5440   3.670   2.147   5.706
 1514SOL    HW1 5441   3.724   2.094   5.641
 1514SOL    HW2 5442   3.575   2.154   5.673
 1515SOL     OW 5443   6.667   1.892   2.330
 1515SOL    HW1 5444   6.627   1.859   2.245
 1515SOL    HW2 5445   6.594   1.912   2.396
 1516SOL     OW 5446   6.392   6.330   4.619
 1516SOL    HW1 5447   6.398   6.389   4.699
 1516SOL    HW2 5448   6.349   6.243   4.645
 1517SOL     OW 5449   4.136   6.279   3.679
 1517SOL    HW1 5450   4.068   6.290   3.606
 1517SOL    HW2 5451   4.133   6.358   3.740
 1518SOL     OW 5452   6.975   2.045   0.705
 1518SOL    HW1 5453   6.875   2.044   0.711
 1518SOL    HW2 5454   7.004   2.121   0.646
 1519SOL     OW 5455   6.794   3.936   0.647
 1519SOL    HW1 5456   6.808   4.031   0.619
 1519SOL    HW2 5457   6.880   3.897   0.678
 1520SOL     OW 5458   0.185   5.314   1.659
 1520SOL    HW1 5459   0.220   5.372   1.585
 1520SOL    HW2 5460   0.235   5.228   1.661
 1521SOL     OW 5461   1.965   5.131   6.001
 1521SOL    HW1 5462   2.014   5.147   6.087
 1521SOL    HW2 5463   1.995   5.198   5.933
 1522SOL     OW 5464   5.142   5.514   4.709
 1522SOL    HW1 5465   5.149   5.556   4.799
 1522SOL    HW2 5466   5.182   5.423   4.711
 1523SOL     OW 5467   3.238   6.299   6.670
 1523SOL    HW1 5468   3.327   6.340   6.650
 1523SOL    HW2 5469   3.204   6.252   6.589
 1524SOL     OW 5470   2.316   2.332   2.435
 1524SOL    HW1 5471   2.252   2.369   2.368
 1524SOL    HW2 5472   2.406   2.324   2.393
 1525SOL     OW 5473   5.651   2.949   1.002
 1525SOL    HW1 5474   5.629   3.044   0.980
 1525SOL    HW2 5475   5.589   2.916   1.073
 1526SOL     OW 5476   0.862   1.260   0.489
 1526SOL    HW1 5477   0.825   1.278   0.398
 1526SOL    HW2 5478   0.905   1.343   0.525
 1527SOL     OW 5479   3.332   1.562   4.694
 1527SOL    HW1 5480   3.330   1.463   4.710
 1527SOL    HW2 5481   3.240   1.594   4.674
 1528SOL     OW 5482   4.696   3.824   1.162
 1528SOL    HW1 5483   4.739   3.734   1.157
 1528SOL    HW2 5484   4.749   3.883   1.223
 1529SOL     OW 5485   4.820   1.110   6.378
 1529SOL    HW1 5486   4.872   1.156   6.450
 1529SOL    HW2 5487   4.846   1.148   6.289
 1530SOL     OW 5488   3.546   6.968   1.642
 1530SOL    HW1 5489   3.622   7.004   1.589
 1530SOL    HW2 5490   3.563   6.981   1.739
 1531SOL     OW 5491   3.568   0.092   4.069
 1531SOL    HW1 5492   3.667   0.097   4.056
 1531SOL    HW2 5493   3.525   0.178   4.043
 1532SOL     OW 5494   3.035   4.949   6.190
 1532SOL    HW1 5495   3.015   4.982   6.098
 1532SOL    HW2 5496   3.118   4.992   6.224
 1533SOL     OW 5497   5.501   5.488   1.656
 1533SOL    HW1 5498   5.541   5.447   1.574
 1533SOL    HW2 5499   5.551   5.459   1.737
 1534SOL     OW 5500   3.815   5.785   6.734
 1534SOL    HW1 5501   3.731   5.730   6.733
 1534SOL    HW2 5502   3.808   5.854   6.805
 1535SOL     OW 5503   6.371   6.249   4.321
 1535SOL    HW1 5504   6.328   6.315   4.260
 1535SOL    HW2 5505   6.367   6.282   4.415
 1536SOL     OW 5506   4.091   4.347   6.628
 1536SOL    HW1 5507   4.126   4.259   6.660
 1536SOL    HW2 5508   4.052   4.397   6.706
 1537SOL     OW 5509   3.356   5.222   3.508
 1537SOL    HW1 5510   3.388   5.274   3.429
 1537SOL    HW2 5511   3.345   5.283   3.586
 1538SOL     OW 5512   3.175   1.186   0.384
 1538SOL    HW1 5513   3.233   1.266   0.369
 1538SOL    HW2 5514   3.094   1.213   0.436
 1539SOL     OW 5515   5.418   3.183   1.322
 1539SOL    HW1 5516   5.464   3.265   1.288
 1539SOL    HW2 5517   5.486   3.118   1.356
 1540SOL     OW 5518   2.429   0.150   4.532
 1540SOL    HW1 5519   2.458   0.140   4.437
 1540SOL    HW2 5520   2.508   0.138   4.592
 1541SOL     OW 5521   3.411   3.181   4.534
 1541SOL    HW1 5522   3.502   3.212   4.560
 1541SOL    HW2 5523   3.394   3.204   4.438
 1542SOL     OW 5524   6.637   6.945   2.268
 1542SOL    HW1 5525   6.720   6.898   2.238
 1542SOL    HW2 5526   6.589   6.982   2.189
 1543SOL     OW 5527   2.819   5.267   6.429
 1543SOL    HW1 5528   2.777   5.188   6.384
 1543SOL    HW2 5529   2.900   5.238   6.480
 1544SOL     OW 5530   4.088   3.262   3.605
 1544SOL    HW1 5531   4.120   3.357   3.609
 1544SOL    HW2 5532   4.042   3.247   3.518
 1545SOL     OW 5533   6.246   0.408   2.100
 1545SOL    HW1 5534   6.340   0.394   2.070
 1545SOL    HW2 5535   6.227   0.349   2.179
 1546SOL     OW 5536   5.015   6.491   5.576
 1546SOL    HW1 5537   5.093   6.516   5.634
 1546SOL    HW2 5538   4.933   6.484   5.632
 1547SOL     OW 5539   1.622   4.193   0.380
 1547SOL    HW1 5540   1.561   4.248   0.323
 1547SOL    HW2 5541   1.641   4.106   0.333
 1548SOL     OW 5542   6.124   2.042   0.121
 1548SOL    HW1 5543   6.129   1.989   0.206
 1548SOL    HW2 5544   6.210   2.033   0.071
 1549SOL     OW 5545   3.748   1.618   4.544
 1549SOL    HW1 5546   3.748   1.617   4.644
 1549SOL    HW2 5547   3.822   1.677   4.512
 1550SOL     OW 5548   3.659   3.283   2.533
 1550SOL    HW1 5549   3.616   3.359   2.485
 1550SOL    HW2 5550   3.638   3.288   2.630
 1551SOL     OW 5551   0.697   5.258   0.029
 1551SOL    HW1 5552   0.621   5.199   0.057
 1551SOL    HW2 5553   0.718   5.242   6.951
 1552SOL     OW 5554   2.487   4.520   1.512
 1552SOL    HW1 5555   2.579   4.490   1.537
 1552SOL    HW2 5556   2.441   4.559   1.592
 1553SOL     OW 5557   6.617   1.497   5.931
 1553SOL    HW1 5558   6.530   1.461   5.898
 1553SOL    HW2 5559   6.660   1.552   5.859
 1554SOL     OW 5560   2.976   2.158   3.311
 1554SOL    HW1 5561   2.908   2.111   3.255
 1554SOL    HW2 5562   3.033   2.216   3.252
 1555SOL     OW 5563   6.424   2.862   6.224
 1555SOL    HW1 5564   6.324   2.859   6.225
 1555SOL    HW2 5565   6.454   2.951   6.257
 1556SOL     OW 5566   2.303   1.107   6.231
 1556SOL    HW1 5567   2.260   1.193   6.202
 1556SOL    HW2 5568   2.232   1.044   6.262
 1557SOL     OW 5569   1.711   3.484   6.795
 1557SOL    HW1 5570   1.645   3.411   6.773
 1557SOL    HW2 5571   1.711   3.552   6.721
 1558SOL     OW 5572   0.151   7.008   5.032
 1558SOL    HW1 5573   0.062   6.977   5.065
 1558SOL    HW2 5574   0.201   6.930   4.994
 1559SOL     OW 5575   0.483   2.289   5.767
 1559SOL    HW1 5576   0.407   2.276   5.831
 1559SOL    HW2 5577   0.459   2.359   5.700
 1560SOL     OW 5578   0.299   0.840   6.041
 1560SOL    HW1 5579   0.361   0.872   5.969
 1560SOL    HW2 5580   0.216   0.896   6.039
 1561SOL     OW 5581   4.849   6.443   2.546
 1561SOL    HW1 5582   4.769   6.408   2.497
 1561SOL    HW2 5583   4.926   6.380   2.533
 1562SOL     OW 5584   4.740   7.018   2.878
 1562SOL    HW1 5585   4.652   0.024   2.837
 1562SOL    HW2 5586   4.731   7.016   2.978
 1563SOL     OW 5587   3.256   1.425   6.071
 1563SOL    HW1 5588   3.253   1.463   6.163
 1563SOL    HW2 5589   3.181   1.359   6.060
 1564SOL     OW 5590   1.488   1.925   2.052
 1564SOL    HW1 5591   1.512   2.019   2.076
 1564SOL    HW2 5592   1.554   1.862   2.093
 1565SOL     OW 5593   5.043   3.653   1.864
 1565SOL    HW1 5594   5.056   3.703   1.778
 1565SOL    HW2 5595   4.980   3.577   1.849
 1566SOL     OW 5596   5.472   4.106   3.496
 1566SOL    HW1 5597   5.391   4.057   3.528
 1566SOL    HW2 5598   5.474   4.105   3.396
 1567SOL     OW 5599   6.286   5.601   6.076
 1567SOL    HW1 5600   6.274   5.511   6.118
 1567SOL    HW2 5601   6.287   5.592   5.977
 1568SOL     OW 5602   1.278   0.235   0.398
 1568SOL    HW1 5603   1.324   0.321   0.418
 1568SOL    HW2 5604   1.281   0.217   0.300
 1569SOL     OW 5605   4.081   6.467   4.780
 1569SOL    HW1 5606   4.062   6.403   4.855
 1569SOL    HW2 5607   4.019   6.546   4.787
 1570SOL     OW 5608   2.864   1.553   1.294
 1570SOL    HW1 5609   2.770   1.548   1.260
 1570SOL    HW2 5610   2.863   1.575   1.392
 1571SOL     OW 5611   6.133   3.227   1.681
 1571SOL    HW1 5612   6.036   3.234   1.657
 1571SOL    HW2 5613   6.165   3.314   1.718
 1572SOL     OW 5614   0.367   0.200   1.997
 1572SOL    HW1 5615   0.302   0.170   2.067
 1572SOL    HW2 5616   0.439   0.255   2.039
 1573SOL     OW 5617   4.765   0.079   1.547
 1573SOL    HW1 5618   4.726   0.095   1.638
 1573SOL    HW2 5619   4.746   0.158   1.489
 1574SOL     OW 5620   6.467   2.197   1.413
 1574SOL    HW1 5621   6.457   2.281   1.467
 1574SOL    HW2 5622   6.557   2.195   1.371
 1575SOL     OW 5623   1.489   2.271   0.542
 1575SOL    HW1 5624   1.462   2.330   0.466
 1575SOL    HW2 5625   1.586   2.247   0.534
 1576SOL     OW 5626   5.921   6.265   3.765
 1576SOL    HW1 5627   6.001   6.298   3.715
 1576SOL    HW2 5628   5.840   6.317   3.738
 1577SOL     OW 5629   2.806   0.215   5.749
 1577SOL    HW1 5630   2.855   0.300   5.731
 1577SOL    HW2 5631   2.775   0.175   5.663
 1578SOL     OW 5632   5.176   4.104   5.508
 1578SOL    HW1 5633   5.251   4.093   5.441
 1578SOL    HW2 5634   5.113   4.175   5.476
 1579SOL     OW 5635   0.653   0.892   3.695
 1579SOL    HW1 5636   0.743   0.852   3.710
 1579SOL    HW2 5637   0.662   0.991   3.682
 1580SOL     OW 5638   2.946   4.352   5.321
 1580SOL    HW1 5639   2.869   4.356   5.385
 1580SOL    HW2 5640   2.943   4.431   5.261
 1581SOL     OW 5641   6.799   3.907   4.967
 1581SOL    HW1 5642   6.826   3.811   4.961
 1581SOL    HW2 5643   6.802   3.947   4.875
 1582SOL     OW 5644   0.714   5.275   4.132
 1582SOL    HW1 5645   0.676   5.188   4.164
 1582SOL    HW2 5646   0.814   5.272   4.140
 1583SOL     OW 5647   2.056   2.416   3.688
 1583SOL    HW1 5648   2.120   2.366   3.629
 1583SOL    HW2 5649   1.965   2.378   3.679
 1584SOL     OW 5650   2.493   0.449   5.664
 1584SOL    HW1 5651   2.396   0.473   5.656
 1584SOL    HW2 5652   2.506   0.384   5.739
 1585SOL     OW 5653   5.475   0.846   3.878
 1585SOL    HW1 5654   5.467   0.766   3.938
 1585SOL    HW2 5655   5.518   0.818   3.792
 1586SOL     OW 5656   3.693   4.099   2.726
 1586SOL    HW1 5657   3.791   4.108   2.745
 1586SOL    HW2 5658   3.675   4.009   2.685
 1587SOL     OW 5659   3.489   6.358   0.169
 1587SOL    HW1 5660   3.395   6.389   0.187
 1587SOL    HW2 5661   3.503   6.269   0.212
 1588SOL     OW 5662   5.398   2.304   1.574
 1588SOL    HW1 5663   5.375   2.234   1.507
 1588SOL    HW2 5664   5.347   2.287   1.659
 1589SOL     OW 5665   6.008   4.818   4.586
 1589SOL    HW1 5666   5.940   4.891   4.580
 1589SOL    HW2 5667   6.090   4.853   4.631
 1590SOL     OW 5668   1.942   0.189   6.551
 1590SOL    HW1 5669   1.953   0.104   6.499
 1590SOL    HW2 5670   2.029   0.215   6.592
 1591SOL     OW 5671   1.105   4.183   2.350
 1591SOL    HW1 5672   1.122   4.282   2.349
 1591SOL    HW2 5673   1.024   4.162   2.295
 1592SOL     OW 5674   3.301   3.842   2.358
 1592SOL    HW1 5675   3.202   3.844   2.348
 1592SOL    HW2 5676   3.343   3.898   2.287
 1593SOL     OW 5677   1.462   5.649   4.325
 1593SOL    HW1 5678   1.410   5.679   4.244
 1593SOL    HW2 5679   1.557   5.633   4.299
 1594SOL     OW 5680   6.779   5.201   2.354
 1594SOL    HW1 5681   6.869   5.243   2.364
 1594SOL    HW2 5682   6.710   5.273   2.350
 1595SOL     OW 5683   6.373   4.459   6.558
 1595SOL    HW1 5684   6.310   4.387   6.530
 1595SOL    HW2 5685   6.413   4.503   6.478
 1596SOL     OW 5686   2.518   5.515   6.212
 1596SOL    HW1 5687   2.533   5.599   6.264
 1596SOL    HW2 5688   2.606   5.469   6.197
 1597SOL     OW 5689   2.576   6.509   1.560
 1597SOL    HW1 5690   2.570   6.411   1.578
 1597SOL    HW2 5691   2.600   6.523   1.464
 1598SOL     OW 5692   0.091   4.942   0.915
 1598SOL    HW1 5693   0.005   4.993   0.925
 1598SOL    HW2 5694   0.150   4.990   0.849
 1599SOL     OW 5695   3.683   5.280   6.998
 1599SOL    HW1 5696   3.778   5.258   7.018
 1599SOL    HW2 5697   3.633   5.292   0.066
 1600SOL     OW 5698   4.895   1.290   4.236
 1600SOL    HW1 5699   4.956   1.244   4.172
 1600SOL    HW2 5700   4.935   1.378   4.262
 1601SOL     OW 5701   1.431   5.121   4.618
 1601SOL    HW1 5702   1.402   5.135   4.713
 1601SOL    HW2 5703   1.381   5.045   4.579
 1602SOL     OW 5704   0.961   5.253   3.593
 1602SOL    HW1 5705   0.912   5.175   3.554
 1602SOL    HW2 5706   1.031   5.284   3.529
 1603SOL     OW 5707   7.017   6.279   2.070
 1603SOL    HW1 5708   6.957   6.207   2.035
 1603SOL    HW2 5709   0.094   6.254   2.055
 1604SOL     OW 5710   6.810   4.725   6.337
 1604SOL    HW1 5711   6.818   4.681   6.427
 1604SOL    HW2 5712   6.850   4.665   6.268
 1605SOL     OW 5713   5.979   6.432   2.995
 1605SOL    HW1 5714   5.962   6.334   2.996
 1605SOL    HW2 5715   5.948   6.470   2.908
 1606SOL     OW 5716   4.912   0.011   6.115
 1606SOL    HW1 5717   4.814   0.002   6.098
 1606SOL    HW2 5718   4.963   7.002   6.033
 1607SOL     OW 5719   4.465   2.553   0.918
 1607SOL    HW1 5720   4.496   2.640   0.882
 1607SOL    HW2 5721   4.437   2.493   0.842
 1608SOL     OW 5722   2.454   6.916   0.757
 1608SOL    HW1 5723   2.438   7.014   0.748
 1608SOL    HW2 5724   2.468   6.892   0.853
 1609SOL     OW 5725   4.486   2.182   5.743
 1609SOL    HW1 5726   4.466   2.259   5.683
 1609SOL    HW2 5727   4.426   2.106   5.722
 1610SOL     OW 5728   6.131   6.102   4.287
 1610SOL    HW1 5729   6.060   6.164   4.319
 1610SOL    HW2 5730   6.221   6.138   4.312
 1611SOL     OW 5731   3.262   3.389   1.750
 1611SOL    HW1 5732   3.210   3.313   1.711
 1611SOL    HW2 5733   3.230   3.406   1.843
 1612SOL     OW 5734   2.374   0.829   4.698
 1612SOL    HW1 5735   2.289   0.780   4.684
 1612SOL    HW2 5736   2.386   0.850   4.795
 1613SOL     OW 5737   2.416   5.898   0.203
 1613SOL    HW1 5738   2.502   5.871   0.159
 1613SOL    HW2 5739   2.433   5.975   0.265
 1614SOL     OW 5740   5.952   2.192   0.005
 1614SOL    HW1 5741   6.019   2.126   0.040
 1614SOL    HW2 5742   5.938   2.177   6.926
 1615SOL     OW 5743   0.149   4.289   0.066
 1615SOL    HW1 5744   0.187   4.240   7.006
 1615SOL    HW2 5745   0.217   4.352   0.103
 1616SOL     OW 5746   3.477   1.809   5.737
 1616SOL    HW1 5747   3.492   1.871   5.813
 1616SOL    HW2 5748   3.486   1.715   5.768
 1617SOL     OW 5749   5.185   0.486   3.607
 1617SOL    HW1 5750   5.199   0.480   3.508
 1617SOL    HW2 5751   5.273   0.494   3.653
 1618SOL     OW 5752   5.946   3.078   0.948
 1618SOL    HW1 5753   5.944   3.178   0.941
 1618SOL    HW2 5754   5.928   3.051   1.043
 1619SOL     OW 5755   1.943   3.445   4.170
 1619SOL    HW1 5756   1.903   3.387   4.240
 1619SOL    HW2 5757   1.939   3.541   4.199
 1620SOL     OW 5758   2.732   5.272   1.495
 1620SOL    HW1 5759   2.719   5.370   1.482
 1620SOL    HW2 5760   2.650   5.222   1.467
 1621SOL     OW 5761   1.394   0.374   0.781
 1621SOL    HW1 5762   1.474   0.316   0.789
 1621SOL    HW2 5763   1.370   0.411   0.871
 1622SOL     OW 5764   2.029   1.788   4.960
 1622SOL    HW1 5765   1.939   1.827   4.981
 1622SOL    HW2 5766   2.065   1.828   4.876
 1623SOL     OW 5767   2.734   1.826   5.304
 1623SOL    HW1 5768   2.676   1.856   5.229
 1623SOL    HW2 5769   2.705   1.735   5.334
 1624SOL     OW 5770   2.917   1.317   6.981
 1624SOL    HW1 5771   2.878   1.285   6.895
 1624SOL    HW2 5772   2.845   1.325   0.031
 1625SOL     OW 5773   0.728   5.110   2.325
 1625SOL    HW1 5774   0.805   5.046   2.324
 1625SOL    HW2 5775   0.642   5.059   2.330
 1626SOL     OW 5776   1.887   2.931   6.345
 1626SOL    HW1 5777   1.945   2.981   6.281
 1626SOL    HW2 5778   1.828   2.867   6.294
 1627SOL     OW 5779   5.919   2.977   3.505
 1627SOL    HW1 5780   5.940   2.991   3.602
 1627SOL    HW2 5781   5.923   3.064   3.456
 1628SOL     OW 5782   3.236   4.335   0.427
 1628SOL    HW1 5783   3.201   4.278   0.501
 1628SOL    HW2 5784   3.219   4.431   0.448
 1629SOL     OW 5785   3.597   2.144   3.892
 1629SOL    HW1 5786   3.555   2.129   3.802
 1629SOL    HW2 5787   3.656   2.066   3.914
 1630SOL     OW 5788   0.286   4.446   5.330
 1630SOL    HW1 5789   0.346   4.366   5.322
 1630SOL    HW2 5790   0.338   4.528   5.304
 1631SOL     OW 5791   6.935   0.008   5.716
 1631SOL    HW1 5792   6.922   7.012   5.815
 1631SOL    HW2 5793   6.862   6.980   5.666
 1632SOL     OW 5794   6.385   0.926   1.052
 1632SOL    HW1 5795   6.419   1.017   1.030
 1632SOL    HW2 5796   6.458   0.859   1.039
 1633SOL     OW 5797   6.002   2.270   3.909
 1633SOL    HW1 5798   5.917   2.314   3.879
 1633SOL    HW2 5799   6.016   2.289   4.006
 1634SOL     OW 5800   3.224   0.559   6.825
 1634SOL    HW1 5801   3.192   0.613   6.746
 1634SOL    HW2 5802   3.167   0.478   6.835
 1635SOL     OW 5803   0.584   5.923   4.933
 1635SOL    HW1 5804   0.583   5.824   4.948
 1635SOL    HW2 5805   0.514   5.947   4.867
 1636SOL     OW 5806   2.077   5.962   1.946
 1636SOL    HW1 5807   2.048   6.057   1.930
 1636SOL    HW2 5808   2.002   5.900   1.923
 1637SOL     OW 5809   6.364   3.015   2.076
 1637SOL    HW1 5810   6.300   3.013   2.153
 1637SOL    HW2 5811   6.453   3.048   2.108
 1638SOL     OW 5812   6.979   3.341   4.982
 1638SOL    HW1 5813   7.008   3.351   4.887
 1638SOL    HW2 5814   6.924   3.420   5.009
 1639SOL     OW 5815   5.112   5.399   2.422
 1639SOL    HW1 5816   5.058   5.428   2.344
 1639SOL    HW2 5817   5.103   5.467   2.496
 1640SOL     OW 5818   6.317   0.368   1.001
 1640SOL    HW1 5819   6.231   0.405   1.035
 1640SOL    HW2 5820   6.303   0.325   0.912
 1641SOL     OW 5821   5.579   2.626   5.242
 1641SOL    HW1 5822   5.546   2.720   5.234
 1641SOL    HW2 5823   5.544   2.572   5.166
 1642SOL     OW 5824   6.830   1.972   1.104
 1642SOL    HW1 5825   6.777   1.913   1.043
 1642SOL    HW2 5826   6.896   2.024   1.049
 1643SOL     OW 5827   4.101   6.815   5.483
 1643SOL    HW1 5828   4.071   6.767   5.566
 1643SOL    HW2 5829   4.188   6.862   5.501
 1644SOL     OW 5830   2.790   1.029   1.395
 1644SOL    HW1 5831   2.743   0.988   1.473
 1644SOL    HW2 5832   2.734   1.103   1.358
 1645SOL     OW 5833   2.790   6.600   6.652
 1645SOL    HW1 5834   2.736   6.545   6.588
 1645SOL    HW2 5835   2.796   6.694   6.618
 1646SOL     OW 5836   1.268   4.104   0.948
 1646SOL    HW1 5837   1.220   4.081   0.863
 1646SOL    HW2 5838   1.365   4.082   0.938
 1647SOL     OW 5839   5.906   2.795   3.872
 1647SOL    HW1 5840   5.933   2.823   3.964
 1647SOL    HW2 5841   5.967   2.837   3.805
 1648SOL     OW 5842   4.219   6.932   2.133
 1648SOL    HW1 5843   4.312   6.920   2.098
 1648SOL    HW2 5844   4.217   6.907   2.230
 1649SOL     OW 5845   3.181   0.928   3.863
 1649SOL    HW1 5846   3.082   0.918   3.856
 1649SOL    HW2 5847   3.219   0.941   3.771
 1650SOL     OW 5848   2.678   6.826   4.145
 1650SOL    HW1 5849   2.754   6.890   4.156
 1650SOL    HW2 5850   2.703   6.738   4.185
 1651SOL     OW 5851   1.183   6.871   0.429
 1651SOL    HW1 5852   1.115   6.905   0.495
 1651SOL    HW2 5853   1.275   6.891   0.463
 1652SOL     OW 5854   2.962   2.277   1.648
 1652SOL    HW1 5855   2.955   2.333   1.730
 1652SOL    HW2 5856   2.996   2.334   1.572
 1653SOL     OW 5857   1.054   5.657   1.347
 1653SOL    HW1 5858   1.009   5.744   1.364
 1653SOL    HW2 5859   1.115   5.635   1.423
 1654SOL     OW 5860   6.584   3.310   2.613
 1654SOL    HW1 5861   6.566   3.222   2.656
 1654SOL    HW2 5862   6.625   3.295   2.522
 1655SOL     OW 5863   4.938   4.396   6.436
 1655SOL    HW1 5864   4.914   4.471   6.374
 1655SOL    HW2 5865   4.923   4.424   6.531
 1656SOL     OW 5866   1.138   4.970   3.363
 1656SOL    HW1 5867   1.044   4.951   3.392
 1656SOL    HW2 5868   1.140   5.055   3.311
 1657SOL     OW 5869   1.323   0.280   5.293
 1657SOL    HW1 5870   1.276   0.316   5.374
 1657SOL    HW2 5871   1.264   0.289   5.213
 1658SOL     OW 5872   6.033   6.124   3.089
 1658SOL    HW1 5873   5.999   6.125   2.995
 1658SOL    HW2 5874   5.961   6.156   3.151
 1659SOL     OW 5875   3.694   2.758   6.103
 1659SOL    HW1 5876   3.731   2.775   6.195
 1659SOL    HW2 5877   3.653   2.666   6.100
 1660SOL     OW 5878   1.740   5.717   3.468
 1660SOL    HW1 5879   1.678   5.792   3.490
 1660SOL    HW2 5880   1.702   5.663   3.393
 1661SOL     OW 5881   3.632   0.554   2.308
 1661SOL    HW1 5882   3.667   0.462   2.328
 1661SOL    HW2 5883   3.614   0.562   2.210
 1662SOL     OW 5884   0.887   0.776   3.744
 1662SOL    HW1 5885   0.911   0.749   3.837
 1662SOL    HW2 5886   0.889   0.696   3.684
 1663SOL     OW 5887   2.736   0.310   2.515
 1663SOL    HW1 5888   2.707   0.241   2.448
 1663SOL    HW2 5889   2.821   0.280   2.558
 1664SOL     OW 5890   2.219   5.597   3.896
 1664SOL    HW1 5891   2.319   5.602   3.889
 1664SOL    HW2 5892   2.184   5.531   3.830
 1665SOL     OW 5893   6.688   0.521   3.439
 1665SOL    HW1 5894   6.778   0.515   3.482
 1665SOL    HW2 5895   6.693   0.489   3.345
 1666SOL     OW 5896   5.893   2.890   5.838
 1666SOL    HW1 5897   5.855   2.875   5.929
 1666SOL    HW2 5898   5.993   2.893   5.844
 1667SOL     OW 5899   6.987   0.115   6.114
 1667SOL    HW1 5900   6.950   0.127   6.206
 1667SOL    HW2 5901   6.913   0.087   6.053
 1668SOL     OW 5902   4.221   0.655   4.936
 1668SOL    HW1 5903   4.316   0.681   4.956
 1668SOL    HW2 5904   4.203   0.564   4.973
 1669SOL     OW 5905   5.744   6.691   5.824
 1669SOL    HW1 5906   5.712   6.746   5.902
 1669SOL    HW2 5907   5.788   6.751   5.757
 1670SOL     OW 5908   5.300   4.874   5.766
 1670SOL    HW1 5909   5.341   4.814   5.834
 1670SOL    HW2 5910   5.227   4.928   5.808
 1671SOL     OW 5911   4.606   3.246   6.776
 1671SOL    HW1 5912   4.679   3.296   6.824
 1671SOL    HW2 5913   4.589   3.159   6.822
 1672SOL     OW 5914   1.432   4.966   2.153
 1672SOL    HW1 5915   1.484   4.943   2.070
 1672SOL    HW2 5916   1.377   4.887   2.180
 1673SOL     OW 5917   6.753   3.794   4.295
 1673SOL    HW1 5918   6.743   3.803   4.395
 1673SOL    HW2 5919   6.815   3.865   4.262
 1674SOL     OW 5920   0.729   4.106   7.001
 1674SOL    HW1 5921   0.807   4.167   6.987
 1674SOL    HW2 5922   0.662   4.120   6.928
 1675SOL     OW 5923   4.485   1.705   6.781
 1675SOL    HW1 5924   4.415   1.761   6.737
 1675SOL    HW2 5925   4.561   1.690   6.718
 1676SOL     OW 5926   1.368   0.529   2.756
 1676SOL    HW1 5927   1.410   0.601   2.811
 1676SOL    HW2 5928   1.318   0.570   2.679
 1677SOL     OW 5929   5.651   2.074   5.292
 1677SOL    HW1 5930   5.610   1.982   5.294
 1677SOL    HW2 5931   5.595   2.137   5.346
 1678SOL     OW 5932   5.467   0.129   1.777
 1678SOL    HW1 5933   5.426   0.062   1.840
 1678SOL    HW2 5934   5.407   0.207   1.768
 1679SOL     OW 5935   0.902   3.405   6.466
 1679SOL    HW1 5936   0.894   3.475   6.396
 1679SOL    HW2 5937   0.983   3.423   6.523
 1680SOL     OW 5938   0.942   2.109   4.258
 1680SOL    HW1 5939   0.959   2.046   4.333
 1680SOL    HW2 5940   1.016   2.176   4.253
 1681SOL     OW 5941   6.381   5.615   0.834
 1681SOL    HW1 5942   6.477   5.591   0.816
 1681SOL    HW2 5943   6.377   5.708   0.872
 1682SOL     OW 5944   6.987   3.224   6.081
 1682SOL    HW1 5945   6.974   3.287   6.004
 1682SOL    HW2 5946   7.003   3.276   6.164
 1683SOL     OW 5947   5.499   6.461   1.210
 1683SOL    HW1 5948   5.410   6.495   1.240
 1683SOL    HW2 5949   5.566   6.536   1.212
 1684SOL     OW 5950   0.772   6.251   5.320
 1684SOL    HW1 5951   0.745   6.225   5.413
 1684SOL    HW2 5952   0.730   6.189   5.254
 1685SOL     OW 5953   1.660   1.155   0.348
 1685SOL    HW1 5954   1.728   1.094   0.307
 1685SOL    HW2 5955   1.680   1.250   0.323
 1686SOL     OW 5956   1.350   6.847   6.531
 1686SOL    HW1 5957   1.386   6.768   6.581
 1686SOL    HW2 5958   1.261   6.873   6.569
 1687SOL     OW 5959   1.757   6.054   2.170
 1687SOL    HW1 5960   1.742   6.116   2.093
 1687SOL    HW2 5961   1.722   5.963   2.146
 1688SOL     OW 5962   1.706   1.809   2.855
 1688SOL    HW1 5963   1.776   1.858   2.906
 1688SOL    HW2 5964   1.663   1.871   2.789
 1689SOL     OW 5965   2.099   1.843   2.728
 1689SOL    HW1 5966   2.014   1.793   2.712
 1689SOL    HW2 5967   2.144   1.806   2.809
 1690SOL     OW 5968   1.570   1.400   1.146
 1690SOL    HW1 5969   1.619   1.344   1.079
 1690SOL    HW2 5970   1.613   1.490   1.152
 1691SOL     OW 5971   5.180   4.348   2.578
 1691SOL    HW1 5972   5.223   4.357   2.668
 1691SOL    HW2 5973   5.162   4.252   2.559
 1692SOL     OW 5974   0.868   0.477   2.171
 1692SOL    HW1 5975   0.861   0.385   2.210
 1692SOL    HW2 5976   0.793   0.492   2.106
 1693SOL     OW 5977   2.699   2.369   3.313
 1693SOL    HW1 5978   2.744   2.339   3.397
 1693SOL    HW2 5979   2.668   2.463   3.324
 1694SOL     OW 5980   5.106   5.747   5.079
 1694SOL    HW1 5981   5.061   5.666   5.040
 1694SOL    HW2 5982   5.165   5.788   5.010
 1695SOL     OW 5983   3.103   2.485   5.438
 1695SOL    HW1 5984   3.141   2.577   5.449
 1695SOL    HW2 5985   3.143   2.441   5.358
 1696SOL     OW 5986   4.749   6.236   0.626
 1696SOL    HW1 5987   4.800   6.288   0.695
 1696SOL    HW2 5988   4.702   6.299   0.564
 1697SOL     OW 5989   1.052   1.372   1.931
 1697SOL    HW1 5990   1.081   1.335   1.843
 1697SOL    HW2 5991   0.965   1.420   1.920
 1698SOL     OW 5992   4.246   2.049   1.676
 1698SOL    HW1 5993   4.182   2.120   1.707
 1698SOL    HW2 5994   4.302   2.019   1.753
 1699SOL     OW 5995   2.291   3.281   1.119
 1699SOL    HW1 5996   2.343   3.310   1.038
 1699SOL    HW2 5997   2.202   3.327   1.119
 1700SOL     OW 5998   6.950   3.185   3.172
 1700SOL    HW1 5999   0.018   3.139   3.190
 1700SOL    HW2 6000   6.896   3.132   3.107
 1701SOL     OW 6001   5.998   3.240   3.975
 1701SOL    HW1 6002   6.012   3.337   3.993
 1701SOL    HW2 6003   5.918   3.208   4.027
 1702SOL     OW 6004   5.032   3.969   0.942
 1702SOL    HW1 6005   5.004   3.874   0.930
 1702SOL    HW2 6006   4.960   4.019   0.990
 1703SOL     OW 6007   2.005   3.571   0.422
 1703SOL    HW1 6008   1.976   3.615   0.337
 1703SOL    HW2 6009   2.037   3.479   0.403
 1704SOL     OW 6010   0.660   0.808   1.807
 1704SOL    HW1 6011   0.713   0.805   1.892
 1704SOL    HW2 6012   0.664   0.900   1.769
 1705SOL     OW 6013   4.411   3.087   1.680
 1705SOL    HW1 6014   4.328   3.033   1.665
 1705SOL    HW2 6015   4.461   3.049   1.758
 1706SOL     OW 6016   3.392   0.446   0.790
 1706SOL    HW1 6017   3.301   0.416   0.761
 1706SOL    HW2 6018   3.421   0.393   0.870
 1707SOL     OW 6019   5.494   2.045   3.301
 1707SOL    HW1 6020   5.478   1.947   3.295
 1707SOL    HW2 6021   5.413   2.094   3.270
 1708SOL     OW 6022   6.867   5.144   3.366
 1708SOL    HW1 6023   6.940   5.184   3.422
 1708SOL    HW2 6024   6.877   5.045   3.364
 1709SOL     OW 6025   2.856   6.236   2.296
 1709SOL    HW1 6026   2.946   6.200   2.317
 1709SOL    HW2 6027   2.786   6.177   2.336
 1710SOL     OW 6028   0.560   5.744   4.192
 1710SOL    HW1 6029   0.600   5.836   4.195
 1710SOL    HW2 6030   0.631   5.676   4.210
 1711SOL     OW 6031   1.229   4.702   5.185
 1711SOL    HW1 6032   1.215   4.603   5.188
 1711SOL    HW2 6033   1.309   4.722   5.129
 1712SOL     OW 6034   0.263   3.892   0.532
 1712SOL    HW1 6035   0.164   3.890   0.538
 1712SOL    HW2 6036   0.298   3.798   0.526
 1713SOL     OW 6037   1.311   2.384   1.253
 1713SOL    HW1 6038   1.347   2.346   1.168
 1713SOL    HW2 6039   1.291   2.481   1.241
 1714SOL     OW 6040   3.221   2.113   0.855
 1714SOL    HW1 6041   3.155   2.072   0.792
 1714SOL    HW2 6042   3.314   2.101   0.820
 1715SOL     OW 6043   0.281   2.955   2.558
 1715SOL    HW1 6044   0.367   3.005   2.559
 1715SOL    HW2 6045   0.287   2.876   2.619
 1716SOL     OW 6046   0.230   5.920   6.951
 1716SOL    HW1 6047   0.276   6.003   6.922
 1716SOL    HW2 6048   0.148   5.905   6.895
 1717SOL     OW 6049   2.751   6.969   6.887
 1717SOL    HW1 6050   2.763   0.045   6.917
 1717SOL    HW2 6051   2.833   6.916   6.909
 1718SOL     OW 6052   1.379   4.381   6.702
 1718SOL    HW1 6053   1.358   4.462   6.647
 1718SOL    HW2 6054   1.446   4.406   6.772
 1719SOL     OW 6055   2.137   3.677   1.373
 1719SOL    HW1 6056   2.064   3.736   1.339
 1719SOL    HW2 6057   2.178   3.627   1.297
 1720SOL     OW 6058   6.431   1.136   0.262
 1720SOL    HW1 6059   6.498   1.097   0.199
 1720SOL    HW2 6060   6.364   1.066   0.286
 1721SOL     OW 6061   2.277   6.555   3.416
 1721SOL    HW1 6062   2.201   6.620   3.419
 1721SOL    HW2 6063   2.265   6.493   3.339
 1722SOL     OW 6064   5.894   6.597   2.405
 1722SOL    HW1 6065   5.929   6.642   2.487
 1722SOL    HW2 6066   5.794   6.591   2.410
 1723SOL     OW 6067   6.973   1.803   2.142
 1723SOL    HW1 6068   0.027   1.758   2.195
 1723SOL    HW2 6069   6.924   1.869   2.200
 1724SOL     OW 6070   4.489   1.075   0.144
 1724SOL    HW1 6071   4.440   0.992   0.171
 1724SOL    HW2 6072   4.460   1.151   0.202
 1725SOL     OW 6073   3.674   4.233   1.377
 1725SOL    HW1 6074   3.615   4.273   1.446
 1725SOL    HW2 6075   3.626   4.229   1.289
 1726SOL     OW 6076   0.183   4.300   4.697
 1726SOL    HW1 6077   0.259   4.299   4.763
 1726SOL    HW2 6078   0.206   4.243   4.619
 1727SOL     OW 6079   3.885   3.961   5.080
 1727SOL    HW1 6080   3.827   4.022   5.135
 1727SOL    HW2 6081   3.851   3.959   4.986
 1728SOL     OW 6082   4.360   4.555   3.306
 1728SOL    HW1 6083   4.451   4.551   3.348
 1728SOL    HW2 6084   4.304   4.480   3.341
 1729SOL     OW 6085   1.725   3.199   2.745
 1729SOL    HW1 6086   1.733   3.255   2.662
 1729SOL    HW2 6087   1.682   3.112   2.722
 1730SOL     OW 6088   6.413   2.664   4.985
 1730SOL    HW1 6089   6.318   2.646   4.957
 1730SOL    HW2 6090   6.452   2.581   5.025
 1731SOL     OW 6091   1.986   5.275   0.810
 1731SOL    HW1 6092   2.034   5.253   0.895
 1731SOL    HW2 6093   1.888   5.260   0.823
 1732SOL     OW 6094   0.843   4.630   0.113
 1732SOL    HW1 6095   0.834   4.530   0.118
 1732SOL    HW2 6096   0.932   4.657   0.149
 1733SOL     OW 6097   1.466   3.233   1.061
 1733SOL    HW1 6098   1.483   3.244   0.963
 1733SOL    HW2 6099   1.389   3.290   1.088
 1734SOL     OW 6100   4.597   2.437   1.629
 1734SOL    HW1 6101   4.606   2.389   1.542
 1734SOL    HW2 6102   4.689   2.460   1.663
 1735SOL     OW 6103   6.028   5.312   1.776
 1735SOL    HW1 6104   6.097   5.359   1.721
 1735SOL    HW2 6105   6.072   5.271   1.856
 1736SOL     OW 6106   3.737   3.269   6.902
 1736SOL    HW1 6107   3.765   3.182   6.860
 1736SOL    HW2 6108   3.818   3.317   6.936
 1737SOL     OW 6109   1.942   6.865   3.618
 1737SOL    HW1 6110   1.907   6.955   3.591
 1737SOL    HW2 6111   1.904   6.840   3.707
 1738SOL     OW 6112   2.097   3.084   2.178
 1738SOL    HW1 6113   2.115   3.003   2.234
 1738SOL    HW2 6114   2.113   3.062   2.081
 1739SOL     OW 6115   4.884   2.109   4.714
 1739SOL    HW1 6116   4.975   2.089   4.678
 1739SOL    HW2 6117   4.892   2.152   4.803
 1740SOL     OW 6118   0.541   0.886   5.871
 1740SOL    HW1 6119   0.591   0.799   5.868
 1740SOL    HW2 6120   0.558   0.937   5.787
 1741SOL     OW 6121   1.269   0.307   2.596
 1741SOL    HW1 6122   1.299   0.372   2.665
 1741SOL    HW2 6123   1.347   0.251   2.566
 1742SOL     OW 6124   6.272   0.601   4.634
 1742SOL    HW1 6125   6.327   0.524   4.665
 1742SOL    HW2 6126   6.288   0.617   4.537
 1743SOL     OW 6127   3.616   1.304   1.377
 1743SOL    HW1 6128   3.654   1.211   1.370
 1743SOL    HW2 6129   3.643   1.344   1.465
 1744SOL     OW 6130   2.808   0.763   1.533
 1744SOL    HW1 6131   2.889   0.706   1.521
 1744SOL    HW2 6132   2.726   0.707   1.520
 1745SOL     OW 6133   6.530   2.127   2.917
 1745SOL    HW1 6134   6.495   2.134   3.010
 1745SOL    HW2 6135   6.511   2.035   2.882
 1746SOL     OW 6136   2.945   0.453   5.737
 1746SOL    HW1 6137   3.029   0.433   5.686
 1746SOL    HW2 6138   2.899   0.532   5.697
 1747SOL     OW 6139   3.439   0.242   2.273
 1747SOL    HW1 6140   3.535   0.215   2.281
 1747SOL    HW2 6141   3.414   0.250   2.176
 1748SOL     OW 6142   5.697   2.155   3.141
 1748SOL    HW1 6143   5.623   2.129   3.203
 1748SOL    HW2 6144   5.691   2.099   3.058
 1749SOL     OW 6145   4.109   6.863   6.044
 1749SOL    HW1 6146   4.027   6.905   6.082
 1749SOL    HW2 6147   4.118   6.889   5.947
 1750SOL     OW 6148   4.838   1.453   2.933
 1750SOL    HW1 6149   4.885   1.530   2.976
 1750SOL    HW2 6150   4.751   1.485   2.894
 1751SOL     OW 6151   1.617   5.439   4.004
 1751SOL    HW1 6152   1.695   5.414   3.946
 1751SOL    HW2 6153   1.651   5.474   4.092
 1752SOL     OW 6154   6.273   1.783   0.527
 1752SOL    HW1 6155   6.354   1.841   0.518
 1752SOL    HW2 6156   6.297   1.689   0.502
 1753SOL     OW 6157   1.195   0.039   1.476
 1753SOL    HW1 6158   1.105   0.044   1.434
 1753SOL    HW2 6159   1.208   0.118   1.537
 1754SOL     OW 6160   3.934   3.150   0.622
 1754SOL    HW1 6161   3.837   3.152   0.643
 1754SOL    HW2 6162   3.987   3.156   0.707
 1755SOL     OW 6163   5.395   4.415   1.130
 1755SOL    HW1 6164   5.435   4.355   1.061
 1755SOL    HW2 6165   5.297   4.395   1.139
 1756SOL     OW 6166   0.029   5.545   4.105
 1756SOL    HW1 6167   0.008   5.472   4.040
 1756SOL    HW2 6168   0.047   5.630   4.056
 1757SOL     OW 6169   3.274   6.764   4.500
 1757SOL    HW1 6170   3.208   6.778   4.426
 1757SOL    HW2 6171   3.225   6.751   4.586
 1758SOL     OW 6172   2.328   0.454   3.427
 1758SOL    HW1 6173   2.329   0.373   3.368
 1758SOL    HW2 6174   2.290   0.532   3.377
 1759SOL     OW 6175   0.405   5.317   5.995
 1759SOL    HW1 6176   0.461   5.397   5.976
 1759SOL    HW2 6177   0.336   5.306   5.923
 1760SOL     OW 6178   6.315   0.931   2.201
 1760SOL    HW1 6179   6.333   1.002   2.133
 1760SOL    HW2 6180   6.256   0.968   2.273
 1761SOL     OW 6181   6.077   1.150   1.142
 1761SOL    HW1 6182   6.037   1.065   1.108
 1761SOL    HW2 6183   6.114   1.202   1.065
 1762SOL     OW 6184   6.034   1.828   6.479
 1762SOL    HW1 6185   6.052   1.730   6.487
 1762SOL    HW2 6186   6.121   1.878   6.473
 1763SOL     OW 6187   1.579   3.916   4.236
 1763SOL    HW1 6188   1.517   3.844   4.269
 1763SOL    HW2 6189   1.575   3.920   4.136
 1764SOL     OW 6190   0.440   3.311   2.993
 1764SOL    HW1 6191   0.504   3.387   3.001
 1764SOL    HW2 6192   0.372   3.317   3.066
 1765SOL     OW 6193   2.487   2.465   6.578
 1765SOL    HW1 6194   2.484   2.558   6.615
 1765SOL    HW2 6195   2.564   2.416   6.618
 1766SOL     OW 6196   5.717   2.867   5.005
 1766SOL    HW1 6197   5.618   2.856   5.015
 1766SOL    HW2 6198   5.763   2.781   5.028
 1767SOL     OW 6199   5.522   3.381   2.307
 1767SOL    HW1 6200   5.578   3.463   2.289
 1767SOL    HW2 6201   5.540   3.349   2.400
 1768SOL     OW 6202   4.672   6.402   3.486
 1768SOL    HW1 6203   4.717   6.399   3.575
 1768SOL    HW2 6204   4.692   6.489   3.441
 1769SOL     OW 6205   3.541   1.600   2.453
 1769SOL    HW1 6206   3.581   1.634   2.538
 1769SOL    HW2 6207   3.448   1.637   2.443
 1770SOL     OW 6208   2.943   5.838   5.423
 1770SOL    HW1 6209   3.008   5.910   5.399
 1770SOL    HW2 6210   2.939   5.771   5.349
 1771SOL     OW 6211   3.324   5.859   6.641
 1771SOL    HW1 6212   3.326   5.940   6.583
 1771SOL    HW2 6213   3.265   5.790   6.600
 1772SOL     OW 6214   3.198   6.950   3.109
 1772SOL    HW1 6215   3.292   6.974   3.084
 1772SOL    HW2 6216   3.135   6.983   3.038
 1773SOL     OW 6217   1.523   5.349   6.428
 1773SOL    HW1 6218   1.611   5.371   6.470
 1773SOL    HW2 6219   1.499   5.254   6.448
 1774SOL     OW 6220   4.110   5.718   1.465
 1774SOL    HW1 6221   4.193   5.675   1.501
 1774SOL    HW2 6222   4.134   5.796   1.408
 1775SOL     OW 6223   1.236   3.869   1.875
 1775SOL    HW1 6224   1.246   3.944   1.940
 1775SOL    HW2 6225   1.140   3.855   1.854
 1776SOL     OW 6226   3.886   6.012   4.634
 1776SOL    HW1 6227   3.943   5.967   4.564
 1776SOL    HW2 6228   3.933   6.009   4.722
 1777SOL     OW 6229   4.108   5.925   0.607
 1777SOL    HW1 6230   4.099   5.829   0.635
 1777SOL    HW2 6231   4.017   5.963   0.588
 1778SOL     OW 6232   4.755   3.445   6.424
 1778SOL    HW1 6233   4.802   3.463   6.510
 1778SOL    HW2 6234   4.659   3.473   6.432
 1779SOL     OW 6235   3.784   1.364   4.951
 1779SOL    HW1 6236   3.743   1.273   4.948
 1779SOL    HW2 6237   3.852   1.368   5.024
 1780SOL     OW 6238   3.185   2.948   6.387
 1780SOL    HW1 6239   3.261   2.978   6.329
 1780SOL    HW2 6240   3.117   2.900   6.332
 1781SOL     OW 6241   4.359   5.510   2.826
 1781SOL    HW1 6242   4.263   5.490   2.805
 1781SOL    HW2 6243   4.366   5.602   2.863
 1782SOL     OW 6244   2.757   1.150   3.256
 1782SOL    HW1 6245   2.832   1.207   3.221
 1782SOL    HW2 6246   2.773   1.132   3.353
 1783SOL     OW 6247   2.629   5.161   6.061
 1783SOL    HW1 6248   2.660   5.152   6.156
 1783SOL    HW2 6249   2.704   5.138   5.999
 1784SOL     OW 6250   3.619   0.130   6.334
 1784SOL    HW1 6251   3.531   0.140   6.288
 1784SOL    HW2 6252   3.693   0.140   6.266
 1785SOL     OW 6253   6.073   3.446   2.440
 1785SOL    HW1 6254   6.017   3.523   2.408
 1785SOL    HW2 6255   6.082   3.451   2.539
 1786SOL     OW 6256   2.078   2.691   0.559
 1786SOL    HW1 6257   2.026   2.735   0.632
 1786SOL    HW2 6258   2.072   2.747   0.476
 1787SOL     OW 6259   3.160   1.133   5.321
 1787SOL    HW1 6260   3.128   1.154   5.229
 1787SOL    HW2 6261   3.178   1.218   5.371
 1788SOL     OW 6262   1.739   5.060   5.751
 1788SOL    HW1 6263   1.678   5.135   5.727
 1788SOL    HW2 6264   1.834   5.089   5.736
 1789SOL     OW 6265   5.524   1.850   0.178
 1789SOL    HW1 6266   5.530   1.925   0.244
 1789SOL    HW2 6267   5.499   1.766   0.226
 1790SOL     OW 6268   3.860   6.719   3.505
 1790SOL    HW1 6269   3.954   6.752   3.506
 1790SOL    HW2 6270   3.849   6.651   3.579
 1791SOL     OW 6271   6.932   0.370   2.603
 1791SOL    HW1 6272   6.880   0.352   2.520
 1791SOL    HW2 6273   7.011   0.308   2.608
 1792SOL     OW 6274   0.875   3.949   5.200
 1792SOL    HW1 6275   0.906   3.902   5.118
 1792SOL    HW2 6276   0.949   3.952   5.267
 1793SOL     OW 6277   6.599   0.731   3.686
 1793SOL    HW1 6278   6.692   0.704   3.661
 1793SOL    HW2 6279   6.559   0.783   3.611
 1794SOL     OW 6280   5.084   5.886   5.786
 1794SOL    HW1 6281   4.990   5.910   5.761
 1794SOL    HW2 6282   5.148   5.950   5.743
 1795SOL     OW 6283   0.130   2.543   0.501
 1795SOL    HW1 6284   0.046   2.558   0.554
 1795SOL    HW2 6285   0.111   2.558   0.404
 1796SOL     OW 6286   2.167   0.783   5.783
 1796SOL    HW1 6287   2.148   0.874   5.745
 1796SOL    HW2 6288   2.209   0.793   5.873
 1797SOL     OW 6289   1.099   6.616   0.306
 1797SOL    HW1 6290   1.134   6.695   0.356
 1797SOL    HW2 6291   1.136   6.616   0.214
 1798SOL     OW 6292   4.472   2.480   3.717
 1798SOL    HW1 6293   4.501   2.572   3.690
 1798SOL    HW2 6294   4.551   2.430   3.753
 1799SOL     OW 6295   6.824   2.425   5.450
 1799SOL    HW1 6296   6.736   2.419   5.497
 1799SOL    HW2 6297   6.871   2.509   5.480
 1800SOL     OW 6298   4.106   4.529   1.373
 1800SOL    HW1 6299   4.122   4.439   1.330
 1800SOL    HW2 6300   4.086   4.516   1.470
 1801SOL     OW 6301   6.886   0.870   2.103
 1801SOL    HW1 6302   6.839   0.903   2.185
 1801SOL    HW2 6303   6.943   0.792   2.126
 1802SOL     OW 6304   6.561   5.538   4.375
 1802SOL    HW1 6305   6.614   5.523   4.292
 1802SOL    HW2 6306   6.616   5.590   4.441
 1803SOL     OW 6307   0.006   5.757   0.097
 1803SOL    HW1 6308   0.034   5.667   0.131
 1803SOL    HW2 6309   0.084   5.820   0.104
 1804SOL     OW 6310   3.130   4.161   5.376
 1804SOL    HW1 6311   3.078   4.244   5.357
 1804SOL    HW2 6312   3.142   4.109   5.291
 1805SOL     OW 6313   5.120   3.723   6.291
 1805SOL    HW1 6314   5.081   3.744   6.201
 1805SOL    HW2 6315   5.173   3.639   6.286
 1806SOL     OW 6316   1.443   7.002   1.386
 1806SOL    HW1 6317   1.441   6.919   1.331
 1806SOL    HW2 6318   1.352   0.003   1.423
 1807SOL     OW 6319   6.218   1.787   4.773
 1807SOL    HW1 6320   6.287   1.841   4.723
 1807SOL    HW2 6321   6.252   1.694   4.786
 1808SOL     OW 6322   0.277   5.093   4.601
 1808SOL    HW1 6323   0.242   5.166   4.661
 1808SOL    HW2 6324   0.287   5.128   4.508
 1809SOL     OW 6325   3.030   1.905   5.886
 1809SOL    HW1 6326   3.128   1.909   5.868
 1809SOL    HW2 6327   2.979   1.927   5.802
 1810SOL     OW 6328   3.152   6.812   3.740
 1810SOL    HW1 6329   3.204   6.741   3.692
 1810SOL    HW2 6330   3.163   6.899   3.693
 1811SOL     OW 6331   5.975   5.426   3.207
 1811SOL    HW1 6332   6.038   5.349   3.198
 1811SOL    HW2 6333   6.013   5.492   3.272
 1812SOL     OW 6334   4.516   5.583   5.076
 1812SOL    HW1 6335   4.521   5.623   4.985
 1812SOL    HW2 6336   4.510   5.483   5.069
 1813SOL     OW 6337   5.711   4.057   0.236
 1813SOL    HW1 6338   5.634   4.036   0.175
 1813SOL    HW2 6339   5.789   4.086   0.181
 1814SOL     OW 6340   4.687   0.085   2.291
 1814SOL    HW1 6341   4.734   0.150   2.351
 1814SOL    HW2 6342   4.644   0.014   2.346
 1815SOL     OW 6343   0.014   1.290   3.468
 1815SOL    HW1 6344   0.066   1.204   3.466
 1815SOL    HW2 6345   7.009   1.312   3.563
 1816SOL     OW 6346   1.977   2.844   0.753
 1816SOL    HW1 6347   1.943   2.937   0.741
 1816SOL    HW2 6348   1.980   2.822   0.851
 1817SOL     OW 6349   1.687   6.103   2.567
 1817SOL    HW1 6350   1.720   6.150   2.485
 1817SOL    HW2 6351   1.635   6.168   2.623
 1818SOL     OW 6352   1.606   0.310   2.939
 1818SOL    HW1 6353   1.520   0.348   2.903
 1818SOL    HW2 6354   1.610   0.212   2.919
 1819SOL     OW 6355   1.135   3.996   1.426
 1819SOL    HW1 6356   1.118   3.925   1.494
 1819SOL    HW2 6357   1.169   4.078   1.472
 1820SOL     OW 6358   4.534   0.950   2.398
 1820SOL    HW1 6359   4.580   0.946   2.486
 1820SOL    HW2 6360   4.460   1.017   2.402
 1821SOL     OW 6361   1.912   1.337   2.733
 1821SOL    HW1 6362   1.825   1.325   2.686
 1821SOL    HW2 6363   1.974   1.391   2.675
 1822SOL     OW 6364   3.316   2.632   1.691
 1822SOL    HW1 6365   3.218   2.623   1.671
 1822SOL    HW2 6366   3.356   2.541   1.704
 1823SOL     OW 6367   4.541   6.601   2.487
 1823SOL    HW1 6368   4.481   6.620   2.565
 1823SOL    HW2 6369   4.530   6.506   2.459
 1824SOL     OW 6370   4.443   2.630   1.472
 1824SOL    HW1 6371   4.467   2.593   1.382
 1824SOL    HW2 6372   4.504   2.591   1.541
 1825SOL     OW 6373   1.003   0.723   1.389
 1825SOL    HW1 6374   1.069   0.794   1.365
 1825SOL    HW2 6375   0.937   0.761   1.455
 1826SOL     OW 6376   3.131   0.401   0.749
 1826SOL    HW1 6377   3.080   0.485   0.731
 1826SOL    HW2 6378   3.068   0.331   0.784
 1827SOL     OW 6379   6.802   5.467   1.750
 1827SOL    HW1 6380   6.784   5.369   1.754
 1827SOL    HW2 6381   6.820   5.502   1.841
 1828SOL     OW 6382   0.883   2.745   6.785
 1828SOL    HW1 6383   0.965   2.703   6.746
 1828SOL    HW2 6384   0.883   2.843   6.765
 1829SOL     OW 6385   5.088   5.864   3.160
 1829SOL    HW1 6386   5.081   5.963   3.166
 1829SOL    HW2 6387   5.128   5.839   3.072
 1830SOL     OW 6388   4.226   6.388   3.422
 1830SOL    HW1 6389   4.150   6.446   3.393
 1830SOL    HW2 6390   4.191   6.298   3.449
 1831SOL     OW 6391   5.603   6.184   1.862
 1831SOL    HW1 6392   5.604   6.186   1.762
 1831SOL    HW2 6393   5.688   6.222   1.897
 1832SOL     OW 6394   4.756   2.494   1.221
 1832SOL    HW1 6395   4.831   2.427   1.228
 1832SOL    HW2 6396   4.674   2.448   1.189
 1833SOL     OW 6397   5.271   0.616   5.117
 1833SOL    HW1 6398   5.188   0.607   5.173
 1833SOL    HW2 6399   5.326   0.534   5.127
 1834SOL     OW 6400   3.719   3.436   0.960
 1834SOL    HW1 6401   3.791   3.377   0.997
 1834SOL    HW2 6402   3.630   3.394   0.976
 1835SOL     OW 6403   1.609   5.068   1.262
 1835SOL    HW1 6404   1.652   4.998   1.205
 1835SOL    HW2 6405   1.568   5.138   1.203
 1836SOL     OW 6406   0.618   0.568   0.401
 1836SOL    HW1 6407   0.644   0.647   0.455
 1836SOL    HW2 6408   0.658   0.485   0.440
 1837SOL     OW 6409   0.758   2.315   4.440
 1837SOL    HW1 6410   0.838   2.350   4.488
 1837SOL    HW2 6411   0.783   2.231   4.391
 1838SOL     OW 6412   0.463   2.993   4.268
 1838SOL    HW1 6413   0.555   3.030   4.254
 1838SOL    HW2 6414   0.426   3.026   4.355
 1839SOL     OW 6415   6.316   3.244   5.031
 1839SOL    HW1 6416   6.398   3.294   5.003
 1839SOL    HW2 6417   6.301   3.259   5.129
 1840SOL     OW 6418   2.675   6.002   0.746
 1840SOL    HW1 6419   2.637   5.941   0.815
 1840SOL    HW2 6420   2.759   5.961   0.708
 1841SOL     OW 6421   2.126   3.184   3.736
 1841SOL    HW1 6422   2.163   3.224   3.820
 1841SOL    HW2 6423   2.072   3.253   3.687
 1842SOL     OW 6424   0.618   4.513   0.979
 1842SOL    HW1 6425   0.538   4.481   1.030
 1842SOL    HW2 6426   0.608   4.489   0.882
 1843SOL     OW 6427   2.313   1.377   5.622
 1843SOL    HW1 6428   2.353   1.386   5.713
 1843SOL    HW2 6429   2.231   1.434   5.616
 1844SOL     OW 6430   4.059   2.228   4.195
 1844SOL    HW1 6431   3.961   2.248   4.188
 1844SOL    HW2 6432   4.096   2.211   4.103
 1845SOL     OW 6433   3.700   0.097   6.960
 1845SOL    HW1 6434   3.613   0.079   6.914
 1845SOL    HW2 6435   3.704   0.192   6.990
 1846SOL     OW 6436   3.410   1.903   6.606
 1846SOL    HW1 6437   3.344   1.846   6.557
 1846SOL    HW2 6438   3.367   1.941   6.688
 1847SOL     OW 6439   0.938   7.014   1.323
 1847SOL    HW1 6440   0.989   0.046   1.254
 1847SOL    HW2 6441   0.846   0.034   1.331
 1848SOL     OW 6442   3.289   6.395   2.009
 1848SOL    HW1 6443   3.250   6.481   2.042
 1848SOL    HW2 6444   3.389   6.399   2.016
 1849SOL     OW 6445   3.380   1.527   0.118
 1849SOL    HW1 6446   3.392   1.434   0.151
 1849SOL    HW2 6447   3.283   1.544   0.099
 1850SOL     OW 6448   6.226   2.272   2.994
 1850SOL    HW1 6449   6.141   2.245   2.947
 1850SOL    HW2 6450   6.285   2.321   2.930
 1851SOL     OW 6451   0.282   1.991   2.760
 1851SOL    HW1 6452   0.300   2.058   2.688
 1851SOL    HW2 6453   0.184   1.969   2.761
 1852SOL     OW 6454   4.024   3.022   0.224
 1852SOL    HW1 6455   4.118   3.010   0.194
 1852SOL    HW2 6456   3.963   2.972   0.162
 1853SOL     OW 6457   0.624   3.857   0.948
 1853SOL    HW1 6458   0.565   3.914   1.005
 1853SOL    HW2 6459   0.685   3.804   1.007
 1854SOL     OW 6460   3.097   5.975   4.464
 1854SOL    HW1 6461   3.160   5.901   4.442
 1854SOL    HW2 6462   3.009   5.958   4.419
 1855SOL     OW 6463   5.171   5.317   0.788
 1855SOL    HW1 6464   5.090   5.314   0.729
 1855SOL    HW2 6465   5.236   5.384   0.752
 1856SOL     OW 6466   5.571   2.388   5.093
 1856SOL    HW1 6467   5.510   2.354   5.022
 1856SOL    HW2 6468   5.665   2.385   5.060
 1857SOL     OW 6469   3.916   0.924   4.415
 1857SOL    HW1 6470   3.999   0.891   4.370
 1857SOL    HW2 6471   3.889   0.860   4.487
 1858SOL     OW 6472   5.280   2.859   3.926
 1858SOL    HW1 6473   5.301   2.936   3.866
 1858SOL    HW2 6474   5.353   2.791   3.920
 1859SOL     OW 6475   4.243   2.217   3.207
 1859SOL    HW1 6476   4.158   2.267   3.192
 1859SOL    HW2 6477   4.248   2.188   3.303
 1860SOL     OW 6478   5.999   1.015   4.380
 1860SOL    HW1 6479   5.988   0.920   4.411
 1860SOL    HW2 6480   5.920   1.069   4.408
 1861SOL     OW 6481   5.230   6.493   2.738
 1861SOL    HW1 6482   5.162   6.526   2.803
 1861SOL    HW2 6483   5.293   6.430   2.785
 1862SOL     OW 6484   1.981   1.074   6.823
 1862SOL    HW1 6485   1.881   1.079   6.820
 1862SOL    HW2 6486   2.009   1.006   6.891
 1863SOL     OW 6487   2.785   2.544   1.253
 1863SOL    HW1 6488   2.722   2.538   1.175
 1863SOL    HW2 6489   2.820   2.638   1.260
 1864SOL     OW 6490   0.715   6.482   4.624
 1864SOL    HW1 6491   0.708   6.462   4.527
 1864SOL    HW2 6492   0.783   6.555   4.638
 1865SOL     OW 6493   3.971   2.059   5.915
 1865SOL    HW1 6494   3.940   2.026   6.004
 1865SOL    HW2 6495   3.986   1.981   5.854
 1866SOL     OW 6496   4.625   4.393   2.224
 1866SOL    HW1 6497   4.582   4.374   2.136
 1866SOL    HW2 6498   4.667   4.309   2.259
 1867SOL     OW 6499   6.982   4.146   6.768
 1867SOL    HW1 6500   6.971   4.117   6.674
 1867SOL    HW2 6501   0.015   4.232   6.770
 1868SOL     OW 6502   5.709   4.658   5.927
 1868SOL    HW1 6503   5.779   4.595   5.895
 1868SOL    HW2 6504   5.745   4.752   5.924
 1869SOL     OW 6505   6.492   1.348   5.297
 1869SOL    HW1 6506   6.448   1.429   5.259
 1869SOL    HW2 6507   6.486   1.273   5.231
 1870SOL     OW 6508   1.923   5.337   4.482
 1870SOL    HW1 6509   1.871   5.310   4.400
 1870SOL    HW2 6510   1.860   5.367   4.553
 1871SOL     OW 6511   2.123   0.446   0.592
 1871SOL    HW1 6512   2.137   0.544   0.578
 1871SOL    HW2 6513   2.210   0.403   0.618
 1872SOL     OW 6514   2.195   4.552   0.793
 1872SOL    HW1 6515   2.241   4.638   0.816
 1872SOL    HW2 6516   2.247   4.475   0.829
 1873SOL     OW 6517   4.074   1.259   5.959
 1873SOL    HW1 6518   4.097   1.346   6.003
 1873SOL    HW2 6519   4.032   1.198   6.026
 1874SOL     OW 6520   1.688   1.752   2.109
 1874SOL    HW1 6521   1.787   1.766   2.104
 1874SOL    HW2 6522   1.665   1.708   2.195
 1875SOL     OW 6523   0.013   6.824   6.592
 1875SOL    HW1 6524   6.975   6.772   6.657
 1875SOL    HW2 6525   0.040   6.911   6.633
 1876SOL     OW 6526   2.755   6.997   4.515
 1876SOL    HW1 6527   2.692   6.956   4.450
 1876SOL    HW2 6528   2.708   0.050   4.568
 1877SOL     OW 6529   0.924   0.377   3.969
 1877SOL    HW1 6530   0.900   0.346   4.060
 1877SOL    HW2 6531   0.941   0.476   3.970
 1878SOL     OW 6532   6.637   2.171   4.125
 1878SOL    HW1 6533   6.640   2.247   4.060
 1878SOL    HW2 6534   6.727   2.158   4.166
 1879SOL     OW 6535   0.967   4.078   4.777
 1879SOL    HW1 6536   0.926   3.988   4.772
 1879SOL    HW2 6537   0.926   4.130   4.851
 1880SOL     OW 6538   6.679   1.722   5.229
 1880SOL    HW1 6539   6.715   1.644   5.177
 1880SOL    HW2 6540   6.590   1.749   5.192
 1881SOL     OW 6541   6.401   2.185   0.213
 1881SOL    HW1 6542   6.359   2.275   0.204
 1881SOL    HW2 6543   6.464   2.171   0.137
 1882SOL     OW 6544   1.121   4.227   6.136
 1882SOL    HW1 6545   1.165   4.208   6.048
 1882SOL    HW2 6546   1.094   4.140   6.178
 1883SOL     OW 6547   6.895   2.706   2.672
 1883SOL    HW1 6548   6.862   2.617   2.640
 1883SOL    HW2 6549   6.985   2.724   2.633
 1884SOL     OW 6550   0.209   2.010   1.295
 1884SOL    HW1 6551   0.212   1.912   1.277
 1884SOL    HW2 6552   0.263   2.031   1.377
 1885SOL     OW 6553   2.309   1.691   5.385
 1885SOL    HW1 6554   2.384   1.749   5.353
 1885SOL    HW2 6555   2.224   1.720   5.341
 1886SOL     OW 6556   1.319   6.939   3.378
 1886SOL    HW1 6557   1.405   6.891   3.394
 1886SOL    HW2 6558   1.314   0.001   3.436
 1887SOL     OW 6559   1.317   6.095   6.431
 1887SOL    HW1 6560   1.271   6.131   6.513
 1887SOL    HW2 6561   1.270   6.012   6.400
 1888SOL     OW 6562   2.788   1.341   0.796
 1888SOL    HW1 6563   2.765   1.267   0.733
 1888SOL    HW2 6564   2.706   1.394   0.816
 1889SOL     OW 6565   1.431   3.556   3.262
 1889SOL    HW1 6566   1.494   3.613   3.315
 1889SOL    HW2 6567   1.449   3.460   3.281
 1890SOL     OW 6568   1.228   5.900   3.666
 1890SOL    HW1 6569   1.135   5.864   3.667
 1890SOL    HW2 6570   1.290   5.834   3.710
 1891SOL     OW 6571   3.826   3.756   2.339
 1891SOL    HW1 6572   3.902   3.729   2.398
 1891SOL    HW2 6573   3.854   3.753   2.243
 1892SOL     OW 6574   6.775   0.200   1.613
 1892SOL    HW1 6575   6.676   0.217   1.609
 1892SOL    HW2 6576   6.795   0.138   1.689
 1893SOL     OW 6577   3.537   3.440   3.030
 1893SOL    HW1 6578   3.634   3.418   3.033
 1893SOL    HW2 6579   3.524   3.538   3.049
 1894SOL     OW 6580   3.699   3.621   4.143
 1894SOL    HW1 6581   3.755   3.645   4.064
 1894SOL    HW2 6582   3.608   3.592   4.113
 1895SOL     OW 6583   4.649   0.440   0.387
 1895SOL    HW1 6584   4.561   0.486   0.401
 1895SOL    HW2 6585   4.670   0.436   0.290
 1896SOL     OW 6586   4.946   1.636   0.882
 1896SOL    HW1 6587   4.872   1.575   0.857
 1896SOL    HW2 6588   4.953   1.710   0.815
 1897SOL     OW 6589   2.406   4.940   3.494
 1897SOL    HW1 6590   2.361   4.927   3.582
 1897SOL    HW2 6591   2.436   4.852   3.458
 1898SOL     OW 6592   1.519   5.610   3.253
 1898SOL    HW1 6593   1.504   5.643   3.159
 1898SOL    HW2 6594   1.514   5.510   3.254
 1899SOL     OW 6595   6.812   0.507   1.625
 1899SOL    HW1 6596   6.819   0.417   1.583
 1899SOL    HW2 6597   6.834   0.500   1.722
 1900SOL     OW 6598   2.786   0.210   6.982
 1900SOL    HW1 6599   2.846   0.260   0.026
 1900SOL    HW2 6600   2.789   0.253   6.892
 1901SOL     OW 6601   2.860   3.820   1.401
 1901SOL    HW1 6602   2.789   3.809   1.470
 1901SOL    HW2 6603   2.819   3.818   1.310
 1902SOL     OW 6604   1.935   6.588   4.721
 1902SOL    HW1 6605   1.985   6.588   4.634
 1902SOL    HW2 6606   1.843   6.552   4.706
 1903SOL     OW 6607   1.048   2.783   3.863
 1903SOL    HW1 6608   1.106   2.714   3.821
 1903SOL    HW2 6609   0.954   2.752   3.864
 1904SOL     OW 6610   5.466   5.578   2.865
 1904SOL    HW1 6611   5.394   5.584   2.934
 1904SOL    HW2 6612   5.433   5.522   2.788
 1905SOL     OW 6613   0.687   0.644   4.146
 1905SOL    HW1 6614   0.668   0.727   4.093
 1905SOL    HW2 6615   0.676   0.564   4.088
 1906SOL     OW 6616   2.555   0.243   5.897
 1906SOL    HW1 6617   2.552   0.288   5.986
 1906SOL    HW2 6618   2.643   0.261   5.853
 1907SOL     OW 6619   4.900   2.820   7.008
 1907SOL    HW1 6620   4.973   2.872   0.034
 1907SOL    HW2 6621   4.934   2.730   6.981
 1908SOL     OW 6622   3.443   0.737   1.054
 1908SOL    HW1 6623   3.442   0.792   0.971
 1908SOL    HW2 6624   3.365   0.674   1.053
 1909SOL     OW 6625   0.012   4.441   5.334
 1909SOL    HW1 6626   0.110   4.421   5.339
 1909SOL    HW2 6627   6.995   4.411   5.245
 1910SOL     OW 6628   6.710   5.964   6.033
 1910SOL    HW1 6629   6.669   5.945   5.944
 1910SOL    HW2 6630   6.719   6.062   6.046
 1911SOL     OW 6631   0.125   5.293   4.353
 1911SOL    HW1 6632   0.223   5.302   4.373
 1911SOL    HW2 6633   0.113   5.224   4.282
 1912SOL     OW 6634   2.523   4.820   3.032
 1912SOL    HW1 6635   2.500   4.788   2.940
 1912SOL    HW2 6636   2.585   4.898   3.026
 1913SOL     OW 6637   2.653   4.737   5.174
 1913SOL    HW1 6638   2.711   4.705   5.099
 1913SOL    HW2 6639   2.640   4.663   5.240
 1914SOL     OW 6640   2.532   4.588   6.096
 1914SOL    HW1 6641   2.558   4.507   6.147
 1914SOL    HW2 6642   2.467   4.563   6.024
 1915SOL     OW 6643   5.209   2.593   6.456
 1915SOL    HW1 6644   5.112   2.573   6.437
 1915SOL    HW2 6645   5.243   2.658   6.388
 1916SOL     OW 6646   4.284   0.202   2.009
 1916SOL    HW1 6647   4.319   0.292   2.037
 1916SOL    HW2 6648   4.357   0.134   2.019
 1917SOL     OW 6649   2.382   4.525   1.256
 1917SOL    HW1 6650   2.398   4.529   1.355
 1917SOL    HW2 6651   2.469   4.523   1.208
 1918SOL     OW 6652   0.193   1.664   4.588
 1918SOL    HW1 6653   0.177   1.725   4.665
 1918SOL    HW2 6654   0.252   1.589   4.617
 1919SOL     OW 6655   1.020   2.149   1.034
 1919SOL    HW1 6656   0.927   2.132   1.066
 1919SOL    HW2 6657   1.071   2.063   1.031
 1920SOL     OW 6658   5.208   2.446   1.240
 1920SOL    HW1 6659   5.258   2.361   1.253
 1920SOL    HW2 6660   5.200   2.493   1.328
 1921SOL     OW 6661   1.726   2.955   6.846
 1921SOL    HW1 6662   1.659   2.973   6.774
 1921SOL    HW2 6663   1.813   2.997   6.822
 1922SOL     OW 6664   2.958   3.515   2.172
 1922SOL    HW1 6665   2.929   3.471   2.257
 1922SOL    HW2 6666   2.883   3.511   2.106
 1923SOL     OW 6667   4.488   0.506   5.326
 1923SOL    HW1 6668   4.505   0.418   5.281
 1923SOL    HW2 6669   4.392   0.530   5.318
 1924SOL     OW 6670   4.595   6.976   1.127
 1924SOL    HW1 6671   4.561   0.045   1.160
 1924SOL    HW2 6672   4.648   6.990   1.043
 1925SOL     OW 6673   0.979   4.244   0.835
 1925SOL    HW1 6674   0.927   4.240   0.921
 1925SOL    HW2 6675   0.998   4.151   0.803
 1926SOL     OW 6676   3.491   6.876   2.286
 1926SOL    HW1 6677   3.515   6.803   2.222
 1926SOL    HW2 6678   3.563   6.885   2.354
 1927SOL     OW 6679   1.817   4.905   1.480
 1927SOL    HW1 6680   1.731   4.858   1.502
 1927SOL    HW2 6681   1.889   4.873   1.541
 1928SOL     OW 6682   4.862   4.307   3.033
 1928SOL    HW1 6683   4.880   4.235   2.966
 1928SOL    HW2 6684   4.855   4.395   2.986
 1929SOL     OW 6685   2.913   0.716   2.980
 1929SOL    HW1 6686   2.870   0.804   3.000
 1929SOL    HW2 6687   2.844   0.649   2.957
 1930SOL     OW 6688   4.727   2.665   6.760
 1930SOL    HW1 6689   4.760   2.590   6.818
 1930SOL    HW2 6690   4.786   2.745   6.773
 1931SOL     OW 6691   0.775   1.237   5.035
 1931SOL    HW1 6692   0.779   1.293   4.952
 1931SOL    HW2 6693   0.701   1.171   5.027
 1932SOL     OW 6694   4.584   2.627   2.724
 1932SOL    HW1 6695   4.552   2.551   2.779
 1932SOL    HW2 6696   4.541   2.625   2.634
 1933SOL     OW 6697   1.021   1.343   0.874
 1933SOL    HW1 6698   0.965   1.377   0.798
 1933SOL    HW2 6699   1.039   1.417   0.938
 1934SOL     OW 6700   0.211   0.121   5.973
 1934SOL    HW1 6701   0.282   0.071   6.022
 1934SOL    HW2 6702   0.124   0.114   6.022
 1935SOL     OW 6703   6.554   4.859   4.146
 1935SOL    HW1 6704   6.509   4.948   4.138
 1935SOL    HW2 6705   6.545   4.809   4.060
 1936SOL     OW 6706   4.991   3.161   4.949
 1936SOL    HW1 6707   4.930   3.152   4.871
 1936SOL    HW2 6708   5.072   3.213   4.922
 1937SOL     OW 6709   5.238   5.094   0.015
 1937SOL    HW1 6710   5.265   5.000   0.037
 1937SOL    HW2 6711   5.247   5.109   6.935
 1938SOL     OW 6712   0.965   2.740   6.283
 1938SOL    HW1 6713   0.873   2.712   6.252
 1938SOL    HW2 6714   0.957   2.821   6.340
 1939SOL     OW 6715   1.298   0.187   4.737
 1939SOL    HW1 6716   1.391   0.213   4.764
 1939SOL    HW2 6717   1.287   0.198   4.639
 1940SOL     OW 6718   6.181   4.800   1.403
 1940SOL    HW1 6719   6.159   4.877   1.463
 1940SOL    HW2 6720   6.182   4.830   1.308
 1941SOL     OW 6721   0.800   2.944   4.066
 1941SOL    HW1 6722   0.766   2.993   4.146
 1941SOL    HW2 6723   0.875   2.884   4.094
 1942SOL     OW 6724   5.900   3.668   2.375
 1942SOL    HW1 6725   5.913   3.760   2.414
 1942SOL    HW2 6726   5.812   3.631   2.404
 1943SOL     OW 6727   1.052   1.156   2.524
 1943SOL    HW1 6728   1.118   1.084   2.505
 1943SOL    HW2 6729   1.076   1.203   2.608
 1944SOL     OW 6730   6.523   2.357   1.813
 1944SOL    HW1 6731   6.618   2.380   1.790
 1944SOL    HW2 6732   6.487   2.423   1.879
 1945SOL     OW 6733   4.592   0.462   1.881
 1945SOL    HW1 6734   4.564   0.429   1.971
 1945SOL    HW2 6735   4.663   0.532   1.892
 1946SOL     OW 6736   6.164   5.655   1.612
 1946SOL    HW1 6737   6.233   5.727   1.608
 1946SOL    HW2 6738   6.171   5.598   1.530
 1947SOL     OW 6739   6.074   4.618   4.050
 1947SOL    HW1 6740   5.995   4.616   3.988
 1947SOL    HW2 6741   6.049   4.665   4.134
 1948SOL     OW 6742   4.933   3.413   3.260
 1948SOL    HW1 6743   4.899   3.476   3.190
 1948SOL    HW2 6744   5.029   3.432   3.278
 1949SOL     OW 6745   3.410   5.152   6.656
 1949SOL    HW1 6746   3.425   5.070   6.711
 1949SOL    HW2 6747   3.313   5.176   6.658
 1950SOL     OW 6748   3.589   3.969   4.474
 1950SOL    HW1 6749   3.507   3.958   4.418
 1950SOL    HW2 6750   3.565   4.014   4.560
 1951SOL     OW 6751   6.187   4.412   5.726
 1951SOL    HW1 6752   6.253   4.487   5.733
 1951SOL    HW2 6753   6.231   4.326   5.751
 1952SOL     OW 6754   5.784   4.343   6.744
 1952SOL    HW1 6755   5.822   4.294   6.666
 1952SOL    HW2 6756   5.857   4.392   6.792
 1953SOL     OW 6757   0.722   1.678   6.599
 1953SOL    HW1 6758   0.780   1.734   6.659
 1953SOL    HW2 6759   0.752   1.583   6.604
 1954SOL     OW 6760   4.114   0.100   1.808
 1954SOL    HW1 6761   4.169   0.164   1.861
 1954SOL    HW2 6762   4.110   0.012   1.856
 1955SOL     OW 6763   0.812   1.555   2.299
 1955SOL    HW1 6764   0.769   1.610   2.371
 1955SOL    HW2 6765   0.845   1.615   2.227
 1956SOL     OW 6766   5.636   0.302   2.169
 1956SOL    HW1 6767   5.629   0.360   2.088
 1956SOL    HW2 6768   5.575   0.336   2.241
 1957SOL     OW 6769   5.423   1.961   4.257
 1957SOL    HW1 6770   5.410   1.966   4.157
 1957SOL    HW2 6771   5.518   1.939   4.277
 1958SOL     OW 6772   4.542   1.828   1.415
 1958SOL    HW1 6773   4.502   1.890   1.348
 1958SOL    HW2 6774   4.617   1.873   1.462
 1959SOL     OW 6775   0.478   0.229   4.501
 1959SOL    HW1 6776   0.500   0.133   4.514
 1959SOL    HW2 6777   0.513   0.282   4.579
 1960SOL     OW 6778   6.054   4.250   3.496
 1960SOL    HW1 6779   5.956   4.238   3.478
 1960SOL    HW2 6780   6.068   4.263   3.594
 1961SOL     OW 6781   6.447   3.824   4.822
 1961SOL    HW1 6782   6.479   3.730   4.836
 1961SOL    HW2 6783   6.449   3.874   4.909
 1962SOL     OW 6784   0.497   0.372   2.809
 1962SOL    HW1 6785   0.563   0.301   2.835
 1962SOL    HW2 6786   0.546   0.448   2.766
 1963SOL     OW 6787   0.587   2.013   1.726
 1963SOL    HW1 6788   0.604   2.000   1.628
 1963SOL    HW2 6789   0.662   2.067   1.766
 1964SOL     OW 6790   5.325   4.413   1.586
 1964SOL    HW1 6791   5.398   4.386   1.523
 1964SOL    HW2 6792   5.310   4.512   1.578
 1965SOL     OW 6793   0.374   4.856   4.187
 1965SOL    HW1 6794   0.427   4.904   4.258
 1965SOL    HW2 6795   0.423   4.774   4.159
 1966SOL     OW 6796   1.446   4.527   0.283
 1966SOL    HW1 6797   1.380   4.589   0.240
 1966SOL    HW2 6798   1.465   4.558   0.376
 1967SOL     OW 6799   5.501   3.200   3.470
 1967SOL    HW1 6800   5.576   3.216   3.534
 1967SOL    HW2 6801   5.433   3.273   3.478
 1968SOL     OW 6802   2.692   1.525   5.215
 1968SOL    HW1 6803   2.710   1.429   5.236
 1968SOL    HW2 6804   2.594   1.543   5.221
 1969SOL     OW 6805   3.033   6.886   0.745
 1969SOL    HW1 6806   3.021   6.959   0.678
 1969SOL    HW2 6807   3.100   6.914   0.814
 1970SOL     OW 6808   5.842   5.730   4.917
 1970SOL    HW1 6809   5.903   5.779   4.854
 1970SOL    HW2 6810   5.773   5.792   4.951
 1971SOL     OW 6811   1.567   6.179   5.396
 1971SOL    HW1 6812   1.504   6.102   5.405
 1971SOL    HW2 6813   1.519   6.258   5.358
 1972SOL     OW 6814   5.853   2.222   2.488
 1972SOL    HW1 6815   5.953   2.219   2.483
 1972SOL    HW2 6816   5.824   2.312   2.519
 1973SOL     OW 6817   1.953   4.432   0.353
 1973SOL    HW1 6818   1.921   4.482   0.433
 1973SOL    HW2 6819   1.972   4.337   0.379
 1974SOL     OW 6820   3.736   6.420   5.028
 1974SOL    HW1 6821   3.693   6.441   4.940
 1974SOL    HW2 6822   3.814   6.359   5.014
 1975SOL     OW 6823   1.699   2.274   3.323
 1975SOL    HW1 6824   1.652   2.243   3.241
 1975SOL    HW2 6825   1.652   2.355   3.360
 1976SOL     OW 6826   6.874   6.718   6.385
 1976SOL    HW1 6827   6.801   6.753   6.327
 1976SOL    HW2 6828   6.914   6.793   6.438
 1977SOL     OW 6829   1.996   4.537   5.668
 1977SOL    HW1 6830   1.985   4.491   5.756
 1977SOL    HW2 6831   2.093   4.546   5.647
 1978SOL     OW 6832   2.607   6.917   2.011
 1978SOL    HW1 6833   2.561   7.006   2.018
 1978SOL    HW2 6834   2.674   6.908   2.084
 1979SOL     OW 6835   6.970   4.778   6.754
 1979SOL    HW1 6836   6.978   4.725   6.839
 1979SOL    HW2 6837   0.041   4.814   6.728
 1980SOL     OW 6838   3.434   1.193   1.069
 1980SOL    HW1 6839   3.386   1.169   0.984
 1980SOL    HW2 6840   3.368   1.205   1.142
 1981SOL     OW 6841   4.295   2.345   2.811
 1981SOL    HW1 6842   4.383   2.321   2.852
 1981SOL    HW2 6843   4.271   2.439   2.834
 1982SOL     OW 6844   6.890   2.711   4.986
 1982SOL    HW1 6845   6.961   2.735   4.920
 1982SOL    HW2 6846   6.930   2.660   5.062
 1983SOL     OW 6847   6.796   0.396   1.218
 1983SOL    HW1 6848   6.712   0.391   1.163
 1983SOL    HW2 6849   6.830   0.490   1.218
 1984SOL     OW 6850   5.091   3.202   5.360
 1984SOL    HW1 6851   5.054   3.272   5.299
 1984SOL    HW2 6852   5.022   3.132   5.376
 1985SOL     OW 6853   6.134   3.956   2.236
 1985SOL    HW1 6854   6.076   3.987   2.161
 1985SOL    HW2 6855   6.081   3.949   2.320
 1986SOL     OW 6856   3.305   2.424   1.456
 1986SOL    HW1 6857   3.326   2.389   1.547
 1986SOL    HW2 6858   3.209   2.408   1.435
 1987SOL     OW 6859   2.267   0.546   2.568
 1987SOL    HW1 6860   2.280   0.643   2.548
 1987SOL    HW2 6861   2.213   0.536   2.652
 1988SOL     OW 6862   6.637   1.858   0.944
 1988SOL    HW1 6863   6.695   1.808   0.879
 1988SOL    HW2 6864   6.541   1.849   0.917
 1989SOL     OW 6865   3.254   4.955   4.995
 1989SOL    HW1 6866   3.276   5.026   5.063
 1989SOL    HW2 6867   3.209   4.879   5.041
 1990SOL     OW 6868   3.937   0.308   0.556
 1990SOL    HW1 6869   3.978   0.240   0.617
 1990SOL    HW2 6870   3.846   0.332   0.589
 1991SOL     OW 6871   2.979   5.511   0.737
 1991SOL    HW1 6872   3.002   5.529   0.833
 1991SOL    HW2 6873   3.062   5.484   0.688
 1992SOL     OW 6874   0.441   5.765   1.435
 1992SOL    HW1 6875   0.475   5.671   1.434
 1992SOL    HW2 6876   0.467   5.811   1.350
 1993SOL     OW 6877   2.125   3.361   3.976
 1993SOL    HW1 6878   2.114   3.438   3.914
 1993SOL    HW2 6879   2.052   3.361   4.044
 1994SOL     OW 6880   3.061   3.341   0.408
 1994SOL    HW1 6881   3.068   3.397   0.326
 1994SOL    HW2 6882   3.148   3.297   0.427
 1995SOL     OW 6883   5.704   2.198   4.885
 1995SOL    HW1 6884   5.634   2.192   4.814
 1995SOL    HW2 6885   5.672   2.149   4.967
 1996SOL     OW 6886   3.437   2.001   0.780
 1996SOL    HW1 6887   3.523   2.045   0.806
 1996SOL    HW2 6888   3.447   1.902   0.790
 1997SOL     OW 6889   4.089   0.684   3.607
 1997SOL    HW1 6890   4.170   0.704   3.551
 1997SOL    HW2 6891   4.016   0.748   3.584
 1998SOL     OW 6892   1.800   3.157   1.253
 1998SOL    HW1 6893   1.731   3.162   1.326
 1998SOL    HW2 6894   1.826   3.249   1.225
 1999SOL     OW 6895   1.792   6.562   5.791
 1999SOL    HW1 6896   1.700   6.594   5.769
 1999SOL    HW2 6897   1.786   6.492   5.863
 2000SOL     OW 6898   3.843   4.376   5.605
 2000SOL    HW1 6899   3.837   4.283   5.642
 2000SOL    HW2 6900   3.938   4.406   5.608
 2001SOL     OW 6901   2.132   1.663   0.054
 2001SOL    HW1 6902   2.117   1.761   0.047
 2001SOL    HW2 6903   2.146   1.638   0.150
 2002SOL     OW 6904   0.188   4.248   0.758
 2002SOL    HW1 6905   0.132   4.204   0.687
 2002SOL    HW2 6906   0.274   4.198   0.767
 2003SOL     OW 6907   6.651   5.574   2.109
 2003SOL    HW1 6908   6.725   5.598   2.046
 2003SOL    HW2 6909   6.661   5.627   2.194
 2004SOL     OW 6910   3.405   6.859   3.453
 2004SOL    HW1 6911   3.373   6.769   3.424
 2004SOL    HW2 6912   3.338   6.929   3.429
 2005SOL     OW 6913   1.572   6.236   1.048
 2005SOL    HW1 6914   1.569   6.319   0.992
 2005SOL    HW2 6915   1.507   6.245   1.124
 2006SOL     OW 6916   5.870   7.006   2.738
 2006SOL    HW1 6917   5.836   0.079   2.715
 2006SOL    HW2 6918   5.969   7.008   2.745
 2007SOL     OW 6919   5.912   4.634   0.124
 2007SOL    HW1 6920   5.923   4.538   0.152
 2007SOL    HW2 6921   5.827   4.670   0.161
 2008SOL     OW 6922   1.558   3.505   3.568
 2008SOL    HW1 6923   1.503   3.575   3.614
 2008SOL    HW2 6924   1.618   3.549   3.502
 2009SOL     OW 6925   6.088   6.750   2.256
 2009SOL    HW1 6926   6.054   6.704   2.338
 2009SOL    HW2 6927   6.068   6.693   2.176
 2010SOL     OW 6928   1.374   1.547   1.319
 2010SOL    HW1 6929   1.350   1.623   1.259
 2010SOL    HW2 6930   1.446   1.492   1.277
 2011SOL     OW 6931   0.927   6.738   5.806
 2011SOL    HW1 6932   0.858   6.771   5.742
 2011SOL    HW2 6933   0.978   6.663   5.764
 2012SOL     OW 6934   1.278   3.071   1.905
 2012SOL    HW1 6935   1.322   3.091   1.993
 2012SOL    HW2 6936   1.185   3.107   1.905
 2013SOL     OW 6937   0.222   3.454   2.592
 2013SOL    HW1 6938   0.264   3.380   2.644
 2013SOL    HW2 6939   0.133   3.425   2.557
 2014SOL     OW 6940   3.579   0.507   4.384
 2014SOL    HW1 6941   3.611   0.571   4.315
 2014SOL    HW2 6942   3.635   0.425   4.382
 2015SOL     OW 6943   4.684   0.571   1.424
 2015SOL    HW1 6944   4.658   0.618   1.508
 2015SOL    HW2 6945   4.602   0.550   1.371
 2016SOL     OW 6946   1.526   0.441   5.648
 2016SOL    HW1 6947   1.506   0.382   5.726
 2016SOL    HW2 6948   1.441   0.458   5.597
 2017SOL     OW 6949   4.341   6.436   2.741
 2017SOL    HW1 6950   4.272   6.397   2.801
 2017SOL    HW2 6951   4.432   6.411   2.775
 2018SOL     OW 6952   1.069   1.086   3.598
 2018SOL    HW1 6953   1.127   1.113   3.521
 2018SOL    HW2 6954   1.110   1.006   3.643
 2019SOL     OW 6955   6.077   5.128   6.484
 2019SOL    HW1 6956   6.145   5.200   6.474
 2019SOL    HW2 6957   5.986   5.168   6.495
 2020SOL     OW 6958   2.476   5.829   6.180
 2020SOL    HW1 6959   2.491   5.762   6.108
 2020SOL    HW2 6960   2.506   5.793   6.268
 2021SOL     OW 6961   6.911   5.985   4.248
 2021SOL    HW1 6962   6.970   6.066   4.256
 2021SOL    HW2 6963   6.967   5.903   4.259
 2022SOL     OW 6964   2.117   4.145   5.154
 2022SOL    HW1 6965   2.152   4.167   5.246
 2022SOL    HW2 6966   2.193   4.119   5.095
 2023SOL     OW 6967   0.390   6.950   0.308
 2023SOL    HW1 6968   0.369   0.003   0.374
 2023SOL    HW2 6969   0.342   6.865   0.333
 2024SOL     OW 6970   1.250   5.946   4.204
 2024SOL    HW1 6971   1.305   5.975   4.283
 2024SOL    HW2 6972   1.301   5.877   4.152
 2025SOL     OW 6973   1.780   6.853   4.794
 2025SOL    HW1 6974   1.704   6.852   4.859
 2025SOL    HW2 6975   1.860   6.809   4.836
 2026SOL     OW 6976   6.762   0.063   5.982
 2026SOL    HW1 6977   6.711   0.136   5.936
 2026SOL    HW2 6978   6.697   7.017   6.023
 2027SOL     OW 6979   0.090   5.965   2.284
 2027SOL    HW1 6980   0.143   5.980   2.200
 2027SOL    HW2 6981   0.004   5.921   2.260
 2028SOL     OW 6982   3.635   4.919   4.328
 2028SOL    HW1 6983   3.667   4.831   4.293
 2028SOL    HW2 6984   3.655   4.924   4.426
 2029SOL     OW 6985   5.931   2.596   6.493
 2029SOL    HW1 6986   5.834   2.572   6.492
 2029SOL    HW2 6987   5.969   2.585   6.401
 2030SOL     OW 6988   2.503   6.556   2.636
 2030SOL    HW1 6989   2.572   6.484   2.640
 2030SOL    HW2 6990   2.477   6.572   2.541
 2031SOL     OW 6991   0.089   5.733   3.717
 2031SOL    HW1 6992   0.018   5.666   3.692
 2031SOL    HW2 6993   0.176   5.686   3.729
 2032SOL     OW 6994   2.963   2.288   5.557
 2032SOL    HW1 6995   3.028   2.358   5.530
 2032SOL    HW2 6996   2.970   2.272   5.656
 2033SOL     OW 6997   1.738   2.171   0.557
 2033SOL    HW1 6998   1.827   2.213   0.539
 2033SOL    HW2 6999   1.751   2.073   0.575
 2034SOL     OW 7000   6.722   4.587   5.053
 2034SOL    HW1 7001   6.710   4.520   4.980
 2034SOL    HW2 7002   6.686   4.551   5.139
 2035SOL     OW 7003   5.812   0.449   2.982
 2035SOL    HW1 7004   5.864   0.440   2.898
 2035SOL    HW2 7005   5.821   0.542   3.017
 2036SOL     OW 7006   1.365   4.027   1.691
 2036SOL    HW1 7007   1.420   3.969   1.630
 2036SOL    HW2 7008   1.307   3.969   1.748
 2037SOL     OW 7009   0.088   3.071   6.640
 2037SOL    HW1 7010   0.150   3.109   6.708
 2037SOL    HW2 7011   0.047   3.145   6.587
 2038SOL     OW 7012   1.779   1.570   6.682
 2038SOL    HW1 7013   1.776   1.491   6.620
 2038SOL    HW2 7014   1.865   1.568   6.734
 2039SOL     OW 7015   6.220   5.815   2.659
 2039SOL    HW1 7016   6.200   5.720   2.683
 2039SOL    HW2 7017   6.313   5.823   2.626
 2040SOL     OW 7018   1.779   2.697   0.317
 2040SOL    HW1 7019   1.766   2.643   0.233
 2040SOL    HW2 7020   1.691   2.712   0.361
 2041SOL     OW 7021   1.952   7.014   6.341
 2041SOL    HW1 7022   1.860   6.995   6.304
 2041SOL    HW2 7023   1.994   0.070   6.288
 2042SOL     OW 7024   5.388   1.001   5.895
 2042SOL    HW1 7025   5.322   0.927   5.892
 2042SOL    HW2 7026   5.456   0.988   5.823
 2043SOL     OW 7027   6.667   4.365   1.278
 2043SOL    HW1 7028   6.689   4.340   1.373
 2043SOL    HW2 7029   6.719   4.446   1.253
 2044SOL     OW 7030   4.455   0.343   0.838
 2044SOL    HW1 7031   4.490   0.425   0.793
 2044SOL    HW2 7032   4.362   0.359   0.870
 2045SOL     OW 7033   1.458   6.550   6.173
 2045SOL    HW1 7034   1.403   6.633   6.165
 2045SOL    HW2 7035   1.398   6.470   6.179
 2046SOL     OW 7036   1.055   2.283   4.850
 2046SOL    HW1 7037   0.972   2.282   4.905
 2046SOL    HW2 7038   1.135   2.294   4.909
 2047SOL     OW 7039   0.152   0.166   0.331
 2047SOL    HW1 7040   0.162   0.155   0.232
 2047SOL    HW2 7041   0.203   0.247   0.361
 2048SOL     OW 7042   0.896   1.992   4.540
 2048SOL    HW1 7043   0.962   1.920   4.516
 2048SOL    HW2 7044   0.924   2.035   4.626
 2049SOL     OW 7045   5.181   1.767   5.070
 2049SOL    HW1 7046   5.188   1.865   5.051
 2049SOL    HW2 7047   5.172   1.717   4.985
 2050SOL     OW 7048   0.894   1.056   4.034
 2050SOL    HW1 7049   0.804   1.014   4.038
 2050SOL    HW2 7050   0.891   1.137   3.975
 2051SOL     OW 7051   2.906   6.156   0.612
 2051SOL    HW1 7052   2.943   6.065   0.630
 2051SOL    HW2 7053   2.879   6.198   0.699
 2052SOL     OW 7054   1.044   4.405   6.660
 2052SOL    HW1 7055   1.105   4.465   6.609
 2052SOL    HW2 7056   0.983   4.461   6.717
 2053SOL     OW 7057   0.604   5.208   3.469
 2053SOL    HW1 7058   0.591   5.245   3.561
 2053SOL    HW2 7059   0.549   5.261   3.404
 2054SOL     OW 7060   3.559   2.920   3.832
 2054SOL    HW1 7061   3.605   2.867   3.761
 2054SOL    HW2 7062   3.594   3.013   3.834
 2055SOL     OW 7063   2.980   2.243   5.836
 2055SOL    HW1 7064   2.942   2.150   5.835
 2055SOL    HW2 7065   3.050   2.249   5.907
 2056SOL     OW 7066   4.087   4.799   1.292
 2056SOL    HW1 7067   4.089   4.702   1.315
 2056SOL    HW2 7068   4.108   4.853   1.374
 2057SOL     OW 7069   5.849   2.586   4.179
 2057SOL    HW1 7070   5.945   2.562   4.191
 2057SOL    HW2 7071   5.794   2.503   4.172
 2058SOL     OW 7072   6.849   5.996   3.097
 2058SOL    HW1 7073   6.783   6.046   3.154
 2058SOL    HW2 7074   6.844   5.898   3.117
 2059SOL     OW 7075   1.992   0.400   6.208
 2059SOL    HW1 7076   1.966   0.423   6.302
 2059SOL    HW2 7077   2.089   0.422   6.194
 2060SOL     OW 7078   1.731   3.071   6.532
 2060SOL    HW1 7079   1.646   3.032   6.567
 2060SOL    HW2 7080   1.765   3.014   6.457
 2061SOL     OW 7081   1.639   2.652   2.202
 2061SOL    HW1 7082   1.603   2.597   2.126
 2061SOL    HW2 7083   1.639   2.597   2.285
 2062SOL     OW 7084   0.059   4.919   4.597
 2062SOL    HW1 7085   0.147   4.963   4.614
 2062SOL    HW2 7086   7.004   4.975   4.635
 2063SOL     OW 7087   0.605   0.518   4.595
 2063SOL    HW1 7088   0.537   0.454   4.630
 2063SOL    HW2 7089   0.686   0.467   4.565
 2064SOL     OW 7090   0.679   3.065   3.493
 2064SOL    HW1 7091   0.633   3.010   3.562
 2064SOL    HW2 7092   0.757   3.112   3.534
 2065SOL     OW 7093   4.299   2.979   5.613
 2065SOL    HW1 7094   4.323   2.882   5.610
 2065SOL    HW2 7095   4.276   3.010   5.521
 2066SOL     OW 7096   6.581   3.243   5.263
 2066SOL    HW1 7097   6.514   3.289   5.320
 2066SOL    HW2 7098   6.574   3.276   5.169
 2067SOL     OW 7099   6.189   5.512   1.369
 2067SOL    HW1 7100   6.285   5.528   1.348
 2067SOL    HW2 7101   6.134   5.522   1.287
 2068SOL     OW 7102   4.307   0.712   4.577
 2068SOL    HW1 7103   4.220   0.679   4.614
 2068SOL    HW2 7104   4.324   0.670   4.489
 2069SOL     OW 7105   0.520   3.008   3.696
 2069SOL    HW1 7106   0.471   3.087   3.660
 2069SOL    HW2 7107   0.532   3.018   3.794
 2070SOL     OW 7108   0.950   4.550   0.999
 2070SOL    HW1 7109   0.902   4.559   0.912
 2070SOL    HW2 7110   1.044   4.581   0.990
 2071SOL     OW 7111   6.890   1.372   5.978
 2071SOL    HW1 7112   6.930   1.449   6.029
 2071SOL    HW2 7113   6.800   1.399   5.942
 2072SOL     OW 7114   4.188   4.431   5.435
 2072SOL    HW1 7115   4.220   4.443   5.341
 2072SOL    HW2 7116   4.159   4.336   5.448
 2073SOL     OW 7117   3.131   5.701   6.498
 2073SOL    HW1 7118   3.092   5.744   6.417
 2073SOL    HW2 7119   3.064   5.702   6.572
 2074SOL     OW 7120   0.901   4.377   6.036
 2074SOL    HW1 7121   0.990   4.339   6.060
 2074SOL    HW2 7122   0.858   4.320   5.967
 2075SOL     OW 7123   6.663   1.605   1.315
 2075SOL    HW1 7124   6.671   1.511   1.346
 2075SOL    HW2 7125   6.567   1.634   1.318
 2076SOL     OW 7126   6.216   6.784   4.832
 2076SOL    HW1 7127   6.297   6.834   4.801
 2076SOL    HW2 7128   6.135   6.824   4.791
 2077SOL     OW 7129   6.385   4.183   0.405
 2077SOL    HW1 7130   6.424   4.103   0.450
 2077SOL    HW2 7131   6.451   4.259   0.411
 2078SOL     OW 7132   0.878   3.077   5.760
 2078SOL    HW1 7133   0.848   2.982   5.765
 2078SOL    HW2 7134   0.862   3.112   5.668
 2079SOL     OW 7135   4.838   1.918   2.217
 2079SOL    HW1 7136   4.933   1.897   2.240
 2079SOL    HW2 7137   4.834   1.961   2.127
 2080SOL     OW 7138   2.446   3.220   5.787
 2080SOL    HW1 7139   2.465   3.174   5.873
 2080SOL    HW2 7140   2.491   3.172   5.712
 2081SOL     OW 7141   5.504   6.293   2.905
 2081SOL    HW1 7142   5.585   6.345   2.877
 2081SOL    HW2 7143   5.530   6.198   2.924
 2082SOL     OW 7144   6.640   5.842   3.658
 2082SOL    HW1 7145   6.592   5.755   3.670
 2082SOL    HW2 7146   6.730   5.837   3.701
 2083SOL     OW 7147   0.758   6.421   4.329
 2083SOL    HW1 7148   0.690   6.393   4.261
 2083SOL    HW2 7149   0.840   6.453   4.283
 2084SOL     OW 7150   6.129   1.973   1.640
 2084SOL    HW1 7151   6.123   2.023   1.554
 2084SOL    HW2 7152   6.151   1.877   1.621
 2085SOL     OW 7153   5.142   5.754   0.767
 2085SOL    HW1 7154   5.202   5.828   0.799
 2085SOL    HW2 7155   5.103   5.706   0.846
 2086SOL     OW 7156   4.410   0.806   6.941
 2086SOL    HW1 7157   4.423   0.841   6.848
 2086SOL    HW2 7158   4.392   0.708   6.937
 2087SOL     OW 7159   3.910   1.596   6.640
 2087SOL    HW1 7160   3.825   1.648   6.646
 2087SOL    HW2 7161   3.953   1.593   6.730
 2088SOL     OW 7162   1.063   5.736   6.101
 2088SOL    HW1 7163   1.024   5.645   6.104
 2088SOL    HW2 7164   1.154   5.732   6.060
 2089SOL     OW 7165   2.735   3.934   0.116
 2089SOL    HW1 7166   2.789   3.873   0.174
 2089SOL    HW2 7167   2.716   3.890   0.029
 2090SOL     OW 7168   4.638   3.229   5.627
 2090SOL    HW1 7169   4.542   3.216   5.652
 2090SOL    HW2 7170   4.678   3.141   5.601
 2091SOL     OW 7171   5.461   6.112   2.085
 2091SOL    HW1 7172   5.454   6.013   2.085
 2091SOL    HW2 7173   5.525   6.141   2.014
 2092SOL     OW 7174   4.604   3.562   1.549
 2092SOL    HW1 7175   4.595   3.502   1.470
 2092SOL    HW2 7176   4.568   3.516   1.630
 2093SOL     OW 7177   3.422   1.020   2.136
 2093SOL    HW1 7178   3.480   1.033   2.056
 2093SOL    HW2 7179   3.368   0.936   2.125
 2094SOL     OW 7180   5.192   2.248   6.474
 2094SOL    HW1 7181   5.120   2.316   6.467
 2094SOL    HW2 7182   5.242   2.242   6.387
 2095SOL     OW 7183   5.446   6.222   3.606
 2095SOL    HW1 7184   5.382   6.269   3.668
 2095SOL    HW2 7185   5.416   6.234   3.512
 2096SOL     OW 7186   4.955   6.958   2.264
 2096SOL    HW1 7187   5.032   6.911   2.308
 2096SOL    HW2 7188   4.871   6.908   2.284
 2097SOL     OW 7189   1.140   5.477   6.493
 2097SOL    HW1 7190   1.054   5.520   6.464
 2097SOL    HW2 7191   1.120   5.396   6.547
 2098SOL     OW 7192   3.015   6.132   3.411
 2098SOL    HW1 7193   2.975   6.054   3.364
 2098SOL    HW2 7194   3.002   6.214   3.356
 2099SOL     OW 7195   5.124   1.491   6.325
 2099SOL    HW1 7196   5.154   1.396   6.332
 2099SOL    HW2 7197   5.083   1.507   6.235
 2100SOL     OW 7198   5.268   0.082   1.274
 2100SOL    HW1 7199   5.330   0.150   1.313
 2100SOL    HW2 7200   5.254   0.100   1.177
 2101SOL     OW 7201   0.090   6.643   2.089
 2101SOL    HW1 7202   0.000   6.632   2.133
 2101SOL    HW2 7203   0.161   6.615   2.153
 2102SOL     OW 7204   3.672   2.796   0.643
 2102SOL    HW1 7205   3.581   2.836   0.640
 2102SOL    HW2 7206   3.709   2.805   0.735
 2103SOL     OW 7207   2.747   5.870   0.401
 2103SOL    HW1 7208   2.753   5.949   0.461
 2103SOL    HW2 7209   2.825   5.810   0.417
 2104SOL     OW 7210   1.514   4.751   2.868
 2104SOL    HW1 7211   1.535   4.771   2.772
 2104SOL    HW2 7212   1.535   4.655   2.888
 2105SOL     OW 7213   6.253   4.695   5.400
 2105SOL    HW1 7214   6.311   4.776   5.397
 2105SOL    HW2 7215   6.158   4.721   5.380
 2106SOL     OW 7216   4.215   3.428   0.851
 2106SOL    HW1 7217   4.283   3.463   0.915
 2106SOL    HW2 7218   4.259   3.366   0.786
 2107SOL     OW 7219   5.030   4.644   5.515
 2107SOL    HW1 7220   5.084   4.606   5.439
 2107SOL    HW2 7221   5.039   4.744   5.515
 2108SOL     OW 7222   5.357   0.533   5.874
 2108SOL    HW1 7223   5.439   0.557   5.821
 2108SOL    HW2 7224   5.334   0.437   5.858
 2109SOL     OW 7225   3.175   6.689   3.001
 2109SOL    HW1 7226   3.205   6.765   3.060
 2109SOL    HW2 7227   3.185   6.716   2.905
 2110SOL     OW 7228   3.875   6.986   0.112
 2110SOL    HW1 7229   3.841   6.894   0.097
 2110SOL    HW2 7230   3.814   0.034   0.068
 2111SOL     OW 7231   0.631   2.317   5.536
 2111SOL    HW1 7232   0.704   2.384   5.552
 2111SOL    HW2 7233   0.612   2.268   5.622
 2112SOL     OW 7234   0.638   1.002   6.647
 2112SOL    HW1 7235   0.558   1.054   6.619
 2112SOL    HW2 7236   0.637   0.989   6.746
 2113SOL     OW 7237   0.620   0.616   4.871
 2113SOL    HW1 7238   0.554   0.680   4.909
 2113SOL    HW2 7239   0.592   0.592   4.778
 2114SOL     OW 7240   1.334   1.660   5.691
 2114SOL    HW1 7241   1.329   1.563   5.717
 2114SOL    HW2 7242   1.430   1.687   5.682
 2115SOL     OW 7243   6.369   6.318   2.831
 2115SOL    HW1 7244   6.414   6.229   2.835
 2115SOL    HW2 7245   6.352   6.350   2.924
 2116SOL     OW 7246   0.821   1.757   0.176
 2116SOL    HW1 7247   0.810   1.740   0.078
 2116SOL    HW2 7248   0.734   1.790   0.213
 2117SOL     OW 7249   6.215   1.447   2.123
 2117SOL    HW1 7250   6.283   1.378   2.100
 2117SOL    HW2 7251   6.127   1.403   2.139
 2118SOL     OW 7252   6.222   2.532   2.426
 2118SOL    HW1 7253   6.284   2.497   2.356
 2118SOL    HW2 7254   6.151   2.588   2.383
 2119SOL     OW 7255   2.009   1.450   0.394
 2119SOL    HW1 7256   1.943   1.516   0.358
 2119SOL    HW2 7257   1.966   1.360   0.400
 2120SOL     OW 7258   5.663   1.012   0.891
 2120SOL    HW1 7259   5.567   1.032   0.870
 2120SOL    HW2 7260   5.668   0.928   0.945
 2121SOL     OW 7261   1.193   0.540   6.859
 2121SOL    HW1 7262   1.193   0.489   6.945
 2121SOL    HW2 7263   1.287   0.567   6.836
 2122SOL     OW 7264   6.570   1.361   4.419
 2122SOL    HW1 7265   6.549   1.274   4.373
 2122SOL    HW2 7266   6.656   1.397   4.383
 2123SOL     OW 7267   1.608   5.545   2.592
 2123SOL    HW1 7268   1.567   5.622   2.641
 2123SOL    HW2 7269   1.699   5.527   2.628
 2124SOL     OW 7270   4.003   3.689   5.944
 2124SOL    HW1 7271   3.972   3.607   5.896
 2124SOL    HW2 7272   4.068   3.739   5.886
 2125SOL     OW 7273   1.829   5.872   3.735
 2125SOL    HW1 7274   1.812   5.970   3.723
 2125SOL    HW2 7275   1.904   5.860   3.801
 2126SOL     OW 7276   2.943   4.593   0.304
 2126SOL    HW1 7277   3.031   4.638   0.292
 2126SOL    HW2 7278   2.951   4.497   0.275
 2127SOL     OW 7279   0.424   2.339   4.200
 2127SOL    HW1 7280   0.437   2.421   4.144
 2127SOL    HW2 7281   0.361   2.360   4.276
 2128SOL     OW 7282   5.317   2.770   1.367
 2128SOL    HW1 7283   5.266   2.848   1.401
 2128SOL    HW2 7284   5.276   2.685   1.401
 2129SOL     OW 7285   5.354   4.515   4.008
 2129SOL    HW1 7286   5.277   4.574   3.984
 2129SOL    HW2 7287   5.386   4.467   3.926
 2130SOL     OW 7288   2.114   0.838   2.528
 2130SOL    HW1 7289   2.091   0.934   2.508
 2130SOL    HW2 7290   2.039   0.795   2.578
 2131SOL     OW 7291   5.720   0.878   4.968
 2131SOL    HW1 7292   5.641   0.907   4.915
 2131SOL    HW2 7293   5.782   0.956   4.980
 2132SOL     OW 7294   2.578   2.541   0.197
 2132SOL    HW1 7295   2.523   2.607   0.249
 2132SOL    HW2 7296   2.665   2.583   0.172
 2133SOL     OW 7297   3.001   2.019   1.548
 2133SOL    HW1 7298   2.983   2.101   1.602
 2133SOL    HW2 7299   3.093   2.025   1.508
 2134SOL     OW 7300   1.672   6.088   4.815
 2134SOL    HW1 7301   1.651   6.164   4.754
 2134SOL    HW2 7302   1.761   6.049   4.791
 2135SOL     OW 7303   1.535   0.825   4.305
 2135SOL    HW1 7304   1.586   0.755   4.255
 2135SOL    HW2 7305   1.469   0.781   4.366
 2136SOL     OW 7306   0.666   4.037   3.707
 2136SOL    HW1 7307   0.717   4.115   3.744
 2136SOL    HW2 7308   0.717   3.997   3.631
 2137SOL     OW 7309   0.886   0.629   5.355
 2137SOL    HW1 7310   0.816   0.675   5.410
 2137SOL    HW2 7311   0.864   0.639   5.258
 2138SOL     OW 7312   0.793   2.729   0.044
 2138SOL    HW1 7313   0.842   2.799   0.097
 2138SOL    HW2 7314   0.836   2.720   6.972
 2139SOL     OW 7315   2.907   1.325   5.202
 2139SOL    HW1 7316   2.989   1.382   5.205
 2139SOL    HW2 7317   2.921   1.251   5.136
 2140SOL     OW 7318   1.981   5.687   3.011
 2140SOL    HW1 7319   1.970   5.588   3.025
 2140SOL    HW2 7320   1.982   5.733   3.099
 2141SOL     OW 7321   5.801   1.727   0.369
 2141SOL    HW1 7322   5.850   1.743   0.284
 2141SOL    HW2 7323   5.831   1.792   0.439
 2142SOL     OW 7324   2.551   2.133   3.295
 2142SOL    HW1 7325   2.597   2.058   3.248
 2142SOL    HW2 7326   2.608   2.215   3.290
 2143SOL     OW 7327   3.633   6.825   0.318
 2143SOL    HW1 7328   3.672   6.786   0.235
 2143SOL    HW2 7329   3.593   6.914   0.297
 2144SOL     OW 7330   6.726   1.051   3.264
 2144SOL    HW1 7331   6.784   1.055   3.183
 2144SOL    HW2 7332   6.781   1.064   3.346
 2145SOL     OW 7333   3.773   5.715   3.054
 2145SOL    HW1 7334   3.839   5.767   3.109
 2145SOL    HW2 7335   3.820   5.667   2.981
 2146SOL     OW 7336   3.618   3.010   2.214
 2146SOL    HW1 7337   3.601   3.075   2.140
 2146SOL    HW2 7338   3.548   2.939   2.213
 2147SOL     OW 7339   0.800   0.910   4.980
 2147SOL    HW1 7340   0.886   0.948   5.012
 2147SOL    HW2 7341   0.766   0.844   5.047
 2148SOL     OW 7342   4.847   3.104   3.445
 2148SOL    HW1 7343   4.945   3.114   3.430
 2148SOL    HW2 7344   4.799   3.180   3.401
 2149SOL     OW 7345   3.093   1.027   3.134
 2149SOL    HW1 7346   3.025   0.962   3.170
 2149SOL    HW2 7347   3.047   1.111   3.106
 2150SOL     OW 7348   3.672   1.812   2.304
 2150SOL    HW1 7349   3.612   1.733   2.312
 2150SOL    HW2 7350   3.619   1.892   2.275
 2151SOL     OW 7351   4.057   2.965   5.922
 2151SOL    HW1 7352   4.157   2.965   5.932
 2151SOL    HW2 7353   4.029   3.050   5.876
 2152SOL     OW 7354   6.812   5.892   1.571
 2152SOL    HW1 7355   6.897   5.883   1.623
 2152SOL    HW2 7356   6.746   5.824   1.603
 2153SOL     OW 7357   4.896   2.827   3.426
 2153SOL    HW1 7358   4.877   2.923   3.401
 2153SOL    HW2 7359   4.992   2.818   3.453
 2154SOL     OW 7360   4.873   6.073   5.081
 2154SOL    HW1 7361   4.861   6.126   5.165
 2154SOL    HW2 7362   4.920   5.987   5.102
 2155SOL     OW 7363   6.876   3.544   0.131
 2155SOL    HW1 7364   6.837   3.521   0.220
 2155SOL    HW2 7365   6.814   3.513   0.059
 2156SOL     OW 7366   1.169   1.013   1.517
 2156SOL    HW1 7367   1.248   0.968   1.475
 2156SOL    HW2 7368   1.110   1.051   1.445
 2157SOL     OW 7369   0.596   1.188   4.562
 2157SOL    HW1 7370   0.596   1.288   4.569
 2157SOL    HW2 7371   0.666   1.151   4.623
 2158SOL     OW 7372   4.426   6.318   2.503
 2158SOL    HW1 7373   4.404   6.221   2.511
 2158SOL    HW2 7374   4.401   6.365   2.587
 2159SOL     OW 7375   2.353   6.063   4.303
 2159SOL    HW1 7376   2.398   6.140   4.347
 2159SOL    HW2 7377   2.418   6.015   4.244
 2160SOL     OW 7378   3.129   3.780   0.636
 2160SOL    HW1 7379   3.089   3.699   0.592
 2160SOL    HW2 7380   3.204   3.815   0.581
 2161SOL     OW 7381   5.627   2.519   3.632
 2161SOL    HW1 7382   5.592   2.465   3.557
 2161SOL    HW2 7383   5.663   2.606   3.597
 2162SOL     OW 7384   0.880   1.487   0.212
 2162SOL    HW1 7385   0.800   1.442   0.171
 2162SOL    HW2 7386   0.864   1.586   0.213
 2163SOL     OW 7387   1.991   2.249   0.482
 2163SOL    HW1 7388   2.042   2.163   0.472
 2163SOL    HW2 7389   2.010   2.309   0.404
 2164SOL     OW 7390   0.988   6.876   1.551
 2164SOL    HW1 7391   1.084   6.898   1.566
 2164SOL    HW2 7392   0.962   6.905   1.458
 2165SOL     OW 7393   2.981   6.792   1.842
 2165SOL    HW1 7394   2.937   6.718   1.892
 2165SOL    HW2 7395   2.985   6.769   1.745
 2166SOL     OW 7396   6.767   1.872   6.764
 2166SOL    HW1 7397   6.835   1.945   6.768
 2166SOL    HW2 7398   6.675   1.912   6.759
 2167SOL     OW 7399   2.617   0.647   2.330
 2167SOL    HW1 7400   2.636   0.635   2.233
 2167SOL    HW2 7401   2.541   0.587   2.357
 2168SOL     OW 7402   6.033   5.512   4.606
 2168SOL    HW1 7403   6.048   5.567   4.523
 2168SOL    HW2 7404   6.116   5.514   4.662
 2169SOL     OW 7405   4.922   2.073   5.225
 2169SOL    HW1 7406   4.875   2.106   5.307
 2169SOL    HW2 7407   4.940   1.975   5.233
 2170SOL     OW 7408   5.053   4.785   4.287
 2170SOL    HW1 7409   5.035   4.687   4.294
 2170SOL    HW2 7410   5.038   4.815   4.193
 2171SOL     OW 7411   0.206   2.313   0.265
 2171SOL    HW1 7412   0.164   2.404   0.262
 2171SOL    HW2 7413   0.254   2.295   0.179
 2172SOL     OW 7414   3.012   0.635   0.707
 2172SOL    HW1 7415   2.918   0.654   0.680
 2172SOL    HW2 7416   3.023   0.655   0.805
 2173SOL     OW 7417   5.277   0.962   5.332
 2173SOL    HW1 7418   5.330   1.024   5.389
 2173SOL    HW2 7419   5.335   0.929   5.257
 2174SOL     OW 7420   1.313   5.454   4.468
 2174SOL    HW1 7421   1.355   5.516   4.401
 2174SOL    HW2 7422   1.347   5.476   4.559
 2175SOL     OW 7423   2.613   6.111   5.443
 2175SOL    HW1 7424   2.616   6.189   5.380
 2175SOL    HW2 7425   2.572   6.033   5.396
 2176SOL     OW 7426   1.515   2.188   2.149
 2176SOL    HW1 7427   1.584   2.229   2.089
 2176SOL    HW2 7428   1.426   2.229   2.129
 2177SOL     OW 7429   6.508   1.516   1.689
 2177SOL    HW1 7430   6.519   1.498   1.591
 2177SOL    HW2 7431   6.595   1.502   1.735
 2178SOL     OW 7432   0.560   5.248   0.577
 2178SOL    HW1 7433   0.612   5.300   0.509
 2178SOL    HW2 7434   0.621   5.224   0.653
 2179SOL     OW 7435   1.215   4.597   3.358
 2179SOL    HW1 7436   1.219   4.674   3.295
 2179SOL    HW2 7437   1.289   4.604   3.425
 2180SOL     OW 7438   4.013   3.109   2.179
 2180SOL    HW1 7439   3.938   3.099   2.113
 2180SOL    HW2 7440   4.081   3.037   2.163
 2181SOL     OW 7441   4.991   6.124   6.602
 2181SOL    HW1 7442   4.992   6.031   6.567
 2181SOL    HW2 7443   5.005   6.123   6.701
 2182SOL     OW 7444   6.224   2.380   0.222
 2182SOL    HW1 7445   6.172   2.333   0.293
 2182SOL    HW2 7446   6.177   2.369   0.134
 2183SOL     OW 7447   2.693   3.017   0.564
 2183SOL    HW1 7448   2.769   2.960   0.534
 2183SOL    HW2 7449   2.726   3.110   0.580
 2184SOL     OW 7450   3.974   3.062   6.305
 2184SOL    HW1 7451   4.012   3.094   6.392
 2184SOL    HW2 7452   3.946   3.141   6.250
 2185SOL     OW 7453   1.972   1.369   1.126
 2185SOL    HW1 7454   1.907   1.406   1.060
 2185SOL    HW2 7455   2.001   1.278   1.098
 2186SOL     OW 7456   0.378   5.635   2.844
 2186SOL    HW1 7457   0.462   5.599   2.802
 2186SOL    HW2 7458   0.395   5.728   2.878
 2187SOL     OW 7459   0.494   1.120   6.010
 2187SOL    HW1 7460   0.498   1.108   6.109
 2187SOL    HW2 7461   0.505   1.031   5.965
 2188SOL     OW 7462   5.503   0.542   2.810
 2188SOL    HW1 7463   5.444   0.618   2.839
 2188SOL    HW2 7464   5.560   0.513   2.887
 2189SOL     OW 7465   2.815   0.341   6.738
 2189SOL    HW1 7466   2.787   0.437   6.746
 2189SOL    HW2 7467   2.742   0.289   6.694
 2190SOL     OW 7468   5.074   1.815   1.533
 2190SOL    HW1 7469   5.138   1.886   1.563
 2190SOL    HW2 7470   5.120   1.726   1.532
 2191SOL     OW 7471   2.864   1.780   0.521
 2191SOL    HW1 7472   2.943   1.794   0.460
 2191SOL    HW2 7473   2.897   1.755   0.612
 2192SOL     OW 7474   4.375   5.641   4.678
 2192SOL    HW1 7475   4.407   5.674   4.590
 2192SOL    HW2 7476   4.288   5.593   4.666
 2193SOL     OW 7477   0.353   4.853   5.930
 2193SOL    HW1 7478   0.285   4.798   5.881
 2193SOL    HW2 7479   0.308   4.927   5.979
 2194SOL     OW 7480   2.561   0.582   1.520
 2194SOL    HW1 7481   2.527   0.549   1.608
 2194SOL    HW2 7482   2.518   0.531   1.446
 2195SOL     OW 7483   1.420   4.430   2.582
 2195SOL    HW1 7484   1.344   4.493   2.597
 2195SOL    HW2 7485   1.430   4.370   2.661
 2196SOL     OW 7486   3.584   3.307   6.674
 2196SOL    HW1 7487   3.485   3.323   6.680
 2196SOL    HW2 7488   3.625   3.318   6.765
 2197SOL     OW 7489   4.464   4.443   0.257
 2197SOL    HW1 7490   4.483   4.505   0.181
 2197SOL    HW2 7491   4.534   4.455   0.328
 2198SOL     OW 7492   6.039   4.688   0.412
 2198SOL    HW1 7493   6.087   4.729   0.334
 2198SOL    HW2 7494   6.082   4.601   0.435
 2199SOL     OW 7495   4.536   0.708   2.094
 2199SOL    HW1 7496   4.629   0.713   2.059
 2199SOL    HW2 7497   4.498   0.800   2.103
 2200SOL     OW 7498   2.898   0.211   4.292
 2200SOL    HW1 7499   2.994   0.229   4.273
 2200SOL    HW2 7500   2.875   0.117   4.264
 2201SOL     OW 7501   4.832   4.005   1.984
 2201SOL    HW1 7502   4.810   4.013   1.887
 2201SOL    HW2 7503   4.884   4.085   2.013
 2202SOL     OW 7504   4.423   6.196   3.114
 2202SOL    HW1 7505   4.504   6.147   3.083
 2202SOL    HW2 7506   4.447   6.255   3.191
 2203SOL     OW 7507   3.173   1.713   2.937
 2203SOL    HW1 7508   3.162   1.669   2.848
 2203SOL    HW2 7509   3.094   1.690   2.994
 2204SOL     OW 7510   2.758   2.796   0.929
 2204SOL    HW1 7511   2.788   2.789   0.834
 2204SOL    HW2 7512   2.663   2.825   0.932
 2205SOL     OW 7513   2.516   0.282   0.019
 2205SOL    HW1 7514   2.612   0.256   0.004
 2205SOL    HW2 7515   2.471   0.209   0.071
 2206SOL     OW 7516   2.261   2.993   6.397
 2206SOL    HW1 7517   2.336   3.055   6.374
 2206SOL    HW2 7518   2.244   2.931   6.320
 2207SOL     OW 7519   0.959   4.557   4.972
 2207SOL    HW1 7520   0.926   4.622   5.041
 2207SOL    HW2 7521   0.891   4.548   4.900
 2208SOL     OW 7522   0.573   4.134   1.916
 2208SOL    HW1 7523   0.499   4.184   1.871
 2208SOL    HW2 7524   0.633   4.094   1.846
 2209SOL     OW 7525   1.195   5.986   0.953
 2209SOL    HW1 7526   1.235   6.077   0.957
 2209SOL    HW2 7527   1.112   5.988   0.898
 2210SOL     OW 7528   1.338   6.130   4.393
 2210SOL    HW1 7529   1.253   6.177   4.371
 2210SOL    HW2 7530   1.336   6.100   4.488
 2211SOL     OW 7531   6.494   0.843   6.084
 2211SOL    HW1 7532   6.508   0.939   6.105
 2211SOL    HW2 7533   6.570   0.789   6.120
 2212SOL     OW 7534   1.590   0.172   6.154
 2212SOL    HW1 7535   1.630   0.176   6.246
 2212SOL    HW2 7536   1.490   0.179   6.160
 2213SOL     OW 7537   2.905   0.886   3.302
 2213SOL    HW1 7538   2.832   0.852   3.242
 2213SOL    HW2 7539   2.869   0.957   3.362
 2214SOL     OW 7540   4.494   0.427   4.936
 2214SOL    HW1 7541   4.570   0.367   4.911
 2214SOL    HW2 7542   4.426   0.376   4.989
 2215SOL     OW 7543   5.697   3.347   5.134
 2215SOL    HW1 7544   5.755   3.269   5.159
 2215SOL    HW2 7545   5.601   3.322   5.145
 2216SOL     OW 7546   2.133   0.395   1.498
 2216SOL    HW1 7547   2.162   0.371   1.591
 2216SOL    HW2 7548   2.036   0.376   1.487
 2217SOL     OW 7549   4.596   0.752   1.607
 2217SOL    HW1 7550   4.513   0.702   1.632
 2217SOL    HW2 7551   4.576   0.816   1.534
 2218SOL     OW 7552   0.763   6.526   1.793
 2218SOL    HW1 7553   0.820   6.492   1.719
 2218SOL    HW2 7554   0.744   6.623   1.779
 2219SOL     OW 7555   1.352   2.290   2.528
 2219SOL    HW1 7556   1.262   2.250   2.549
 2219SOL    HW2 7557   1.384   2.341   2.608
 2220SOL     OW 7558   0.489   0.266   0.654
 2220SOL    HW1 7559   0.451   0.184   0.612
 2220SOL    HW2 7560   0.577   0.287   0.612
 2221SOL     OW 7561   0.091   1.575   0.523
 2221SOL    HW1 7562   0.035   1.653   0.497
 2221SOL    HW2 7563   0.126   1.530   0.441
 2222SOL     OW 7564   5.762   6.294   2.740
 2222SOL    HW1 7565   5.837   6.233   2.768
 2222SOL    HW2 7566   5.702   6.246   2.676
 2223SOL     OW 7567   5.697   5.076   1.737
 2223SOL    HW1 7568   5.699   4.981   1.769
 2223SOL    HW2 7569   5.713   5.079   1.638
 2224SOL     OW 7570   0.958   4.707   1.920
 2224SOL    HW1 7571   0.976   4.794   1.966
 2224SOL    HW2 7572   0.861   4.700   1.898
 2225SOL     OW 7573   6.699   4.784   0.791
 2225SOL    HW1 7574   6.699   4.807   0.888
 2225SOL    HW2 7575   6.793   4.786   0.756
 2226SOL     OW 7576   4.351   3.764   1.651
 2226SOL    HW1 7577   4.414   3.726   1.583
 2226SOL    HW2 7578   4.318   3.853   1.620
 2227SOL     OW 7579   0.880   3.257   4.023
 2227SOL    HW1 7580   0.947   3.253   4.097
 2227SOL    HW2 7581   0.880   3.170   3.974
 2228SOL     OW 7582   2.643   5.020   5.196
 2228SOL    HW1 7583   2.648   4.922   5.217
 2228SOL    HW2 7584   2.711   5.043   5.127
 2229SOL     OW 7585   5.208   0.798   3.246
 2229SOL    HW1 7586   5.127   0.845   3.210
 2229SOL    HW2 7587   5.186   0.702   3.262
 2230SOL     OW 7588   1.833   5.600   0.650
 2230SOL    HW1 7589   1.833   5.532   0.723
 2230SOL    HW2 7590   1.894   5.569   0.576
 2231SOL     OW 7591   3.095   6.083   1.212
 2231SOL    HW1 7592   3.131   6.135   1.290
 2231SOL    HW2 7593   3.012   6.128   1.178
 2232SOL     OW 7594   6.499   3.137   3.087
 2232SOL    HW1 7595   6.589   3.117   3.047
 2232SOL    HW2 7596   6.512   3.185   3.174
 2233SOL     OW 7597   3.087   1.513   0.025
 2233SOL    HW1 7598   3.071   1.557   0.113
 2233SOL    HW2 7599   3.037   1.427   0.020
 2234SOL     OW 7600   2.942   2.376   0.612
 2234SOL    HW1 7601   2.984   2.294   0.573
 2234SOL    HW2 7602   2.947   2.372   0.712
 2235SOL     OW 7603   1.837   0.069   1.202
 2235SOL    HW1 7604   1.893   0.152   1.199
 2235SOL    HW2 7605   1.777   0.073   1.282
 2236SOL     OW 7606   6.460   3.923   6.594
 2236SOL    HW1 7607   6.482   3.833   6.632
 2236SOL    HW2 7608   6.529   3.989   6.623
 2237SOL     OW 7609   6.368   2.151   4.296
 2237SOL    HW1 7610   6.332   2.245   4.293
 2237SOL    HW2 7611   6.462   2.151   4.261
 2238SOL     OW 7612   0.413   5.826   1.978
 2238SOL    HW1 7613   0.385   5.740   1.934
 2238SOL    HW2 7614   0.506   5.817   2.012
 2239SOL     OW 7615   5.409   5.117   2.998
 2239SOL    HW1 7616   5.372   5.025   2.988
 2239SOL    HW2 7617   5.350   5.170   3.059
 2240SOL     OW 7618   5.588   3.922   2.483
 2240SOL    HW1 7619   5.564   3.980   2.405
 2240SOL    HW2 7620   5.535   3.950   2.563
 2241SOL     OW 7621   0.732   6.782   2.343
 2241SOL    HW1 7622   0.708   6.752   2.251
 2241SOL    HW2 7623   0.652   6.776   2.403
 2242SOL     OW 7624   4.898   3.057   2.735
 2242SOL    HW1 7625   4.892   3.078   2.638
 2242SOL    HW2 7626   4.877   2.960   2.749
 2243SOL     OW 7627   3.060   6.090   5.396
 2243SOL    HW1 7628   2.993   6.109   5.324
 2243SOL    HW2 7629   3.032   6.135   5.481
 2244SOL     OW 7630   2.624   0.979   5.118
 2244SOL    HW1 7631   2.649   1.061   5.169
 2244SOL    HW2 7632   2.631   0.899   5.177
 2245SOL     OW 7633   0.351   1.597   2.009
 2245SOL    HW1 7634   0.278   1.568   1.947
 2245SOL    HW2 7635   0.326   1.575   2.103
 2246SOL     OW 7636   1.305   4.226   4.166
 2246SOL    HW1 7637   1.221   4.280   4.164
 2246SOL    HW2 7638   1.300   4.154   4.097
 2247SOL     OW 7639   1.820   1.922   5.799
 2247SOL    HW1 7640   1.892   1.928   5.869
 2247SOL    HW2 7641   1.775   1.833   5.806
 2248SOL     OW 7642   4.968   4.300   5.418
 2248SOL    HW1 7643   4.968   4.390   5.462
 2248SOL    HW2 7644   4.937   4.309   5.324
 2249SOL     OW 7645   4.538   5.665   4.468
 2249SOL    HW1 7646   4.539   5.619   4.380
 2249SOL    HW2 7647   4.577   5.757   4.458
 2250SOL     OW 7648   5.079   5.811   0.298
 2250SOL    HW1 7649   5.064   5.897   0.250
 2250SOL    HW2 7650   5.045   5.819   0.392
 2251SOL     OW 7651   0.334   0.923   6.714
 2251SOL    HW1 7652   0.252   0.887   6.669
 2251SOL    HW2 7653   0.415   0.877   6.678
 2252SOL     OW 7654   2.991   1.155   5.788
 2252SOL    HW1 7655   3.004   1.102   5.704
 2252SOL    HW2 7656   2.915   1.219   5.775
 2253SOL     OW 7657   1.628   2.275   5.655
 2253SOL    HW1 7658   1.592   2.353   5.603
 2253SOL    HW2 7659   1.589   2.191   5.619
 2254SOL     OW 7660   1.626   3.870   6.121
 2254SOL    HW1 7661   1.568   3.789   6.127
 2254SOL    HW2 7662   1.722   3.843   6.125
 2255SOL     OW 7663   5.322   2.077   0.965
 2255SOL    HW1 7664   5.375   2.101   0.883
 2255SOL    HW2 7665   5.319   1.977   0.975
 2256SOL     OW 7666   3.461   5.289   1.946
 2256SOL    HW1 7667   3.369   5.250   1.939
 2256SOL    HW2 7668   3.490   5.323   1.857
 2257SOL     OW 7669   1.871   3.644   3.859
 2257SOL    HW1 7670   1.850   3.674   3.766
 2257SOL    HW2 7671   1.920   3.717   3.907
 2258SOL     OW 7672   2.402   5.593   4.946
 2258SOL    HW1 7673   2.449   5.511   4.977
 2258SOL    HW2 7674   2.442   5.624   4.860
 2259SOL     OW 7675   5.600   3.256   6.208
 2259SOL    HW1 7676   5.667   3.306   6.153
 2259SOL    HW2 7677   5.524   3.316   6.231
 2260SOL     OW 7678   5.068   4.411   0.838
 2260SOL    HW1 7679   5.110   4.444   0.923
 2260SOL    HW2 7680   5.113   4.325   0.811
 2261SOL     OW 7681   4.074   6.685   5.721
 2261SOL    HW1 7682   4.147   6.633   5.766
 2261SOL    HW2 7683   3.989   6.631   5.722
 2262SOL     OW 7684   3.684   1.490   3.404
 2262SOL    HW1 7685   3.663   1.414   3.466
 2262SOL    HW2 7686   3.668   1.461   3.310
 2263SOL     OW 7687   6.781   4.004   6.446
 2263SOL    HW1 7688   6.793   3.932   6.514
 2263SOL    HW2 7689   6.705   4.064   6.475
 2264SOL     OW 7690   4.113   3.575   3.801
 2264SOL    HW1 7691   4.161   3.579   3.712
 2264SOL    HW2 7692   4.167   3.519   3.864
 2265SOL     OW 7693   0.063   0.656   2.572
 2265SOL    HW1 7694   0.029   0.566   2.599
 2265SOL    HW2 7695   0.162   0.652   2.559
 2266SOL     OW 7696   6.067   7.003   0.074
 2266SOL    HW1 7697   6.153   6.965   0.107
 2266SOL    HW2 7698   6.021   6.937   0.015
 2267SOL     OW 7699   5.526   1.243   5.807
 2267SOL    HW1 7700   5.464   1.322   5.810
 2267SOL    HW2 7701   5.504   1.182   5.883
 2268SOL     OW 7702   6.278   5.135   0.539
 2268SOL    HW1 7703   6.239   5.218   0.499
 2268SOL    HW2 7704   6.244   5.055   0.489
 2269SOL     OW 7705   0.330   5.620   4.938
 2269SOL    HW1 7706   0.307   5.593   5.032
 2269SOL    HW2 7707   0.427   5.602   4.921
 2270SOL     OW 7708   4.176   3.467   1.962
 2270SOL    HW1 7709   4.237   3.425   1.895
 2270SOL    HW2 7710   4.171   3.565   1.947
 2271SOL     OW 7711   6.731   4.365   2.994
 2271SOL    HW1 7712   6.759   4.323   2.907
 2271SOL    HW2 7713   6.802   4.427   3.026
 2272SOL     OW 7714   4.400   1.923   6.349
 2272SOL    HW1 7715   4.320   1.955   6.298
 2272SOL    HW2 7716   4.475   1.905   6.285
 2273SOL     OW 7717   0.725   1.555   3.878
 2273SOL    HW1 7718   0.693   1.632   3.822
 2273SOL    HW2 7719   0.653   1.528   3.942
 2274SOL     OW 7720   1.203   3.193   3.247
 2274SOL    HW1 7721   1.134   3.124   3.271
 2274SOL    HW2 7722   1.170   3.245   3.168
 2275SOL     OW 7723   4.904   6.733   3.852
 2275SOL    HW1 7724   4.864   6.780   3.774
 2275SOL    HW2 7725   4.980   6.787   3.889
 2276SOL     OW 7726   3.928   5.401   1.779
 2276SOL    HW1 7727   3.984   5.332   1.826
 2276SOL    HW2 7728   3.862   5.354   1.721
 2277SOL     OW 7729   2.958   3.595   0.524
 2277SOL    HW1 7730   2.864   3.585   0.556
 2277SOL    HW2 7731   2.998   3.504   0.510
 2278SOL     OW 7732   5.367   6.742   0.569
 2278SOL    HW1 7733   5.381   6.750   0.668
 2278SOL    HW2 7734   5.432   6.676   0.531
 2279SOL     OW 7735   4.945   4.704   4.716
 2279SOL    HW1 7736   4.899   4.747   4.638
 2279SOL    HW2 7737   4.969   4.610   4.693
 2280SOL     OW 7738   5.291   6.575   6.035
 2280SOL    HW1 7739   5.205   6.545   6.077
 2280SOL    HW2 7740   5.368   6.546   6.093
 2281SOL     OW 7741   2.444   2.999   0.423
 2281SOL    HW1 7742   2.422   3.068   0.354
 2281SOL    HW2 7743   2.537   3.014   0.456
 2282SOL     OW 7744   4.117   6.050   2.485
 2282SOL    HW1 7745   4.133   6.088   2.576
 2282SOL    HW2 7746   4.040   5.987   2.488
 2283SOL     OW 7747   0.201   3.797   2.626
 2283SOL    HW1 7748   0.131   3.804   2.697
 2283SOL    HW2 7749   0.262   3.721   2.647
 2284SOL     OW 7750   2.598   2.434   2.150
 2284SOL    HW1 7751   2.562   2.461   2.061
 2284SOL    HW2 7752   2.697   2.421   2.144
 2285SOL     OW 7753   1.649   4.211   0.065
 2285SOL    HW1 7754   1.680   4.305   0.076
 2285SOL    HW2 7755   1.561   4.199   0.111
 2286SOL     OW 7756   5.565   6.781   4.842
 2286SOL    HW1 7757   5.635   6.851   4.857
 2286SOL    HW2 7758   5.483   6.804   4.895
 2287SOL     OW 7759   2.382   3.071   1.647
 2287SOL    HW1 7760   2.460   3.061   1.585
 2287SOL    HW2 7761   2.395   3.152   1.704
 2288SOL     OW 7762   1.566   6.553   4.156
 2288SOL    HW1 7763   1.498   6.507   4.100
 2288SOL    HW2 7764   1.557   6.524   4.251
 2289SOL     OW 7765   4.479   2.208   0.454
 2289SOL    HW1 7766   4.385   2.217   0.420
 2289SOL    HW2 7767   4.494   2.113   0.483
 2290SOL     OW 7768   3.694   3.215   2.787
 2290SOL    HW1 7769   3.759   3.266   2.843
 2290SOL    HW2 7770   3.734   3.128   2.759
 2291SOL     OW 7771   1.105   2.212   0.143
 2291SOL    HW1 7772   1.060   2.145   0.085
 2291SOL    HW2 7773   1.037   2.278   0.177
 2292SOL     OW 7774   4.822   2.087   2.539
 2292SOL    HW1 7775   4.857   1.995   2.558
 2292SOL    HW2 7776   4.736   2.081   2.489
 2293SOL     OW 7777   0.987   0.649   0.330
 2293SOL    HW1 7778   0.989   0.564   0.278
 2293SOL    HW2 7779   0.991   0.629   0.428
 2294SOL     OW 7780   6.634   1.573   5.482
 2294SOL    HW1 7781   6.666   1.607   5.393
 2294SOL    HW2 7782   6.588   1.485   5.469
 2295SOL     OW 7783   5.775   6.414   1.049
 2295SOL    HW1 7784   5.850   6.480   1.049
 2295SOL    HW2 7785   5.702   6.446   0.988
 2296SOL     OW 7786   3.726   5.354   3.590
 2296SOL    HW1 7787   3.761   5.322   3.678
 2296SOL    HW2 7788   3.794   5.335   3.519
 2297SOL     OW 7789   4.332   4.010   5.356
 2297SOL    HW1 7790   4.365   4.092   5.309
 2297SOL    HW2 7791   4.377   4.003   5.445
 2298SOL     OW 7792   3.495   3.707   4.854
 2298SOL    HW1 7793   3.577   3.762   4.843
 2298SOL    HW2 7794   3.494   3.635   4.784
 2299SOL     OW 7795   6.076   3.203   4.927
 2299SOL    HW1 7796   6.169   3.222   4.958
 2299SOL    HW2 7797   6.019   3.179   5.006
 2300SOL     OW 7798   4.919   6.510   2.012
 2300SOL    HW1 7799   4.967   6.593   1.981
 2300SOL    HW2 7800   4.942   6.493   2.108
 2301SOL     OW 7801   3.692   2.956   4.721
 2301SOL    HW1 7802   3.608   2.910   4.693
 2301SOL    HW2 7803   3.755   2.960   4.643
 2302SOL     OW 7804   5.801   3.183   0.283
 2302SOL    HW1 7805   5.772   3.260   0.339
 2302SOL    HW2 7806   5.891   3.151   0.314
 2303SOL     OW 7807   3.202   1.651   6.833
 2303SOL    HW1 7808   3.151   1.596   6.899
 2303SOL    HW2 7809   3.294   1.670   6.869
 2304SOL     OW 7810   5.824   5.912   2.656
 2304SOL    HW1 7811   5.771   5.852   2.716
 2304SOL    HW2 7812   5.837   5.868   2.567
 2305SOL     OW 7813   2.671   0.196   4.643
 2305SOL    HW1 7814   2.651   0.225   4.737
 2305SOL    HW2 7815   2.729   0.265   4.599
 2306SOL     OW 7816   0.820   4.762   4.457
 2306SOL    HW1 7817   0.771   4.685   4.417
 2306SOL    HW2 7818   0.822   4.752   4.557
 2307SOL     OW 7819   6.719   2.967   6.177
 2307SOL    HW1 7820   6.629   2.961   6.134
 2307SOL    HW2 7821   6.752   3.062   6.172
 2308SOL     OW 7822   1.909   5.311   1.963
 2308SOL    HW1 7823   1.855   5.248   1.907
 2308SOL    HW2 7824   1.960   5.260   2.032
 2309SOL     OW 7825   1.595   0.256   5.374
 2309SOL    HW1 7826   1.540   0.229   5.453
 2309SOL    HW2 7827   1.653   0.334   5.399
 2310SOL     OW 7828   4.824   6.936   1.310
 2310SOL    HW1 7829   4.775   6.929   1.222
 2310SOL    HW2 7830   4.763   6.976   1.378
 2311SOL     OW 7831   3.154   5.172   1.271
 2311SOL    HW1 7832   3.232   5.201   1.215
 2311SOL    HW2 7833   3.159   5.074   1.286
 2312SOL     OW 7834   3.175   5.333   2.169
 2312SOL    HW1 7835   3.224   5.334   2.082
 2312SOL    HW2 7836   3.204   5.254   2.223
 2313SOL     OW 7837   5.414   5.608   1.347
 2313SOL    HW1 7838   5.395   5.699   1.383
 2313SOL    HW2 7839   5.423   5.612   1.248
 2314SOL     OW 7840   1.648   4.865   4.650
 2314SOL    HW1 7841   1.632   4.862   4.748
 2314SOL    HW2 7842   1.660   4.960   4.621
 2315SOL     OW 7843   3.912   2.826   6.713
 2315SOL    HW1 7844   3.976   2.902   6.699
 2315SOL    HW2 7845   3.933   2.752   6.649
 2316SOL     OW 7846   5.548   4.092   2.261
 2316SOL    HW1 7847   5.521   4.069   2.167
 2316SOL    HW2 7848   5.627   4.152   2.260
 2317SOL     OW 7849   0.212   5.006   3.458
 2317SOL    HW1 7850   0.244   4.989   3.551
 2317SOL    HW2 7851   0.264   4.949   3.394
 2318SOL     OW 7852   0.347   1.097   4.337
 2318SOL    HW1 7853   0.438   1.057   4.337
 2318SOL    HW2 7854   0.340   1.164   4.263
 2319SOL     OW 7855   0.732   4.542   3.253
 2319SOL    HW1 7856   0.692   4.479   3.186
 2319SOL    HW2 7857   0.753   4.491   3.337
 2320SOL     OW 7858   6.400   5.130   4.843
 2320SOL    HW1 7859   6.414   5.110   4.746
 2320SOL    HW2 7860   6.371   5.047   4.890
 2321SOL     OW 7861   2.917   5.073   5.056
 2321SOL    HW1 7862   2.974   5.149   5.025
 2321SOL    HW2 7863   2.899   5.011   4.979
 2322SOL     OW 7864   2.995   0.612   6.027
 2322SOL    HW1 7865   3.024   0.588   5.935
 2322SOL    HW2 7866   2.917   0.675   6.022
 2323SOL     OW 7867   5.199   4.179   2.063
 2323SOL    HW1 7868   5.241   4.268   2.079
 2323SOL    HW2 7869   5.266   4.106   2.080
 2324SOL     OW 7870   6.675   4.738   3.676
 2324SOL    HW1 7871   6.713   4.802   3.742
 2324SOL    HW2 7872   6.747   4.677   3.642
 2325SOL     OW 7873   6.762   2.860   0.608
 2325SOL    HW1 7874   6.737   2.776   0.561
 2325SOL    HW2 7875   6.753   2.937   0.544
 2326SOL     OW 7876   1.626   4.765   6.941
 2326SOL    HW1 7877   1.716   4.735   6.973
 2326SOL    HW2 7878   1.590   4.835   7.002
 2327SOL     OW 7879   5.209   1.767   4.235
 2327SOL    HW1 7880   5.179   1.767   4.139
 2327SOL    HW2 7881   5.265   1.849   4.252
 2328SOL     OW 7882   6.124   6.986   3.817
 2328SOL    HW1 7883   6.075   0.031   3.877
 2328SOL    HW2 7884   6.221   6.986   3.841
 2329SOL     OW 7885   6.638   5.874   3.388
 2329SOL    HW1 7886   6.651   5.967   3.353
 2329SOL    HW2 7887   6.662   5.871   3.485
 2330SOL     OW 7888   7.012   3.823   1.901
 2330SOL    HW1 7889   0.061   3.862   1.838
 2330SOL    HW2 7890   7.003   3.883   1.981
 2331SOL     OW 7891   0.510   4.735   5.624
 2331SOL    HW1 7892   0.603   4.767   5.609
 2331SOL    HW2 7893   0.505   4.682   5.708
 2332SOL     OW 7894   6.189   2.568   4.749
 2332SOL    HW1 7895   6.093   2.562   4.724
 2332SOL    HW2 7896   6.210   2.499   4.819
 2333SOL     OW 7897   1.623   5.027   3.737
 2333SOL    HW1 7898   1.622   4.950   3.800
 2333SOL    HW2 7899   1.559   5.010   3.662
 2334SOL     OW 7900   3.194   0.328   1.079
 2334SOL    HW1 7901   3.166   0.233   1.094
 2334SOL    HW2 7902   3.290   0.339   1.105
 2335SOL     OW 7903   4.215   5.500   3.930
 2335SOL    HW1 7904   4.307   5.477   3.900
 2335SOL    HW2 7905   4.171   5.418   3.969
 2336SOL     OW 7906   4.748   2.743   5.377
 2336SOL    HW1 7907   4.710   2.781   5.292
 2336SOL    HW2 7908   4.845   2.766   5.382
 2337SOL     OW 7909   5.685   0.356   3.595
 2337SOL    HW1 7910   5.660   0.382   3.502
 2337SOL    HW2 7911   5.745   0.277   3.593
 2338SOL     OW 7912   1.306   6.789   6.052
 2338SOL    HW1 7913   1.288   6.707   5.997
 2338SOL    HW2 7914   1.269   6.869   6.006
 2339SOL     OW 7915   3.847   4.856   6.273
 2339SOL    HW1 7916   3.816   4.903   6.356
 2339SOL    HW2 7917   3.770   4.842   6.212
 2340SOL     OW 7918   3.791   5.273   3.844
 2340SOL    HW1 7919   3.860   5.202   3.834
 2340SOL    HW2 7920   3.830   5.351   3.893
 2341SOL     OW 7921   6.560   5.282   6.641
 2341SOL    HW1 7922   6.635   5.217   6.639
 2341SOL    HW2 7923   6.490   5.250   6.705
 2342SOL     OW 7924   6.298   6.814   5.093
 2342SOL    HW1 7925   6.254   6.789   5.007
 2342SOL    HW2 7926   6.240   6.785   5.169
 2343SOL     OW 7927   0.891   6.738   0.125
 2343SOL    HW1 7928   0.829   6.785   0.188
 2343SOL    HW2 7929   0.980   6.725   0.169
 2344SOL     OW 7930   2.152   1.854   3.189
 2344SOL    HW1 7931   2.080   1.854   3.259
 2344SOL    HW2 7932   2.235   1.815   3.227
 2345SOL     OW 7933   2.022   1.309   3.754
 2345SOL    HW1 7934   2.068   1.260   3.680
 2345SOL    HW2 7935   1.989   1.244   3.822
 2346SOL     OW 7936   4.883   3.664   5.526
 2346SOL    HW1 7937   4.912   3.726   5.599
 2346SOL    HW2 7938   4.871   3.572   5.563
 2347SOL     OW 7939   1.274   3.244   1.408
 2347SOL    HW1 7940   1.287   3.218   1.504
 2347SOL    HW2 7941   1.177   3.260   1.391
 2348SOL     OW 7942   2.370   5.775   1.613
 2348SOL    HW1 7943   2.374   5.697   1.676
 2348SOL    HW2 7944   2.274   5.793   1.589
 2349SOL     OW 7945   4.871   4.974   6.146
 2349SOL    HW1 7946   4.887   4.884   6.105
 2349SOL    HW2 7947   4.814   5.029   6.086
 2350SOL     OW 7948   2.667   5.974   5.124
 2350SOL    HW1 7949   2.652   5.899   5.189
 2350SOL    HW2 7950   2.728   5.943   5.051
 2351SOL     OW 7951   2.057   5.758   3.577
 2351SOL    HW1 7952   1.960   5.776   3.597
 2351SOL    HW2 7953   2.114   5.819   3.632
 2352SOL     OW 7954   6.337   3.807   2.045
 2352SOL    HW1 7955   6.352   3.869   2.122
 2352SOL    HW2 7956   6.420   3.753   2.030
 2353SOL     OW 7957   2.883   3.528   5.903
 2353SOL    HW1 7958   2.785   3.511   5.912
 2353SOL    HW2 7959   2.934   3.450   5.940
 2354SOL     OW 7960   3.722   2.859   1.261
 2354SOL    HW1 7961   3.750   2.768   1.289
 2354SOL    HW2 7962   3.799   2.906   1.217
 2355SOL     OW 7963   6.523   0.489   1.116
 2355SOL    HW1 7964   6.512   0.516   1.211
 2355SOL    HW2 7965   6.441   0.441   1.085
 2356SOL     OW 7966   2.873   4.749   3.378
 2356SOL    HW1 7967   2.969   4.778   3.377
 2356SOL    HW2 7968   2.817   4.819   3.334
 2357SOL     OW 7969   6.401   4.837   1.043
 2357SOL    HW1 7970   6.391   4.739   1.027
 2357SOL    HW2 7971   6.410   4.884   0.955
 2358SOL     OW 7972   3.520   1.570   5.860
 2358SOL    HW1 7973   3.489   1.475   5.860
 2358SOL    HW2 7974   3.491   1.614   5.945
 2359SOL     OW 7975   1.975   1.657   5.762
 2359SOL    HW1 7976   2.057   1.709   5.789
 2359SOL    HW2 7977   1.994   1.607   5.677
 2360SOL     OW 7978   3.605   4.360   0.135
 2360SOL    HW1 7979   3.693   4.321   0.163
 2360SOL    HW2 7980   3.561   4.299   0.069
 2361SOL     OW 7981   4.542   5.957   1.766
 2361SOL    HW1 7982   4.458   6.012   1.766
 2361SOL    HW2 7983   4.621   6.017   1.762
 2362SOL     OW 7984   4.733   5.397   3.516
 2362SOL    HW1 7985   4.809   5.459   3.496
 2362SOL    HW2 7986   4.651   5.449   3.539
 2363SOL     OW 7987   2.257   3.938   0.697
 2363SOL    HW1 7988   2.206   3.860   0.660
 2363SOL    HW2 7989   2.200   4.020   0.692
 2364SOL     OW 7990   3.337   1.265   2.517
 2364SOL    HW1 7991   3.297   1.223   2.598
 2364SOL    HW2 7992   3.425   1.306   2.540
 2365SOL     OW 7993   5.087   3.741   3.394
 2365SOL    HW1 7994   5.017   3.712   3.458
 2365SOL    HW2 7995   5.049   3.808   3.330
 2366SOL     OW 7996   2.947   4.833   4.922
 2366SOL    HW1 7997   3.047   4.828   4.922
 2366SOL    HW2 7998   2.911   4.749   4.963
 2367SOL     OW 7999   5.430   4.489   6.190
 2367SOL    HW1 8000   5.373   4.457   6.266
 2367SOL    HW2 8001   5.519   4.518   6.224
 2368SOL     OW 8002   5.644   6.523   4.796
 2368SOL    HW1 8003   5.686   6.545   4.708
 2368SOL    HW2 8004   5.607   6.606   4.837
 2369SOL     OW 8005   2.867   1.948   4.356
 2369SOL    HW1 8006   2.912   1.858   4.363
 2369SOL    HW2 8007   2.937   2.020   4.360
 2370SOL     OW 8008   6.024   2.642   1.753
 2370SOL    HW1 8009   5.927   2.620   1.755
 2370SOL    HW2 8010   6.068   2.609   1.836
 2371SOL     OW 8011   0.577   6.165   3.031
 2371SOL    HW1 8012   0.492   6.123   3.062
 2371SOL    HW2 8013   0.573   6.179   2.932
 2372SOL     OW 8014   5.774   6.914   6.339
 2372SOL    HW1 8015   5.837   6.892   6.414
 2372SOL    HW2 8016   5.742   7.008   6.350
 2373SOL     OW 8017   6.236   5.353   6.461
 2373SOL    HW1 8018   6.173   5.410   6.408
 2373SOL    HW2 8019   6.246   5.391   6.553
 2374SOL     OW 8020   6.372   6.499   2.483
 2374SOL    HW1 8021   6.307   6.437   2.525
 2374SOL    HW2 8022   6.465   6.467   2.500
 2375SOL     OW 8023   1.386   0.117   4.105
 2375SOL    HW1 8024   1.395   0.019   4.090
 2375SOL    HW2 8025   1.294   0.138   4.138
 2376SOL     OW 8026   5.281   1.889   3.672
 2376SOL    HW1 8027   5.341   1.821   3.630
 2376SOL    HW2 8028   5.328   1.977   3.675
 2377SOL     OW 8029   4.948   4.540   5.747
 2377SOL    HW1 8030   4.911   4.618   5.797
 2377SOL    HW2 8031   4.972   4.567   5.655
 2378SOL     OW 8032   6.960   0.951   0.516
 2378SOL    HW1 8033   6.868   0.935   0.481
 2378SOL    HW2 8034   0.007   0.950   0.441
 2379SOL     OW 8035   6.503   5.241   1.435
 2379SOL    HW1 8036   6.514   5.185   1.353
 2379SOL    HW2 8037   6.594   5.268   1.469
 2380SOL     OW 8038   4.905   5.729   5.322
 2380SOL    HW1 8039   4.997   5.767   5.306
 2380SOL    HW2 8040   4.913   5.634   5.351
 2381SOL     OW 8041   2.423   4.766   4.558
 2381SOL    HW1 8042   2.372   4.763   4.644
 2381SOL    HW2 8043   2.436   4.673   4.524
 2382SOL     OW 8044   0.424   6.020   2.718
 2382SOL    HW1 8045   0.338   6.065   2.693
 2382SOL    HW2 8046   0.501   6.079   2.696
 2383SOL     OW 8047   5.677   5.426   6.094
 2383SOL    HW1 8048   5.637   5.507   6.137
 2383SOL    HW2 8049   5.613   5.349   6.102
 2384SOL     OW 8050   0.634   1.759   2.463
 2384SOL    HW1 8051   0.610   1.769   2.366
 2384SOL    HW2 8052   0.580   1.822   2.518
 2385SOL     OW 8053   0.531   1.245   0.682
 2385SOL    HW1 8054   0.522   1.251   0.781
 2385SOL    HW2 8055   0.476   1.317   0.639
 2386SOL     OW 8056   5.614   5.717   3.779
 2386SOL    HW1 8057   5.686   5.750   3.840
 2386SOL    HW2 8058   5.592   5.789   3.713
 2387SOL     OW 8059   1.806   1.477   4.057
 2387SOL    HW1 8060   1.853   1.564   4.071
 2387SOL    HW2 8061   1.793   1.461   3.959
 2388SOL     OW 8062   6.487   2.201   4.943
 2388SOL    HW1 8063   6.406   2.145   4.926
 2388SOL    HW2 8064   6.549   2.196   4.865
 2389SOL     OW 8065   4.496   4.569   4.157
 2389SOL    HW1 8066   4.531   4.486   4.201
 2389SOL    HW2 8067   4.553   4.592   4.079
 2390SOL     OW 8068   4.248   3.490   5.784
 2390SOL    HW1 8069   4.267   3.399   5.748
 2390SOL    HW2 8070   4.273   3.494   5.880
 2391SOL     OW 8071   2.814   4.471   6.084
 2391SOL    HW1 8072   2.833   4.400   6.017
 2391SOL    HW2 8073   2.751   4.435   6.154
 2392SOL     OW 8074   4.470   4.419   5.556
 2392SOL    HW1 8075   4.488   4.516   5.571
 2392SOL    HW2 8076   4.387   4.409   5.502
 2393SOL     OW 8077   4.112   4.277   1.260
 2393SOL    HW1 8078   4.104   4.266   1.162
 2393SOL    HW2 8079   4.200   4.239   1.291
 2394SOL     OW 8080   0.512   2.762   3.599
 2394SOL    HW1 8081   0.488   2.778   3.503
 2394SOL    HW2 8082   0.528   2.849   3.644
 2395SOL     OW 8083   0.812   2.901   4.706
 2395SOL    HW1 8084   0.800   2.811   4.663
 2395SOL    HW2 8085   0.725   2.951   4.704
 2396SOL     OW 8086   0.145   0.362   5.333
 2396SOL    HW1 8087   0.156   0.325   5.241
 2396SOL    HW2 8088   0.193   0.303   5.398
 2397SOL     OW 8089   0.302   4.146   5.361
 2397SOL    HW1 8090   0.338   4.120   5.450
 2397SOL    HW2 8091   0.205   4.119   5.354
 2398SOL     OW 8092   3.624   6.500   4.274
 2398SOL    HW1 8093   3.670   6.588   4.259
 2398SOL    HW2 8094   3.691   6.426   4.272
 2399SOL     OW 8095   3.235   2.168   3.541
 2399SOL    HW1 8096   3.177   2.101   3.588
 2399SOL    HW2 8097   3.189   2.257   3.540
 2400SOL     OW 8098   1.271   3.787   1.034
 2400SOL    HW1 8099   1.284   3.803   1.131
 2400SOL    HW2 8100   1.205   3.853   0.997
 2401SOL     OW 8101   2.534   6.991   5.746
 2401SOL    HW1 8102   2.530   0.056   5.801
 2401SOL    HW2 8103   2.483   6.918   5.791
 2402SOL     OW 8104   1.659   4.197   1.654
 2402SOL    HW1 8105   1.569   4.210   1.695
 2402SOL    HW2 8106   1.655   4.219   1.557
 2403SOL     OW 8107   4.151   3.332   3.072
 2403SOL    HW1 8108   4.145   3.410   3.009
 2403SOL    HW2 8109   4.108   3.252   3.030
 2404SOL     OW 8110   5.926   1.058   0.769
 2404SOL    HW1 8111   5.838   1.038   0.811
 2404SOL    HW2 8112   5.996   0.998   0.809
 2405SOL     OW 8113   2.527   3.104   0.752
 2405SOL    HW1 8114   2.571   3.080   0.665
 2405SOL    HW2 8115   2.555   3.038   0.822
 2406SOL     OW 8116   3.135   6.311   4.743
 2406SOL    HW1 8117   3.129   6.211   4.744
 2406SOL    HW2 8118   3.116   6.344   4.651
 2407SOL     OW 8119   2.565   0.788   3.558
 2407SOL    HW1 8120   2.651   0.738   3.574
 2407SOL    HW2 8121   2.560   0.816   3.462
 2408SOL     OW 8122   3.768   6.457   4.620
 2408SOL    HW1 8123   3.718   6.513   4.554
 2408SOL    HW2 8124   3.839   6.405   4.573
 2409SOL     OW 8125   1.533   3.255   1.322
 2409SOL    HW1 8126   1.554   3.236   1.227
 2409SOL    HW2 8127   1.433   3.260   1.334
 2410SOL     OW 8128   0.669   3.218   5.074
 2410SOL    HW1 8129   0.726   3.233   5.155
 2410SOL    HW2 8130   0.715   3.254   4.994
 2411SOL     OW 8131   3.024   3.529   0.185
 2411SOL    HW1 8132   3.105   3.562   0.234
 2411SOL    HW2 8133   3.035   3.545   0.087
 2412SOL     OW 8134   3.635   1.587   6.699
 2412SOL    HW1 8135   3.603   1.495   6.722
 2412SOL    HW2 8136   3.593   1.652   6.762
 2413SOL     OW 8137   0.548   3.233   6.902
 2413SOL    HW1 8138   0.559   3.168   6.828
 2413SOL    HW2 8139   0.452   3.261   6.908
 2414SOL     OW 8140   6.193   1.944   5.052
 2414SOL    HW1 8141   6.180   1.852   5.015
 2414SOL    HW2 8142   6.213   2.007   4.977
 2415SOL     OW 8143   2.539   5.710   0.490
 2415SOL    HW1 8144   2.499   5.632   0.443
 2415SOL    HW2 8145   2.627   5.733   0.448
 2416SOL     OW 8146   0.004   3.616   2.143
 2416SOL    HW1 8147   0.002   3.678   2.064
 2416SOL    HW2 8148   7.011   3.669   2.227
 2417SOL     OW 8149   3.036   2.593   1.696
 2417SOL    HW1 8150   2.951   2.606   1.645
 2417SOL    HW2 8151   3.021   2.529   1.771
 2418SOL     OW 8152   4.724   4.026   6.652
 2418SOL    HW1 8153   4.793   4.006   6.722
 2418SOL    HW2 8154   4.639   3.979   6.677
 2419SOL     OW 8155   2.288   6.846   3.198
 2419SOL    HW1 8156   2.217   6.854   3.128
 2419SOL    HW2 8157   2.252   6.879   3.286
 2420SOL     OW 8158   1.184   3.755   2.749
 2420SOL    HW1 8159   1.143   3.803   2.671
 2420SOL    HW2 8160   1.184   3.656   2.731
 2421SOL     OW 8161   2.919   6.435   4.460
 2421SOL    HW1 8162   2.863   6.372   4.514
 2421SOL    HW2 8163   3.011   6.396   4.448
 2422SOL     OW 8164   4.428   6.140   1.084
 2422SOL    HW1 8165   4.504   6.078   1.064
 2422SOL    HW2 8166   4.392   6.178   0.999
 2423SOL     OW 8167   2.509   5.437   3.017
 2423SOL    HW1 8168   2.505   5.366   3.088
 2423SOL    HW2 8169   2.486   5.397   2.929
 2424SOL     OW 8170   5.406   0.270   6.087
 2424SOL    HW1 8171   5.488   0.291   6.034
 2424SOL    HW2 8172   5.368   0.355   6.123
 2425SOL     OW 8173   5.041   5.514   4.974
 2425SOL    HW1 8174   4.945   5.488   4.972
 2425SOL    HW2 8175   5.096   5.437   5.007
 2426SOL     OW 8176   2.161   3.493   5.611
 2426SOL    HW1 8177   2.213   3.565   5.564
 2426SOL    HW2 8178   2.200   3.479   5.702
 2427SOL     OW 8179   5.349   1.203   6.987
 2427SOL    HW1 8180   5.342   1.133   0.040
 2427SOL    HW2 8181   5.264   1.204   6.934
 2428SOL     OW 8182   1.127   0.489   3.237
 2428SOL    HW1 8183   1.060   0.563   3.246
 2428SOL    HW2 8184   1.154   0.457   3.328
 2429SOL     OW 8185   5.774   5.280   1.904
 2429SOL    HW1 8186   5.872   5.297   1.895
 2429SOL    HW2 8187   5.747   5.206   1.843
 2430SOL     OW 8188   5.959   1.352   6.628
 2430SOL    HW1 8189   5.876   1.304   6.657
 2430SOL    HW2 8190   6.003   1.394   6.707
 2431SOL     OW 8191   0.043   2.924   1.494
 2431SOL    HW1 8192   0.090   2.842   1.526
 2431SOL    HW2 8193   0.044   2.993   1.567
 2432SOL     OW 8194   2.975   5.288   1.766
 2432SOL    HW1 8195   3.000   5.260   1.674
 2432SOL    HW2 8196   2.899   5.231   1.799
 2433SOL     OW 8197   6.332   4.048   5.458
 2433SOL    HW1 8198   6.363   4.127   5.405
 2433SOL    HW2 8199   6.310   3.973   5.395
 2434SOL     OW 8200   4.740   1.125   2.706
 2434SOL    HW1 8201   4.647   1.089   2.699
 2434SOL    HW2 8202   4.770   1.157   2.616
 2435SOL     OW 8203   5.973   6.508   6.855
 2435SOL    HW1 8204   5.954   6.419   6.814
 2435SOL    HW2 8205   5.891   6.565   6.848
 2436SOL     OW 8206   2.114   1.932   1.964
 2436SOL    HW1 8207   2.096   1.907   1.869
 2436SOL    HW2 8208   2.037   1.985   1.999
 2437SOL     OW 8209   7.013   4.334   2.444
 2437SOL    HW1 8210   0.085   4.305   2.476
 2437SOL    HW2 8211   6.989   4.421   2.486
 2438SOL     OW 8212   3.236   1.100   4.699
 2438SOL    HW1 8213   3.313   1.050   4.739
 2438SOL    HW2 8214   3.204   1.053   4.617
 2439SOL     OW 8215   1.136   6.748   1.822
 2439SOL    HW1 8216   1.111   6.660   1.863
 2439SOL    HW2 8217   1.065   6.776   1.757
 2440SOL     OW 8218   5.909   1.333   5.565
 2440SOL    HW1 8219   5.989   1.274   5.576
 2440SOL    HW2 8220   5.931   1.407   5.500
 2441SOL     OW 8221   6.730   0.045   6.742
 2441SOL    HW1 8222   6.707   6.969   6.715
 2441SOL    HW2 8223   6.802   0.043   6.811
 2442SOL     OW 8224   4.923   3.412   1.837
 2442SOL    HW1 8225   4.843   3.380   1.786
 2442SOL    HW2 8226   4.928   3.364   1.925
 2443SOL     OW 8227   0.368   2.496   1.418
 2443SOL    HW1 8228   0.333   2.443   1.495
 2443SOL    HW2 8229   0.434   2.563   1.452
 2444SOL     OW 8230   3.923   5.750   1.968
 2444SOL    HW1 8231   4.021   5.765   1.980
 2444SOL    HW2 8232   3.900   5.656   1.993
 2445SOL     OW 8233   0.218   2.641   0.908
 2445SOL    HW1 8234   0.259   2.637   0.999
 2445SOL    HW2 8235   0.167   2.556   0.890
 2446SOL     OW 8236   1.451   5.079   1.479
 2446SOL    HW1 8237   1.513   5.053   1.405
 2446SOL    HW2 8238   1.494   5.151   1.534
 2447SOL     OW 8239   2.444   6.537   0.026
 2447SOL    HW1 8240   2.352   6.566   7.016
 2447SOL    HW2 8241   2.509   6.559   6.972
 2448SOL     OW 8242   6.757   1.502   4.327
 2448SOL    HW1 8243   6.828   1.543   4.385
 2448SOL    HW2 8244   6.739   1.563   4.250
 2449SOL     OW 8245   1.550   4.042   1.381
 2449SOL    HW1 8246   1.557   3.988   1.465
 2449SOL    HW2 8247   1.519   4.134   1.402
 2450SOL     OW 8248   1.508   6.729   5.813
 2450SOL    HW1 8249   1.526   6.717   5.715
 2450SOL    HW2 8250   1.426   6.677   5.838
 2451SOL     OW 8251   1.120   6.995   4.800
 2451SOL    HW1 8252   1.173   0.059   4.780
 2451SOL    HW2 8253   1.110   6.941   4.716
 2452SOL     OW 8254   2.717   1.621   3.837
 2452SOL    HW1 8255   2.809   1.653   3.859
 2452SOL    HW2 8256   2.649   1.685   3.874
 2453SOL     OW 8257   1.088   1.413   6.481
 2453SOL    HW1 8258   1.165   1.356   6.510
 2453SOL    HW2 8259   1.097   1.504   6.520
 2454SOL     OW 8260   3.013   5.907   1.437
 2454SOL    HW1 8261   3.002   5.811   1.408
 2454SOL    HW2 8262   3.026   5.964   1.356
 2455SOL     OW 8263   3.705   2.705   0.928
 2455SOL    HW1 8264   3.622   2.654   0.950
 2455SOL    HW2 8265   3.712   2.786   0.986
 2456SOL     OW 8266   1.115   4.441   6.346
 2456SOL    HW1 8267   1.149   4.349   6.366
 2456SOL    HW2 8268   1.109   4.453   6.247
 2457SOL     OW 8269   4.979   2.195   4.973
 2457SOL    HW1 8270   4.983   2.294   4.989
 2457SOL    HW2 8271   4.950   2.150   5.058
 2458SOL     OW 8272   1.308   0.612   1.731
 2458SOL    HW1 8273   1.358   0.549   1.790
 2458SOL    HW2 8274   1.213   0.581   1.723
 2459SOL     OW 8275   2.541   6.328   1.200
 2459SOL    HW1 8276   2.539   6.427   1.214
 2459SOL    HW2 8277   2.524   6.307   1.104
 2460SOL     OW 8278   1.464   1.266   5.159
 2460SOL    HW1 8279   1.467   1.338   5.089
 2460SOL    HW2 8280   1.548   1.213   5.156
 2461SOL     OW 8281   4.342   1.182   3.892
 2461SOL    HW1 8282   4.278   1.105   3.888
 2461SOL    HW2 8283   4.370   1.197   3.987
 2462SOL     OW 8284   0.164   3.602   0.756
 2462SOL    HW1 8285   0.189   3.595   0.660
 2462SOL    HW2 8286   0.216   3.535   0.809
 2463SOL     OW 8287   6.852   0.844   7.008
 2463SOL    HW1 8288   6.774   0.800   6.963
 2463SOL    HW2 8289   6.909   0.890   6.939
 2464SOL     OW 8290   0.118   2.422   2.588
 2464SOL    HW1 8291   0.075   2.377   2.666
 2464SOL    HW2 8292   0.168   2.355   2.534
 2465SOL     OW 8293   0.250   5.122   5.525
 2465SOL    HW1 8294   0.320   5.162   5.465
 2465SOL    HW2 8295   0.292   5.054   5.584
 2466SOL     OW 8296   0.641   2.424   1.741
 2466SOL    HW1 8297   0.559   2.396   1.791
 2466SOL    HW2 8298   0.662   2.519   1.761
 2467SOL     OW 8299   5.883   2.099   5.434
 2467SOL    HW1 8300   5.950   2.027   5.415
 2467SOL    HW2 8301   5.796   2.077   5.388
 2468SOL     OW 8302   3.376   6.688   5.662
 2468SOL    HW1 8303   3.427   6.619   5.714
 2468SOL    HW2 8304   3.279   6.666   5.664
 2469SOL     OW 8305   3.175   2.540   5.898
 2469SOL    HW1 8306   3.210   2.446   5.894
 2469SOL    HW2 8307   3.089   2.541   5.949
 2470SOL     OW 8308   2.980   4.820   6.610
 2470SOL    HW1 8309   2.932   4.815   6.698
 2470SOL    HW2 8310   3.073   4.786   6.621
 2471SOL     OW 8311   3.632   5.877   1.516
 2471SOL    HW1 8312   3.627   5.780   1.539
 2471SOL    HW2 8313   3.543   5.908   1.480
 2472SOL     OW 8314   4.792   1.917   4.238
 2472SOL    HW1 8315   4.872   1.884   4.289
 2472SOL    HW2 8316   4.822   1.964   4.156
 2473SOL     OW 8317   0.570   4.374   5.063
 2473SOL    HW1 8318   0.664   4.381   5.096
 2473SOL    HW2 8319   0.540   4.278   5.067
 2474SOL     OW 8320   1.283   5.772   1.597
 2474SOL    HW1 8321   1.277   5.852   1.537
 2474SOL    HW2 8322   1.375   5.733   1.592
 2475SOL     OW 8323   5.068   0.295   0.607
 2475SOL    HW1 8324   4.978   0.298   0.563
 2475SOL    HW2 8325   5.098   0.388   0.628
 2476SOL     OW 8326   5.435   0.709   6.760
 2476SOL    HW1 8327   5.491   0.772   6.814
 2476SOL    HW2 8328   5.370   0.662   6.819
 2477SOL     OW 8329   3.505   0.074   3.742
 2477SOL    HW1 8330   3.564   0.015   3.688
 2477SOL    HW2 8331   3.535   0.169   3.732
 2478SOL     OW 8332   4.712   0.998   3.325
 2478SOL    HW1 8333   4.623   0.978   3.284
 2478SOL    HW2 8334   4.705   1.080   3.382
 2479SOL     OW 8335   0.438   4.248   0.150
 2479SOL    HW1 8336   0.427   4.167   0.207
 2479SOL    HW2 8337   0.461   4.221   0.057
 2480SOL     OW 8338   3.512   2.561   1.358
 2480SOL    HW1 8339   3.579   2.593   1.425
 2480SOL    HW2 8340   3.428   2.532   1.405
 2481SOL     OW 8341   2.949   0.196   0.828
 2481SOL    HW1 8342   2.941   0.178   0.730
 2481SOL    HW2 8343   2.896   0.277   0.852
 2482SOL     OW 8344   5.401   3.077   0.170
 2482SOL    HW1 8345   5.396   3.173   0.143
 2482SOL    HW2 8346   5.415   3.070   0.268
 2483SOL     OW 8347   0.691   2.190   0.894
 2483SOL    HW1 8348   0.702   2.155   0.987
 2483SOL    HW2 8349   0.616   2.141   0.849
 2484SOL     OW 8350   5.372   1.689   1.702
 2484SOL    HW1 8351   5.358   1.748   1.622
 2484SOL    HW2 8352   5.297   1.623   1.708
 2485SOL     OW 8353   5.229   2.676   5.978
 2485SOL    HW1 8354   5.321   2.676   6.016
 2485SOL    HW2 8355   5.181   2.760   6.003
 2486SOL     OW 8356   0.619   3.934   5.292
 2486SOL    HW1 8357   0.613   3.852   5.349
 2486SOL    HW2 8358   0.712   3.941   5.254
 2487SOL     OW 8359   4.444   6.092   0.296
 2487SOL    HW1 8360   4.373   6.050   0.352
 2487SOL    HW2 8361   4.414   6.097   0.201
 2488SOL     OW 8362   6.755   4.154   1.587
 2488SOL    HW1 8363   6.790   4.097   1.662
 2488SOL    HW2 8364   6.656   4.141   1.579
 2489SOL     OW 8365   0.667   6.019   4.198
 2489SOL    HW1 8366   0.670   6.078   4.279
 2489SOL    HW2 8367   0.755   6.025   4.149
 2490SOL     OW 8368   3.110   5.821   2.275
 2490SOL    HW1 8369   3.126   5.838   2.178
 2490SOL    HW2 8370   3.111   5.723   2.293
 2491SOL     OW 8371   3.973   4.459   1.633
 2491SOL    HW1 8372   3.895   4.406   1.667
 2491SOL    HW2 8373   4.056   4.429   1.681
 2492SOL     OW 8374   6.257   3.935   0.692
 2492SOL    HW1 8375   6.319   3.966   0.764
 2492SOL    HW2 8376   6.213   3.851   0.721
 2493SOL     OW 8377   6.825   6.579   1.737
 2493SOL    HW1 8378   6.844   6.575   1.639
 2493SOL    HW2 8379   6.899   6.628   1.784
 2494SOL     OW 8380   6.167   2.480   1.417
 2494SOL    HW1 8381   6.265   2.500   1.413
 2494SOL    HW2 8382   6.132   2.504   1.507
 2495SOL     OW 8383   6.483   5.623   3.718
 2495SOL    HW1 8384   6.438   5.557   3.658
 2495SOL    HW2 8385   6.575   5.591   3.740
 2496SOL     OW 8386   6.539   4.896   6.645
 2496SOL    HW1 8387   6.602   4.880   6.721
 2496SOL    HW2 8388   6.449   4.921   6.681
 2497SOL     OW 8389   0.228   6.432   2.257
 2497SOL    HW1 8390   0.271   6.519   2.283
 2497SOL    HW2 8391   0.225   6.372   2.337
 2498SOL     OW 8392   1.993   2.936   5.379
 2498SOL    HW1 8393   1.975   2.920   5.476
 2498SOL    HW2 8394   2.090   2.918   5.360
 2499SOL     OW 8395   6.321   3.494   1.310
 2499SOL    HW1 8396   6.265   3.472   1.389
 2499SOL    HW2 8397   6.349   3.409   1.264
 2500SOL     OW 8398   3.155   3.852   6.575
 2500SOL    HW1 8399   3.255   3.844   6.582
 2500SOL    HW2 8400   3.131   3.890   6.486
 2501SOL     OW 8401   5.669   5.268   0.566
 2501SOL    HW1 8402   5.763   5.299   0.576
 2501SOL    HW2 8403   5.610   5.346   0.543
 2502SOL     OW 8404   2.728   5.715   4.257
 2502SOL    HW1 8405   2.637   5.752   4.274
 2502SOL    HW2 8406   2.721   5.618   4.237
 2503SOL     OW 8407   2.721   0.144   4.943
 2503SOL    HW1 8408   2.741   0.063   4.996
 2503SOL    HW2 8409   2.804   0.196   4.927
 2504SOL     OW 8410   3.109   5.744   2.662
 2504SOL    HW1 8411   3.163   5.772   2.741
 2504SOL    HW2 8412   3.033   5.686   2.692
 2505SOL     OW 8413   6.823   5.855   2.602
 2505SOL    HW1 8414   6.767   5.924   2.557
 2505SOL    HW2 8415   6.893   5.822   2.538
 2506SOL     OW 8416   5.939   4.469   5.875
 2506SOL    HW1 8417   6.011   4.457   5.807
 2506SOL    HW2 8418   5.905   4.379   5.904
 2507SOL     OW 8419   0.071   3.481   0.304
 2507SOL    HW1 8420   7.017   3.469   0.236
 2507SOL    HW2 8421   0.158   3.446   0.268
 2508SOL     OW 8422   3.111   1.872   4.880
 2508SOL    HW1 8423   3.065   1.875   4.969
 2508SOL    HW2 8424   3.124   1.966   4.846
 2509SOL     OW 8425   6.636   3.519   6.099
 2509SOL    HW1 8426   6.722   3.559   6.067
 2509SOL    HW2 8427   6.560   3.579   6.074
 2510SOL     OW 8428   3.143   4.031   1.673
 2510SOL    HW1 8429   3.235   4.069   1.671
 2510SOL    HW2 8430   3.118   4.007   1.767
 2511SOL     OW 8431   2.413   0.884   4.967
 2511SOL    HW1 8432   2.373   0.823   5.036
 2511SOL    HW2 8433   2.474   0.950   5.012
 2512SOL     OW 8434   3.716   4.704   5.364
 2512SOL    HW1 8435   3.661   4.778   5.325
 2512SOL    HW2 8436   3.682   4.616   5.331
 2513SOL     OW 8437   2.071   6.354   5.777
 2513SOL    HW1 8438   2.098   6.397   5.863
 2513SOL    HW2 8439   1.971   6.354   5.769
 2514SOL     OW 8440   1.095   2.847   3.464
 2514SOL    HW1 8441   1.147   2.769   3.429
 2514SOL    HW2 8442   1.136   2.880   3.549
 2515SOL     OW 8443   1.909   0.800   1.038
 2515SOL    HW1 8444   1.937   0.893   1.059
 2515SOL    HW2 8445   1.823   0.802   0.986
 2516SOL     OW 8446   5.295   1.466   3.626
 2516SOL    HW1 8447   5.355   1.427   3.557
 2516SOL    HW2 8448   5.348   1.486   3.709
 2517SOL     OW 8449   1.113   0.903   5.011
 2517SOL    HW1 8450   1.162   0.851   4.940
 2517SOL    HW2 8451   1.137   0.866   5.101
 2518SOL     OW 8452   2.548   4.809   1.051
 2518SOL    HW1 8453   2.565   4.715   1.080
 2518SOL    HW2 8454   2.628   4.844   1.002
 2519SOL     OW 8455   2.320   1.279   1.536
 2519SOL    HW1 8456   2.400   1.286   1.596
 2519SOL    HW2 8457   2.302   1.368   1.495
 2520SOL     OW 8458   3.121   2.585   0.984
 2520SOL    HW1 8459   3.044   2.585   0.920
 2520SOL    HW2 8460   3.207   2.591   0.934
 2521SOL     OW 8461   4.012   1.738   5.078
 2521SOL    HW1 8462   4.089   1.786   5.121
 2521SOL    HW2 8463   4.006   1.765   4.982
 2522SOL     OW 8464   0.976   1.599   5.374
 2522SOL    HW1 8465   1.020   1.510   5.364
 2522SOL    HW2 8466   0.921   1.600   5.457
 2523SOL     OW 8467   1.639   4.645   0.703
 2523SOL    HW1 8468   1.694   4.688   0.775
 2523SOL    HW2 8469   1.674   4.553   0.685
 2524SOL     OW 8470   1.895   6.895   4.310
 2524SOL    HW1 8471   1.851   6.849   4.387
 2524SOL    HW2 8472   1.889   6.994   4.323
 2525SOL     OW 8473   0.943   3.370   4.390
 2525SOL    HW1 8474   1.020   3.430   4.412
 2525SOL    HW2 8475   0.977   3.285   4.349
 2526SOL     OW 8476   1.045   5.327   6.737
 2526SOL    HW1 8477   1.128   5.351   6.788
 2526SOL    HW2 8478   1.068   5.259   6.667
 2527SOL     OW 8479   5.536   5.760   5.814
 2527SOL    HW1 8480   5.478   5.828   5.858
 2527SOL    HW2 8481   5.615   5.740   5.873
 2528SOL     OW 8482   5.080   5.014   5.830
 2528SOL    HW1 8483   5.070   4.992   5.927
 2528SOL    HW2 8484   5.061   5.111   5.815
 2529SOL     OW 8485   0.282   0.041   6.284
 2529SOL    HW1 8486   0.339   0.049   6.203
 2529SOL    HW2 8487   0.339   0.019   6.363
 2530SOL     OW 8488   2.633   5.584   5.381
 2530SOL    HW1 8489   2.669   5.532   5.459
 2530SOL    HW2 8490   2.703   5.591   5.311
 2531SOL     OW 8491   6.132   5.400   5.523
 2531SOL    HW1 8492   6.141   5.449   5.436
 2531SOL    HW2 8493   6.084   5.458   5.589
 2532SOL     OW 8494   1.048   6.289   1.187
 2532SOL    HW1 8495   1.083   6.302   1.280
 2532SOL    HW2 8496   1.023   6.193   1.173
 2533SOL     OW 8497   5.166   1.282   3.355
 2533SOL    HW1 8498   5.121   1.363   3.319
 2533SOL    HW2 8499   5.127   1.258   3.444
 2534SOL     OW 8500   4.834   1.822   1.755
 2534SOL    HW1 8501   4.736   1.803   1.743
 2534SOL    HW2 8502   4.887   1.751   1.710
 2535SOL     OW 8503   3.687   2.442   6.565
 2535SOL    HW1 8504   3.608   2.486   6.521
 2535SOL    HW2 8505   3.665   2.422   6.661
 2536SOL     OW 8506   1.869   0.413   6.771
 2536SOL    HW1 8507   1.908   0.343   6.712
 2536SOL    HW2 8508   1.775   0.387   6.795
 2537SOL     OW 8509   3.799   0.612   6.482
 2537SOL    HW1 8510   3.767   0.521   6.506
 2537SOL    HW2 8511   3.849   0.651   6.559
 2538SOL     OW 8512   0.192   3.572   3.464
 2538SOL    HW1 8513   0.155   3.613   3.547
 2538SOL    HW2 8514   0.116   3.548   3.403
 2539SOL     OW 8515   6.044   1.001   4.075
 2539SOL    HW1 8516   6.101   1.025   4.154
 2539SOL    HW2 8517   6.077   1.051   3.995
 2540SOL     OW 8518   3.923   1.800   3.064
 2540SOL    HW1 8519   3.964   1.733   3.127
 2540SOL    HW2 8520   3.967   1.793   2.975
 2541SOL     OW 8521   2.844   0.359   4.532
 2541SOL    HW1 8522   2.859   0.303   4.451
 2541SOL    HW2 8523   2.865   0.455   4.510
 2542SOL     OW 8524   1.797   4.327   6.753
 2542SOL    HW1 8525   1.835   4.253   6.808
 2542SOL    HW2 8526   1.733   4.380   6.808
 2543SOL     OW 8527   0.681   1.913   4.416
 2543SOL    HW1 8528   0.712   1.845   4.350
 2543SOL    HW2 8529   0.759   1.945   4.470
 2544SOL     OW 8530   0.809   5.144   1.166
 2544SOL    HW1 8531   0.716   5.112   1.180
 2544SOL    HW2 8532   0.862   5.073   1.120
 2545SOL     OW 8533   1.311   0.014   2.561
 2545SOL    HW1 8534   1.288   7.010   2.466
 2545SOL    HW2 8535   1.408   7.015   2.576
 2546SOL     OW 8536   5.557   1.617   0.655
 2546SOL    HW1 8537   5.539   1.623   0.556
 2546SOL    HW2 8538   5.619   1.540   0.672
 2547SOL     OW 8539   0.261   3.329   6.294
 2547SOL    HW1 8540   0.319   3.409   6.310
 2547SOL    HW2 8541   0.315   3.246   6.309
 2548SOL     OW 8542   1.231   6.465   4.414
 2548SOL    HW1 8543   1.252   6.435   4.507
 2548SOL    HW2 8544   1.168   6.400   4.372
 2549SOL     OW 8545   0.397   0.278   1.549
 2549SOL    HW1 8546   0.333   0.267   1.473
 2549SOL    HW2 8547   0.345   0.286   1.635
 2550SOL     OW 8548   6.190   6.703   0.559
 2550SOL    HW1 8549   6.273   6.649   0.566
 2550SOL    HW2 8550   6.194   6.780   0.623
 2551SOL     OW 8551   2.452   4.369   6.678
 2551SOL    HW1 8552   2.364   4.394   6.639
 2551SOL    HW2 8553   2.525   4.412   6.625
 2552SOL     OW 8554   2.713   4.661   4.029
 2552SOL    HW1 8555   2.684   4.714   3.949
 2552SOL    HW2 8556   2.753   4.575   3.999
 2553SOL     OW 8557   4.080   4.012   6.049
 2553SOL    HW1 8558   4.146   4.087   6.038
 2553SOL    HW2 8559   4.060   3.972   5.960
 2554SOL     OW 8560   1.996   2.055   1.308
 2554SOL    HW1 8561   1.929   2.106   1.362
 2554SOL    HW2 8562   1.996   1.960   1.337
 2555SOL     OW 8563   5.082   2.846   4.593
 2555SOL    HW1 8564   5.083   2.785   4.513
 2555SOL    HW2 8565   5.079   2.792   4.676
 2556SOL     OW 8566   3.846   6.001   0.564
 2556SOL    HW1 8567   3.864   6.052   0.480
 2556SOL    HW2 8568   3.798   6.059   0.630
 2557SOL     OW 8569   1.947   3.937   6.706
 2557SOL    HW1 8570   2.009   3.880   6.760
 2557SOL    HW2 8571   1.905   4.006   6.766
 2558SOL     OW 8572   5.066   1.553   6.084
 2558SOL    HW1 8573   5.010   1.535   6.003
 2558SOL    HW2 8574   5.098   1.647   6.083
 2559SOL     OW 8575   0.473   4.527   5.787
 2559SOL    HW1 8576   0.446   4.549   5.880
 2559SOL    HW2 8577   0.391   4.511   5.731
 2560SOL     OW 8578   6.299   2.200   6.059
 2560SOL    HW1 8579   6.392   2.175   6.032
 2560SOL    HW2 8580   6.244   2.118   6.072
 2561SOL     OW 8581   3.474   5.023   4.821
 2561SOL    HW1 8582   3.419   5.004   4.740
 2561SOL    HW2 8583   3.417   5.015   4.902
 2562SOL     OW 8584   2.131   4.124   0.492
 2562SOL    HW1 8585   2.132   4.148   0.589
 2562SOL    HW2 8586   2.038   4.130   0.456
 2563SOL     OW 8587   2.807   0.620   6.762
 2563SOL    HW1 8588   2.900   0.638   6.730
 2563SOL    HW2 8589   2.743   0.683   6.717
 2564SOL     OW 8590   1.578   5.710   0.591
 2564SOL    HW1 8591   1.577   5.794   0.646
 2564SOL    HW2 8592   1.666   5.663   0.604
 2565SOL     OW 8593   1.103   0.790   1.031
 2565SOL    HW1 8594   1.107   0.786   0.931
 2565SOL    HW2 8595   1.010   0.815   1.059
 2566SOL     OW 8596   2.344   6.748   0.568
 2566SOL    HW1 8597   2.398   6.798   0.635
 2566SOL    HW2 8598   2.320   6.658   0.605
 2567SOL     OW 8599   1.714   6.989   0.776
 2567SOL    HW1 8600   1.814   6.986   0.782
 2567SOL    HW2 8601   1.679   6.898   0.754
 2568SOL     OW 8602   4.078   1.677   6.851
 2568SOL    HW1 8603   4.126   1.660   6.937
 2568SOL    HW2 8604   4.108   1.765   6.813
 2569SOL     OW 8605   3.805   0.728   3.849
 2569SOL    HW1 8606   3.786   0.668   3.771
 2569SOL    HW2 8607   3.722   0.737   3.905
 2570SOL     OW 8608   5.754   1.159   5.695
 2570SOL    HW1 8609   5.810   1.237   5.666
 2570SOL    HW2 8610   5.665   1.193   5.726
 2571SOL     OW 8611   1.296   5.064   3.958
 2571SOL    HW1 8612   1.298   4.984   3.898
 2571SOL    HW2 8613   1.203   5.075   3.994
 2572SOL     OW 8614   2.871   5.158   3.136
 2572SOL    HW1 8615   2.868   5.204   3.225
 2572SOL    HW2 8616   2.926   5.213   3.073
 2573SOL     OW 8617   0.273   1.265   1.296
 2573SOL    HW1 8618   0.325   1.343   1.331
 2573SOL    HW2 8619   0.239   1.285   1.204
 2574SOL     OW 8620   6.435   3.215   0.628
 2574SOL    HW1 8621   6.424   3.223   0.529
 2574SOL    HW2 8622   6.370   3.147   0.662
 2575SOL     OW 8623   6.519   5.793   6.970
 2575SOL    HW1 8624   6.545   5.888   6.950
 2575SOL    HW2 8625   6.602   5.739   6.985
 2576SOL     OW 8626   4.846   6.612   4.082
 2576SOL    HW1 8627   4.905   6.633   4.159
 2576SOL    HW2 8628   4.875   6.664   4.002
 2577SOL     OW 8629   3.107   4.843   2.358
 2577SOL    HW1 8630   3.161   4.779   2.411
 2577SOL    HW2 8631   3.119   4.936   2.394
 2578SOL     OW 8632   3.470   1.566   4.434
 2578SOL    HW1 8633   3.423   1.542   4.520
 2578SOL    HW2 8634   3.565   1.590   4.454
 2579SOL     OW 8635   0.670   0.031   3.716
 2579SOL    HW1 8636   0.761   0.004   3.746
 2579SOL    HW2 8637   0.642   6.992   3.640
 2580SOL     OW 8638   2.532   4.238   0.507
 2580SOL    HW1 8639   2.621   4.249   0.462
 2580SOL    HW2 8640   2.515   4.141   0.523
 2581SOL     OW 8641   2.912   6.692   5.856
 2581SOL    HW1 8642   2.870   6.624   5.917
 2581SOL    HW2 8643   2.882   6.783   5.882
 2582SOL     OW 8644   6.530   3.616   1.527
 2582SOL    HW1 8645   6.542   3.683   1.600
 2582SOL    HW2 8646   6.585   3.643   1.448
 2583SOL     OW 8647   6.297   6.966   0.905
 2583SOL    HW1 8648   6.314   6.895   0.974
 2583SOL    HW2 8649   6.374   0.010   0.901
 2584SOL     OW 8650   4.776   4.835   5.558
 2584SOL    HW1 8651   4.872   4.855   5.574
 2584SOL    HW2 8652   4.764   4.805   5.463
 2585SOL     OW 8653   3.082   5.491   6.797
 2585SOL    HW1 8654   3.131   5.514   6.882
 2585SOL    HW2 8655   3.142   5.438   6.738
 2586SOL     OW 8656   2.219   0.327   5.161
 2586SOL    HW1 8657   2.208   0.402   5.227
 2586SOL    HW2 8658   2.282   0.259   5.198
 2587SOL     OW 8659   0.483   1.354   2.792
 2587SOL    HW1 8660   0.563   1.301   2.820
 2587SOL    HW2 8661   0.510   1.419   2.720
 2588SOL     OW 8662   4.185   1.966   5.165
 2588SOL    HW1 8663   4.115   2.016   5.114
 2588SOL    HW2 8664   4.275   1.985   5.125
 2589SOL     OW 8665   1.239   6.018   6.848
 2589SOL    HW1 8666   1.182   5.969   6.914
 2589SOL    HW2 8667   1.334   5.986   6.854
 2590SOL     OW 8668   2.640   4.797   0.061
 2590SOL    HW1 8669   2.630   4.703   0.093
 2590SOL    HW2 8670   2.551   4.843   0.065
 2591SOL     OW 8671   6.378   5.718   4.180
 2591SOL    HW1 8672   6.398   5.663   4.262
 2591SOL    HW2 8673   6.418   5.808   4.190
 2592SOL     OW 8674   2.614   4.385   6.272
 2592SOL    HW1 8675   2.529   4.333   6.263
 2592SOL    HW2 8676   2.674   4.340   6.338
 2593SOL     OW 8677   2.727   5.642   0.728
 2593SOL    HW1 8678   2.810   5.587   0.724
 2593SOL    HW2 8679   2.675   5.630   0.644
 2594SOL     OW 8680   1.959   4.373   5.128
 2594SOL    HW1 8681   2.009   4.426   5.059
 2594SOL    HW2 8682   2.013   4.294   5.155
 2595SOL     OW 8683   1.749   1.212   4.466
 2595SOL    HW1 8684   1.794   1.292   4.504
 2595SOL    HW2 8685   1.735   1.144   4.538
 2596SOL     OW 8686   1.353   2.393   0.777
 2596SOL    HW1 8687   1.260   2.380   0.743
 2596SOL    HW2 8688   1.418   2.360   0.708
 2597SOL     OW 8689   0.802   6.128   6.456
 2597SOL    HW1 8690   0.886   6.077   6.477
 2597SOL    HW2 8691   0.824   6.204   6.395
 2598SOL     OW 8692   5.741   2.233   1.901
 2598SOL    HW1 8693   5.701   2.186   1.822
 2598SOL    HW2 8694   5.760   2.166   1.973
 2599SOL     OW 8695   3.088   6.897   2.444
 2599SOL    HW1 8696   3.070   6.819   2.384
 2599SOL    HW2 8697   3.179   6.934   2.425
 2600SOL     OW 8698   6.377   4.711   4.495
 2600SOL    HW1 8699   6.362   4.697   4.398
 2600SOL    HW2 8700   6.370   4.624   4.543
 2601SOL     OW 8701   1.306   1.941   2.320
 2601SOL    HW1 8702   1.364   2.022   2.322
 2601SOL    HW2 8703   1.333   1.878   2.392
 2602SOL     OW 8704   1.978   4.826   4.482
 2602SOL    HW1 8705   1.957   4.923   4.484
 2602SOL    HW2 8706   2.070   4.812   4.446
 2603SOL     OW 8707   2.687   1.114   2.812
 2603SOL    HW1 8708   2.702   1.099   2.715
 2603SOL    HW2 8709   2.589   1.118   2.831
 2604SOL     OW 8710   5.501   1.918   2.514
 2604SOL    HW1 8711   5.558   1.968   2.450
 2604SOL    HW2 8712   5.476   1.978   2.590
 2605SOL     OW 8713   1.158   3.491   1.710
 2605SOL    HW1 8714   1.114   3.470   1.623
 2605SOL    HW2 8715   1.256   3.500   1.697
 2606SOL     OW 8716   4.282   4.382   0.786
 2606SOL    HW1 8717   4.206   4.394   0.850
 2606SOL    HW2 8718   4.361   4.345   0.835
 2607SOL     OW 8719   2.441   1.745   0.910
 2607SOL    HW1 8720   2.372   1.732   0.981
 2607SOL    HW2 8721   2.439   1.841   0.879
 2608SOL     OW 8722   3.069   5.945   6.275
 2608SOL    HW1 8723   3.167   5.965   6.271
 2608SOL    HW2 8724   3.029   5.989   6.356
 2609SOL     OW 8725   0.653   0.264   1.116
 2609SOL    HW1 8726   0.636   0.361   1.097
 2609SOL    HW2 8727   0.701   0.223   1.038
 2610SOL     OW 8728   1.278   4.925   4.527
 2610SOL    HW1 8729   1.310   4.902   4.435
 2610SOL    HW2 8730   1.296   4.848   4.588
 2611SOL     OW 8731   5.374   6.400   6.684
 2611SOL    HW1 8732   5.368   6.311   6.730
 2611SOL    HW2 8733   5.401   6.470   6.750
 2612SOL     OW 8734   5.688   0.512   5.211
 2612SOL    HW1 8735   5.738   0.592   5.245
 2612SOL    HW2 8736   5.732   0.478   5.128
 2613SOL     OW 8737   0.744   5.803   6.773
 2613SOL    HW1 8738   0.701   5.812   6.683
 2613SOL    HW2 8739   0.675   5.777   6.841
 2614SOL     OW 8740   6.311   0.664   6.209
 2614SOL    HW1 8741   6.387   0.696   6.153
 2614SOL    HW2 8742   6.321   0.566   6.226
 2615SOL     OW 8743   1.223   3.527   0.656
 2615SOL    HW1 8744   1.319   3.546   0.676
 2615SOL    HW2 8745   1.191   3.452   0.714
 2616SOL     OW 8746   1.745   0.468   5.461
 2616SOL    HW1 8747   1.695   0.502   5.540
 2616SOL    HW2 8748   1.830   0.425   5.491
 2617SOL     OW 8749   5.527   0.345   0.746
 2617SOL    HW1 8750   5.589   0.267   0.743
 2617SOL    HW2 8751   5.483   0.356   0.657
 2618SOL     OW 8752   1.974   6.297   6.060
 2618SOL    HW1 8753   1.913   6.256   6.128
 2618SOL    HW2 8754   2.010   6.383   6.096
 2619SOL     OW 8755   4.764   1.589   2.130
 2619SOL    HW1 8756   4.830   1.601   2.203
 2619SOL    HW2 8757   4.693   1.659   2.138
 2620SOL     OW 8758   0.215   6.452   1.881
 2620SOL    HW1 8759   0.185   6.529   1.938
 2620SOL    HW2 8760   0.254   6.381   1.939
 2621SOL     OW 8761   1.571   6.246   2.795
 2621SOL    HW1 8762   1.645   6.209   2.851
 2621SOL    HW2 8763   1.483   6.230   2.841
 2622SOL     OW 8764   3.398   3.516   6.260
 2622SOL    HW1 8765   3.369   3.422   6.245
 2622SOL    HW2 8766   3.318   3.573   6.277
 2623SOL     OW 8767   1.196   6.849   4.125
 2623SOL    HW1 8768   1.179   6.759   4.086
 2623SOL    HW2 8769   1.165   6.920   4.061
 2624SOL     OW 8770   0.230   2.618   4.206
 2624SOL    HW1 8771   0.306   2.655   4.153
 2624SOL    HW2 8772   0.145   2.663   4.180
 2625SOL     OW 8773   1.885   5.303   5.176
 2625SOL    HW1 8774   1.850   5.264   5.261
 2625SOL    HW2 8775   1.919   5.229   5.117
 2626SOL     OW 8776   6.661   5.350   5.947
 2626SOL    HW1 8777   6.689   5.323   6.039
 2626SOL    HW2 8778   6.665   5.271   5.886
 2627SOL     OW 8779   1.706   6.900   5.628
 2627SOL    HW1 8780   1.792   6.903   5.679
 2627SOL    HW2 8781   1.725   6.879   5.533
 2628SOL     OW 8782   1.685   4.010   2.074
 2628SOL    HW1 8783   1.588   4.034   2.075
 2628SOL    HW2 8784   1.737   4.079   2.123
 2629SOL     OW 8785   3.415   4.110   3.457
 2629SOL    HW1 8786   3.442   4.171   3.383
 2629SOL    HW2 8787   3.322   4.078   3.443
 2630SOL     OW 8788   3.731   0.739   4.242
 2630SOL    HW1 8789   3.639   0.770   4.219
 2630SOL    HW2 8790   3.796   0.814   4.227
 2631SOL     OW 8791   5.806   0.952   0.085
 2631SOL    HW1 8792   5.906   0.947   0.088
 2631SOL    HW2 8793   5.768   0.904   0.164
 2632SOL     OW 8794   5.546   4.589   1.986
 2632SOL    HW1 8795   5.601   4.657   2.034
 2632SOL    HW2 8796   5.466   4.633   1.945
 2633SOL     OW 8797   0.232   2.736   5.918
 2633SOL    HW1 8798   0.146   2.753   5.966
 2633SOL    HW2 8799   0.258   2.818   5.866
 2634SOL     OW 8800   6.330   0.254   5.446
 2634SOL    HW1 8801   6.297   0.249   5.352
 2634SOL    HW2 8802   6.375   0.342   5.461
 2635SOL     OW 8803   5.773   5.387   4.321
 2635SOL    HW1 8804   5.793   5.328   4.243
 2635SOL    HW2 8805   5.725   5.469   4.290
 2636SOL     OW 8806   4.360   6.765   5.872
 2636SOL    HW1 8807   4.319   6.695   5.931
 2636SOL    HW2 8808   4.352   6.854   5.915
 2637SOL     OW 8809   1.777   1.843   3.182
 2637SOL    HW1 8810   1.855   1.846   3.245
 2637SOL    HW2 8811   1.755   1.935   3.152
 2638SOL     OW 8812   1.776   6.761   4.507
 2638SOL    HW1 8813   1.783   6.806   4.597
 2638SOL    HW2 8814   1.708   6.688   4.512
 2639SOL     OW 8815   4.145   4.786   5.188
 2639SOL    HW1 8816   4.130   4.797   5.090
 2639SOL    HW2 8817   4.060   4.808   5.237
 2640SOL     OW 8818   1.730   6.379   4.741
 2640SOL    HW1 8819   1.648   6.425   4.776
 2640SOL    HW2 8820   1.706   6.326   4.660
 2641SOL     OW 8821   5.406   2.469   6.573
 2641SOL    HW1 8822   5.354   2.534   6.518
 2641SOL    HW2 8823   5.359   2.454   6.660
 2642SOL     OW 8824   6.945   1.579   3.894
 2642SOL    HW1 8825   6.981   1.619   3.978
 2642SOL    HW2 8826   6.845   1.579   3.897
 2643SOL     OW 8827   1.644   4.665   3.572
 2643SOL    HW1 8828   1.690   4.587   3.615
 2643SOL    HW2 8829   1.655   4.746   3.630
 2644SOL     OW 8830   5.261   5.274   4.728
 2644SOL    HW1 8831   5.353   5.239   4.710
 2644SOL    HW2 8832   5.246   5.278   4.827
 2645SOL     OW 8833   5.389   5.286   3.382
 2645SOL    HW1 8834   5.456   5.348   3.342
 2645SOL    HW2 8835   5.425   5.248   3.467
 2646SOL     OW 8836   0.280   3.001   5.818
 2646SOL    HW1 8837   0.348   3.002   5.744
 2646SOL    HW2 8838   0.317   3.051   5.897
 2647SOL     OW 8839   4.879   0.261   1.829
 2647SOL    HW1 8840   4.815   0.234   1.900
 2647SOL    HW2 8841   4.966   0.213   1.843
 2648SOL     OW 8842   0.764   0.066   5.554
 2648SOL    HW1 8843   0.710   0.128   5.498
 2648SOL    HW2 8844   0.861   0.076   5.532
 2649SOL     OW 8845   4.975   2.802   1.849
 2649SOL    HW1 8846   5.017   2.892   1.864
 2649SOL    HW2 8847   4.919   2.806   1.766
 2650SOL     OW 8848   3.587   6.667   4.538
 2650SOL    HW1 8849   3.658   6.737   4.538
 2650SOL    HW2 8850   3.499   6.710   4.559
 2651SOL     OW 8851   3.901   2.134   5.161
 2651SOL    HW1 8852   3.921   2.213   5.220
 2651SOL    HW2 8853   3.958   2.139   5.078
 2652SOL     OW 8854   5.146   4.454   5.887
 2652SOL    HW1 8855   5.081   4.468   5.812
 2652SOL    HW2 8856   5.191   4.541   5.908
 2653SOL     OW 8857   2.896   6.139   0.341
 2653SOL    HW1 8858   2.923   6.149   0.437
 2653SOL    HW2 8859   2.871   6.229   0.304
 2654SOL     OW 8860   6.071   0.759   0.700
 2654SOL    HW1 8861   5.996   0.768   0.635
 2654SOL    HW2 8862   6.098   0.850   0.733
 2655SOL     OW 8863   4.785   5.558   2.981
 2655SOL    HW1 8864   4.859   5.576   2.916
 2655SOL    HW2 8865   4.796   5.616   3.062
 2656SOL     OW 8866   3.705   5.799   3.549
 2656SOL    HW1 8867   3.746   5.873   3.496
 2656SOL    HW2 8868   3.743   5.798   3.641
 2657SOL     OW 8869   1.699   3.683   0.278
 2657SOL    HW1 8870   1.643   3.633   0.211
 2657SOL    HW2 8871   1.791   3.697   0.240
 2658SOL     OW 8872   3.754   5.025   6.451
 2658SOL    HW1 8873   3.701   5.097   6.407
 2658SOL    HW2 8874   3.824   5.065   6.509
 2659SOL     OW 8875   6.611   2.550   4.271
 2659SOL    HW1 8876   6.675   2.474   4.286
 2659SOL    HW2 8877   6.517   2.515   4.276
 2660SOL     OW 8878   0.450   2.062   2.023
 2660SOL    HW1 8879   0.423   2.034   1.931
 2660SOL    HW2 8880   0.538   2.110   2.018
 2661SOL     OW 8881   2.063   1.059   0.659
 2661SOL    HW1 8882   2.044   0.963   0.679
 2661SOL    HW2 8883   2.009   1.088   0.580
 2662SOL     OW 8884   3.075   0.820   2.320
 2662SOL    HW1 8885   3.077   0.765   2.237
 2662SOL    HW2 8886   3.008   0.894   2.310
 2663SOL     OW 8887   4.530   6.667   0.175
 2663SOL    HW1 8888   4.577   6.751   0.206
 2663SOL    HW2 8889   4.471   6.634   0.248
 2664SOL     OW 8890   4.296   3.138   6.053
 2664SOL    HW1 8891   4.367   3.070   6.071
 2664SOL    HW2 8892   4.211   3.109   6.096
 2665SOL     OW 8893   1.875   3.780   4.981
 2665SOL    HW1 8894   1.856   3.878   4.987
 2665SOL    HW2 8895   1.914   3.759   4.891
 2666SOL     OW 8896   2.099   3.929   1.903
 2666SOL    HW1 8897   2.189   3.911   1.863
 2666SOL    HW2 8898   2.079   3.860   1.972
 2667SOL     OW 8899   6.466   3.841   4.530
 2667SOL    HW1 8900   6.372   3.812   4.543
 2667SOL    HW2 8901   6.519   3.769   4.486
 2668SOL     OW 8902   6.417   1.016   4.039
 2668SOL    HW1 8903   6.487   1.062   3.985
 2668SOL    HW2 8904   6.353   0.968   3.979
 2669SOL     OW 8905   2.557   0.840   0.056
 2669SOL    HW1 8906   2.563   0.896   0.138
 2669SOL    HW2 8907   2.577   0.744   0.079
 2670SOL     OW 8908   0.195   0.224   6.533
 2670SOL    HW1 8909   0.275   0.165   6.544
 2670SOL    HW2 8910   0.206   0.281   6.452
 2671SOL     OW 8911   4.089   4.715   6.108
 2671SOL    HW1 8912   4.065   4.626   6.071
 2671SOL    HW2 8913   4.025   4.739   6.181
 2672SOL     OW 8914   3.563   0.586   1.631
 2672SOL    HW1 8915   3.553   0.554   1.725
 2672SOL    HW2 8916   3.582   0.509   1.570
 2673SOL     OW 8917   4.614   0.546   2.786
 2673SOL    HW1 8918   4.534   0.540   2.845
 2673SOL    HW2 8919   4.685   0.600   2.831
 2674SOL     OW 8920   0.701   4.667   2.063
 2674SOL    HW1 8921   0.776   4.674   2.128
 2674SOL    HW2 8922   0.690   4.753   2.015
 2675SOL     OW 8923   5.723   0.385   4.965
 2675SOL    HW1 8924   5.741   0.391   4.867
 2675SOL    HW2 8925   5.643   0.327   4.980
 2676SOL     OW 8926   3.505   3.764   2.835
 2676SOL    HW1 8927   3.583   3.735   2.891
 2676SOL    HW2 8928   3.503   3.864   2.832
 2677SOL     OW 8929   2.156   5.066   1.474
 2677SOL    HW1 8930   2.198   5.133   1.413
 2677SOL    HW2 8931   2.060   5.052   1.447
 2678SOL     OW 8932   5.406   2.126   2.681
 2678SOL    HW1 8933   5.386   2.075   2.764
 2678SOL    HW2 8934   5.347   2.206   2.674
 2679SOL     OW 8935   2.041   4.747   3.651
 2679SOL    HW1 8936   2.137   4.721   3.662
 2679SOL    HW2 8937   2.035   4.829   3.595
 2680SOL     OW 8938   0.300   1.764   0.363
 2680SOL    HW1 8939   0.394   1.758   0.330
 2680SOL    HW2 8940   0.283   1.855   0.400
 2681SOL     OW 8941   1.782   2.250   5.417
 2681SOL    HW1 8942   1.698   2.251   5.472
 2681SOL    HW2 8943   1.835   2.332   5.436
 2682SOL     OW 8944   4.120   4.132   1.595
 2682SOL    HW1 8945   4.153   4.213   1.642
 2682SOL    HW2 8946   4.063   4.159   1.518
 2683SOL     OW 8947   2.659   4.601   2.467
 2683SOL    HW1 8948   2.727   4.673   2.478
 2683SOL    HW2 8949   2.618   4.608   2.376
 2684SOL     OW 8950   5.740   6.710   3.085
 2684SOL    HW1 8951   5.712   6.736   2.992
 2684SOL    HW2 8952   5.805   6.776   3.120
 2685SOL     OW 8953   1.504   5.855   5.631
 2685SOL    HW1 8954   1.505   5.759   5.604
 2685SOL    HW2 8955   1.481   5.862   5.728
 2686SOL     OW 8956   1.079   1.548   4.907
 2686SOL    HW1 8957   1.139   1.504   4.840
 2686SOL    HW2 8958   1.069   1.644   4.884
 2687SOL     OW 8959   3.798   1.325   1.745
 2687SOL    HW1 8960   3.833   1.233   1.726
 2687SOL    HW2 8961   3.835   1.358   1.832
 2688SOL     OW 8962   3.663   3.064   6.061
 2688SOL    HW1 8963   3.709   2.975   6.066
 2688SOL    HW2 8964   3.612   3.070   5.975
 2689SOL     OW 8965   1.169   3.466   2.709
 2689SOL    HW1 8966   1.185   3.458   2.611
 2689SOL    HW2 8967   1.230   3.404   2.758
 2690SOL     OW 8968   3.816   1.494   5.909
 2690SOL    HW1 8969   3.831   1.537   5.997
 2690SOL    HW2 8970   3.721   1.465   5.901
 2691SOL     OW 8971   6.860   4.546   4.186
 2691SOL    HW1 8972   6.773   4.565   4.140
 2691SOL    HW2 8973   6.923   4.622   4.173
 2692SOL     OW 8974   3.330   5.851   2.844
 2692SOL    HW1 8975   3.414   5.855   2.898
 2692SOL    HW2 8976   3.320   5.936   2.792
 2693SOL     OW 8977   2.214   5.604   3.289
 2693SOL    HW1 8978   2.296   5.627   3.238
 2693SOL    HW2 8979   2.201   5.505   3.290
 2694SOL     OW 8980   3.432   6.883   3.902
 2694SOL    HW1 8981   3.468   6.896   3.994
 2694SOL    HW2 8982   3.475   6.949   3.840
 2695SOL     OW 8983   0.286   5.508   3.678
 2695SOL    HW1 8984   0.281   5.547   3.586
 2695SOL    HW2 8985   0.201   5.461   3.699
 2696SOL     OW 8986   5.048   4.261   6.732
 2696SOL    HW1 8987   4.978   4.332   6.724
 2696SOL    HW2 8988   5.006   4.174   6.755
 2697SOL     OW 8989   3.795   1.961   0.395
 2697SOL    HW1 8990   3.715   1.951   0.336
 2697SOL    HW2 8991   3.810   1.876   0.445
 2698SOL     OW 8992   1.759   4.486   6.161
 2698SOL    HW1 8993   1.668   4.454   6.191
 2698SOL    HW2 8994   1.788   4.562   6.219
 2699SOL     OW 8995   3.569   6.379   1.989
 2699SOL    HW1 8996   3.558   6.283   2.016
 2699SOL    HW2 8997   3.647   6.388   1.928
 2700SOL     OW 8998   3.793   1.638   1.696
 2700SOL    HW1 8999   3.786   1.538   1.698
 2700SOL    HW2 9000   3.849   1.669   1.772
 2701SOL     OW 9001   5.314   3.136   5.035
 2701SOL    HW1 9002   5.389   3.100   4.980
 2701SOL    HW2 9003   5.254   3.193   4.977
 2702SOL     OW 9004   2.556   1.322   4.986
 2702SOL    HW1 9005   2.532   1.415   5.015
 2702SOL    HW2 9006   2.544   1.315   4.887
 2703SOL     OW 9007   1.048   0.058   2.023
 2703SOL    HW1 9008   1.125   0.093   2.077
 2703SOL    HW2 9009   1.012   0.131   1.966
 2704SOL     OW 9010   5.320   0.304   4.783
 2704SOL    HW1 9011   5.229   0.273   4.757
 2704SOL    HW2 9012   5.318   0.403   4.799
 2705SOL     OW 9013   6.942   6.929   5.176
 2705SOL    HW1 9014   6.867   6.932   5.110
 2705SOL    HW2 9015   6.923   6.991   5.252
 2706SOL     OW 9016   6.879   3.338   3.528
 2706SOL    HW1 9017   6.962   3.289   3.553
 2706SOL    HW2 9018   6.854   3.400   3.603
 2707SOL     OW 9019   3.818   0.488   3.393
 2707SOL    HW1 9020   3.859   0.524   3.309
 2707SOL    HW2 9021   3.725   0.456   3.374
 2708SOL     OW 9022   6.050   3.053   0.296
 2708SOL    HW1 9023   6.085   3.146   0.287
 2708SOL    HW2 9024   6.100   3.005   0.368
 2709SOL     OW 9025   4.383   1.262   4.135
 2709SOL    HW1 9026   4.356   1.177   4.180
 2709SOL    HW2 9027   4.461   1.302   4.183
 2710SOL     OW 9028   1.149   2.599   3.695
 2710SOL    HW1 9029   1.245   2.587   3.722
 2710SOL    HW2 9030   1.117   2.515   3.652
 2711SOL     OW 9031   3.288   1.919   2.209
 2711SOL    HW1 9032   3.238   1.999   2.243
 2711SOL    HW2 9033   3.341   1.944   2.129
 2712SOL     OW 9034   4.111   5.860   1.756
 2712SOL    HW1 9035   4.014   5.852   1.778
 2712SOL    HW2 9036   4.166   5.819   1.828
 2713SOL     OW 9037   3.170   4.750   6.872
 2713SOL    HW1 9038   3.097   4.691   6.837
 2713SOL    HW2 9039   3.255   4.698   6.876
 2714SOL     OW 9040   2.535   4.750   6.771
 2714SOL    HW1 9041   2.608   4.681   6.775
 2714SOL    HW2 9042   2.488   4.745   6.683
 2715SOL     OW 9043   4.369   0.958   0.949
 2715SOL    HW1 9044   4.310   0.997   1.020
 2715SOL    HW2 9045   4.384   0.861   0.967
 2716SOL     OW 9046   4.101   1.963   3.307
 2716SOL    HW1 9047   4.076   1.869   3.284
 2716SOL    HW2 9048   4.033   2.026   3.270
 2717SOL     OW 9049   0.940   0.733   3.142
 2717SOL    HW1 9050   1.031   0.761   3.110
 2717SOL    HW2 9051   0.892   0.813   3.179
 2718SOL     OW 9052   0.438   0.386   5.733
 2718SOL    HW1 9053   0.395   0.472   5.703
 2718SOL    HW2 9054   0.450   0.387   5.832
 2719SOL     OW 9055   2.064   3.490   2.413
 2719SOL    HW1 9056   2.068   3.436   2.329
 2719SOL    HW2 9057   2.093   3.584   2.395
 2720SOL     OW 9058   2.078   6.682   5.615
 2720SOL    HW1 9059   2.010   6.609   5.626
 2720SOL    HW2 9060   2.169   6.641   5.609
 2721SOL     OW 9061   3.472   6.279   1.694
 2721SOL    HW1 9062   3.436   6.248   1.606
 2721SOL    HW2 9063   3.433   6.224   1.768
 2722SOL     OW 9064   4.870   6.127   6.885
 2722SOL    HW1 9065   4.850   6.092   6.976
 2722SOL    HW2 9066   4.815   6.079   6.818
 2723SOL     OW 9067   2.984   6.629   0.369
 2723SOL    HW1 9068   2.885   6.643   0.366
 2723SOL    HW2 9069   3.004   6.542   0.413
 2724SOL     OW 9070   1.277   6.279   0.999
 2724SOL    HW1 9071   1.189   6.282   1.046
 2724SOL    HW2 9072   1.335   6.353   1.032
 2725SOL     OW 9073   5.336   3.722   5.150
 2725SOL    HW1 9074   5.385   3.748   5.067
 2725SOL    HW2 9075   5.391   3.747   5.230
 2726SOL     OW 9076   6.849   1.259   1.643
 2726SOL    HW1 9077   6.928   1.277   1.584
 2726SOL    HW2 9078   6.877   1.262   1.738
 2727SOL     OW 9079   1.458   4.107   4.565
 2727SOL    HW1 9080   1.405   4.024   4.551
 2727SOL    HW2 9081   1.431   4.176   4.498
 2728SOL     OW 9082   5.831   5.989   5.869
 2728SOL    HW1 9083   5.829   5.925   5.792
 2728SOL    HW2 9084   5.820   5.940   5.955
 2729SOL     OW 9085   5.451   6.006   6.203
 2729SOL    HW1 9086   5.523   5.956   6.251
 2729SOL    HW2 9087   5.474   6.104   6.200
 2730SOL     OW 9088   0.973   5.572   2.016
 2730SOL    HW1 9089   0.937   5.488   2.057
 2730SOL    HW2 9090   0.930   5.587   1.927
 2731SOL     OW 9091   3.452   3.568   4.058
 2731SOL    HW1 9092   3.394   3.611   3.988
 2731SOL    HW2 9093   3.398   3.501   4.109
 2732SOL     OW 9094   5.382   1.523   2.028
 2732SOL    HW1 9095   5.312   1.541   2.096
 2732SOL    HW2 9096   5.463   1.578   2.048
 2733SOL     OW 9097   0.951   0.149   6.163
 2733SOL    HW1 9098   0.940   0.122   6.259
 2733SOL    HW2 9099   0.995   0.076   6.113
 2734SOL     OW 9100   3.079   6.278   1.504
 2734SOL    HW1 9101   3.015   6.332   1.449
 2734SOL    HW2 9102   3.028   6.211   1.557
 2735SOL     OW 9103   0.600   1.089   1.699
 2735SOL    HW1 9104   0.567   1.139   1.779
 2735SOL    HW2 9105   0.521   1.062   1.643
 2736SOL     OW 9106   5.038   5.011   3.500
 2736SOL    HW1 9107   5.054   5.068   3.580
 2736SOL    HW2 9108   4.984   5.061   3.433
 2737SOL     OW 9109   2.395   2.243   6.392
 2737SOL    HW1 9110   2.411   2.326   6.445
 2737SOL    HW2 9111   2.331   2.184   6.441
 2738SOL     OW 9112   5.768   6.625   1.980
 2738SOL    HW1 9113   5.720   6.680   2.048
 2738SOL    HW2 9114   5.860   6.660   1.967
 2739SOL     OW 9115   0.795   5.669   1.810
 2739SOL    HW1 9116   0.877   5.711   1.772
 2739SOL    HW2 9117   0.726   5.660   1.737
 2740SOL     OW 9118   6.350   5.731   3.471
 2740SOL    HW1 9119   6.431   5.789   3.463
 2740SOL    HW2 9120   6.370   5.641   3.433
 2741SOL     OW 9121   1.026   1.372   5.101
 2741SOL    HW1 9122   1.027   1.447   5.034
 2741SOL    HW2 9123   0.960   1.303   5.072
 2742SOL     OW 9124   3.285   5.410   1.507
 2742SOL    HW1 9125   3.206   5.349   1.519
 2742SOL    HW2 9126   3.253   5.504   1.499
 2743SOL     OW 9127   5.509   4.071   2.767
 2743SOL    HW1 9128   5.599   4.113   2.760
 2743SOL    HW2 9129   5.451   4.125   2.828
 2744SOL     OW 9130   3.462   4.170   3.198
 2744SOL    HW1 9131   3.550   4.123   3.205
 2744SOL    HW2 9132   3.431   4.167   3.103
 2745SOL     OW 9133   0.198   0.363   6.285
 2745SOL    HW1 9134   0.260   0.442   6.288
 2745SOL    HW2 9135   0.251   0.279   6.281
 2746SOL     OW 9136   1.835   0.845   4.240
 2746SOL    HW1 9137   1.917   0.837   4.184
 2746SOL    HW2 9138   1.779   0.921   4.206
 2747SOL     OW 9139   4.025   5.642   0.602
 2747SOL    HW1 9140   4.052   5.579   0.675
 2747SOL    HW2 9141   4.078   5.623   0.519
 2748SOL     OW 9142   4.387   0.014   1.651
 2748SOL    HW1 9143   4.400   0.104   1.610
 2748SOL    HW2 9144   4.452   0.002   1.726
 2749SOL     OW 9145   2.369   3.201   0.022
 2749SOL    HW1 9146   2.270   3.195   0.034
 2749SOL    HW2 9147   2.390   3.263   6.964
 2750SOL     OW 9148   2.184   5.879   2.253
 2750SOL    HW1 9149   2.159   5.805   2.191
 2750SOL    HW2 9150   2.102   5.917   2.295
 2751SOL     OW 9151   6.735   3.453   0.981
 2751SOL    HW1 9152   6.734   3.541   0.933
 2751SOL    HW2 9153   6.734   3.468   1.080
 2752SOL     OW 9154   3.379   4.942   6.838
 2752SOL    HW1 9155   3.424   4.961   6.926
 2752SOL    HW2 9156   3.317   4.865   6.849
 2753SOL     OW 9157   6.141   6.204   5.453
 2753SOL    HW1 9158   6.228   6.248   5.476
 2753SOL    HW2 9159   6.134   6.194   5.354
 2754SOL     OW 9160   1.307   0.217   6.162
 2754SOL    HW1 9161   1.288   0.296   6.220
 2754SOL    HW2 9162   1.293   0.133   6.214
 2755SOL     OW 9163   2.376   6.986   2.595
 2755SOL    HW1 9164   2.424   6.916   2.542
 2755SOL    HW2 9165   2.387   0.057   2.550
 2756SOL     OW 9166   4.922   6.521   0.147
 2756SOL    HW1 9167   4.925   6.543   0.245
 2756SOL    HW2 9168   4.967   6.432   0.132
 2757SOL     OW 9169   0.598   4.575   1.580
 2757SOL    HW1 9170   0.585   4.515   1.501
 2757SOL    HW2 9171   0.514   4.627   1.596
 2758SOL     OW 9172   5.108   0.628   5.681
 2758SOL    HW1 9173   5.182   0.576   5.638
 2758SOL    HW2 9174   5.147   0.691   5.747
 2759SOL     OW 9175   5.636   5.910   4.604
 2759SOL    HW1 9176   5.666   5.816   4.586
 2759SOL    HW2 9177   5.536   5.915   4.601
 2760SOL     OW 9178   2.456   5.224   2.531
 2760SOL    HW1 9179   2.531   5.168   2.495
 2760SOL    HW2 9180   2.456   5.313   2.486
 2761SOL     OW 9181   2.489   6.253   2.888
 2761SOL    HW1 9182   2.426   6.273   2.963
 2761SOL    HW2 9183   2.555   6.183   2.917
 2762SOL     OW 9184   1.261   6.901   5.030
 2762SOL    HW1 9185   1.323   6.965   5.076
 2762SOL    HW2 9186   1.221   6.946   4.950
 2763SOL     OW 9187   5.369   1.718   3.467
 2763SOL    HW1 9188   5.348   1.625   3.498
 2763SOL    HW2 9189   5.357   1.725   3.368
 2764SOL     OW 9190   5.958   1.033   2.283
 2764SOL    HW1 9191   6.040   1.043   2.341
 2764SOL    HW2 9192   5.980   0.975   2.205
 2765SOL     OW 9193   6.374   1.262   1.985
 2765SOL    HW1 9194   6.347   1.279   1.891
 2765SOL    HW2 9195   6.341   1.173   2.014
 2766SOL     OW 9196   5.773   0.969   1.916
 2766SOL    HW1 9197   5.858   0.956   1.967
 2766SOL    HW2 9198   5.773   0.910   1.835
 2767SOL     OW 9199   5.422   4.145   6.545
 2767SOL    HW1 9200   5.367   4.154   6.463
 2767SOL    HW2 9201   5.461   4.235   6.569
 2768SOL     OW 9202   4.950   1.727   0.026
 2768SOL    HW1 9203   4.889   1.712   0.104
 2768SOL    HW2 9204   5.040   1.756   0.060
 2769SOL     OW 9205   0.207   4.319   1.937
 2769SOL    HW1 9206   0.191   4.414   1.962
 2769SOL    HW2 9207   0.216   4.263   2.020
 2770SOL     OW 9208   0.747   4.914   1.943
 2770SOL    HW1 9209   0.800   4.995   1.968
 2770SOL    HW2 9210   0.686   4.936   1.866
 2771SOL     OW 9211   5.174   1.350   1.360
 2771SOL    HW1 9212   5.219   1.401   1.287
 2771SOL    HW2 9213   5.116   1.279   1.319
 2772SOL     OW 9214   3.239   2.785   6.988
 2772SOL    HW1 9215   3.315   2.804   6.927
 2772SOL    HW2 9216   3.191   2.870   7.010
 2773SOL     OW 9217   3.949   3.781   6.927
 2773SOL    HW1 9218   3.987   3.843   6.858
 2773SOL    HW2 9219   3.864   3.742   6.893
 2774SOL     OW 9220   5.681   3.156   1.927
 2774SOL    HW1 9221   5.583   3.149   1.909
 2774SOL    HW2 9222   5.730   3.089   1.872
 2775SOL     OW 9223   0.240   5.671   1.733
 2775SOL    HW1 9224   0.335   5.640   1.724
 2775SOL    HW2 9225   0.229   5.757   1.683
 2776SOL     OW 9226   3.266   6.227   6.214
 2776SOL    HW1 9227   3.193   6.253   6.277
 2776SOL    HW2 9228   3.245   6.260   6.122
 2777SOL     OW 9229   3.118   1.428   2.398
 2777SOL    HW1 9230   3.191   1.364   2.421
 2777SOL    HW2 9231   3.158   1.512   2.360
 2778SOL     OW 9232   2.367   2.179   5.556
 2778SOL    HW1 9233   2.400   2.269   5.585
 2778SOL    HW2 9234   2.291   2.190   5.491
 2779SOL     OW 9235   5.289   0.357   6.703
 2779SOL    HW1 9236   5.387   0.344   6.716
 2779SOL    HW2 9237   5.264   0.337   6.609
 2780SOL     OW 9238   5.473   5.585   6.680
 2780SOL    HW1 9239   5.527   5.670   6.684
 2780SOL    HW2 9240   5.533   5.507   6.694
 2781SOL     OW 9241   5.754   4.690   1.077
 2781SOL    HW1 9242   5.742   4.787   1.096
 2781SOL    HW2 9243   5.786   4.678   0.983
 2782SOL     OW 9244   2.740   2.846   6.350
 2782SOL    HW1 9245   2.746   2.874   6.255
 2782SOL    HW2 9246   2.797   2.765   6.366
 2783SOL     OW 9247   6.492   4.865   5.530
 2783SOL    HW1 9248   6.570   4.897   5.583
 2783SOL    HW2 9249   6.521   4.842   5.437
 2784SOL     OW 9250   2.330   1.939   1.485
 2784SOL    HW1 9251   2.296   2.003   1.416
 2784SOL    HW2 9252   2.426   1.957   1.503
 2785SOL     OW 9253   6.486   0.583   0.545
 2785SOL    HW1 9254   6.432   0.565   0.463
 2785SOL    HW2 9255   6.428   0.575   0.626
 2786SOL     OW 9256   4.088   6.475   1.351
 2786SOL    HW1 9257   4.127   6.560   1.319
 2786SOL    HW2 9258   4.152   6.400   1.336
 2787SOL     OW 9259   2.316   2.937   5.598
 2787SOL    HW1 9260   2.299   2.932   5.499
 2787SOL    HW2 9261   2.331   2.845   5.634
 2788SOL     OW 9262   1.964   4.555   0.633
 2788SOL    HW1 9263   2.047   4.557   0.689
 2788SOL    HW2 9264   1.918   4.644   0.639
 2789SOL     OW 9265   0.496   2.010   4.183
 2789SOL    HW1 9266   0.561   2.014   4.259
 2789SOL    HW2 9267   0.467   2.103   4.159
 2790SOL     OW 9268   3.832   5.504   2.848
 2790SOL    HW1 9269   3.894   5.471   2.920
 2790SOL    HW2 9270   3.738   5.485   2.873
 2791SOL     OW 9271   1.653   3.321   5.057
 2791SOL    HW1 9272   1.735   3.331   5.113
 2791SOL    HW2 9273   1.628   3.411   5.019
 2792SOL     OW 9274   0.651   1.635   4.871
 2792SOL    HW1 9275   0.553   1.624   4.858
 2792SOL    HW2 9276   0.683   1.715   4.821
 2793SOL     OW 9277   4.972   1.862   2.622
 2793SOL    HW1 9278   5.011   1.884   2.711
 2793SOL    HW2 9279   4.991   1.766   2.600
 2794SOL     OW 9280   0.773   0.349   0.563
 2794SOL    HW1 9281   0.843   0.321   0.497
 2794SOL    HW2 9282   0.814   0.408   0.632
 2795SOL     OW 9283   3.100   3.779   1.562
 2795SOL    HW1 9284   3.127   3.868   1.599
 2795SOL    HW2 9285   3.020   3.790   1.504
 2796SOL     OW 9286   5.632   4.259   2.495
 2796SOL    HW1 9287   5.536   4.232   2.491
 2796SOL    HW2 9288   5.639   4.355   2.522
 2797SOL     OW 9289   5.172   5.271   4.976
 2797SOL    HW1 9290   5.093   5.211   4.966
 2797SOL    HW2 9291   5.222   5.246   5.060
 2798SOL     OW 9292   0.944   3.243   3.607
 2798SOL    HW1 9293   0.948   3.245   3.507
 2798SOL    HW2 9294   0.941   3.148   3.638
 2799SOL     OW 9295   6.477   4.909   6.315
 2799SOL    HW1 9296   6.404   4.851   6.280
 2799SOL    HW2 9297   6.481   4.902   6.415
 2800SOL     OW 9298   2.855   4.883   6.821
 2800SOL    HW1 9299   2.823   4.969   6.783
 2800SOL    HW2 9300   2.777   4.832   6.858
 2801SOL     OW 9301   5.690   5.692   1.719
 2801SOL    HW1 9302   5.598   5.658   1.700
 2801SOL    HW2 9303   5.758   5.623   1.693
 2802SOL     OW 9304   4.232   1.784   6.035
 2802SOL    HW1 9305   4.327   1.794   6.007
 2802SOL    HW2 9306   4.207   1.859   6.096
 2803SOL     OW 9307   2.553   6.780   6.347
 2803SOL    HW1 9308   2.581   6.723   6.424
 2803SOL    HW2 9309   2.465   6.823   6.367
 2804SOL     OW 9310   0.028   4.354   3.458
 2804SOL    HW1 9311   0.114   4.324   3.417
 2804SOL    HW2 9312   0.044   4.433   3.517
 2805SOL     OW 9313   4.991   3.384   0.822
 2805SOL    HW1 9314   4.907   3.421   0.784
 2805SOL    HW2 9315   4.970   3.308   0.883
 2806SOL     OW 9316   6.555   5.425   2.852
 2806SOL    HW1 9317   6.548   5.519   2.884
 2806SOL    HW2 9318   6.650   5.406   2.827
 2807SOL     OW 9319   3.989   4.824   3.199
 2807SOL    HW1 9320   4.076   4.809   3.152
 2807SOL    HW2 9321   3.980   4.759   3.274
 2808SOL     OW 9322   5.544   1.083   3.734
 2808SOL    HW1 9323   5.494   1.002   3.765
 2808SOL    HW2 9324   5.496   1.124   3.657
 2809SOL     OW 9325   5.030   2.397   0.616
 2809SOL    HW1 9326   5.102   2.391   0.547
 2809SOL    HW2 9327   5.070   2.423   0.704
 2810SOL     OW 9328   2.534   0.100   5.435
 2810SOL    HW1 9329   2.595   0.170   5.473
 2810SOL    HW2 9330   2.569   0.009   5.458
 2811SOL     OW 9331   0.665   1.442   3.219
 2811SOL    HW1 9332   0.599   1.374   3.253
 2811SOL    HW2 9333   0.634   1.479   3.132
 2812SOL     OW 9334   4.943   3.789   2.092
 2812SOL    HW1 9335   4.883   3.863   2.061
 2812SOL    HW2 9336   4.983   3.743   2.013
 2813SOL     OW 9337   5.791   0.345   6.428
 2813SOL    HW1 9338   5.849   0.400   6.487
 2813SOL    HW2 9339   5.729   0.404   6.377
 2814SOL     OW 9340   4.462   3.987   5.592
 2814SOL    HW1 9341   4.426   3.964   5.683
 2814SOL    HW2 9342   4.561   3.972   5.592
 2815SOL     OW 9343   0.079   1.117   4.729
 2815SOL    HW1 9344   0.167   1.071   4.730
 2815SOL    HW2 9345   0.040   1.113   4.637
 2816SOL     OW 9346   5.899   0.159   4.296
 2816SOL    HW1 9347   5.919   0.154   4.198
 2816SOL    HW2 9348   5.894   0.255   4.324
 2817SOL     OW 9349   1.707   1.244   1.428
 2817SOL    HW1 9350   1.619   1.197   1.422
 2817SOL    HW2 9351   1.691   1.341   1.447
 2818SOL     OW 9352   6.731   4.646   6.018
 2818SOL    HW1 9353   6.774   4.567   5.974
 2818SOL    HW2 9354   6.646   4.617   6.062
 2819SOL     OW 9355   0.261   3.205   0.284
 2819SOL    HW1 9356   0.344   3.171   0.329
 2819SOL    HW2 9357   0.187   3.138   0.297
 2820SOL     OW 9358   0.086   3.152   2.814
 2820SOL    HW1 9359   0.026   3.210   2.868
 2820SOL    HW2 9360   0.168   3.203   2.788
 2821SOL     OW 9361   1.731   4.527   5.100
 2821SOL    HW1 9362   1.812   4.468   5.102
 2821SOL    HW2 9363   1.673   4.501   5.023
 2822SOL     OW 9364   5.199   2.090   6.994
 2822SOL    HW1 9365   5.228   2.166   0.034
 2822SOL    HW2 9366   5.203   2.118   6.898
 2823SOL     OW 9367   1.903   0.092   2.181
 2823SOL    HW1 9368   1.850   0.013   2.213
 2823SOL    HW2 9369   1.966   0.121   2.254
 2824SOL     OW 9370   2.602   1.072   5.492
 2824SOL    HW1 9371   2.518   1.119   5.462
 2824SOL    HW2 9372   2.681   1.131   5.473
 2825SOL     OW 9373   6.561   6.421   1.340
 2825SOL    HW1 9374   6.494   6.353   1.311
 2825SOL    HW2 9375   6.554   6.436   1.438
 2826SOL     OW 9376   5.083   1.628   4.861
 2826SOL    HW1 9377   4.994   1.584   4.854
 2826SOL    HW2 9378   5.144   1.594   4.790
 2827SOL     OW 9379   6.161   1.354   5.349
 2827SOL    HW1 9380   6.097   1.370   5.273
 2827SOL    HW2 9381   6.174   1.256   5.362
 2828SOL     OW 9382   4.293   0.635   5.785
 2828SOL    HW1 9383   4.310   0.731   5.766
 2828SOL    HW2 9384   4.349   0.578   5.725
 2829SOL     OW 9385   3.644   6.520   6.027
 2829SOL    HW1 9386   3.637   6.585   6.103
 2829SOL    HW2 9387   3.679   6.433   6.061
 2830SOL     OW 9388   4.326   3.500   0.032
 2830SOL    HW1 9389   4.234   3.540   0.025
 2830SOL    HW2 9390   4.365   3.521   0.121
 2831SOL     OW 9391   5.629   6.216   3.879
 2831SOL    HW1 9392   5.536   6.196   3.908
 2831SOL    HW2 9393   5.690   6.211   3.959
 2832SOL     OW 9394   0.344   1.041   1.560
 2832SOL    HW1 9395   0.282   1.078   1.491
 2832SOL    HW2 9396   0.296   1.033   1.647
 2833SOL     OW 9397   6.005   2.653   2.229
 2833SOL    HW1 9398   5.980   2.738   2.182
 2833SOL    HW2 9399   5.924   2.616   2.275
 2834SOL     OW 9400   3.465   1.660   5.340
 2834SOL    HW1 9401   3.534   1.732   5.348
 2834SOL    HW2 9402   3.496   1.579   5.391
 2835SOL     OW 9403   0.288   6.841   2.618
 2835SOL    HW1 9404   0.255   6.914   2.558
 2835SOL    HW2 9405   0.230   6.761   2.608
 2836SOL     OW 9406   6.998   0.071   1.460
 2836SOL    HW1 9407   0.038   0.000   1.501
 2836SOL    HW2 9408   6.956   0.126   1.532
 2837SOL     OW 9409   5.640   3.964   3.812
 2837SOL    HW1 9410   5.682   3.873   3.805
 2837SOL    HW2 9411   5.569   3.973   3.742
 2838SOL     OW 9412   2.900   5.066   2.081
 2838SOL    HW1 9413   2.916   5.115   2.167
 2838SOL    HW2 9414   2.958   4.984   2.079
 2839SOL     OW 9415   5.522   1.787   1.164
 2839SOL    HW1 9416   5.497   1.814   1.071
 2839SOL    HW2 9417   5.580   1.705   1.160
 2840SOL     OW 9418   6.528   1.318   5.562
 2840SOL    HW1 9419   6.499   1.325   5.466
 2840SOL    HW2 9420   6.514   1.224   5.594
 2841SOL     OW 9421   0.771   5.678   1.111
 2841SOL    HW1 9422   0.835   5.663   1.035
 2841SOL    HW2 9423   0.820   5.723   1.186
 2842SOL     OW 9424   6.740   3.163   3.783
 2842SOL    HW1 9425   6.754   3.067   3.758
 2842SOL    HW2 9426   6.827   3.211   3.781
 2843SOL     OW 9427   3.725   1.142   4.706
 2843SOL    HW1 9428   3.784   1.064   4.683
 2843SOL    HW2 9429   3.724   1.207   4.631
 2844SOL     OW 9430   0.477   4.161   6.866
 2844SOL    HW1 9431   0.405   4.097   6.838
 2844SOL    HW2 9432   0.521   4.199   6.784
 2845SOL     OW 9433   0.224   4.594   6.486
 2845SOL    HW1 9434   0.185   4.640   6.407
 2845SOL    HW2 9435   0.322   4.578   6.471
 2846SOL     OW 9436   4.879   1.592   6.413
 2846SOL    HW1 9437   4.803   1.537   6.377
 2846SOL    HW2 9438   4.964   1.564   6.368
 2847SOL     OW 9439   6.345   4.661   4.221
 2847SOL    HW1 9440   6.383   4.738   4.168
 2847SOL    HW2 9441   6.247   4.654   4.203
 2848SOL     OW 9442   0.717   5.133   4.702
 2848SOL    HW1 9443   0.653   5.181   4.763
 2848SOL    HW2 9444   0.697   5.035   4.703
 2849SOL     OW 9445   2.762   1.689   0.984
 2849SOL    HW1 9446   2.779   1.779   1.024
 2849SOL    HW2 9447   2.701   1.636   1.044
 2850SOL     OW 9448   3.615   0.035   0.711
 2850SOL    HW1 9449   3.630   0.082   0.624
 2850SOL    HW2 9450   3.689   6.987   0.727
 2851SOL     OW 9451   0.989   4.681   5.520
 2851SOL    HW1 9452   0.945   4.684   5.610
 2851SOL    HW2 9453   1.082   4.718   5.526
 2852SOL     OW 9454   6.639   3.240   6.146
 2852SOL    HW1 9455   6.673   3.334   6.150
 2852SOL    HW2 9456   6.620   3.215   6.051
 2853SOL     OW 9457   3.602   3.053   0.880
 2853SOL    HW1 9458   3.516   3.004   0.893
 2853SOL    HW2 9459   3.671   3.018   0.944
 2854SOL     OW 9460   2.682   0.614   4.258
 2854SOL    HW1 9461   2.675   0.517   4.234
 2854SOL    HW2 9462   2.590   0.649   4.280
 2855SOL     OW 9463   2.006   0.958   5.184
 2855SOL    HW1 9464   2.005   0.888   5.113
 2855SOL    HW2 9465   2.043   1.043   5.147
 2856SOL     OW 9466   2.578   2.816   5.367
 2856SOL    HW1 9467   2.651   2.844   5.430
 2856SOL    HW2 9468   2.570   2.882   5.293
 2857SOL     OW 9469   3.019   2.413   1.404
 2857SOL    HW1 9470   2.942   2.476   1.397
 2857SOL    HW2 9471   3.007   2.338   1.339
 2858SOL     OW 9472   6.126   2.984   2.765
 2858SOL    HW1 9473   6.208   3.037   2.788
 2858SOL    HW2 9474   6.147   2.887   2.767
 2859SOL     OW 9475   5.039   0.518   1.092
 2859SOL    HW1 9476   4.951   0.566   1.100
 2859SOL    HW2 9477   5.111   0.585   1.074
 2860SOL     OW 9478   4.096   1.742   1.693
 2860SOL    HW1 9479   4.071   1.646   1.705
 2860SOL    HW2 9480   4.142   1.775   1.775
 2861SOL     OW 9481   3.580   5.758   5.444
 2861SOL    HW1 9482   3.653   5.815   5.479
 2861SOL    HW2 9483   3.496   5.775   5.496
 2862SOL     OW 9484   5.424   1.069   4.031
 2862SOL    HW1 9485   5.447   0.976   4.001
 2862SOL    HW2 9486   5.388   1.121   3.953
 2863SOL     OW 9487   6.378   1.525   6.818
 2863SOL    HW1 9488   6.358   1.550   6.723
 2863SOL    HW2 9489   6.448   1.585   6.854
 2864SOL     OW 9490   3.860   0.539   0.907
 2864SOL    HW1 9491   3.795   0.588   0.965
 2864SOL    HW2 9492   3.851   0.440   0.922
 2865SOL     OW 9493   4.522   4.454   5.227
 2865SOL    HW1 9494   4.474   4.452   5.139
 2865SOL    HW2 9495   4.608   4.504   5.216
 2866SOL     OW 9496   0.001   6.074   6.462
 2866SOL    HW1 9497   0.036   5.984   6.436
 2866SOL    HW2 9498   6.988   6.122   6.380
 2867SOL     OW 9499   6.365   4.898   3.049
 2867SOL    HW1 9500   6.374   4.799   3.038
 2867SOL    HW2 9501   6.269   4.923   3.056
 2868SOL     OW 9502   1.194   4.409   4.984
 2868SOL    HW1 9503   1.112   4.465   4.965
 2868SOL    HW2 9504   1.209   4.345   4.909
 2869SOL     OW 9505   5.557   0.468   1.963
 2869SOL    HW1 9506   5.576   0.552   2.014
 2869SOL    HW2 9507   5.460   0.447   1.968
 2870SOL     OW 9508   6.464   2.211   3.155
 2870SOL    HW1 9509   6.377   2.253   3.129
 2870SOL    HW2 9510   6.448   2.124   3.200
 2871SOL     OW 9511   1.661   1.925   6.088
 2871SOL    HW1 9512   1.724   1.970   6.025
 2871SOL    HW2 9513   1.708   1.904   6.174
 2872SOL     OW 9514   2.757   0.543   3.925
 2872SOL    HW1 9515   2.807   0.491   3.856
 2872SOL    HW2 9516   2.821   0.577   3.994
 2873SOL     OW 9517   1.111   5.173   2.240
 2873SOL    HW1 9518   1.200   5.197   2.200
 2873SOL    HW2 9519   1.119   5.170   2.340
 2874SOL     OW 9520   5.616   3.655   2.417
 2874SOL    HW1 9521   5.563   3.717   2.474
 2874SOL    HW2 9522   5.605   3.681   2.321
 2875SOL     OW 9523   4.020   5.996   6.210
 2875SOL    HW1 9524   3.950   6.042   6.265
 2875SOL    HW2 9525   3.978   5.956   6.129
 2876SOL     OW 9526   0.467   1.031   1.243
 2876SOL    HW1 9527   0.417   1.104   1.289
 2876SOL    HW2 9528   0.502   0.967   1.311
 2877SOL     OW 9529   2.907   2.792   5.361
 2877SOL    HW1 9530   2.982   2.822   5.301
 2877SOL    HW2 9531   2.867   2.708   5.324
 2878SOL     OW 9532   2.396   4.774   5.070
 2878SOL    HW1 9533   2.493   4.780   5.095
 2878SOL    HW2 9534   2.340   4.813   5.143
 2879SOL     OW 9535   5.341   5.017   0.300
 2879SOL    HW1 9536   5.309   5.064   0.383
 2879SOL    HW2 9537   5.426   4.968   0.321
 2880SOL     OW 9538   0.599   6.322   1.950
 2880SOL    HW1 9539   0.544   6.238   1.951
 2880SOL    HW2 9540   0.558   6.388   1.887
 2881SOL     OW 9541   6.836   6.358   0.990
 2881SOL    HW1 9542   6.780   6.419   1.046
 2881SOL    HW2 9543   6.837   6.267   1.031
 2882SOL     OW 9544   6.982   3.339   2.170
 2882SOL    HW1 9545   0.027   3.284   2.116
 2882SOL    HW2 9546   6.993   3.436   2.145
 2883SOL     OW 9547   3.718   6.934   2.440
 2883SOL    HW1 9548   3.790   6.987   2.396
 2883SOL    HW2 9549   3.669   6.992   2.506
 2884SOL     OW 9550   0.864   6.288   3.297
 2884SOL    HW1 9551   0.850   6.295   3.198
 2884SOL    HW2 9552   0.801   6.349   3.344
 2885SOL     OW 9553   0.725   2.175   2.423
 2885SOL    HW1 9554   0.817   2.212   2.409
 2885SOL    HW2 9555   0.664   2.208   2.351
 2886SOL     OW 9556   2.310   2.044   6.693
 2886SOL    HW1 9557   2.340   2.123   6.747
 2886SOL    HW2 9558   2.214   2.025   6.712
 2887SOL     OW 9559   1.385   0.143   4.479
 2887SOL    HW1 9560   1.482   0.166   4.487
 2887SOL    HW2 9561   1.376   0.046   4.455
 2888SOL     OW 9562   5.845   4.785   6.850
 2888SOL    HW1 9563   5.848   4.882   6.872
 2888SOL    HW2 9564   5.935   4.756   6.818
 2889SOL     OW 9565   0.645   0.376   1.485
 2889SOL    HW1 9566   0.630   0.465   1.443
 2889SOL    HW2 9567   0.557   0.337   1.514
 2890SOL     OW 9568   4.421   0.497   1.656
 2890SOL    HW1 9569   4.493   0.483   1.724
 2890SOL    HW2 9570   4.332   0.479   1.697
 2891SOL     OW 9571   1.907   4.429   3.908
 2891SOL    HW1 9572   2.004   4.428   3.883
 2891SOL    HW2 9573   1.890   4.359   3.978
 2892SOL     OW 9574   4.440   3.960   6.943
 2892SOL    HW1 9575   4.530   3.924   6.967
 2892SOL    HW2 9576   4.385   3.971   0.008
 2893SOL     OW 9577   2.443   0.127   4.953
 2893SOL    HW1 9578   2.541   0.135   4.932
 2893SOL    HW2 9579   2.401   0.217   4.946
 2894SOL     OW 9580   3.201   3.058   0.237
 2894SOL    HW1 9581   3.251   3.064   0.150
 2894SOL    HW2 9582   3.103   3.055   0.218
 2895SOL     OW 9583   3.988   3.191   6.627
 2895SOL    HW1 9584   3.904   3.138   6.635
 2895SOL    HW2 9585   4.064   3.138   6.664
 2896SOL     OW 9586   1.963   5.394   0.096
 2896SOL    HW1 9587   1.957   5.479   0.148
 2896SOL    HW2 9588   1.921   5.320   0.149
 2897SOL     OW 9589   2.659   6.154   3.258
 2897SOL    HW1 9590   2.567   6.119   3.274
 2897SOL    HW2 9591   2.657   6.254   3.253
 2898SOL     OW 9592   4.104   5.153   1.688
 2898SOL    HW1 9593   4.153   5.221   1.633
 2898SOL    HW2 9594   4.166   5.114   1.755
 2899SOL     OW 9595   0.027   0.064   6.683
 2899SOL    HW1 9596   0.083   0.121   6.623
 2899SOL    HW2 9597   6.994   0.123   6.746
 2900SOL     OW 9598   1.146   5.207   5.780
 2900SOL    HW1 9599   1.212   5.137   5.807
 2900SOL    HW2 9600   1.133   5.204   5.681
 2901SOL     OW 9601   3.116   0.663   2.091
 2901SOL    HW1 9602   3.019   0.661   2.068
 2901SOL    HW2 9603   3.141   0.577   2.136
 2902SOL     OW 9604   5.306   5.972   0.867
 2902SOL    HW1 9605   5.226   6.029   0.885
 2902SOL    HW2 9606   5.384   6.005   0.920
 2903SOL     OW 9607   2.738   1.168   2.098
 2903SOL    HW1 9608   2.707   1.250   2.144
 2903SOL    HW2 9609   2.837   1.158   2.110
 2904SOL     OW 9610   2.131   2.906   5.037
 2904SOL    HW1 9611   2.143   2.807   5.022
 2904SOL    HW2 9612   2.219   2.947   5.059
 2905SOL     OW 9613   1.533   1.730   1.838
 2905SOL    HW1 9614   1.504   1.821   1.808
 2905SOL    HW2 9615   1.594   1.739   1.917
 2906SOL     OW 9616   5.483   5.554   2.112
 2906SOL    HW1 9617   5.429   5.519   2.189
 2906SOL    HW2 9618   5.468   5.496   2.032
 2907SOL     OW 9619   6.950   1.403   5.191
 2907SOL    HW1 9620   7.014   1.339   5.149
 2907SOL    HW2 9621   6.879   1.428   5.124
 2908SOL     OW 9622   3.788   6.251   4.185
 2908SOL    HW1 9623   3.881   6.254   4.149
 2908SOL    HW2 9624   3.738   6.175   4.144
 2909SOL     OW 9625   1.705   5.538   4.493
 2909SOL    HW1 9626   1.688   5.578   4.583
 2909SOL    HW2 9627   1.666   5.446   4.490
 2910SOL     OW 9628   4.333   6.087   5.411
 2910SOL    HW1 9629   4.296   6.077   5.503
 2910SOL    HW2 9630   4.268   6.052   5.344
 2911SOL     OW 9631   1.993   4.547   3.457
 2911SOL    HW1 9632   1.964   4.598   3.538
 2911SOL    HW2 9633   1.917   4.539   3.393
 2912SOL     OW 9634   2.888   6.013   0.103
 2912SOL    HW1 9635   2.847   6.099   0.072
 2912SOL    HW2 9636   2.883   6.008   0.203
 2913SOL     OW 9637   1.497   3.363   2.554
 2913SOL    HW1 9638   1.468   3.450   2.514
 2913SOL    HW2 9639   1.590   3.341   2.523
 2914SOL     OW 9640   5.720   5.046   6.272
 2914SOL    HW1 9641   5.737   5.024   6.177
 2914SOL    HW2 9642   5.645   5.112   6.279
 2915SOL     OW 9643   4.131   1.880   4.073
 2915SOL    HW1 9644   4.081   1.846   3.993
 2915SOL    HW2 9645   4.139   1.979   4.067
 2916SOL     OW 9646   6.284   4.958   5.265
 2916SOL    HW1 9647   6.217   4.922   5.200
 2916SOL    HW2 9648   6.240   5.027   5.322
 2917SOL     OW 9649   4.764   0.301   1.411
 2917SOL    HW1 9650   4.781   0.295   1.313
 2917SOL    HW2 9651   4.743   0.395   1.435
 2918SOL     OW 9652   0.307   4.037   3.979
 2918SOL    HW1 9653   0.221   4.039   3.929
 2918SOL    HW2 9654   0.370   3.973   3.935
 2919SOL     OW 9655   5.722   6.114   0.579
 2919SOL    HW1 9656   5.629   6.114   0.616
 2919SOL    HW2 9657   5.774   6.190   0.620
 2920SOL     OW 9658   3.926   1.781   2.480
 2920SOL    HW1 9659   3.834   1.801   2.446
 2920SOL    HW2 9660   3.994   1.820   2.418
 2921SOL     OW 9661   0.414   1.096   3.072
 2921SOL    HW1 9662   0.496   1.123   3.022
 2921SOL    HW2 9663   0.333   1.117   3.017
 2922SOL     OW 9664   4.977   0.250   5.531
 2922SOL    HW1 9665   4.889   0.253   5.484
 2922SOL    HW2 9666   5.017   0.159   5.520
 2923SOL     OW 9667   6.629   5.303   2.109
 2923SOL    HW1 9668   6.557   5.270   2.170
 2923SOL    HW2 9669   6.624   5.403   2.102
 2924SOL     OW 9670   0.415   1.338   5.330
 2924SOL    HW1 9671   0.500   1.372   5.290
 2924SOL    HW2 9672   0.388   1.397   5.407
 2925SOL     OW 9673   5.652   3.135   1.615
 2925SOL    HW1 9674   5.558   3.130   1.646
 2925SOL    HW2 9675   5.658   3.099   1.522
 2926SOL     OW 9676   6.811   2.241   4.644
 2926SOL    HW1 9677   6.739   2.217   4.579
 2926SOL    HW2 9678   6.900   2.217   4.606
 2927SOL     OW 9679   1.427   2.365   1.903
 2927SOL    HW1 9680   1.481   2.449   1.910
 2927SOL    HW2 9681   1.454   2.315   1.821
 2928SOL     OW 9682   6.395   0.442   0.080
 2928SOL    HW1 9683   6.351   0.497   0.008
 2928SOL    HW2 9684   6.470   0.389   0.041
 2929SOL     OW 9685   0.871   0.056   6.409
 2929SOL    HW1 9686   0.866   6.977   6.384
 2929SOL    HW2 9687   0.795   0.105   6.367
 2930SOL     OW 9688   4.868   0.704   4.988
 2930SOL    HW1 9689   4.796   0.717   4.920
 2930SOL    HW2 9690   4.934   0.778   4.981
 2931SOL     OW 9691   4.731   6.599   6.745
 2931SOL    HW1 9692   4.724   6.573   6.841
 2931SOL    HW2 9693   4.647   6.644   6.716
 2932SOL     OW 9694   1.354   3.873   1.312
 2932SOL    HW1 9695   1.441   3.917   1.331
 2932SOL    HW2 9696   1.281   3.922   1.360
 2933SOL     OW 9697   5.487   2.681   3.920
 2933SOL    HW1 9698   5.480   2.619   3.997
 2933SOL    HW2 9699   5.568   2.659   3.865
 2934SOL     OW 9700   2.808   0.630   0.026
 2934SOL    HW1 9701   2.821   0.637   6.945
 2934SOL    HW2 9702   2.713   0.610   0.046
 2935SOL     OW 9703   5.870   3.325   1.118
 2935SOL    HW1 9704   5.795   3.375   1.074
 2935SOL    HW2 9705   5.952   3.383   1.118
 2936SOL     OW 9706   4.491   5.708   0.078
 2936SOL    HW1 9707   4.552   5.691   0.155
 2936SOL    HW2 9708   4.398   5.724   0.112
 2937SOL     OW 9709   3.508   5.726   0.432
 2937SOL    HW1 9710   3.588   5.719   0.492
 2937SOL    HW2 9711   3.536   5.704   0.338
 2938SOL     OW 9712   5.292   5.598   5.217
 2938SOL    HW1 9713   5.227   5.656   5.168
 2938SOL    HW2 9714   5.268   5.595   5.314
 2939SOL     OW 9715   6.322   6.622   5.326
 2939SOL    HW1 9716   6.420   6.622   5.348
 2939SOL    HW2 9717   6.277   6.694   5.379
 2940SOL     OW 9718   5.403   6.975   5.455
 2940SOL    HW1 9719   5.497   6.997   5.426
 2940SOL    HW2 9720   5.405   6.915   5.534
 2941SOL     OW 9721   0.570   2.276   5.071
 2941SOL    HW1 9722   0.587   2.280   5.169
 2941SOL    HW2 9723   0.549   2.182   5.044
 2942SOL     OW 9724   3.768   0.399   2.489
 2942SOL    HW1 9725   3.858   0.397   2.444
 2942SOL    HW2 9726   3.747   0.492   2.516
 2943SOL     OW 9727   5.822   3.494   3.246
 2943SOL    HW1 9728   5.880   3.575   3.252
 2943SOL    HW2 9729   5.829   3.456   3.154
 2944SOL     OW 9730   3.708   5.143   5.112
 2944SOL    HW1 9731   3.714   5.072   5.041
 2944SOL    HW2 9732   3.758   5.114   5.193
 2945SOL     OW 9733   3.469   3.364   3.487
 2945SOL    HW1 9734   3.433   3.312   3.409
 2945SOL    HW2 9735   3.395   3.420   3.525
 2946SOL     OW 9736   6.863   5.754   5.672
 2946SOL    HW1 9737   6.839   5.673   5.619
 2946SOL    HW2 9738   6.794   5.825   5.657
 2947SOL     OW 9739   6.669   3.889   6.940
 2947SOL    HW1 9740   6.768   3.885   6.927
 2947SOL    HW2 9741   6.635   3.799   6.966
 2948SOL     OW 9742   6.120   4.052   4.740
 2948SOL    HW1 9743   6.154   4.066   4.833
 2948SOL    HW2 9744   6.043   4.114   4.724
 2949SOL     OW 9745   1.420   6.548   0.363
 2949SOL    HW1 9746   1.469   6.627   0.398
 2949SOL    HW2 9747   1.429   6.544   0.263
 2950SOL     OW 9748   5.928   3.473   4.233
 2950SOL    HW1 9749   5.942   3.472   4.332
 2950SOL    HW2 9750   5.989   3.541   4.192
 2951SOL     OW 9751   0.516   1.299   0.954
 2951SOL    HW1 9752   0.421   1.314   0.982
 2951SOL    HW2 9753   0.572   1.278   1.034
 2952SOL     OW 9754   1.596   3.997   2.833
 2952SOL    HW1 9755   1.518   4.001   2.771
 2952SOL    HW2 9756   1.598   4.079   2.890
 2953SOL     OW 9757   4.794   2.809   1.608
 2953SOL    HW1 9758   4.809   2.741   1.536
 2953SOL    HW2 9759   4.700   2.801   1.642
 2954SOL     OW 9760   6.566   6.486   2.737
 2954SOL    HW1 9761   6.601   6.529   2.820
 2954SOL    HW2 9762   6.494   6.421   2.761
 2955SOL     OW 9763   0.653   3.067   0.542
 2955SOL    HW1 9764   0.606   3.021   0.618
 2955SOL    HW2 9765   0.741   3.102   0.574
 2956SOL     OW 9766   0.144   5.137   3.024
 2956SOL    HW1 9767   0.233   5.177   3.001
 2956SOL    HW2 9768   0.158   5.047   3.064
 2957SOL     OW 9769   0.418   3.559   1.482
 2957SOL    HW1 9770   0.518   3.553   1.490
 2957SOL    HW2 9771   0.392   3.552   1.386
 2958SOL     OW 9772   1.596   4.642   5.666
 2958SOL    HW1 9773   1.568   4.561   5.615
 2958SOL    HW2 9774   1.648   4.614   5.747
 2959SOL     OW 9775   4.856   5.437   6.535
 2959SOL    HW1 9776   4.781   5.502   6.523
 2959SOL    HW2 9777   4.941   5.488   6.548
 2960SOL     OW 9778   2.309   2.133   0.016
 2960SOL    HW1 9779   2.315   2.184   6.949
 2960SOL    HW2 9780   2.370   2.054   0.012
 2961SOL     OW 9781   5.676   3.821   4.326
 2961SOL    HW1 9782   5.775   3.818   4.312
 2961SOL    HW2 9783   5.640   3.907   4.290
 2962SOL     OW 9784   4.214   1.224   3.449
 2962SOL    HW1 9785   4.275   1.303   3.448
 2962SOL    HW2 9786   4.242   1.161   3.521
 2963SOL     OW 9787   1.803   1.424   5.234
 2963SOL    HW1 9788   1.773   1.466   5.319
 2963SOL    HW2 9789   1.774   1.480   5.156
 2964SOL     OW 9790   2.103   6.350   1.483
 2964SOL    HW1 9791   2.165   6.342   1.405
 2964SOL    HW2 9792   2.148   6.314   1.565
 2965SOL     OW 9793   0.265   1.504   5.566
 2965SOL    HW1 9794   0.194   1.565   5.531
 2965SOL    HW2 9795   0.336   1.558   5.612
 2966SOL     OW 9796   5.019   4.929   4.035
 2966SOL    HW1 9797   4.934   4.938   3.982
 2966SOL    HW2 9798   5.039   5.016   4.080
 2967SOL     OW 9799   5.719   2.777   3.515
 2967SOL    HW1 9800   5.632   2.810   3.476
 2967SOL    HW2 9801   5.786   2.851   3.515
 2968SOL     OW 9802   0.507   3.829   4.177
 2968SOL    HW1 9803   0.529   3.888   4.255
 2968SOL    HW2 9804   0.424   3.863   4.133
 2969SOL     OW 9805   5.357   2.114   4.473
 2969SOL    HW1 9806   5.339   2.054   4.551
 2969SOL    HW2 9807   5.398   2.060   4.399
 2970SOL     OW 9808   0.558   4.409   6.136
 2970SOL    HW1 9809   0.522   4.498   6.110
 2970SOL    HW2 9810   0.584   4.411   6.233
 2971SOL     OW 9811   5.877   2.641   3.323
 2971SOL    HW1 9812   5.805   2.683   3.379
 2971SOL    HW2 9813   5.847   2.550   3.293
 2972SOL     OW 9814   6.479   3.719   6.045
 2972SOL    HW1 9815   6.415   3.749   6.115
 2972SOL    HW2 9816   6.475   3.781   5.967
 2973SOL     OW 9817   4.969   6.706   4.343
 2973SOL    HW1 9818   4.914   6.759   4.407
 2973SOL    HW2 9819   5.060   6.692   4.381
 2974SOL     OW 9820   6.924   4.566   3.107
 2974SOL    HW1 9821   6.856   4.615   3.161
 2974SOL    HW2 9822   6.936   4.612   3.019
 2975SOL     OW 9823   0.442   0.774   5.431
 2975SOL    HW1 9824   0.490   0.861   5.423
 2975SOL    HW2 9825   0.356   0.788   5.479
 2976SOL     OW 9826   4.306   1.578   2.446
 2976SOL    HW1 9827   4.259   1.572   2.534
 2976SOL    HW2 9828   4.257   1.524   2.378
 2977SOL     OW 9829   3.112   6.845   4.260
 2977SOL    HW1 9830   3.084   6.808   4.172
 2977SOL    HW2 9831   3.187   6.910   4.246
 2978SOL     OW 9832   5.314   5.287   0.233
 2978SOL    HW1 9833   5.352   5.198   0.256
 2978SOL    HW2 9834   5.225   5.275   0.188
 2979SOL     OW 9835   3.800   0.507   2.966
 2979SOL    HW1 9836   3.758   0.581   2.914
 2979SOL    HW2 9837   3.832   0.542   3.054
 2980SOL     OW 9838   0.920   6.084   3.897
 2980SOL    HW1 9839   0.882   6.144   3.827
 2980SOL    HW2 9840   0.888   5.991   3.882
 2981SOL     OW 9841   1.768   0.934   5.812
 2981SOL    HW1 9842   1.784   0.887   5.725
 2981SOL    HW2 9843   1.833   0.901   5.880
 2982SOL     OW 9844   4.724   5.901   2.589
 2982SOL    HW1 9845   4.678   5.814   2.576
 2982SOL    HW2 9846   4.759   5.934   2.501
 2983SOL     OW 9847   6.924   0.736   4.639
 2983SOL    HW1 9848   6.830   0.730   4.606
 2983SOL    HW2 9849   6.987   0.725   4.562
 2984SOL     OW 9850   5.959   5.475   2.082
 2984SOL    HW1 9851   6.010   5.507   2.002
 2984SOL    HW2 9852   5.888   5.542   2.104
 2985SOL     OW 9853   0.215   2.059   3.337
 2985SOL    HW1 9854   0.245   2.004   3.259
 2985SOL    HW2 9855   0.136   2.015   3.381
 2986SOL     OW 9856   1.233   3.975   5.208
 2986SOL    HW1 9857   1.264   3.890   5.166
 2986SOL    HW2 9858   1.200   4.037   5.137
 2987SOL     OW 9859   4.153   1.877   4.726
 2987SOL    HW1 9860   4.253   1.884   4.726
 2987SOL    HW2 9861   4.114   1.968   4.715
 2988SOL     OW 9862   0.767   0.455   1.752
 2988SOL    HW1 9863   0.774   0.372   1.808
 2988SOL    HW2 9864   0.749   0.429   1.657
 2989SOL     OW 9865   6.495   5.338   1.112
 2989SOL    HW1 9866   6.570   5.322   1.049
 2989SOL    HW2 9867   6.460   5.250   1.146
 2990SOL     OW 9868   3.439   1.587   1.480
 2990SOL    HW1 9869   3.488   1.511   1.521
 2990SOL    HW2 9870   3.350   1.598   1.524
 2991SOL     OW 9871   0.388   4.050   0.343
 2991SOL    HW1 9872   0.480   4.053   0.382
 2991SOL    HW2 9873   0.328   3.999   0.405
 2992SOL     OW 9874   3.506   5.411   6.374
 2992SOL    HW1 9875   3.409   5.414   6.398
 2992SOL    HW2 9876   3.558   5.465   6.440
 2993SOL     OW 9877   1.506   5.263   1.075
 2993SOL    HW1 9878   1.447   5.247   0.996
 2993SOL    HW2 9879   1.516   5.361   1.091
 2994SOL     OW 9880   4.961   0.389   0.197
 2994SOL    HW1 9881   4.971   0.441   0.112
 2994SOL    HW2 9882   4.923   0.299   0.176
 2995SOL     OW 9883   1.517   2.018   6.595
 2995SOL    HW1 9884   1.563   1.987   6.678
 2995SOL    HW2 9885   1.419   2.025   6.612
 2996SOL     OW 9886   4.110   5.218   5.921
 2996SOL    HW1 9887   4.050   5.159   5.976
 2996SOL    HW2 9888   4.204   5.183   5.926
 2997SOL     OW 9889   5.425   6.775   0.830
 2997SOL    HW1 9890   5.339   6.741   0.867
 2997SOL    HW2 9891   5.457   6.852   0.885
 2998SOL     OW 9892   5.956   5.562   3.616
 2998SOL    HW1 9893   5.990   5.625   3.686
 2998SOL    HW2 9894   5.995   5.585   3.527
 2999SOL     OW 9895   3.540   0.077   2.785
 2999SOL    HW1 9896   3.637   0.089   2.803
 2999SOL    HW2 9897   3.522   0.093   2.688
 3000SOL     OW 9898   1.488   3.345   6.037
 3000SOL    HW1 9899   1.516   3.344   6.133
 3000SOL    HW2 9900   1.568   3.363   5.980
 3001SOL     OW 9901   4.929   1.108   5.525
 3001SOL    HW1 9902   4.879   1.194   5.516
 3001SOL    HW2 9903   5.027   1.124   5.511
 3002SOL     OW 9904   4.736   0.263   5.402
 3002SOL    HW1 9905   4.714   0.166   5.405
 3002SOL    HW2 9906   4.662   0.316   5.443
 3003SOL     OW 9907   3.165   6.553   5.868
 3003SOL    HW1 9908   3.077   6.600   5.863
 3003SOL    HW2 9909   3.153   6.463   5.909
 3004SOL     OW 9910   6.268   3.458   3.968
 3004SOL    HW1 9911   6.290   3.518   4.045
 3004SOL    HW2 9912   6.273   3.362   3.999
 3005SOL     OW 9913   3.554   3.062   1.317
 3005SOL    HW1 9914   3.616   2.987   1.294
 3005SOL    HW2 9915   3.464   3.043   1.278
 3006SOL     OW 9916   5.080   1.057   1.170
 3006SOL    HW1 9917   5.071   1.046   1.269
 3006SOL    HW2 9918   5.022   1.133   1.140
 3007SOL     OW 9919   6.289   4.746   2.739
 3007SOL    HW1 9920   6.254   4.686   2.811
 3007SOL    HW2 9921   6.340   4.821   2.781
 3008SOL     OW 9922   3.465   6.478   5.814
 3008SOL    HW1 9923   3.384   6.500   5.870
 3008SOL    HW2 9924   3.542   6.458   5.874
 3009SOL     OW 9925   1.001   7.015   2.862
 3009SOL    HW1 9926   1.023   0.036   2.773
 3009SOL    HW2 9927   1.018   0.065   2.933
 3010SOL     OW 9928   3.432   5.647   2.687
 3010SOL    HW1 9929   3.391   5.717   2.746
 3010SOL    HW2 9930   3.514   5.611   2.731
 3011SOL     OW 9931   6.171   0.150   6.889
 3011SOL    HW1 9932   6.210   0.237   6.919
 3011SOL    HW2 9933   6.139   0.099   6.970
 3012SOL     OW 9934   0.293   3.987   3.301
 3012SOL    HW1 9935   0.285   3.982   3.202
 3012SOL    HW2 9936   0.282   4.082   3.331
 3013SOL     OW 9937   5.735   5.648   2.218
 3013SOL    HW1 9938   5.771   5.733   2.179
 3013SOL    HW2 9939   5.638   5.640   2.198
 3014SOL     OW 9940   5.236   1.410   3.962
 3014SOL    HW1 9941   5.262   1.383   4.055
 3014SOL    HW2 9942   5.310   1.464   3.921
 3015SOL     OW 9943   2.578   2.608   0.687
 3015SOL    HW1 9944   2.524   2.539   0.735
 3015SOL    HW2 9945   2.524   2.644   0.610
 3016SOL     OW 9946   3.681   6.260   3.594
 3016SOL    HW1 9947   3.622   6.183   3.568
 3016SOL    HW2 9948   3.692   6.261   3.693
 3017SOL     OW 9949   1.183   6.237   1.449
 3017SOL    HW1 9950   1.256   6.288   1.495
 3017SOL    HW2 9951   1.205   6.140   1.448
 3018SOL     OW 9952   4.212   6.744   6.541
 3018SOL    HW1 9953   4.131   6.764   6.596
 3018SOL    HW2 9954   4.223   6.815   6.471
 3019SOL     OW 9955   3.598   6.298   0.969
 3019SOL    HW1 9956   3.613   6.226   1.037
 3019SOL    HW2 9957   3.630   6.266   0.880
 3020SOL     OW 9958   2.913   3.492   1.562
 3020SOL    HW1 9959   2.889   3.430   1.487
 3020SOL    HW2 9960   2.951   3.577   1.525
 3021SOL     OW 9961   2.021   2.485   6.785
 3021SOL    HW1 9962   2.077   2.508   6.706
 3021SOL    HW2 9963   2.068   2.418   6.842
 3022SOL     OW 9964   4.864   6.453   3.251
 3022SOL    HW1 9965   4.843   6.548   3.276
 3022SOL    HW2 9966   4.900   6.405   3.331
 3023SOL     OW 9967   4.252   5.660   3.178
 3023SOL    HW1 9968   4.273   5.693   3.270
 3023SOL    HW2 9969   4.334   5.666   3.121
 3024SOL     OW 9970   2.978   1.056   0.105
 3024SOL    HW1 9971   3.065   1.101   0.085
 3024SOL    HW2 9972   2.929   1.037   0.020
 3025SOL     OW 9973   2.379   2.734   1.220
 3025SOL    HW1 9974   2.351   2.822   1.181
 3025SOL    HW2 9975   2.412   2.748   1.313
 3026SOL     OW 9976   1.811   2.966   1.048
 3026SOL    HW1 9977   1.742   2.964   0.976
 3026SOL    HW2 9978   1.813   3.057   1.090
 3027SOL     OW 9979   1.908   1.471   3.194
 3027SOL    HW1 9980   1.895   1.517   3.282
 3027SOL    HW2 9981   1.996   1.423   3.194
 3028SOL     OW 9982   1.537   5.767   6.261
 3028SOL    HW1 9983   1.580   5.677   6.250
 3028SOL    HW2 9984   1.439   5.755   6.277
 3029SOL     OW 9985   6.080   5.431   5.077
 3029SOL    HW1 9986   6.123   5.392   4.996
 3029SOL    HW2 9987   6.001   5.375   5.102
 3030SOL     OW 9988   1.471   1.163   5.550
 3030SOL    HW1 9989   1.505   1.182   5.642
 3030SOL    HW2 9990   1.427   1.073   5.548
 3031SOL     OW 9991   0.396   3.912   6.494
 3031SOL    HW1 9992   0.438   3.853   6.425
 3031SOL    HW2 9993   0.300   3.927   6.471
 3032SOL     OW 9994   4.623   0.508   6.036
 3032SOL    HW1 9995   4.696   0.574   6.055
 3032SOL    HW2 9996   4.535   0.554   6.040
 3033SOL     OW 9997   0.279   3.823   0.120
 3033SOL    HW1 9998   0.266   3.897   0.186
 3033SOL    HW2 9999   0.377   3.804   0.110
 3034SOL     OW10000   3.435   6.365   3.892
 3034SOL    HW110001   3.377   6.290   3.859
 3034SOL    HW210002   3.387   6.412   3.966
 3035SOL     OW10003   5.790   1.405   6.984
 3035SOL    HW110004   5.779   1.484   6.923
 3035SOL    HW210005   5.705   1.390   0.016
 3036SOL     OW10006   0.898   4.190   6.773
 3036SOL    HW110007   0.801   4.197   6.749
 3036SOL    HW210008   0.948   4.267   6.733
 3037SOL     OW10009   6.735   6.206   4.847
 3037SOL    HW110010   6.812   6.268   4.832
 3037SOL    HW210011   6.765   6.127   4.900
 3038SOL     OW10012   5.318   6.828   6.011
 3038SOL    HW110013   5.353   6.859   6.099
 3038SOL    HW210014   5.297   6.730   6.016
 3039SOL     OW10015   0.458   4.027   2.125
 3039SOL    HW110016   0.408   4.101   2.170
 3039SOL    HW210017   0.508   4.064   2.047
 3040SOL     OW10018   2.793   3.565   6.435
 3040SOL    HW110019   2.700   3.562   6.399
 3040SOL    HW210020   2.842   3.642   6.392
 3041SOL     OW10021   1.929   2.492   5.455
 3041SOL    HW110022   1.969   2.568   5.506
 3041SOL    HW210023   1.921   2.517   5.358
 3042SOL     OW10024   4.744   0.469   2.173
 3042SOL    HW110025   4.666   0.440   2.229
 3042SOL    HW210026   4.790   0.546   2.218
 3043SOL     OW10027   0.851   5.725   0.057
 3043SOL    HW110028   0.779   5.664   0.022
 3043SOL    HW210029   0.812   5.815   0.076
 3044SOL     OW10030   3.320   4.135   5.988
 3044SOL    HW110031   3.348   4.157   5.895
 3044SOL    HW210032   3.321   4.036   6.001
 3045SOL     OW10033   4.908   1.625   2.360
 3045SOL    HW110034   4.973   1.560   2.399
 3045SOL    HW210035   4.957   1.700   2.316
 3046SOL     OW10036   1.490   3.003   5.692
 3046SOL    HW110037   1.462   3.022   5.786
 3046SOL    HW210038   1.587   3.022   5.681
 3047SOL     OW10039   6.010   5.517   2.438
 3047SOL    HW110040   5.976   5.607   2.462
 3047SOL    HW210041   6.015   5.508   2.339
 3048SOL     OW10042   3.829   3.357   1.395
 3048SOL    HW110043   3.759   3.427   1.383
 3048SOL    HW210044   3.788   3.276   1.438
 3049SOL     OW10045   1.039   0.605   1.829
 3049SOL    HW110046   0.951   0.559   1.840
 3049SOL    HW210047   1.026   0.691   1.781
 3050SOL     OW10048   4.273   5.751   3.821
 3050SOL    HW110049   4.264   5.657   3.854
 3050SOL    HW210050   4.301   5.750   3.725
 3051SOL     OW10051   2.773   5.523   6.499
 3051SOL    HW110052   2.762   5.434   6.453
 3051SOL    HW210053   2.789   5.508   6.597
 3052SOL     OW10054   3.948   0.330   2.819
 3052SOL    HW110055   4.009   0.386   2.763
 3052SOL    HW210056   3.891   0.389   2.876
 3053SOL     OW10057   5.989   6.818   6.877
 3053SOL    HW110058   5.907   6.806   6.822
 3053SOL    HW210059   6.046   6.736   6.870
 3054SOL     OW10060   0.631   3.710   0.209
 3054SOL    HW110061   0.673   3.800   0.198
 3054SOL    HW210062   0.586   3.684   0.123
 3055SOL     OW10063   5.730   6.504   3.253
 3055SOL    HW110064   5.769   6.581   3.202
 3055SOL    HW210065   5.696   6.536   3.342
 3056SOL     OW10066   6.991   0.404   0.236
 3056SOL    HW110067   6.999   0.378   0.333
 3056SOL    HW210068   6.978   0.503   0.230
 3057SOL     OW10069   6.317   4.627   2.497
 3057SOL    HW110070   6.320   4.666   2.589
 3057SOL    HW210071   6.410   4.603   2.468
 3058SOL     OW10072   6.214   5.498   0.662
 3058SOL    HW110073   6.126   5.527   0.700
 3058SOL    HW210074   6.288   5.529   0.721
 3059SOL     OW10075   0.653   2.934   5.043
 3059SOL    HW110076   0.587   2.907   4.972
 3059SOL    HW210077   0.653   3.034   5.051
 3060SOL     OW10078   0.373   6.134   1.643
 3060SOL    HW110079   0.348   6.210   1.584
 3060SOL    HW210080   0.317   6.054   1.620
 3061SOL     OW10081   0.026   0.741   5.288
 3061SOL    HW110082   0.036   0.812   5.219
 3061SOL    HW210083   0.116   0.714   5.323
 3062SOL     OW10084   2.571   6.091   1.323
 3062SOL    HW110085   2.549   6.186   1.303
 3062SOL    HW210086   2.493   6.033   1.299
 3063SOL     OW10087   1.561   5.291   1.616
 3063SOL    HW110088   1.563   5.390   1.631
 3063SOL    HW210089   1.563   5.244   1.704
 3064SOL     OW10090   6.593   3.878   3.331
 3064SOL    HW110091   6.581   3.870   3.232
 3064SOL    HW210092   6.515   3.838   3.378
 3065SOL     OW10093   1.609   0.704   7.016
 3065SOL    HW110094   1.567   0.688   0.088
 3065SOL    HW210095   1.553   0.661   6.945
 3066SOL     OW10096   6.162   4.521   0.915
 3066SOL    HW110097   6.153   4.448   0.848
 3066SOL    HW210098   6.092   4.510   0.986
 3067SOL     OW10099   4.515   0.331   4.465
 3067SOL    HW110100   4.469   0.382   4.537
 3067SOL    HW210101   4.448   0.281   4.411
 3068SOL     OW10102   5.782   5.679   1.288
 3068SOL    HW110103   5.829   5.727   1.361
 3068SOL    HW210104   5.693   5.722   1.272
 3069SOL     OW10105   0.471   5.538   1.706
 3069SOL    HW110106   0.489   5.444   1.677
 3069SOL    HW210107   0.486   5.546   1.804
 3070SOL     OW10108   2.642   1.640   3.144
 3070SOL    HW110109   2.741   1.627   3.148
 3070SOL    HW210110   2.598   1.550   3.138
 3071SOL     OW10111   6.244   0.205   4.096
 3071SOL    HW110112   6.161   0.150   4.087
 3071SOL    HW210113   6.259   0.258   4.013
 3072SOL     OW10114   0.579   6.598   2.054
 3072SOL    HW110115   0.571   6.501   2.074
 3072SOL    HW210116   0.664   6.615   2.004
 3073SOL     OW10117   1.292   3.753   5.545
 3073SOL    HW110118   1.383   3.783   5.516
 3073SOL    HW210119   1.301   3.684   5.617
 3074SOL     OW10120   4.473   2.710   6.867
 3074SOL    HW110121   4.562   2.684   6.831
 3074SOL    HW210122   4.435   2.635   6.921
 3075SOL     OW10123   1.968   6.485   1.205
 3075SOL    HW110124   2.006   6.523   1.290
 3075SOL    HW210125   2.018   6.522   1.127
 3076SOL     OW10126   6.400   0.689   5.250
 3076SOL    HW110127   6.313   0.712   5.294
 3076SOL    HW210128   6.382   0.637   5.166
 3077SOL     OW10129   5.880   4.340   4.620
 3077SOL    HW110130   5.870   4.276   4.696
 3077SOL    HW210131   5.932   4.419   4.649
 3078SOL     OW10132   1.808   3.731   2.120
 3078SOL    HW110133   1.904   3.727   2.091
 3078SOL    HW210134   1.772   3.823   2.106
 3079SOL     OW10135   0.230   2.163   4.974
 3079SOL    HW110136   0.264   2.224   4.903
 3079SOL    HW210137   0.151   2.204   5.019
 3080SOL     OW10138   5.948   5.176   1.344
 3080SOL    HW110139   6.039   5.198   1.308
 3080SOL    HW210140   5.934   5.077   1.341
 3081SOL     OW10141   0.474   4.250   5.732
 3081SOL    HW110142   0.564   4.218   5.701
 3081SOL    HW210143   0.473   4.350   5.735
 3082SOL     OW10144   3.632   0.176   2.543
 3082SOL    HW110145   3.543   0.221   2.546
 3082SOL    HW210146   3.703   0.243   2.523
 3083SOL     OW10147   3.650   0.354   1.517
 3083SOL    HW110148   3.597   0.302   1.449
 3083SOL    HW210149   3.746   0.326   1.513
 3084SOL     OW10150   5.189   5.176   4.478
 3084SOL    HW110151   5.265   5.116   4.454
 3084SOL    HW210152   5.203   5.214   4.569
 3085SOL     OW10153   6.720   5.482   2.540
 3085SOL    HW110154   6.709   5.538   2.622
 3085SOL    HW210155   6.655   5.406   2.543
 3086SOL     OW10156   5.112   1.509   2.783
 3086SOL    HW110157   5.118   1.609   2.782
 3086SOL    HW210158   5.063   1.479   2.865
 3087SOL     OW10159   6.282   4.030   3.132
 3087SOL    HW110160   6.217   4.080   3.189
 3087SOL    HW210161   6.304   3.942   3.176
 3088SOL     OW10162   2.599   4.537   5.333
 3088SOL    HW110163   2.661   4.463   5.360
 3088SOL    HW210164   2.511   4.498   5.305
 3089SOL     OW10165   1.099   2.638   6.653
 3089SOL    HW110166   1.137   2.707   6.591
 3089SOL    HW210167   1.140   2.549   6.633
 3090SOL     OW10168   1.444   1.358   0.859
 3090SOL    HW110169   1.429   1.424   0.933
 3090SOL    HW210170   1.524   1.302   0.880
 3091SOL     OW10171   2.110   6.792   0.984
 3091SOL    HW110172   2.133   6.698   0.961
 3091SOL    HW210173   2.126   6.807   1.082
 3092SOL     OW10174   6.636   6.719   0.567
 3092SOL    HW110175   6.690   6.797   0.534
 3092SOL    HW210176   6.687   6.672   0.640
 3093SOL     OW10177   6.171   5.557   5.302
 3093SOL    HW110178   6.131   5.500   5.231
 3093SOL    HW210179   6.144   5.652   5.288
 3094SOL     OW10180   3.461   5.546   5.027
 3094SOL    HW110181   3.441   5.453   4.998
 3094SOL    HW210182   3.467   5.605   4.946
 3095SOL     OW10183   2.619   4.736   4.262
 3095SOL    HW110184   2.689   4.732   4.334
 3095SOL    HW210185   2.662   4.719   4.174
 3096SOL     OW10186   0.217   6.957   5.360
 3096SOL    HW110187   0.197   6.874   5.307
 3096SOL    HW210188   0.280   7.015   5.308
 3097SOL     OW10189   0.699   2.605   0.405
 3097SOL    HW110190   0.647   2.606   0.491
 3097SOL    HW210191   0.644   2.645   0.332
 3098SOL     OW10192   2.661   3.486   0.560
 3098SOL    HW110193   2.591   3.454   0.496
 3098SOL    HW210194   2.620   3.552   0.623
 3099SOL     OW10195   0.725   6.277   5.596
 3099SOL    HW110196   0.773   6.364   5.603
 3099SOL    HW210197   0.791   6.202   5.597
 3100SOL     OW10198   6.679   6.544   6.432
 3100SOL    HW110199   6.642   6.511   6.519
 3100SOL    HW210200   6.766   6.590   6.448
 3101SOL     OW10201   4.777   6.676   6.395
 3101SOL    HW110202   4.759   6.773   6.380
 3101SOL    HW210203   4.848   6.644   6.333
 3102SOL     OW10204   1.646   4.001   1.134
 3102SOL    HW110205   1.630   4.009   1.232
 3102SOL    HW210206   1.701   4.078   1.102
 3103SOL     OW10207   4.472   2.628   1.191
 3103SOL    HW110208   4.536   2.701   1.165
 3103SOL    HW210209   4.420   2.600   1.110
 3104SOL     OW10210   5.493   5.627   4.220
 3104SOL    HW110211   5.580   5.652   4.262
 3104SOL    HW210212   5.421   5.689   4.253
 3105SOL     OW10213   5.853   6.548   4.178
 3105SOL    HW110214   5.879   6.633   4.132
 3105SOL    HW210215   5.790   6.570   4.253
 3106SOL     OW10216   6.518   2.567   3.118
 3106SOL    HW110217   6.426   2.535   3.139
 3106SOL    HW210218   6.526   2.664   3.139
 3107SOL     OW10219   3.208   0.374   4.025
 3107SOL    HW110220   3.181   0.369   4.122
 3107SOL    HW210221   3.285   0.313   4.010
 3108SOL     OW10222   2.227   0.923   4.361
 3108SOL    HW110223   2.286   0.845   4.340
 3108SOL    HW210224   2.231   0.990   4.287
 3109SOL     OW10225   5.030   6.175   3.112
 3109SOL    HW110226   5.126   6.161   3.086
 3109SOL    HW210227   5.012   6.273   3.117
 3110SOL     OW10228   0.308   3.073   2.117
 3110SOL    HW110229   0.255   3.143   2.070
 3110SOL    HW210230   0.371   3.030   2.052
 3111SOL     OW10231   0.060   5.331   3.636
 3111SOL    HW110232   0.117   5.318   3.555
 3111SOL    HW210233   0.016   5.244   3.660
 3112SOL     OW10234   4.734   3.726   6.663
 3112SOL    HW110235   4.640   3.726   6.696
 3112SOL    HW210236   4.736   3.754   6.567
 3113SOL     OW10237   2.053   6.698   3.434
 3113SOL    HW110238   1.983   6.657   3.375
 3113SOL    HW210239   2.008   6.752   3.505
 3114SOL     OW10240   5.802   4.733   0.566
 3114SOL    HW110241   5.896   4.717   0.536
 3114SOL    HW210242   5.797   4.820   0.614
 3115SOL     OW10243   3.841   3.813   0.202
 3115SOL    HW110244   3.774   3.867   0.252
 3115SOL    HW210245   3.811   3.718   0.198
 3116SOL     OW10246   6.372   2.163   6.536
 3116SOL    HW110247   6.374   2.070   6.499
 3116SOL    HW210248   6.307   2.219   6.485
 3117SOL     OW10249   4.007   3.228   5.240
 3117SOL    HW110250   3.982   3.211   5.335
 3117SOL    HW210251   4.010   3.327   5.223
 3118SOL     OW10252   6.935   4.301   0.615
 3118SOL    HW110253   7.018   4.334   0.571
 3118SOL    HW210254   6.912   4.361   0.692
 3119SOL     OW10255   1.539   4.408   5.276
 3119SOL    HW110256   1.442   4.418   5.300
 3119SOL    HW210257   1.566   4.482   5.215
 3120SOL     OW10258   2.817   5.145   4.658
 3120SOL    HW110259   2.808   5.049   4.685
 3120SOL    HW210260   2.775   5.204   4.727
 3121SOL     OW10261   6.692   1.100   2.567
 3121SOL    HW110262   6.725   1.118   2.660
 3121SOL    HW210263   6.668   1.186   2.522
 3122SOL     OW10264   2.593   5.715   6.395
 3122SOL    HW110265   2.533   5.710   6.474
 3122SOL    HW210266   2.675   5.661   6.412
 3123SOL     OW10267   4.023   6.833   3.942
 3123SOL    HW110268   4.092   6.791   3.883
 3123SOL    HW210269   3.968   6.897   3.888
 3124SOL     OW10270   4.288   1.557   5.690
 3124SOL    HW110271   4.302   1.624   5.617
 3124SOL    HW210272   4.232   1.482   5.655
 3125SOL     OW10273   6.263   1.777   5.612
 3125SOL    HW110274   6.243   1.679   5.620
 3125SOL    HW210275   6.355   1.790   5.577
 3126SOL     OW10276   4.595   5.909   6.810
 3126SOL    HW110277   4.604   5.967   6.891
 3126SOL    HW210278   4.558   5.820   6.837
 3127SOL     OW10279   0.821   1.997   4.019
 3127SOL    HW110280   0.885   1.939   3.969
 3127SOL    HW210281   0.869   2.042   4.095
 3128SOL     OW10282   2.182   1.127   0.882
 3128SOL    HW110283   2.191   1.226   0.881
 3128SOL    HW210284   2.135   1.097   0.799
 3129SOL     OW10285   6.752   4.224   5.635
 3129SOL    HW110286   6.752   4.302   5.572
 3129SOL    HW210287   6.715   4.143   5.588
 3130SOL     OW10288   1.932   4.689   2.118
 3130SOL    HW110289   1.862   4.654   2.056
 3130SOL    HW210290   1.964   4.614   2.177
 3131SOL     OW10291   6.709   3.237   2.389
 3131SOL    HW110292   6.778   3.265   2.323
 3131SOL    HW210293   6.644   3.175   2.345
 3132SOL     OW10294   5.776   6.291   5.509
 3132SOL    HW110295   5.742   6.380   5.541
 3132SOL    HW210296   5.698   6.229   5.494
 3133SOL     OW10297   3.049   2.229   3.007
 3133SOL    HW110298   3.011   2.137   2.998
 3133SOL    HW210299   3.149   2.224   3.006
 3134SOL     OW10300   5.189   3.307   1.246
 3134SOL    HW110301   5.253   3.230   1.252
 3134SOL    HW210302   5.171   3.328   1.150
 3135SOL     OW10303   3.662   2.040   3.390
 3135SOL    HW110304   3.589   2.013   3.328
 3135SOL    HW210305   3.624   2.060   3.480
 3136SOL     OW10306   6.333   6.020   5.791
 3136SOL    HW110307   6.374   5.936   5.826
 3136SOL    HW210308   6.249   6.040   5.842
 3137SOL     OW10309   5.706   1.914   4.217
 3137SOL    HW110310   5.689   2.005   4.179
 3137SOL    HW210311   5.797   1.912   4.257
 3138SOL     OW10312   6.178   1.128   4.784
 3138SOL    HW110313   6.172   1.047   4.725
 3138SOL    HW210314   6.264   1.127   4.834
 3139SOL     OW10315   4.920   6.113   5.387
 3139SOL    HW110316   4.925   6.199   5.336
 3139SOL    HW210317   5.002   6.103   5.443
 3140SOL     OW10318   6.660   5.990   6.843
 3140SOL    HW110319   6.683   6.087   6.843
 3140SOL    HW210320   6.672   5.952   6.751
 3141SOL     OW10321   1.734   5.842   6.970
 3141SOL    HW110322   1.826   5.847   6.930
 3141SOL    HW210323   1.715   5.748   6.999
 3142SOL     OW10324   4.262   6.239   5.905
 3142SOL    HW110325   4.330   6.211   5.973
 3142SOL    HW210326   4.170   6.224   5.942
 3143SOL     OW10327   6.663   2.096   0.448
 3143SOL    HW110328   6.644   2.166   0.380
 3143SOL    HW210329   6.735   2.036   0.414
 3144SOL     OW10330   1.710   3.742   6.687
 3144SOL    HW110331   1.791   3.798   6.675
 3144SOL    HW210332   1.629   3.795   6.662
 3145SOL     OW10333   2.870   5.808   2.917
 3145SOL    HW110334   2.943   5.804   2.985
 3145SOL    HW210335   2.849   5.904   2.896
 3146SOL     OW10336   1.384   0.379   3.425
 3146SOL    HW110337   1.325   0.445   3.470
 3146SOL    HW210338   1.427   0.422   3.345
 3147SOL     OW10339   4.995   3.698   0.459
 3147SOL    HW110340   5.088   3.727   0.437
 3147SOL    HW210341   4.960   3.638   0.387
 3148SOL     OW10342   3.706   5.421   4.638
 3148SOL    HW110343   3.778   5.488   4.654
 3148SOL    HW210344   3.674   5.385   4.725
 3149SOL     OW10345   3.473   0.304   5.664
 3149SOL    HW110346   3.540   0.347   5.724
 3149SOL    HW210347   3.449   0.366   5.590
 3150SOL     OW10348   5.981   6.322   4.377
 3150SOL    HW110349   5.925   6.395   4.338
 3150SOL    HW210350   6.069   6.360   4.406
 3151SOL     OW10351   4.141   1.493   6.112
 3151SOL    HW110352   4.106   1.460   6.200
 3151SOL    HW210353   4.124   1.591   6.104
 3152SOL     OW10354   0.721   5.276   1.467
 3152SOL    HW110355   0.767   5.322   1.391
 3152SOL    HW210356   0.771   5.294   1.551
 3153SOL     OW10357   6.384   4.325   2.314
 3153SOL    HW110358   6.303   4.357   2.265
 3153SOL    HW210359   6.363   4.239   2.360
 3154SOL     OW10360   5.880   2.621   5.721
 3154SOL    HW110361   5.811   2.689   5.696
 3154SOL    HW210362   5.915   2.642   5.813
 3155SOL     OW10363   5.544   5.788   0.709
 3155SOL    HW110364   5.612   5.787   0.782
 3155SOL    HW210365   5.460   5.832   0.742
 3156SOL     OW10366   3.912   3.963   3.707
 3156SOL    HW110367   3.827   4.012   3.728
 3156SOL    HW210368   3.979   3.981   3.779
 3157SOL     OW10369   1.997   3.882   3.889
 3157SOL    HW110370   1.900   3.899   3.870
 3157SOL    HW210371   2.051   3.959   3.855
 3158SOL     OW10372   4.969   6.720   1.242
 3158SOL    HW110373   4.931   6.804   1.280
 3158SOL    HW210374   4.917   6.692   1.162
 3159SOL     OW10375   4.858   5.571   6.835
 3159SOL    HW110376   4.947   5.605   6.805
 3159SOL    HW210377   4.849   5.475   6.811
 3160SOL     OW10378   4.698   4.329   6.878
 3160SOL    HW110379   4.633   4.274   6.825
 3160SOL    HW210380   4.718   4.283   6.964
 3161SOL     OW10381   1.165   0.942   3.060
 3161SOL    HW110382   1.224   1.000   3.003
 3161SOL    HW210383   1.094   0.998   3.103
 3162SOL     OW10384   0.423   5.103   6.168
 3162SOL    HW110385   0.436   5.178   6.103
 3162SOL    HW210386   0.354   5.129   6.236
 3163SOL     OW10387   3.427   3.846   6.506
 3163SOL    HW110388   3.456   3.847   6.410
 3163SOL    HW210389   3.499   3.887   6.562
 3164SOL     OW10390   5.464   4.135   0.454
 3164SOL    HW110391   5.535   4.089   0.508
 3164SOL    HW210392   5.418   4.069   0.396
 3165SOL     OW10393   0.218   1.312   2.038
 3165SOL    HW110394   0.157   1.390   2.055
 3165SOL    HW210395   0.181   1.230   2.082
 3166SOL     OW10396   5.432   3.366   6.406
 3166SOL    HW110397   5.408   3.426   6.483
 3166SOL    HW210398   5.368   3.288   6.404
 3167SOL     OW10399   0.472   5.265   1.591
 3167SOL    HW110400   0.559   5.258   1.543
 3167SOL    HW210401   0.415   5.186   1.568
 3168SOL     OW10402   5.535   3.323   1.070
 3168SOL    HW110403   5.570   3.307   0.978
 3168SOL    HW210404   5.437   3.299   1.073
 3169SOL     OW10405   1.019   2.882   4.882
 3169SOL    HW110406   1.064   2.968   4.905
 3169SOL    HW210407   0.932   2.902   4.835
 3170SOL     OW10408   4.244   0.843   0.461
 3170SOL    HW110409   4.243   0.848   0.361
 3170SOL    HW210410   4.151   0.848   0.496
 3171SOL     OW10411   5.030   6.500   2.932
 3171SOL    HW110412   5.053   6.538   3.022
 3171SOL    HW210413   4.949   6.547   2.896
 3172SOL     OW10414   6.694   0.143   4.973
 3172SOL    HW110415   6.701   0.047   5.001
 3172SOL    HW210416   6.609   0.182   5.010
 3173SOL     OW10417   2.421   0.521   1.766
 3173SOL    HW110418   2.352   0.448   1.766
 3173SOL    HW210419   2.508   0.485   1.800
 3174SOL     OW10420   2.424   3.125   6.066
 3174SOL    HW110421   2.407   3.027   6.064
 3174SOL    HW210422   2.462   3.151   6.155
 3175SOL     OW10423   1.012   6.433   0.901
 3175SOL    HW110424   1.106   6.463   0.882
 3175SOL    HW210425   0.956   6.448   0.820
 3176SOL     OW10426   0.646   4.300   6.705
 3176SOL    HW110427   0.612   4.306   6.611
 3176SOL    HW210428   0.675   4.391   6.736
 3177SOL     OW10429   6.044   5.724   6.240
 3177SOL    HW110430   6.118   5.676   6.193
 3177SOL    HW210431   6.069   5.820   6.252
 3178SOL     OW10432   0.551   3.881   1.445
 3178SOL    HW110433   0.467   3.890   1.391
 3178SOL    HW210434   0.625   3.933   1.402
 3179SOL     OW10435   1.623   1.567   2.344
 3179SOL    HW110436   1.530   1.557   2.307
 3179SOL    HW210437   1.665   1.477   2.352
 3180SOL     OW10438   5.487   0.709   6.159
 3180SOL    HW110439   5.547   0.781   6.194
 3180SOL    HW210440   5.492   0.707   6.059
 3181SOL     OW10441   0.646   1.082   3.399
 3181SOL    HW110442   0.704   1.118   3.472
 3181SOL    HW210443   0.568   1.142   3.385
 3182SOL     OW10444   2.196   5.575   5.442
 3182SOL    HW110445   2.159   5.648   5.499
 3182SOL    HW210446   2.283   5.604   5.402
 3183SOL     OW10447   4.156   3.559   1.209
 3183SOL    HW110448   4.130   3.653   1.230
 3183SOL    HW210449   4.246   3.558   1.166
 3184SOL     OW10450   2.621   1.913   2.047
 3184SOL    HW110451   2.622   1.872   1.956
 3184SOL    HW210452   2.696   1.978   2.055
 3185SOL     OW10453   6.578   6.866   6.064
 3185SOL    HW110454   6.601   6.841   6.158
 3185SOL    HW210455   6.478   6.867   6.054
 3186SOL     OW10456   2.903   0.719   2.594
 3186SOL    HW110457   2.877   0.813   2.569
 3186SOL    HW210458   2.979   0.690   2.536
 3187SOL     OW10459   3.534   4.509   0.375
 3187SOL    HW110460   3.533   4.448   0.454
 3187SOL    HW210461   3.550   4.455   0.292
 3188SOL     OW10462   4.070   6.017   3.424
 3188SOL    HW110463   4.058   6.095   3.363
 3188SOL    HW210464   4.146   6.034   3.486
 3189SOL     OW10465   1.329   6.194   2.947
 3189SOL    HW110466   1.372   6.162   3.032
 3189SOL    HW210467   1.235   6.220   2.966
 3190SOL     OW10468   1.171   6.089   2.750
 3190SOL    HW110469   1.085   6.136   2.771
 3190SOL    HW210470   1.247   6.140   2.790
 3191SOL     OW10471   4.204   0.583   1.114
 3191SOL    HW110472   4.231   0.488   1.133
 3191SOL    HW210473   4.107   0.585   1.088
 3192SOL     OW10474   0.206   3.239   1.900
 3192SOL    HW110475   0.248   3.324   1.868
 3192SOL    HW210476   0.141   3.205   1.832
 3193SOL     OW10477   4.455   2.736   6.300
 3193SOL    HW110478   4.531   2.786   6.342
 3193SOL    HW210479   4.487   2.645   6.273
 3194SOL     OW10480   0.466   3.415   5.921
 3194SOL    HW110481   0.529   3.393   5.847
 3194SOL    HW210482   0.496   3.498   5.968
 3195SOL     OW10483   0.953   3.025   3.313
 3195SOL    HW110484   0.955   2.985   3.221
 3195SOL    HW210485   1.006   2.967   3.375
 3196SOL     OW10486   6.788   0.189   5.288
 3196SOL    HW110487   6.731   0.213   5.367
 3196SOL    HW210488   6.882   0.173   5.318
 3197SOL     OW10489   1.020   4.479   3.746
 3197SOL    HW110490   0.973   4.519   3.824
 3197SOL    HW210491   0.974   4.394   3.719
 3198SOL     OW10492   0.193   1.918   6.973
 3198SOL    HW110493   0.215   1.995   6.913
 3198SOL    HW210494   0.275   1.891   0.005
 3199SOL     OW10495   4.763   2.056   1.943
 3199SOL    HW110496   4.815   2.018   1.867
 3199SOL    HW210497   4.745   2.153   1.926
 3200SOL     OW10498   6.856   1.670   1.099
 3200SOL    HW110499   6.874   1.765   1.127
 3200SOL    HW210500   6.790   1.629   1.161
 3201SOL     OW10501   4.538   4.563   3.014
 3201SOL    HW110502   4.499   4.527   3.099
 3201SOL    HW210503   4.473   4.549   2.940
 3202SOL     OW10504   1.633   5.547   1.731
 3202SOL    HW110505   1.599   5.608   1.803
 3202SOL    HW210506   1.726   5.518   1.753
 3203SOL     OW10507   6.422   6.869   1.632
 3203SOL    HW110508   6.381   6.956   1.608
 3203SOL    HW210509   6.411   6.853   1.731
 3204SOL     OW10510   6.437   5.813   1.832
 3204SOL    HW110511   6.506   5.884   1.842
 3204SOL    HW210512   6.346   5.854   1.835
 3205SOL     OW10513   0.476   3.894   3.819
 3205SOL    HW110514   0.544   3.952   3.775
 3205SOL    HW210515   0.509   3.799   3.820
 3206SOL     OW10516   1.645   0.002   6.548
 3206SOL    HW110517   1.719   0.001   6.615
 3206SOL    HW210518   1.628   6.928   6.515
 3207SOL     OW10519   0.567   1.293   4.156
 3207SOL    HW110520   0.643   1.320   4.215
 3207SOL    HW210521   0.547   1.368   4.092
 3208SOL     OW10522   4.835   6.669   5.297
 3208SOL    HW110523   4.861   6.738   5.365
 3208SOL    HW210524   4.778   6.600   5.341
 3209SOL     OW10525   2.362   0.671   4.038
 3209SOL    HW110526   2.357   0.680   4.137
 3209SOL    HW210527   2.426   0.739   4.002
 3210SOL     OW10528   7.004   4.584   2.543
 3210SOL    HW110529   6.930   4.651   2.533
 3210SOL    HW210530   0.072   4.632   2.561
 3211SOL     OW10531   1.841   4.142   2.430
 3211SOL    HW110532   1.835   4.175   2.336
 3211SOL    HW210533   1.871   4.047   2.430
 3212SOL     OW10534   4.748   2.138   6.158
 3212SOL    HW110535   4.755   2.043   6.129
 3212SOL    HW210536   4.833   2.166   6.202
 3213SOL     OW10537   5.916   6.321   1.680
 3213SOL    HW110538   5.872   6.404   1.714
 3213SOL    HW210539   5.966   6.342   1.596
 3214SOL     OW10540   4.409   5.921   5.921
 3214SOL    HW110541   4.484   5.874   5.875
 3214SOL    HW210542   4.443   5.967   6.003
 3215SOL     OW10543   5.932   1.675   6.857
 3215SOL    HW110544   5.937   1.735   6.937
 3215SOL    HW210545   5.993   1.597   6.870
 3216SOL     OW10546   5.717   6.771   3.771
 3216SOL    HW110547   5.681   6.862   3.792
 3216SOL    HW210548   5.642   6.706   3.766
 3217SOL     OW10549   6.990   4.001   2.102
 3217SOL    HW110550   6.906   3.966   2.142
 3217SOL    HW210551   6.973   4.091   2.063
 3218SOL     OW10552   2.806   0.274   3.292
 3218SOL    HW110553   2.904   0.256   3.283
 3218SOL    HW210554   2.784   0.363   3.252
 3219SOL     OW10555   6.333   0.595   4.083
 3219SOL    HW110556   6.302   0.501   4.071
 3219SOL    HW210557   6.360   0.633   3.994
 3220SOL     OW10558   6.220   3.684   5.728
 3220SOL    HW110559   6.265   3.772   5.712
 3220SOL    HW210560   6.289   3.614   5.747
 3221SOL     OW10561   2.814   0.079   3.072
 3221SOL    HW110562   2.841   7.014   3.121
 3221SOL    HW210563   2.817   0.156   3.136
 3222SOL     OW10564   5.756   2.501   2.572
 3222SOL    HW110565   5.742   2.451   2.658
 3222SOL    HW210566   5.739   2.598   2.586
 3223SOL     OW10567   2.270   5.312   4.803
 3223SOL    HW110568   2.262   5.212   4.795
 3223SOL    HW210569   2.190   5.348   4.849
 3224SOL     OW10570   3.929   5.212   0.131
 3224SOL    HW110571   4.023   5.189   0.105
 3224SOL    HW210572   3.931   5.276   0.208
 3225SOL     OW10573   2.599   3.530   6.715
 3225SOL    HW110574   2.600   3.581   6.629
 3225SOL    HW210575   2.670   3.459   6.711
 3226SOL     OW10576   1.389   0.804   3.997
 3226SOL    HW110577   1.457   0.847   3.939
 3226SOL    HW210578   1.427   0.790   4.089
 3227SOL     OW10579   2.438   1.312   6.436
 3227SOL    HW110580   2.339   1.323   6.450
 3227SOL    HW210581   2.457   1.304   6.338
 3228SOL     OW10582   5.526   3.712   4.946
 3228SOL    HW110583   5.597   3.642   4.945
 3228SOL    HW210584   5.558   3.793   4.896
 3229SOL     OW10585   3.964   2.344   5.304
 3229SOL    HW110586   4.028   2.407   5.260
 3229SOL    HW210587   4.005   2.309   5.389
 3230SOL     OW10588   1.288   0.616   3.798
 3230SOL    HW110589   1.281   0.519   3.821
 3230SOL    HW210590   1.325   0.666   3.877
 3231SOL     OW10591   6.016   6.000   1.262
 3231SOL    HW110592   6.035   5.957   1.174
 3231SOL    HW210593   5.920   5.986   1.286
 3232SOL     OW10594   1.589   4.801   3.892
 3232SOL    HW110595   1.591   4.841   3.984
 3232SOL    HW210596   1.604   4.703   3.899
 3233SOL     OW10597   0.505   4.023   1.135
 3233SOL    HW110598   0.416   4.002   1.176
 3233SOL    HW210599   0.531   4.117   1.158
 3234SOL     OW10600   0.457   1.776   5.394
 3234SOL    HW110601   0.431   1.728   5.310
 3234SOL    HW210602   0.535   1.731   5.436
 3235SOL     OW10603   5.088   0.085   2.566
 3235SOL    HW110604   5.166   0.057   2.622
 3235SOL    HW210605   5.118   0.097   2.472
 3236SOL     OW10606   0.685   2.972   1.920
 3236SOL    HW110607   0.669   3.041   1.850
 3236SOL    HW210608   0.748   3.009   1.989
 3237SOL     OW10609   3.260   0.350   4.539
 3237SOL    HW110610   3.262   0.378   4.442
 3237SOL    HW210611   3.237   0.429   4.596
 3238SOL     OW10612   0.137   6.574   6.986
 3238SOL    HW110613   0.172   6.667   6.993
 3238SOL    HW210614   0.134   6.547   6.889
 3239SOL     OW10615   6.667   6.925   5.587
 3239SOL    HW110616   6.678   6.898   5.683
 3239SOL    HW210617   6.653   0.006   5.582
 3240SOL     OW10618   1.054   1.772   4.511
 3240SOL    HW110619   0.981   1.709   4.483
 3240SOL    HW210620   1.121   1.723   4.567
 3241SOL     OW10621   5.727   0.762   4.474
 3241SOL    HW110622   5.696   0.819   4.550
 3241SOL    HW210623   5.663   0.685   4.462
 3242SOL     OW10624   3.743   6.610   0.527
 3242SOL    HW110625   3.683   6.680   0.488
 3242SOL    HW210626   3.720   6.597   0.623
 3243SOL     OW10627   3.569   5.406   0.579
 3243SOL    HW110628   3.661   5.444   0.581
 3243SOL    HW210629   3.565   5.328   0.516
 3244SOL     OW10630   3.065   6.244   6.412
 3244SOL    HW110631   3.064   6.323   6.473
 3244SOL    HW210632   3.012   6.170   6.453
 3245SOL     OW10633   3.882   2.483   6.390
 3245SOL    HW110634   3.795   2.477   6.440
 3245SOL    HW210635   3.873   2.440   6.301
 3246SOL     OW10636   5.688   6.395   3.698
 3246SOL    HW110637   5.659   6.323   3.760
 3246SOL    HW210638   5.652   6.377   3.606
 3247SOL     OW10639   0.463   2.740   4.148
 3247SOL    HW110640   0.520   2.706   4.074
 3247SOL    HW210641   0.474   2.839   4.155
 3248SOL     OW10642   6.063   3.885   1.966
 3248SOL    HW110643   6.027   3.823   1.897
 3248SOL    HW210644   6.134   3.839   2.019
 3249SOL     OW10645   2.325   4.301   4.832
 3249SOL    HW110646   2.338   4.213   4.879
 3249SOL    HW210647   2.325   4.375   4.898
 3250SOL     OW10648   4.044   6.469   1.829
 3250SOL    HW110649   4.111   6.537   1.798
 3250SOL    HW210650   4.041   6.470   1.929
 3251SOL     OW10651   3.032   0.613   3.264
 3251SOL    HW110652   3.065   0.706   3.278
 3251SOL    HW210653   2.950   0.614   3.207
 3252SOL     OW10654   3.324   2.144   2.992
 3252SOL    HW110655   3.299   2.122   3.086
 3252SOL    HW210656   3.423   2.136   2.980
 3253SOL     OW10657   4.890   3.189   1.000
 3253SOL    HW110658   4.913   3.135   1.081
 3253SOL    HW210659   4.793   3.213   1.003
 3254SOL     OW10660   5.437   5.115   2.639
 3254SOL    HW110661   5.428   5.161   2.728
 3254SOL    HW210662   5.355   5.131   2.584
 3255SOL     OW10663   4.169   4.766   0.335
 3255SOL    HW110664   4.256   4.759   0.285
 3255SOL    HW210665   4.139   4.862   0.336
 3256SOL     OW10666   6.883   5.997   5.359
 3256SOL    HW110667   6.846   5.982   5.451
 3256SOL    HW210668   6.819   6.051   5.305
 3257SOL     OW10669   2.320   2.323   0.616
 3257SOL    HW110670   2.234   2.375   0.614
 3257SOL    HW210671   2.364   2.335   0.704
 3258SOL     OW10672   6.030   0.069   1.831
 3258SOL    HW110673   5.931   0.058   1.844
 3258SOL    HW210674   6.072   0.096   1.917
 3259SOL     OW10675   5.430   6.413   3.165
 3259SOL    HW110676   5.437   6.391   3.068
 3259SOL    HW210677   5.514   6.459   3.195
 3260SOL     OW10678   1.750   2.491   6.810
 3260SOL    HW110679   1.682   2.422   6.784
 3260SOL    HW210680   1.839   2.467   6.771
 3261SOL     OW10681   4.239   0.574   2.878
 3261SOL    HW110682   4.225   0.569   2.977
 3261SOL    HW210683   4.156   0.608   2.834
 3262SOL     OW10684   3.695   1.438   3.135
 3262SOL    HW110685   3.693   1.518   3.074
 3262SOL    HW210686   3.602   1.401   3.144
 3263SOL     OW10687   3.615   5.622   1.787
 3263SOL    HW110688   3.612   5.713   1.829
 3263SOL    HW210689   3.704   5.609   1.744
 3264SOL     OW10690   5.301   5.231   6.767
 3264SOL    HW110691   5.374   5.240   6.699
 3264SOL    HW210692   5.314   5.299   6.839
 3265SOL     OW10693   4.275   0.539   6.866
 3265SOL    HW110694   4.216   0.509   6.942
 3265SOL    HW210695   4.292   0.462   6.805
 3266SOL     OW10696   0.332   1.552   5.898
 3266SOL    HW110697   0.368   1.553   5.804
 3266SOL    HW210698   0.321   1.457   5.928
 3267SOL     OW10699   3.485   2.567   1.086
 3267SOL    HW110700   3.413   2.502   1.063
 3267SOL    HW210701   3.498   2.569   1.186
 3268SOL     OW10702   0.499   4.496   6.412
 3268SOL    HW110703   0.599   4.491   6.419
 3268SOL    HW210704   0.460   4.405   6.423
 3269SOL     OW10705   4.623   3.641   0.761
 3269SOL    HW110706   4.567   3.650   0.679
 3269SOL    HW210707   4.613   3.723   0.817
 3270SOL     OW10708   1.278   6.343   4.705
 3270SOL    HW110709   1.367   6.368   4.741
 3270SOL    HW210710   1.208   6.402   4.745
 3271SOL     OW10711   5.753   2.003   1.018
 3271SOL    HW110712   5.810   2.052   0.952
 3271SOL    HW210713   5.779   1.906   1.019
 3272SOL     OW10714   5.362   0.353   0.142
 3272SOL    HW110715   5.440   0.409   0.171
 3272SOL    HW210716   5.369   0.263   0.184
 3273SOL     OW10717   6.402   6.822   2.453
 3273SOL    HW110718   6.446   6.889   2.393
 3273SOL    HW210719   6.358   6.751   2.397
 3274SOL     OW10720   3.566   2.048   6.227
 3274SOL    HW110721   3.503   1.970   6.236
 3274SOL    HW210722   3.586   2.085   6.318
 3275SOL     OW10723   2.819   1.225   6.745
 3275SOL    HW110724   2.867   1.188   6.666
 3275SOL    HW210725   2.730   1.261   6.716
 3276SOL     OW10726   3.132   6.210   0.200
 3276SOL    HW110727   3.045   6.181   0.239
 3276SOL    HW210728   3.142   6.171   0.108
 3277SOL     OW10729   6.940   6.649   5.132
 3277SOL    HW110730   6.890   6.727   5.171
 3277SOL    HW210731   6.979   6.676   5.044
 3278SOL     OW10732   1.287   1.008   6.876
 3278SOL    HW110733   1.383   1.008   6.901
 3278SOL    HW210734   1.259   1.101   6.851
 3279SOL     OW10735   1.980   6.979   0.834
 3279SOL    HW110736   2.021   6.905   0.887
 3279SOL    HW210737   2.007   0.048   0.873
 3280SOL     OW10738   1.534   4.903   6.300
 3280SOL    HW110739   1.525   4.811   6.338
 3280SOL    HW210740   1.628   4.916   6.268
 3281SOL     OW10741   2.705   5.793   0.123
 3281SOL    HW110742   2.708   5.801   0.223
 3281SOL    HW210743   2.759   5.867   0.082
 3282SOL     OW10744   2.032   5.660   2.724
 3282SOL    HW110745   2.024   5.757   2.705
 3282SOL    HW210746   2.045   5.646   2.822
 3283SOL     OW10747   2.279   0.379   3.671
 3283SOL    HW110748   2.312   0.397   3.578
 3283SOL    HW210749   2.226   0.294   3.672
 3284SOL     OW10750   6.878   3.793   6.662
 3284SOL    HW110751   6.896   3.797   6.761
 3284SOL    HW210752   6.907   3.704   6.626
 3285SOL     OW10753   6.926   2.206   4.194
 3285SOL    HW110754   6.969   2.278   4.140
 3285SOL    HW210755   6.996   2.154   4.242
 3286SOL     OW10756   3.387   4.462   5.469
 3286SOL    HW110757   3.390   4.403   5.549
 3286SOL    HW210758   3.304   4.519   5.472
 3287SOL     OW10759   1.156   5.194   1.155
 3287SOL    HW110760   1.228   5.192   1.086
 3287SOL    HW210761   1.070   5.224   1.112
 3288SOL     OW10762   0.502   6.486   6.869
 3288SOL    HW110763   0.461   6.451   6.953
 3288SOL    HW210764   0.497   6.416   6.797
 3289SOL     OW10765   1.826   5.562   4.242
 3289SOL    HW110766   1.804   5.557   4.339
 3289SOL    HW210767   1.892   5.490   4.219
 3290SOL     OW10768   6.739   5.062   1.252
 3290SOL    HW110769   6.821   5.117   1.268
 3290SOL    HW210770   6.755   4.999   1.176
 3291SOL     OW10771   2.233   0.003   1.067
 3291SOL    HW110772   2.159   6.958   1.044
 3291SOL    HW210773   2.247   0.067   0.992
 3292SOL     OW10774   0.705   6.225   6.025
 3292SOL    HW110775   0.675   6.133   6.002
 3292SOL    HW210776   0.778   6.253   5.962
 3293SOL     OW10777   6.834   1.004   3.027
 3293SOL    HW110778   6.923   0.969   2.998
 3293SOL    HW210779   6.761   0.955   2.979
 3294SOL     OW10780   0.628   0.274   0.156
 3294SOL    HW110781   0.601   0.367   0.132
 3294SOL    HW210782   0.599   0.253   0.249
 3295SOL     OW10783   1.224   2.579   6.357
 3295SOL    HW110784   1.163   2.600   6.281
 3295SOL    HW210785   1.190   2.500   6.407
 3296SOL     OW10786   0.498   6.499   2.424
 3296SOL    HW110787   0.535   6.439   2.353
 3296SOL    HW210788   0.480   6.446   2.507
 3297SOL     OW10789   3.149   2.650   6.360
 3297SOL    HW110790   3.157   2.666   6.458
 3297SOL    HW210791   3.229   2.600   6.328
 3298SOL     OW10792   6.179   3.359   3.118
 3298SOL    HW110793   6.089   3.374   3.078
 3298SOL    HW210794   6.223   3.447   3.137
 3299SOL     OW10795   2.204   6.964   4.972
 3299SOL    HW110796   2.206   6.888   4.907
 3299SOL    HW210797   2.296   7.001   4.983
 3300SOL     OW10798   6.420   6.930   4.698
 3300SOL    HW110799   6.399   7.002   4.632
 3300SOL    HW210800   6.469   6.856   4.652
 3301SOL     OW10801   0.410   3.567   2.362
 3301SOL    HW110802   0.351   3.574   2.442
 3301SOL    HW210803   0.433   3.659   2.329
 3302SOL     OW10804   1.085   4.925   3.687
 3302SOL    HW110805   1.159   4.869   3.723
 3302SOL    HW210806   1.047   4.883   3.605
 3303SOL     OW10807   3.297   3.656   2.991
 3303SOL    HW110808   3.350   3.690   2.913
 3303SOL    HW210809   3.274   3.560   2.976
 3304SOL     OW10810   1.071   6.230   4.368
 3304SOL    HW110811   1.048   6.179   4.284
 3304SOL    HW210812   1.001   6.213   4.437
 3305SOL     OW10813   1.448   1.083   1.979
 3305SOL    HW110814   1.509   1.126   1.913
 3305SOL    HW210815   1.501   1.054   2.059
 3306SOL     OW10816   0.937   3.416   2.844
 3306SOL    HW110817   1.003   3.467   2.789
 3306SOL    HW210818   0.849   3.464   2.844
 3307SOL     OW10819   0.621   5.924   0.298
 3307SOL    HW110820   0.684   5.911   0.221
 3307SOL    HW210821   0.554   5.994   0.275
 3308SOL     OW10822   4.437   5.888   0.729
 3308SOL    HW110823   4.348   5.928   0.705
 3308SOL    HW210824   4.481   5.945   0.798
 3309SOL     OW10825   0.683   4.971   2.927
 3309SOL    HW110826   0.597   5.016   2.902
 3309SOL    HW210827   0.749   4.983   2.852
 3310SOL     OW10828   1.497   6.470   1.786
 3310SOL    HW110829   1.408   6.444   1.822
 3310SOL    HW210830   1.508   6.569   1.794
 3311SOL     OW10831   3.758   6.231   0.710
 3311SOL    HW110832   3.700   6.311   0.693
 3311SOL    HW210833   3.834   6.258   0.769
 3312SOL     OW10834   2.694   3.684   6.928
 3312SOL    HW110835   2.676   3.629   6.847
 3312SOL    HW210836   2.630   3.657   7.001
 3313SOL     OW10837   6.923   5.221   4.524
 3313SOL    HW110838   6.985   5.235   4.447
 3313SOL    HW210839   6.836   5.185   4.491
 3314SOL     OW10840   0.780   3.247   6.039
 3314SOL    HW110841   0.737   3.263   6.127
 3314SOL    HW210842   0.756   3.155   6.007
 3315SOL     OW10843   6.940   1.955   2.805
 3315SOL    HW110844   6.965   2.050   2.823
 3315SOL    HW210845   6.840   1.947   2.803
 3316SOL     OW10846   4.645   0.771   0.550
 3316SOL    HW110847   4.610   0.865   0.547
 3316SOL    HW210848   4.580   0.711   0.504
 3317SOL     OW10849   4.210   2.614   1.631
 3317SOL    HW110850   4.274   2.582   1.562
 3317SOL    HW210851   4.117   2.595   1.601
 3318SOL     OW10852   3.033   5.521   4.708
 3318SOL    HW110853   3.040   5.422   4.707
 3318SOL    HW210854   2.986   5.553   4.626
 3319SOL     OW10855   0.630   5.570   4.832
 3319SOL    HW110856   0.646   5.569   4.733
 3319SOL    HW210857   0.653   5.480   4.870
 3320SOL     OW10858   0.110   1.084   6.323
 3320SOL    HW110859   0.034   1.131   6.367
 3320SOL    HW210860   0.112   0.989   6.354
 3321SOL     OW10861   3.654   4.056   3.759
 3321SOL    HW110862   3.593   4.135   3.755
 3321SOL    HW210863   3.611   3.982   3.811
 3322SOL     OW10864   4.357   1.711   1.600
 3322SOL    HW110865   4.269   1.739   1.638
 3322SOL    HW210866   4.390   1.780   1.536
 3323SOL     OW10867   2.229   5.282   0.325
 3323SOL    HW110868   2.255   5.208   0.263
 3323SOL    HW210869   2.131   5.302   0.313
 3324SOL     OW10870   0.630   2.051   0.428
 3324SOL    HW110871   0.552   2.110   0.410
 3324SOL    HW210872   0.714   2.105   0.425
 3325SOL     OW10873   1.934   3.242   0.668
 3325SOL    HW110874   1.871   3.179   0.623
 3325SOL    HW210875   1.994   3.191   0.729
 3326SOL     OW10876   6.622   0.759   1.752
 3326SOL    HW110877   6.704   0.787   1.803
 3326SOL    HW210878   6.648   0.736   1.658
 3327SOL     OW10879   3.112   6.214   1.939
 3327SOL    HW110880   3.021   6.249   1.916
 3327SOL    HW210881   3.154   6.274   2.007
 3328SOL     OW10882   4.354   1.169   2.484
 3328SOL    HW110883   4.374   1.262   2.454
 3328SOL    HW210884   4.257   1.162   2.510
 3329SOL     OW10885   5.030   0.913   5.249
 3329SOL    HW110886   4.962   0.878   5.313
 3329SOL    HW210887   5.121   0.906   5.289
 3330SOL     OW10888   6.672   5.673   2.724
 3330SOL    HW110889   6.666   5.678   2.824
 3330SOL    HW210890   6.742   5.736   2.691
 3331SOL     OW10891   2.092   3.254   2.635
 3331SOL    HW110892   2.122   3.320   2.567
 3331SOL    HW210893   2.073   3.166   2.591
 3332SOL     OW10894   3.488   5.067   1.321
 3332SOL    HW110895   3.393   5.035   1.326
 3332SOL    HW210896   3.490   5.167   1.321
 3333SOL     OW10897   2.644   3.060   1.567
 3333SOL    HW110898   2.707   2.987   1.592
 3333SOL    HW210899   2.667   3.143   1.619
 3334SOL     OW10900   2.225   2.188   2.057
 3334SOL    HW110901   2.324   2.182   2.073
 3334SOL    HW210902   2.196   2.112   1.999
 3335SOL     OW10903   3.626   4.478   5.740
 3335SOL    HW110904   3.632   4.383   5.773
 3335SOL    HW210905   3.706   4.500   5.685
 3336SOL     OW10906   4.824   5.660   4.100
 3336SOL    HW110907   4.819   5.575   4.153
 3336SOL    HW210908   4.909   5.662   4.048
 3337SOL     OW10909   3.394   3.280   3.237
 3337SOL    HW110910   3.397   3.182   3.219
 3337SOL    HW210911   3.433   3.330   3.160
 3338SOL     OW10912   2.776   2.600   1.537
 3338SOL    HW110913   2.747   2.578   1.443
 3338SOL    HW210914   2.747   2.527   1.598
 3339SOL     OW10915   1.920   0.103   5.608
 3339SOL    HW110916   1.941   0.028   5.546
 3339SOL    HW210917   1.887   0.067   5.695
 3340SOL     OW10918   3.965   0.882   4.014
 3340SOL    HW110919   3.901   0.832   3.955
 3340SOL    HW210920   3.914   0.950   4.067
 3341SOL     OW10921   1.704   3.632   2.822
 3341SOL    HW110922   1.738   3.573   2.895
 3341SOL    HW210923   1.747   3.605   2.736
 3342SOL     OW10924   0.226   0.948   2.187
 3342SOL    HW110925   0.180   0.859   2.185
 3342SOL    HW210926   0.258   0.967   2.280
 3343SOL     OW10927   4.860   5.111   6.566
 3343SOL    HW110928   4.943   5.102   6.621
 3343SOL    HW210929   4.875   5.180   6.494
 3344SOL     OW10930   0.611   3.304   2.035
 3344SOL    HW110931   0.556   3.367   1.980
 3344SOL    HW210932   0.606   3.332   2.131
 3345SOL     OW10933   6.337   5.235   6.817
 3345SOL    HW110934   6.307   5.325   6.785
 3345SOL    HW210935   6.392   5.246   6.900
 3346SOL     OW10936   1.834   0.692   0.325
 3346SOL    HW110937   1.819   0.623   0.253
 3346SOL    HW210938   1.765   0.680   0.396
 3347SOL     OW10939   0.314   3.933   6.023
 3347SOL    HW110940   0.360   4.021   6.021
 3347SOL    HW210941   0.218   3.945   5.997
 3348SOL     OW10942   3.619   3.920   6.237
 3348SOL    HW110943   3.707   3.876   6.219
 3348SOL    HW210944   3.629   4.019   6.230
 3349SOL     OW10945   1.386   4.568   3.597
 3349SOL    HW110946   1.368   4.567   3.695
 3349SOL    HW210947   1.472   4.614   3.579
 3350SOL     OW10948   1.485   4.393   4.714
 3350SOL    HW110949   1.526   4.302   4.726
 3350SOL    HW210950   1.556   4.458   4.687
 3351SOL     OW10951   4.986   0.821   1.736
 3351SOL    HW110952   4.973   0.742   1.676
 3351SOL    HW210953   5.060   0.801   1.801
 3352SOL     OW10954   6.426   1.256   6.855
 3352SOL    HW110955   6.447   1.351   6.832
 3352SOL    HW210956   6.394   1.208   6.773
 3353SOL     OW10957   3.522   0.212   1.338
 3353SOL    HW110958   3.477   0.123   1.337
 3353SOL    HW210959   3.583   0.219   1.258
 3354SOL     OW10960   2.792   4.239   6.463
 3354SOL    HW110961   2.745   4.195   6.539
 3354SOL    HW210962   2.810   4.172   6.391
 3355SOL     OW10963   1.991   0.738   5.021
 3355SOL    HW110964   1.973   0.794   4.940
 3355SOL    HW210965   2.023   0.647   4.992
 3356SOL     OW10966   1.754   0.604   6.301
 3356SOL    HW110967   1.800   0.542   6.365
 3356SOL    HW210968   1.699   0.551   6.237
 3357SOL     OW10969   3.051   3.159   1.654
 3357SOL    HW110970   3.067   3.061   1.658
 3357SOL    HW210971   2.989   3.180   1.578
 3358SOL     OW10972   6.762   0.705   1.462
 3358SOL    HW110973   6.674   0.685   1.418
 3358SOL    HW210974   6.782   0.635   1.531
 3359SOL     OW10975   0.436   6.477   4.720
 3359SOL    HW110976   0.430   6.575   4.704
 3359SOL    HW210977   0.529   6.446   4.702
 3360SOL     OW10978   1.404   3.739   4.274
 3360SOL    HW110979   1.483   3.679   4.264
 3360SOL    HW210980   1.325   3.698   4.229
 3361SOL     OW10981   6.537   6.695   4.591
 3361SOL    HW110982   6.572   6.647   4.511
 3361SOL    HW210983   6.609   6.702   4.660
 3362SOL     OW10984   4.032   0.547   3.825
 3362SOL    HW110985   3.954   0.599   3.861
 3362SOL    HW210986   4.073   0.597   3.749
 3363SOL     OW10987   5.665   3.794   6.852
 3363SOL    HW110988   5.626   3.766   6.764
 3363SOL    HW210989   5.696   3.889   6.846
 3364SOL     OW10990   1.771   3.377   2.950
 3364SOL    HW110991   1.724   3.328   2.876
 3364SOL    HW210992   1.863   3.340   2.961
 3365SOL     OW10993   2.156   4.034   3.372
 3365SOL    HW110994   2.061   4.046   3.403
 3365SOL    HW210995   2.156   3.999   3.278
 3366SOL     OW10996   5.945   3.939   4.270
 3366SOL    HW110997   5.994   3.917   4.355
 3366SOL    HW210998   5.889   4.020   4.285
 3367SOL     OW10999   3.977   3.818   3.478
 3367SOL    HW111000   3.982   3.875   3.560
 3367SOL    HW211001   3.884   3.784   3.467
 3368SOL     OW11002   1.619   0.454   1.906
 3368SOL    HW111003   1.697   0.417   1.855
 3368SOL    HW211004   1.646   0.470   2.001
 3369SOL     OW11005   4.921   1.855   0.731
 3369SOL    HW111006   4.862   1.889   0.803
 3369SOL    HW211007   5.008   1.906   0.732
 3370SOL     OW11008   0.978   5.538   2.576
 3370SOL    HW111009   0.923   5.617   2.548
 3370SOL    HW211010   0.987   5.475   2.498
 3371SOL     OW11011   2.245   2.862   2.295
 3371SOL    HW111012   2.314   2.865   2.222
 3371SOL    HW211013   2.238   2.769   2.331
 3372SOL     OW11014   6.506   3.393   2.880
 3372SOL    HW111015   6.519   3.376   2.783
 3372SOL    HW211016   6.434   3.332   2.915
 3373SOL     OW11017   6.575   2.953   1.448
 3373SOL    HW111018   6.477   2.954   1.426
 3373SOL    HW211019   6.616   2.868   1.414
 3374SOL     OW11020   0.513   6.696   4.260
 3374SOL    HW111021   0.610   6.699   4.238
 3374SOL    HW211022   0.491   6.772   4.323
 3375SOL     OW11023   6.759   4.980   5.582
 3375SOL    HW111024   6.845   4.946   5.619
 3375SOL    HW211025   6.769   4.996   5.484
 3376SOL     OW11026   3.276   3.380   4.119
 3376SOL    HW111027   3.193   3.377   4.173
 3376SOL    HW211028   3.343   3.316   4.157
 3377SOL     OW11029   6.515   5.124   3.738
 3377SOL    HW111030   6.524   5.115   3.639
 3377SOL    HW211031   6.419   5.142   3.761
 3378SOL     OW11032   1.403   6.195   0.145
 3378SOL    HW111033   1.463   6.126   0.106
 3378SOL    HW211034   1.393   6.180   0.244
 3379SOL     OW11035   6.887   4.150   3.651
 3379SOL    HW111036   6.861   4.096   3.572
 3379SOL    HW211037   6.938   4.231   3.621
 3380SOL     OW11038   2.619   4.722   0.675
 3380SOL    HW111039   2.575   4.632   0.676
 3380SOL    HW211040   2.692   4.723   0.607
 3381SOL     OW11041   1.842   3.482   6.312
 3381SOL    HW111042   1.746   3.508   6.327
 3381SOL    HW211043   1.868   3.503   6.218
 3382SOL     OW11044   0.026   3.374   0.544
 3382SOL    HW111045   0.029   3.275   0.549
 3382SOL    HW211046   0.056   3.404   0.453
 3383SOL     OW11047   4.455   5.176   0.641
 3383SOL    HW111048   4.447   5.166   0.740
 3383SOL    HW211049   4.421   5.094   0.595
 3384SOL     OW11050   3.265   4.167   6.545
 3384SOL    HW111051   3.339   4.221   6.586
 3384SOL    HW211052   3.275   4.167   6.446
 3385SOL     OW11053   0.176   2.154   3.963
 3385SOL    HW111054   0.120   2.235   3.942
 3385SOL    HW211055   0.172   2.135   4.061
 3386SOL     OW11056   0.384   4.398   4.877
 3386SOL    HW111057   0.462   4.421   4.936
 3386SOL    HW211058   0.299   4.421   4.924
 3387SOL     OW11059   6.318   1.058   3.193
 3387SOL    HW111060   6.242   0.994   3.194
 3387SOL    HW211061   6.284   1.151   3.209
 3388SOL     OW11062   6.757   3.928   1.052
 3388SOL    HW111063   6.789   3.999   0.990
 3388SOL    HW211064   6.755   3.963   1.146
 3389SOL     OW11065   5.567   6.148   6.895
 3389SOL    HW111066   5.560   6.052   6.923
 3389SOL    HW211067   5.652   6.162   6.844
 3390SOL     OW11068   2.910   5.732   6.119
 3390SOL    HW111069   2.962   5.802   6.167
 3390SOL    HW211070   2.842   5.775   6.060
 3391SOL     OW11071   5.663   3.561   4.206
 3391SOL    HW111072   5.759   3.533   4.206
 3391SOL    HW211073   5.652   3.642   4.263
 3392SOL     OW11074   4.833   0.083   5.774
 3392SOL    HW111075   4.811   0.177   5.802
 3392SOL    HW211076   4.921   0.057   5.815
 3393SOL     OW11077   4.982   6.066   0.531
 3393SOL    HW111078   4.913   6.119   0.481
 3393SOL    HW211079   4.980   6.091   0.627
 3394SOL     OW11080   2.483   5.479   1.237
 3394SOL    HW111081   2.397   5.530   1.236
 3394SOL    HW211082   2.531   5.491   1.150
 3395SOL     OW11083   2.103   0.164   3.574
 3395SOL    HW111084   2.032   0.174   3.505
 3395SOL    HW211085   2.155   0.080   3.557
 3396SOL     OW11086   4.722   1.135   4.464
 3396SOL    HW111087   4.627   1.155   4.489
 3396SOL    HW211088   4.768   1.219   4.437
 3397SOL     OW11089   2.401   5.523   6.978
 3397SOL    HW111090   2.437   5.476   0.041
 3397SOL    HW211091   2.454   5.496   6.898
 3398SOL     OW11092   6.580   2.452   4.980
 3398SOL    HW111093   6.562   2.354   4.968
 3398SOL    HW211094   6.613   2.490   4.893
 3399SOL     OW11095   6.795   6.302   1.724
 3399SOL    HW111096   6.804   6.400   1.703
 3399SOL    HW211097   6.880   6.256   1.702
 3400SOL     OW11098   4.905   2.402   6.087
 3400SOL    HW111099   4.966   2.327   6.112
 3400SOL    HW211100   4.818   2.366   6.054
 3401SOL     OW11101   5.982   3.596   5.633
 3401SOL    HW111102   6.064   3.640   5.669
 3401SOL    HW211103   5.901   3.637   5.676
 3402SOL     OW11104   6.020   3.464   1.440
 3402SOL    HW111105   6.065   3.536   1.493
 3402SOL    HW211106   5.955   3.415   1.498
 3403SOL     OW11107   5.344   6.431   6.398
 3403SOL    HW111108   5.420   6.483   6.359
 3403SOL    HW211109   5.351   6.431   6.497
 3404SOL     OW11110   5.057   4.239   4.811
 3404SOL    HW111111   4.973   4.190   4.833
 3404SOL    HW211112   5.128   4.214   4.876
 3405SOL     OW11113   5.240   6.345   6.998
 3405SOL    HW111114   5.260   6.268   6.937
 3405SOL    HW211115   5.142   6.361   7.001
 3406SOL     OW11116   2.565   5.166   1.720
 3406SOL    HW111117   2.648   5.136   1.767
 3406SOL    HW211118   2.589   5.211   1.634
 3407SOL     OW11119   0.979   3.940   6.841
 3407SOL    HW111120   0.927   3.866   6.799
 3407SOL    HW211121   0.944   4.028   6.809
 3408SOL     OW11122   4.822   0.763   3.856
 3408SOL    HW111123   4.904   0.762   3.799
 3408SOL    HW211124   4.816   0.677   3.907
 3409SOL     OW11125   4.425   0.563   1.316
 3409SOL    HW111126   4.386   0.521   1.235
 3409SOL    HW211127   4.410   0.662   1.313
 3410SOL     OW11128   6.369   0.497   3.636
 3410SOL    HW111129   6.414   0.435   3.571
 3410SOL    HW211130   6.437   0.558   3.676
 3411SOL     OW11131   5.571   3.200   6.680
 3411SOL    HW111132   5.644   3.148   6.724
 3411SOL    HW211133   5.536   3.149   6.601
 3412SOL     OW11134   5.447   3.072   2.149
 3412SOL    HW111135   5.528   3.104   2.196
 3412SOL    HW211136   5.472   3.002   2.081
 3413SOL     OW11137   0.068   1.515   0.019
 3413SOL    HW111138   0.016   1.500   0.104
 3413SOL    HW211139   0.034   1.597   6.992
 3414SOL     OW11140   3.271   4.092   1.071
 3414SOL    HW111141   3.223   4.039   1.001
 3414SOL    HW211142   3.283   4.037   1.153
 3415SOL     OW11143   1.850   1.369   6.515
 3415SOL    HW111144   1.851   1.450   6.457
 3415SOL    HW211145   1.808   1.293   6.465
 3416SOL     OW11146   5.927   6.868   6.587
 3416SOL    HW111147   5.920   6.957   6.632
 3416SOL    HW211148   6.015   6.825   6.610
 3417SOL     OW11149   5.519   6.594   3.435
 3417SOL    HW111150   5.424   6.571   3.456
 3417SOL    HW211151   5.523   6.684   3.393
 3418SOL     OW11152   4.431   5.225   0.935
 3418SOL    HW111153   4.498   5.287   0.894
 3418SOL    HW211154   4.381   5.273   1.007
 3419SOL     OW11155   2.786   5.125   5.414
 3419SOL    HW111156   2.723   5.116   5.336
 3419SOL    HW211157   2.875   5.089   5.389
 3420SOL     OW11158   4.453   2.103   2.179
 3420SOL    HW111159   4.370   2.159   2.190
 3420SOL    HW211160   4.533   2.157   2.204
 3421SOL     OW11161   0.032   2.814   4.189
 3421SOL    HW111162   0.025   2.910   4.164
 3421SOL    HW211163   6.966   2.786   4.236
 3422SOL     OW11164   2.127   6.522   0.920
 3422SOL    HW111165   2.124   6.423   0.932
 3422SOL    HW211166   2.216   6.548   0.883
 3423SOL     OW11167   1.240   4.489   5.699
 3423SOL    HW111168   1.262   4.391   5.699
 3423SOL    HW211169   1.306   4.538   5.644
 3424SOL     OW11170   4.452   1.298   1.826
 3424SOL    HW111171   4.500   1.383   1.806
 3424SOL    HW211172   4.424   1.297   1.922
 3425SOL     OW11173   5.856   3.538   6.840
 3425SOL    HW111174   5.831   3.599   6.765
 3425SOL    HW211175   5.791   3.462   6.845
 3426SOL     OW11176   5.949   3.001   6.415
 3426SOL    HW111177   5.871   2.944   6.391
 3426SOL    HW211178   5.982   3.049   6.333
 3427SOL     OW11179   1.102   2.174   0.564
 3427SOL    HW111180   1.092   2.099   0.629
 3427SOL    HW211181   1.146   2.141   0.481
 3428SOL     OW11182   4.680   6.470   5.028
 3428SOL    HW111183   4.777   6.448   5.021
 3428SOL    HW211184   4.668   6.569   5.023
 3429SOL     OW11185   5.667   0.166   1.026
 3429SOL    HW111186   5.754   0.174   0.976
 3429SOL    HW211187   5.628   0.257   1.039
 3430SOL     OW11188   2.420   4.763   5.363
 3430SOL    HW111189   2.479   4.684   5.346
 3430SOL    HW211190   2.436   4.797   5.456
 3431SOL     OW11191   0.771   4.608   2.416
 3431SOL    HW111192   0.809   4.559   2.495
 3431SOL    HW211193   0.675   4.584   2.405
 3432SOL     OW11194   1.203   4.303   7.005
 3432SOL    HW111195   1.119   4.306   0.041
 3432SOL    HW211196   1.188   4.350   6.918
 3433SOL     OW11197   2.964   1.841   6.762
 3433SOL    HW111198   2.945   1.877   6.670
 3433SOL    HW211199   2.906   1.763   6.780
 3434SOL     OW11200   3.686   2.543   1.687
 3434SOL    HW111201   3.640   2.620   1.730
 3434SOL    HW211202   3.671   2.460   1.741
 3435SOL     OW11203   2.439   0.942   1.105
 3435SOL    HW111204   2.472   1.019   1.049
 3435SOL    HW211205   2.426   0.972   1.199
 3436SOL     OW11206   3.602   6.726   6.215
 3436SOL    HW111207   3.641   6.741   6.305
 3436SOL    HW211208   3.504   6.743   6.218
 3437SOL     OW11209   1.696   6.915   6.277
 3437SOL    HW111210   1.696   6.848   6.203
 3437SOL    HW211211   1.666   7.003   6.243
 3438SOL     OW11212   1.683   3.474   1.011
 3438SOL    HW111213   1.652   3.387   0.973
 3438SOL    HW211214   1.616   3.546   0.990
 3439SOL     OW11215   2.393   5.604   1.822
 3439SOL    HW111216   2.310   5.552   1.803
 3439SOL    HW211217   2.372   5.680   1.884
 3440SOL     OW11218   3.626   4.095   5.102
 3440SOL    HW111219   3.568   4.047   5.037
 3440SOL    HW211220   3.615   4.054   5.193
 3441SOL     OW11221   5.789   4.951   5.953
 3441SOL    HW111222   5.886   4.977   5.950
 3441SOL    HW211223   5.734   5.025   5.915
 3442SOL     OW11224   2.980   3.324   1.365
 3442SOL    HW111225   2.994   3.227   1.345
 3442SOL    HW211226   2.924   3.365   1.293
 3443SOL     OW11227   0.960   5.739   2.224
 3443SOL    HW111228   0.947   5.681   2.143
 3443SOL    HW211229   1.055   5.734   2.254
 3444SOL     OW11230   5.825   3.620   6.491
 3444SOL    HW111231   5.864   3.700   6.537
 3444SOL    HW211232   5.821   3.636   6.393
 3445SOL     OW11233   6.189   4.855   3.682
 3445SOL    HW111234   6.142   4.943   3.667
 3445SOL    HW211235   6.231   4.825   3.597
 3446SOL     OW11236   4.664   0.950   1.420
 3446SOL    HW111237   4.745   0.987   1.374
 3446SOL    HW211238   4.655   0.991   1.511
 3447SOL     OW11239   4.747   0.870   6.477
 3447SOL    HW111240   4.786   0.957   6.446
 3447SOL    HW211241   4.773   0.854   6.572
 3448SOL     OW11242   2.063   4.862   4.969
 3448SOL    HW111243   2.012   4.827   4.891
 3448SOL    HW211244   2.038   4.810   5.051
 3449SOL     OW11245   0.003   4.509   5.654
 3449SOL    HW111246   6.960   4.555   5.590
 3449SOL    HW211247   6.969   4.479   5.735
 3450SOL     OW11248   2.267   6.220   1.929
 3450SOL    HW111249   2.310   6.310   1.931
 3450SOL    HW211250   2.282   6.173   2.016
 3451SOL     OW11251   2.121   1.100   1.601
 3451SOL    HW111252   2.205   1.155   1.604
 3451SOL    HW211253   2.073   1.116   1.515
 3452SOL     OW11254   4.514   1.259   4.617
 3452SOL    HW111255   4.533   1.356   4.631
 3452SOL    HW211256   4.418   1.246   4.594
 3453SOL     OW11257   4.240   6.380   6.419
 3453SOL    HW111258   4.215   6.420   6.507
 3453SOL    HW211259   4.294   6.447   6.366
 3454SOL     OW11260   0.109   2.876   0.843
 3454SOL    HW111261   0.140   2.790   0.882
 3454SOL    HW211262   0.153   2.890   0.754
 3455SOL     OW11263   0.891   2.966   5.373
 3455SOL    HW111264   0.870   2.898   5.303
 3455SOL    HW211265   0.989   2.986   5.372
 3456SOL     OW11266   5.309   5.902   3.898
 3456SOL    HW111267   5.330   5.957   3.817
 3456SOL    HW211268   5.377   5.920   3.969
 3457SOL     OW11269   2.642   4.486   6.541
 3457SOL    HW111270   2.608   4.551   6.472
 3457SOL    HW211271   2.742   4.481   6.534
 3458SOL     OW11272   4.235   1.098   1.841
 3458SOL    HW111273   4.242   0.999   1.844
 3458SOL    HW211274   4.325   1.139   1.856
 3459SOL     OW11275   4.974   6.136   2.404
 3459SOL    HW111276   5.020   6.190   2.475
 3459SOL    HW211277   5.018   6.046   2.398
 3460SOL     OW11278   3.932   1.718   4.783
 3460SOL    HW111279   3.943   1.620   4.764
 3460SOL    HW211280   4.018   1.765   4.763
 3461SOL     OW11281   5.713   5.007   4.752
 3461SOL    HW111282   5.753   5.016   4.844
 3461SOL    HW211283   5.666   4.920   4.744
 3462SOL     OW11284   1.342   3.646   6.348
 3462SOL    HW111285   1.308   3.574   6.287
 3462SOL    HW211286   1.300   3.733   6.323
 3463SOL     OW11287   5.155   4.156   0.749
 3463SOL    HW111288   5.254   4.141   0.751
 3463SOL    HW211289   5.110   4.088   0.807
 3464SOL     OW11290   7.002   4.610   4.978
 3464SOL    HW111291   6.907   4.630   5.001
 3464SOL    HW211292   0.001   4.632   4.882
 3465SOL     OW11293   0.887   1.318   2.197
 3465SOL    HW111294   0.873   1.412   2.229
 3465SOL    HW211295   0.913   1.320   2.100
 3466SOL     OW11296   6.256   3.871   5.274
 3466SOL    HW111297   6.165   3.842   5.304
 3466SOL    HW211298   6.259   3.874   5.174
 3467SOL     OW11299   2.158   3.131   6.621
 3467SOL    HW111300   2.191   3.090   6.535
 3467SOL    HW211301   2.108   3.215   6.600
 3468SOL     OW11302   4.236   6.734   2.970
 3468SOL    HW111303   4.212   6.783   2.886
 3468SOL    HW211304   4.261   6.800   3.041
 3469SOL     OW11305   4.843   3.628   2.472
 3469SOL    HW111306   4.911   3.574   2.521
 3469SOL    HW211307   4.805   3.575   2.397
 3470SOL     OW11308   6.922   5.591   1.327
 3470SOL    HW111309   6.954   5.550   1.412
 3470SOL    HW211310   6.947   5.532   1.250
 3471SOL     OW11311   4.058   0.625   4.721
 3471SOL    HW111312   4.026   0.530   4.726
 3471SOL    HW211313   4.108   0.647   4.805
 3472SOL     OW11314   3.831   1.227   5.345
 3472SOL    HW111315   3.739   1.188   5.347
 3472SOL    HW211316   3.899   1.155   5.358
 3473SOL     OW11317   5.005   0.449   4.937
 3473SOL    HW111318   4.950   0.530   4.959
 3473SOL    HW211319   5.036   0.407   5.022
 3474SOL     OW11320   5.310   4.341   0.555
 3474SOL    HW111321   5.217   4.362   0.526
 3474SOL    HW211322   5.348   4.270   0.497
 3475SOL     OW11323   2.115   6.302   5.005
 3475SOL    HW111324   2.107   6.278   5.102
 3475SOL    HW211325   2.024   6.306   4.964
 3476SOL     OW11326   4.533   1.730   4.231
 3476SOL    HW111327   4.622   1.774   4.242
 3476SOL    HW211328   4.486   1.768   4.152
 3477SOL     OW11329   4.527   5.708   1.913
 3477SOL    HW111330   4.623   5.683   1.929
 3477SOL    HW211331   4.523   5.797   1.867
 3478SOL     OW11332   4.005   4.830   6.609
 3478SOL    HW111333   3.909   4.807   6.623
 3478SOL    HW211334   4.041   4.873   6.692
 3479SOL     OW11335   0.628   0.552   1.967
 3479SOL    HW111336   0.663   0.510   1.883
 3479SOL    HW211337   0.652   0.649   1.969
 3480SOL     OW11338   1.449   1.170   4.107
 3480SOL    HW111339   1.375   1.198   4.047
 3480SOL    HW211340   1.413   1.112   4.180
 3481SOL     OW11341   2.322   6.856   6.448
 3481SOL    HW111342   2.317   6.951   6.417
 3481SOL    HW211343   2.237   6.809   6.425
 3482SOL     OW11344   1.049   1.578   1.062
 3482SOL    HW111345   0.962   1.608   1.022
 3482SOL    HW211346   1.031   1.524   1.145
 3483SOL     OW11347   3.551   1.161   0.681
 3483SOL    HW111348   3.469   1.126   0.635
 3483SOL    HW211349   3.618   1.088   0.689
 3484SOL     OW11350   3.093   3.378   3.544
 3484SOL    HW111351   3.046   3.327   3.616
 3484SOL    HW211352   3.170   3.428   3.584
 3485SOL     OW11353   6.937   1.586   4.572
 3485SOL    HW111354   0.009   1.629   4.574
 3485SOL    HW211355   6.883   1.619   4.649
 3486SOL     OW11356   4.580   1.883   2.745
 3486SOL    HW111357   4.504   1.872   2.680
 3486SOL    HW211358   4.649   1.944   2.707
 3487SOL     OW11359   0.727   0.675   6.761
 3487SOL    HW111360   0.782   0.743   6.811
 3487SOL    HW211361   0.649   0.721   6.719
 3488SOL     OW11362   6.026   3.080   3.747
 3488SOL    HW111363   6.107   3.128   3.713
 3488SOL    HW211364   5.989   3.128   3.827
 3489SOL     OW11365   2.394   6.627   0.845
 3489SOL    HW111366   2.388   6.727   0.846
 3489SOL    HW211367   2.489   6.598   0.856
 3490SOL     OW11368   3.667   3.160   0.654
 3490SOL    HW111369   3.641   3.113   0.738
 3490SOL    HW211370   3.619   3.248   0.650
 3491SOL     OW11371   6.709   2.863   5.178
 3491SOL    HW111372   6.772   2.801   5.132
 3491SOL    HW211373   6.710   2.952   5.131
 3492SOL     OW11374   5.811   5.215   6.495
 3492SOL    HW111375   5.751   5.135   6.495
 3492SOL    HW211376   5.839   5.235   6.401
 3493SOL     OW11377   6.862   5.208   0.562
 3493SOL    HW111378   6.905   5.207   0.652
 3493SOL    HW211379   6.855   5.114   0.528
 3494SOL     OW11380   2.996   6.551   1.111
 3494SOL    HW111381   2.970   6.458   1.084
 3494SOL    HW211382   3.095   6.556   1.122
 3495SOL     OW11383   5.213   4.694   0.600
 3495SOL    HW111384   5.206   4.611   0.656
 3495SOL    HW211385   5.280   4.757   0.640
 3496SOL     OW11386   1.634   4.378   0.603
 3496SOL    HW111387   1.647   4.329   0.517
 3496SOL    HW211388   1.542   4.418   0.605
 3497SOL     OW11389   4.556   6.687   3.770
 3497SOL    HW111390   4.595   6.597   3.788
 3497SOL    HW211391   4.507   6.719   3.851
 3498SOL     OW11392   1.746   1.514   1.772
 3498SOL    HW111393   1.795   1.520   1.859
 3498SOL    HW211394   1.649   1.536   1.786
 3499SOL     OW11395   6.176   3.636   3.775
 3499SOL    HW111396   6.181   3.559   3.838
 3499SOL    HW211397   6.095   3.691   3.794
 3500SOL     OW11398   6.412   2.615   0.669
 3500SOL    HW111399   6.361   2.638   0.586
 3500SOL    HW211400   6.355   2.631   0.749
 3501SOL     OW11401   0.733   4.361   4.004
 3501SOL    HW111402   0.766   4.455   4.011
 3501SOL    HW211403   0.756   4.312   4.088
 3502SOL     OW11404   1.264   3.671   1.478
 3502SOL    HW111405   1.287   3.729   1.399
 3502SOL    HW211406   1.172   3.693   1.509
 3503SOL     OW11407   4.653   6.175   3.801
 3503SOL    HW111408   4.690   6.133   3.884
 3503SOL    HW211409   4.631   6.103   3.735
 3504SOL     OW11410   2.069   2.987   2.489
 3504SOL    HW111411   2.129   2.938   2.426
 3504SOL    HW211412   1.988   2.931   2.507
 3505SOL     OW11413   4.619   5.620   4.804
 3505SOL    HW111414   4.690   5.565   4.760
 3505SOL    HW211415   4.539   5.625   4.744
 3506SOL     OW11416   5.704   4.758   2.145
 3506SOL    HW111417   5.744   4.845   2.117
 3506SOL    HW211418   5.654   4.770   2.231
 3507SOL     OW11419   0.697   0.768   6.270
 3507SOL    HW111420   0.687   0.786   6.173
 3507SOL    HW211421   0.737   0.678   6.284
 3508SOL     OW11422   6.552   3.298   6.718
 3508SOL    HW111423   6.537   3.358   6.639
 3508SOL    HW211424   6.627   3.236   6.698
 3509SOL     OW11425   7.000   0.084   0.959
 3509SOL    HW111426   0.065   0.035   0.982
 3509SOL    HW211427   6.953   0.111   1.044
 3510SOL     OW11428   1.551   2.844   1.531
 3510SOL    HW111429   1.520   2.867   1.438
 3510SOL    HW211430   1.524   2.750   1.552
 3511SOL     OW11431   0.659   0.732   5.175
 3511SOL    HW111432   0.564   0.756   5.151
 3511SOL    HW211433   0.675   0.753   5.271
 3512SOL     OW11434   3.235   3.146   1.215
 3512SOL    HW111435   3.239   3.242   1.242
 3512SOL    HW211436   3.195   3.092   1.290
 3513SOL     OW11437   5.968   4.362   1.337
 3513SOL    HW111438   5.970   4.405   1.246
 3513SOL    HW211439   5.956   4.433   1.406
 3514SOL     OW11440   1.445   6.753   1.748
 3514SOL    HW111441   1.527   6.760   1.691
 3514SOL    HW211442   1.368   6.724   1.692
 3515SOL     OW11443   3.306   6.123   3.463
 3515SOL    HW111444   3.235   6.103   3.396
 3515SOL    HW211445   3.307   6.222   3.481
 3516SOL     OW11446   3.329   1.003   0.579
 3516SOL    HW111447   3.270   1.051   0.514
 3516SOL    HW211448   3.312   0.904   0.572
 3517SOL     OW11449   1.117   0.814   6.825
 3517SOL    HW111450   1.185   0.883   6.845
 3517SOL    HW211451   1.150   0.724   6.853
 3518SOL     OW11452   4.526   3.486   6.111
 3518SOL    HW111453   4.483   3.440   6.188
 3518SOL    HW211454   4.505   3.584   6.114
 3519SOL     OW11455   2.762   6.684   1.084
 3519SOL    HW111456   2.788   6.736   1.002
 3519SOL    HW211457   2.843   6.639   1.122
 3520SOL     OW11458   3.498   5.628   1.301
 3520SOL    HW111459   3.461   5.717   1.274
 3520SOL    HW211460   3.424   5.562   1.307
 3521SOL     OW11461   5.563   2.413   0.109
 3521SOL    HW111462   5.659   2.399   0.134
 3521SOL    HW211463   5.552   2.506   0.073
 3522SOL     OW11464   3.173   5.736   1.779
 3522SOL    HW111465   3.104   5.671   1.746
 3522SOL    HW211466   3.127   5.814   1.822
 3523SOL     OW11467   2.065   5.080   5.429
 3523SOL    HW111468   2.010   5.096   5.346
 3523SOL    HW211469   2.142   5.021   5.406
 3524SOL     OW11470   2.986   0.041   1.995
 3524SOL    HW111471   3.016   6.975   1.949
 3524SOL    HW211472   2.939   0.099   1.929
 3525SOL     OW11473   1.594   2.967   2.656
 3525SOL    HW111474   1.520   2.987   2.592
 3525SOL    HW211475   1.587   2.872   2.685
 3526SOL     OW11476   2.383   0.161   3.369
 3526SOL    HW111477   2.471   0.128   3.404
 3526SOL    HW211478   2.309   0.108   3.412
 3527SOL     OW11479   4.770   3.386   6.003
 3527SOL    HW111480   4.811   3.341   6.083
 3527SOL    HW211481   4.682   3.424   6.028
 3528SOL     OW11482   1.585   6.566   4.488
 3528SOL    HW111483   1.566   6.481   4.439
 3528SOL    HW211484   1.505   6.592   4.542
 3529SOL     OW11485   3.540   6.019   0.252
 3529SOL    HW111486   3.537   5.944   0.318
 3529SOL    HW211487   3.463   6.011   0.189
 3530SOL     OW11488   1.491   5.625   2.966
 3530SOL    HW111489   1.414   5.563   2.951
 3530SOL    HW211490   1.520   5.662   2.878
 3531SOL     OW11491   4.613   3.658   0.032
 3531SOL    HW111492   4.618   3.754   0.005
 3531SOL    HW211493   4.522   3.637   0.066
 3532SOL     OW11494   1.898   6.543   0.262
 3532SOL    HW111495   1.833   6.614   0.236
 3532SOL    HW211496   1.962   6.580   0.329
 3533SOL     OW11497   1.227   1.230   3.956
 3533SOL    HW111498   1.143   1.178   3.969
 3533SOL    HW211499   1.238   1.253   3.859
 3534SOL     OW11500   5.299   0.688   4.787
 3534SOL    HW111501   5.300   0.674   4.886
 3534SOL    HW211502   5.226   0.752   4.763
 3535SOL     OW11503   4.029   6.208   0.089
 3535SOL    HW111504   3.963   6.164   0.150
 3535SOL    HW211505   3.983   6.239   0.006
 3536SOL     OW11506   1.132   4.200   3.018
 3536SOL    HW111507   1.069   4.139   3.067
 3536SOL    HW211508   1.123   4.293   3.055
 3537SOL     OW11509   2.648   5.397   0.526
 3537SOL    HW111510   2.549   5.388   0.521
 3537SOL    HW211511   2.685   5.323   0.583
 3538SOL     OW11512   2.836   0.637   3.556
 3538SOL    HW111513   2.820   0.545   3.592
 3538SOL    HW211514   2.823   0.637   3.457
 3539SOL     OW11515   5.479   6.094   6.504
 3539SOL    HW111516   5.386   6.060   6.520
 3539SOL    HW211517   5.516   6.051   6.422
 3540SOL     OW11518   2.779   3.882   6.270
 3540SOL    HW111519   2.833   3.802   6.247
 3540SOL    HW211520   2.699   3.854   6.323
 3541SOL     OW11521   2.129   3.028   1.556
 3541SOL    HW111522   2.055   3.078   1.600
 3541SOL    HW211523   2.215   3.045   1.604
 3542SOL     OW11524   5.537   1.673   6.597
 3542SOL    HW111525   5.463   1.740   6.595
 3542SOL    HW211526   5.586   1.681   6.684
 3543SOL     OW11527   0.401   2.115   3.534
 3543SOL    HW111528   0.457   2.186   3.491
 3543SOL    HW211529   0.313   2.110   3.488
 3544SOL     OW11530   3.419   3.928   6.841
 3544SOL    HW111531   3.499   3.869   6.851
 3544SOL    HW211532   3.421   3.973   6.752
 3545SOL     OW11533   3.887   0.144   1.441
 3545SOL    HW111534   3.969   0.199   1.425
 3545SOL    HW211535   3.886   0.114   1.536
 3546SOL     OW11536   6.618   4.347   2.640
 3546SOL    HW111537   6.562   4.273   2.603
 3546SOL    HW211538   6.618   4.424   2.577
 3547SOL     OW11539   0.971   3.527   4.754
 3547SOL    HW111540   0.897   3.485   4.806
 3547SOL    HW211541   1.055   3.475   4.767
 3548SOL     OW11542   5.635   0.469   5.490
 3548SOL    HW111543   5.641   0.426   5.400
 3548SOL    HW211544   5.643   0.398   5.560
 3549SOL     OW11545   2.732   6.760   0.327
 3549SOL    HW111546   2.716   6.779   0.230
 3549SOL    HW211547   2.644   6.748   0.374
 3550SOL     OW11548   5.682   1.100   5.429
 3550SOL    HW111549   5.651   1.006   5.411
 3550SOL    HW211550   5.735   1.102   5.514
 3551SOL     OW11551   4.599   2.100   4.301
 3551SOL    HW111552   4.664   2.025   4.286
 3551SOL    HW211553   4.508   2.071   4.270
 3552SOL     OW11554   6.672   6.956   3.483
 3552SOL    HW111555   6.581   6.993   3.465
 3552SOL    HW211556   6.673   6.913   3.573
 3553SOL     OW11557   5.730   5.874   6.843
 3553SOL    HW111558   5.824   5.908   6.842
 3553SOL    HW211559   5.724   5.794   6.902
 3554SOL     OW11560   5.943   3.882   0.436
 3554SOL    HW111561   6.002   3.960   0.456
 3554SOL    HW211562   5.850   3.915   0.417
 3555SOL     OW11563   3.167   2.135   4.803
 3555SOL    HW111564   3.261   2.110   4.779
 3555SOL    HW211565   3.166   2.175   4.895
 3556SOL     OW11566   5.482   1.263   6.262
 3556SOL    HW111567   5.554   1.207   6.221
 3556SOL    HW211568   5.518   1.312   6.341
 3557SOL     OW11569   6.010   0.408   1.120
 3557SOL    HW111570   6.009   0.337   1.190
 3557SOL    HW211571   6.012   0.498   1.163
 3558SOL     OW11572   3.540   5.562   2.348
 3558SOL    HW111573   3.574   5.655   2.336
 3558SOL    HW211574   3.600   5.513   2.412
 3559SOL     OW11575   4.645   7.005   6.021
 3559SOL    HW111576   4.655   0.032   5.932
 3559SOL    HW211577   4.550   6.979   6.034
 3560SOL     OW11578   1.860   5.150   3.660
 3560SOL    HW111579   1.837   5.191   3.571
 3560SOL    HW211580   1.779   5.107   3.699
 3561SOL     OW11581   4.620   3.790   5.312
 3561SOL    HW111582   4.521   3.778   5.322
 3561SOL    HW211583   4.651   3.744   5.229
 3562SOL     OW11584   2.218   1.748   6.271
 3562SOL    HW111585   2.279   1.758   6.193
 3562SOL    HW211586   2.191   1.838   6.305
 3563SOL     OW11587   6.081   2.769   5.547
 3563SOL    HW111588   5.998   2.731   5.588
 3563SOL    HW211589   6.101   2.858   5.588
 3564SOL     OW11590   5.989   3.737   1.733
 3564SOL    HW111591   5.926   3.659   1.736
 3564SOL    HW211592   5.937   3.821   1.723
 3565SOL     OW11593   3.970   6.362   3.953
 3565SOL    HW111594   4.012   6.307   4.026
 3565SOL    HW211595   3.901   6.307   3.906
 3566SOL     OW11596   1.273   6.616   5.045
 3566SOL    HW111597   1.250   6.711   5.023
 3566SOL    HW211598   1.336   6.614   5.122
 3567SOL     OW11599   0.037   2.755   6.170
 3567SOL    HW111600   6.958   2.747   6.193
 3567SOL    HW211601   0.063   2.852   6.172
 3568SOL     OW11602   5.199   4.146   6.377
 3568SOL    HW111603   5.122   4.125   6.438
 3568SOL    HW211604   5.198   4.083   6.299
 3569SOL     OW11605   1.944   1.215   4.720
 3569SOL    HW111606   2.028   1.170   4.749
 3569SOL    HW211607   1.966   1.285   4.652
 3570SOL     OW11608   5.799   1.868   3.825
 3570SOL    HW111609   5.843   1.945   3.777
 3570SOL    HW211610   5.860   1.834   3.897
 3571SOL     OW11611   6.394   6.315   5.532
 3571SOL    HW111612   6.478   6.336   5.480
 3571SOL    HW211613   6.418   6.294   5.627
 3572SOL     OW11614   6.702   6.047   4.077
 3572SOL    HW111615   6.740   6.094   3.998
 3572SOL    HW211616   6.774   6.031   4.145
 3573SOL     OW11617   1.045   1.969   2.263
 3573SOL    HW111618   1.142   1.962   2.286
 3573SOL    HW211619   0.990   1.955   2.345
 3574SOL     OW11620   0.027   3.843   0.708
 3574SOL    HW111621   0.069   3.753   0.697
 3574SOL    HW211622   0.078   3.896   0.775
 3575SOL     OW11623   6.629   5.701   1.647
 3575SOL    HW111624   6.684   5.636   1.701
 3575SOL    HW211625   6.545   5.721   1.697
 3576SOL     OW11626   0.528   1.911   6.189
 3576SOL    HW111627   0.598   1.981   6.175
 3576SOL    HW211628   0.519   1.855   6.106
 3577SOL     OW11629   1.429   2.984   6.960
 3577SOL    HW111630   1.528   2.972   6.950
 3577SOL    HW211631   1.408   3.081   6.972
 3578SOL     OW11632   4.045   5.413   0.795
 3578SOL    HW111633   4.021   5.347   0.724
 3578SOL    HW211634   4.012   5.381   0.883
 3579SOL     OW11635   0.487   4.113   5.122
 3579SOL    HW111636   0.555   4.052   5.162
 3579SOL    HW211637   0.410   4.124   5.186
 3580SOL     OW11638   6.421   1.997   2.004
 3580SOL    HW111639   6.409   1.897   2.002
 3580SOL    HW211640   6.516   2.019   1.982
 3581SOL     OW11641   6.610   0.418   2.560
 3581SOL    HW111642   6.642   0.512   2.563
 3581SOL    HW211643   6.680   0.359   2.519
 3582SOL     OW11644   0.747   0.694   5.963
 3582SOL    HW111645   0.782   0.610   6.006
 3582SOL    HW211646   0.823   0.757   5.947
 3583SOL     OW11647   2.078   5.750   0.659
 3583SOL    HW111648   1.978   5.759   0.657
 3583SOL    HW211649   2.103   5.658   0.690
 3584SOL     OW11650   4.803   6.735   5.954
 3584SOL    HW111651   4.790   6.716   5.857
 3584SOL    HW211652   4.728   6.793   5.987
 3585SOL     OW11653   2.675   4.645   3.573
 3585SOL    HW111654   2.748   4.686   3.518
 3585SOL    HW211655   2.605   4.608   3.513
 3586SOL     OW11656   6.759   2.062   6.405
 3586SOL    HW111657   6.834   1.997   6.414
 3586SOL    HW211658   6.770   2.136   6.471
 3587SOL     OW11659   3.933   6.742   6.306
 3587SOL    HW111660   3.914   6.809   6.235
 3587SOL    HW211661   3.874   6.759   6.385
 3588SOL     OW11662   2.034   1.342   5.351
 3588SOL    HW111663   1.957   1.372   5.295
 3588SOL    HW211664   2.118   1.349   5.298
 3589SOL     OW11665   3.277   0.619   5.394
 3589SOL    HW111666   3.365   0.663   5.374
 3589SOL    HW211667   3.291   0.520   5.399
 3590SOL     OW11668   1.774   4.923   6.193
 3590SOL    HW111669   1.766   4.920   6.093
 3590SOL    HW211670   1.871   4.919   6.218
 3591SOL     OW11671   5.229   2.533   5.420
 3591SOL    HW111672   5.297   2.531   5.493
 3591SOL    HW211673   5.197   2.440   5.403
 3592SOL     OW11674   4.801   2.771   2.053
 3592SOL    HW111675   4.873   2.760   1.984
 3592SOL    HW211676   4.753   2.857   2.038
 3593SOL     OW11677   1.508   5.314   3.251
 3593SOL    HW111678   1.428   5.289   3.196
 3593SOL    HW211679   1.590   5.315   3.193
 3594SOL     OW11680   3.135   0.853   4.165
 3594SOL    HW111681   3.183   0.839   4.079
 3594SOL    HW211682   3.068   0.926   4.154
 3595SOL     OW11683   3.133   5.960   5.118
 3595SOL    HW111684   3.207   6.023   5.142
 3595SOL    HW211685   3.051   5.985   5.169
 3596SOL     OW11686   6.786   2.967   3.043
 3596SOL    HW111687   6.865   2.932   2.993
 3596SOL    HW211688   6.713   2.900   3.041
 3597SOL     OW11689   3.889   5.820   3.735
 3597SOL    HW111690   3.935   5.790   3.818
 3597SOL    HW211691   3.887   5.920   3.730
 3598SOL     OW11692   1.108   6.964   6.707
 3598SOL    HW111693   1.030   6.946   6.766
 3598SOL    HW211694   1.102   0.038   6.670
 3599SOL     OW11695   0.151   2.088   4.224
 3599SOL    HW111696   0.223   2.141   4.269
 3599SOL    HW211697   0.165   1.991   4.243
 3600SOL     OW11698   5.622   0.744   0.637
 3600SOL    HW111699   5.618   0.843   0.649
 3600SOL    HW211700   5.531   0.704   0.651
 3601SOL     OW11701   6.363   3.910   5.697
 3601SOL    HW111702   6.424   3.957   5.760
 3601SOL    HW211703   6.367   3.954   5.607
 3602SOL     OW11704   1.825   1.778   0.418
 3602SOL    HW111705   1.758   1.788   0.345
 3602SOL    HW211706   1.917   1.784   0.380
 3603SOL     OW11707   3.989   4.899   4.941
 3603SOL    HW111708   3.912   4.836   4.953
 3603SOL    HW211709   3.956   4.984   4.901
 3604SOL     OW11710   0.353   3.258   2.738
 3604SOL    HW111711   0.405   3.229   2.658
 3604SOL    HW211712   0.416   3.280   2.813
 3605SOL     OW11713   6.128   3.630   6.411
 3605SOL    HW111714   6.071   3.595   6.485
 3605SOL    HW211715   6.086   3.607   6.323
 3606SOL     OW11716   0.936   4.890   4.687
 3606SOL    HW111717   0.836   4.890   4.694
 3606SOL    HW211718   0.964   4.948   4.610
 3607SOL     OW11719   5.024   6.987   6.811
 3607SOL    HW111720   5.072   7.014   6.895
 3607SOL    HW211721   4.938   0.020   6.804
 3608SOL     OW11722   1.096   2.174   2.596
 3608SOL    HW111723   1.044   2.173   2.511
 3608SOL    HW211724   1.062   2.247   2.655
 3609SOL     OW11725   6.861   0.361   4.918
 3609SOL    HW111726   6.814   0.284   4.962
 3609SOL    HW211727   6.924   0.327   4.849
 3610SOL     OW11728   1.099   6.445   4.911
 3610SOL    HW111729   1.054   6.368   4.957
 3610SOL    HW211730   1.175   6.477   4.966
 3611SOL     OW11731   3.243   5.442   5.486
 3611SOL    HW111732   3.289   5.433   5.398
 3611SOL    HW211733   3.306   5.413   5.559
 3612SOL     OW11734   1.074   0.461   1.395
 3612SOL    HW111735   1.170   0.450   1.419
 3612SOL    HW211736   1.050   0.559   1.396
 3613SOL     OW11737   5.273   5.934   6.609
 3613SOL    HW111738   5.222   5.903   6.689
 3613SOL    HW211739   5.287   5.857   6.547
 3614SOL     OW11740   3.793   3.068   3.289
 3614SOL    HW111741   3.746   3.048   3.375
 3614SOL    HW211742   3.737   3.038   3.213
 3615SOL     OW11743   6.683   6.311   6.278
 3615SOL    HW111744   6.693   6.399   6.324
 3615SOL    HW211745   6.606   6.261   6.318
 3616SOL     OW11746   7.012   1.637   5.513
 3616SOL    HW111747   6.953   1.709   5.477
 3616SOL    HW211748   6.974   1.547   5.488
 3617SOL     OW11749   6.920   1.231   6.418
 3617SOL    HW111750   6.868   1.212   6.501
 3617SOL    HW211751   6.981   1.309   6.433
 3618SOL     OW11752   2.423   1.791   6.056
 3618SOL    HW111753   2.504   1.820   6.106
 3618SOL    HW211754   2.446   1.714   5.997
 3619SOL     OW11755   6.056   2.350   4.167
 3619SOL    HW111756   6.035   2.364   4.264
 3619SOL    HW211757   6.096   2.433   4.129
 3620SOL     OW11758   5.938   6.775   5.130
 3620SOL    HW111759   5.939   6.715   5.051
 3620SOL    HW211760   5.888   6.859   5.108
 3621SOL     OW11761   1.540   3.693   5.758
 3621SOL    HW111762   1.543   3.602   5.717
 3621SOL    HW211763   1.610   3.751   5.717
 3622SOL     OW11764   0.681   2.857   1.538
 3622SOL    HW111765   0.749   2.826   1.605
 3622SOL    HW211766   0.694   2.954   1.520
 3623SOL     OW11767   6.244   5.223   3.711
 3623SOL    HW111768   6.218   5.182   3.624
 3623SOL    HW211769   6.161   5.249   3.762
 3624SOL     OW11770   2.613   0.126   2.348
 3624SOL    HW111771   2.676   0.125   2.270
 3624SOL    HW211772   2.587   0.032   2.370
 3625SOL     OW11773   6.763   3.490   5.365
 3625SOL    HW111774   6.720   3.572   5.330
 3625SOL    HW211775   6.734   3.411   5.311
 3626SOL     OW11776   2.491   3.851   5.393
 3626SOL    HW111777   2.485   3.893   5.302
 3626SOL    HW211778   2.440   3.765   5.394
 3627SOL     OW11779   2.855   3.570   3.555
 3627SOL    HW111780   2.911   3.515   3.617
 3627SOL    HW211781   2.866   3.536   3.462
 3628SOL     OW11782   2.838   5.225   2.288
 3628SOL    HW111783   2.864   5.294   2.355
 3628SOL    HW211784   2.815   5.270   2.201
 3629SOL     OW11785   6.237   2.420   4.974
 3629SOL    HW111786   6.261   2.330   4.937
 3629SOL    HW211787   6.200   2.409   5.066
 3630SOL     OW11788   6.108   1.977   4.409
 3630SOL    HW111789   6.174   1.911   4.373
 3630SOL    HW211790   6.068   2.030   4.334
 3631SOL     OW11791   2.172   1.071   4.794
 3631SOL    HW111792   2.243   1.005   4.819
 3631SOL    HW211793   2.179   1.093   4.697
 3632SOL     OW11794   4.531   0.709   0.150
 3632SOL    HW111795   4.473   0.773   0.100
 3632SOL    HW211796   4.483   0.623   0.163
 3633SOL     OW11797   1.827   3.103   5.926
 3633SOL    HW111798   1.845   3.198   5.951
 3633SOL    HW211799   1.747   3.070   5.975
 3634SOL     OW11800   1.788   6.166   5.039
 3634SOL    HW111801   1.716   6.134   4.977
 3634SOL    HW211802   1.854   6.092   5.053
 3635SOL     OW11803   2.374   1.223   5.396
 3635SOL    HW111804   2.315   1.143   5.395
 3635SOL    HW211805   2.358   1.275   5.480
 3636SOL     OW11806   0.850   5.544   6.113
 3636SOL    HW111807   0.783   5.481   6.153
 3636SOL    HW211808   0.924   5.491   6.071
 3637SOL     OW11809   5.686   1.193   2.067
 3637SOL    HW111810   5.673   1.103   2.025
 3637SOL    HW211811   5.604   1.247   2.056
 3638SOL     OW11812   0.106   4.805   3.755
 3638SOL    HW111813   0.076   4.711   3.770
 3638SOL    HW211814   0.075   4.862   3.831
 3639SOL     OW11815   2.316   5.120   0.843
 3639SOL    HW111816   2.287   5.207   0.882
 3639SOL    HW211817   2.302   5.047   0.911
 3640SOL     OW11818   3.661   5.885   1.030
 3640SOL    HW111819   3.642   5.853   0.938
 3640SOL    HW211820   3.759   5.880   1.048
 3641SOL     OW11821   2.316   1.491   4.675
 3641SOL    HW111822   2.386   1.555   4.644
 3641SOL    HW211823   2.351   1.440   4.754
 3642SOL     OW11824   5.596   0.022   4.437
 3642SOL    HW111825   5.506   7.001   4.419
 3642SOL    HW211826   5.587   0.098   4.501
 3643SOL     OW11827   3.021   4.875   4.606
 3643SOL    HW111828   3.005   4.862   4.704
 3643SOL    HW211829   3.109   4.919   4.591
 3644SOL     OW11830   6.747   0.251   0.668
 3644SOL    HW111831   6.841   0.261   0.700
 3644SOL    HW211832   6.685   0.255   0.745
 3645SOL     OW11833   4.020   0.951   3.554
 3645SOL    HW111834   3.973   0.999   3.481
 3645SOL    HW211835   4.013   1.003   3.639
 3646SOL     OW11836   0.257   4.751   5.536
 3646SOL    HW111837   0.205   4.772   5.618
 3646SOL    HW211838   0.350   4.722   5.561
 3647SOL     OW11839   2.278   2.981   1.146
 3647SOL    HW111840   2.195   2.963   1.199
 3647SOL    HW211841   2.309   3.074   1.164
 3648SOL     OW11842   3.353   6.171   2.288
 3648SOL    HW111843   3.409   6.218   2.356
 3648SOL    HW211844   3.395   6.178   2.198
 3649SOL     OW11845   3.724   3.528   0.726
 3649SOL    HW111846   3.819   3.555   0.712
 3649SOL    HW211847   3.712   3.495   0.820
 3650SOL     OW11848   0.387   6.599   1.469
 3650SOL    HW111849   0.444   6.648   1.534
 3650SOL    HW211850   0.376   6.654   1.386
 3651SOL     OW11851   1.751   5.779   2.903
 3651SOL    HW111852   1.740   5.761   2.805
 3651SOL    HW211853   1.837   5.739   2.934
 3652SOL     OW11854   4.528   5.533   3.221
 3652SOL    HW111855   4.468   5.492   3.291
 3652SOL    HW211856   4.582   5.460   3.178
 3653SOL     OW11857   0.218   1.658   3.258
 3653SOL    HW111858   0.269   1.582   3.217
 3653SOL    HW211859   0.233   1.740   3.204
 3654SOL     OW11860   1.372   6.398   1.546
 3654SOL    HW111861   1.420   6.427   1.628
 3654SOL    HW211862   1.324   6.476   1.505
 3655SOL     OW11863   2.051   0.195   4.851
 3655SOL    HW111864   2.108   0.127   4.806
 3655SOL    HW211865   2.085   0.210   4.944
 3656SOL     OW11866   2.171   2.725   1.522
 3656SOL    HW111867   2.149   2.822   1.530
 3656SOL    HW211868   2.107   2.682   1.457
 3657SOL     OW11869   3.942   5.905   1.052
 3657SOL    HW111870   4.006   5.829   1.036
 3657SOL    HW211871   3.994   5.988   1.072
 3658SOL     OW11872   1.321   5.989   5.852
 3658SOL    HW111873   1.229   6.006   5.817
 3658SOL    HW211874   1.330   6.030   5.943
 3659SOL     OW11875   2.419   4.419   7.004
 3659SOL    HW111876   2.413   4.403   6.906
 3659SOL    HW211877   2.514   4.414   0.015
 3660SOL     OW11878   4.683   5.724   1.626
 3660SOL    HW111879   4.614   5.796   1.626
 3660SOL    HW211880   4.709   5.701   1.720
 3661SOL     OW11881   4.841   0.561   0.525
 3661SOL    HW111882   4.780   0.492   0.486
 3661SOL    HW211883   4.791   0.647   0.535
 3662SOL     OW11884   2.940   0.170   5.216
 3662SOL    HW111885   2.888   0.089   5.192
 3662SOL    HW211886   3.000   0.196   5.139
 3663SOL     OW11887   1.469   2.550   7.016
 3663SOL    HW111888   1.545   2.613   7.004
 3663SOL    HW211889   1.434   2.557   0.091
 3664SOL     OW11890   4.895   0.865   0.816
 3664SOL    HW111891   4.865   0.957   0.790
 3664SOL    HW211892   4.824   0.822   0.872
 3665SOL     OW11893   0.692   0.091   5.207
 3665SOL    HW111894   0.659   0.161   5.270
 3665SOL    HW211895   0.666   0.000   5.241
 3666SOL     OW11896   1.678   4.441   4.272
 3666SOL    HW111897   1.750   4.510   4.265
 3666SOL    HW211898   1.681   4.382   4.192
 3667SOL     OW11899   6.126   1.378   6.170
 3667SOL    HW111900   6.101   1.462   6.122
 3667SOL    HW211901   6.221   1.385   6.202
 3668SOL     OW11902   1.038   6.412   2.597
 3668SOL    HW111903   1.137   6.407   2.613
 3668SOL    HW211904   1.019   6.392   2.501
 3669SOL     OW11905   6.502   2.836   3.243
 3669SOL    HW111906   6.562   2.909   3.277
 3669SOL    HW211907   6.409   2.851   3.276
 3670SOL     OW11908   2.387   6.032   5.804
 3670SOL    HW111909   2.407   5.939   5.771
 3670SOL    HW211910   2.389   6.032   5.904
 3671SOL     OW11911   1.326   0.247   3.099
 3671SOL    HW111912   1.267   0.309   3.048
 3671SOL    HW211913   1.386   0.300   3.160
 3672SOL     OW11914   6.834   0.659   0.187
 3672SOL    HW111915   6.743   0.679   0.223
 3672SOL    HW211916   6.866   0.738   0.134
 3673SOL     OW11917   4.734   0.677   6.896
 3673SOL    HW111918   4.749   0.759   6.951
 3673SOL    HW211919   4.760   0.596   6.950
 3674SOL     OW11920   1.263   6.484   0.583
 3674SOL    HW111921   1.313   6.504   0.499
 3674SOL    HW211922   1.168   6.461   0.562
 3675SOL     OW11923   2.110   2.267   5.459
 3675SOL    HW111924   2.045   2.343   5.456
 3675SOL    HW211925   2.081   2.202   5.530
 3676SOL     OW11926   2.979   5.582   3.548
 3676SOL    HW111927   2.889   5.591   3.505
 3676SOL    HW211928   2.968   5.551   3.642
 3677SOL     OW11929   6.427   6.507   4.238
 3677SOL    HW111930   6.360   6.502   4.164
 3677SOL    HW211931   6.505   6.562   4.210
 3678SOL     OW11932   1.404   1.515   3.643
 3678SOL    HW111933   1.435   1.556   3.728
 3678SOL    HW211934   1.314   1.552   3.620
 3679SOL     OW11935   0.582   1.018   2.064
 3679SOL    HW111936   0.547   1.074   1.989
 3679SOL    HW211937   0.582   0.922   2.037
 3680SOL     OW11938   6.923   3.066   4.371
 3680SOL    HW111939   6.862   3.143   4.355
 3680SOL    HW211940   6.877   2.998   4.428
 3681SOL     OW11941   0.282   6.895   5.780
 3681SOL    HW111942   0.293   6.812   5.835
 3681SOL    HW211943   0.240   6.967   5.835
 3682SOL     OW11944   6.379   1.728   5.983
 3682SOL    HW111945   6.471   1.766   5.985
 3682SOL    HW211946   6.382   1.632   5.955
 3683SOL     OW11947   5.860   6.970   4.501
 3683SOL    HW111948   5.762   6.956   4.490
 3683SOL    HW211949   5.890   0.028   4.443
 3684SOL     OW11950   1.361   3.220   1.682
 3684SOL    HW111951   1.356   3.163   1.764
 3684SOL    HW211952   1.397   3.310   1.707
 3685SOL     OW11953   6.150   6.152   0.117
 3685SOL    HW111954   6.140   6.246   0.083
 3685SOL    HW211955   6.182   6.093   0.042
 3686SOL     OW11956   6.283   4.587   1.505
 3686SOL    HW111957   6.256   4.676   1.469
 3686SOL    HW211958   6.325   4.532   1.432
 3687SOL     OW11959   3.676   0.425   6.992
 3687SOL    HW111960   3.634   0.516   6.989
 3687SOL    HW211961   3.672   0.391   0.068
 3688SOL     OW11962   1.257   3.597   0.273
 3688SOL    HW111963   1.285   3.687   0.238
 3688SOL    HW211964   1.195   3.610   0.351
 3689SOL     OW11965   1.838   0.592   4.303
 3689SOL    HW111966   1.824   0.690   4.286
 3689SOL    HW211967   1.802   0.540   4.226
 3690SOL     OW11968   5.688   6.887   6.026
 3690SOL    HW111969   5.744   6.965   5.998
 3690SOL    HW211970   5.644   6.907   6.113
 3691SOL     OW11971   2.558   3.505   0.105
 3691SOL    HW111972   2.644   3.460   0.129
 3691SOL    HW211973   2.514   3.538   0.188
 3692SOL     OW11974   1.737   6.754   5.358
 3692SOL    HW111975   1.776   6.841   5.328
 3692SOL    HW211976   1.809   6.697   5.397
 3693SOL     OW11977   2.790   2.360   3.015
 3693SOL    HW111978   2.761   2.348   3.110
 3693SOL    HW211979   2.883   2.325   3.004
 3694SOL     OW11980   2.050   6.063   3.417
 3694SOL    HW111981   2.131   6.117   3.392
 3694SOL    HW211982   2.054   5.975   3.371
 3695SOL     OW11983   2.039   2.060   2.250
 3695SOL    HW111984   2.009   2.121   2.323
 3695SOL    HW211985   2.113   2.103   2.198
 3696SOL     OW11986   4.359   0.055   5.980
 3696SOL    HW111987   4.413   0.133   5.946
 3696SOL    HW211988   4.270   0.055   5.935
 3697SOL     OW11989   6.421   0.052   4.233
 3697SOL    HW111990   6.494   0.104   4.278
 3697SOL    HW211991   6.347   0.114   4.207
 3698SOL     OW11992   2.832   6.982   5.900
 3698SOL    HW111993   2.868   6.994   5.993
 3698SOL    HW211994   2.784   0.046   5.872
 3699SOL     OW11995   0.259   3.731   3.268
 3699SOL    HW111996   0.277   3.828   3.283
 3699SOL    HW211997   0.241   3.686   3.356
 3700SOL     OW11998   0.177   0.073   4.334
 3700SOL    HW111999   0.161   0.157   4.282
 3700SOL    HW212000   0.093   0.019   4.336
 3701SOL     OW12001   6.257   0.954   4.417
 3701SOL    HW112002   6.158   0.963   4.406
 3701SOL    HW212003   6.283   0.858   4.411
 3702SOL     OW12004   3.723   1.306   0.416
 3702SOL    HW112005   3.800   1.359   0.449
 3702SOL    HW212006   3.669   1.273   0.494
 3703SOL     OW12007   3.775   4.425   6.578
 3703SOL    HW112008   3.848   4.387   6.520
 3703SOL    HW212009   3.790   4.397   6.672
 3704SOL     OW12010   2.402   0.440   2.973
 3704SOL    HW112011   2.436   0.436   2.879
 3704SOL    HW212012   2.406   0.348   3.013
 3705SOL     OW12013   4.857   0.522   3.982
 3705SOL    HW112014   4.915   0.588   4.030
 3705SOL    HW212015   4.912   0.444   3.953
 3706SOL     OW12016   2.019   2.724   3.938
 3706SOL    HW112017   2.016   2.760   4.031
 3706SOL    HW212018   2.084   2.648   3.934
 3707SOL     OW12019   5.031   2.697   5.532
 3707SOL    HW112020   5.053   2.783   5.577
 3707SOL    HW212021   5.115   2.656   5.495
 3708SOL     OW12022   6.054   0.941   6.664
 3708SOL    HW112023   6.041   0.956   6.566
 3708SOL    HW212024   5.976   0.978   6.714
 3709SOL     OW12025   3.735   0.347   6.484
 3709SOL    HW112026   3.756   0.360   6.387
 3709SOL    HW212027   3.691   0.258   6.496
 3710SOL     OW12028   6.631   5.116   0.770
 3710SOL    HW112029   6.610   5.056   0.693
 3710SOL    HW212030   6.547   5.148   0.812
 3711SOL     OW12031   6.680   5.714   2.374
 3711SOL    HW112032   6.592   5.759   2.383
 3711SOL    HW212033   6.682   5.631   2.431
 3712SOL     OW12034   1.269   6.854   6.932
 3712SOL    HW112035   1.179   6.827   6.897
 3712SOL    HW212036   1.301   6.935   6.883
 3713SOL     OW12037   3.809   6.123   5.713
 3713SOL    HW112038   3.726   6.091   5.667
 3713SOL    HW212039   3.889   6.084   5.667
 3714SOL     OW12040   3.927   0.359   4.678
 3714SOL    HW112041   3.879   0.372   4.590
 3714SOL    HW212042   3.868   0.307   4.740
 3715SOL     OW12043   5.576   4.766   4.657
 3715SOL    HW112044   5.622   4.717   4.583
 3715SOL    HW212045   5.554   4.702   4.730
 3716SOL     OW12046   0.198   0.243   4.563
 3716SOL    HW112047   0.193   0.161   4.506
 3716SOL    HW212048   0.290   0.281   4.560
 3717SOL     OW12049   6.052   6.594   1.069
 3717SOL    HW112050   5.970   6.649   1.054
 3717SOL    HW212051   6.073   6.592   1.167
 3718SOL     OW12052   1.095   5.882   0.021
 3718SOL    HW112053   1.136   5.807   0.073
 3718SOL    HW212054   1.005   5.903   0.059
 3719SOL     OW12055   4.357   5.042   5.962
 3719SOL    HW112056   4.404   5.070   5.878
 3719SOL    HW212057   4.292   4.969   5.941
 3720SOL     OW12058   5.659   1.441   6.034
 3720SOL    HW112059   5.730   1.453   5.964
 3720SOL    HW212060   5.573   1.417   5.990
 3721SOL     OW12061   5.547   4.724   0.681
 3721SOL    HW112062   5.645   4.721   0.658
 3721SOL    HW212063   5.505   4.803   0.635
 3722SOL     OW12064   6.169   6.067   2.569
 3722SOL    HW112065   6.173   5.972   2.602
 3722SOL    HW212066   6.096   6.076   2.501
 3723SOL     OW12067   4.788   0.306   1.152
 3723SOL    HW112068   4.764   0.287   1.057
 3723SOL    HW212069   4.876   0.263   1.173
 3724SOL     OW12070   1.244   5.496   7.004
 3724SOL    HW112071   1.312   5.565   6.979
 3724SOL    HW212072   1.161   5.541   0.019
 3725SOL     OW12073   6.851   6.278   6.606
 3725SOL    HW112074   6.904   6.354   6.567
 3725SOL    HW212075   6.853   6.200   6.544
 3726SOL     OW12076   5.454   4.061   1.483
 3726SOL    HW112077   5.500   3.974   1.500
 3726SOL    HW212078   5.439   4.109   1.569
 3727SOL     OW12079   2.087   3.150   4.930
 3727SOL    HW112080   2.125   3.167   4.839
 3727SOL    HW212081   2.129   3.068   4.969
 3728SOL     OW12082   1.995   3.386   6.837
 3728SOL    HW112083   1.911   3.390   6.891
 3728SOL    HW212084   1.973   3.368   6.741
 3729SOL     OW12085   0.899   2.001   3.080
 3729SOL    HW112086   0.847   1.917   3.087
 3729SOL    HW212087   0.893   2.051   3.167
 3730SOL     OW12088   3.643   0.820   6.976
 3730SOL    HW112089   3.595   0.766   6.907
 3730SOL    HW212090   3.732   0.780   6.994
 3731SOL     OW12091   5.003   0.130   0.309
 3731SOL    HW112092   5.012   0.044   0.359
 3731SOL    HW212093   4.938   0.189   0.356
 3732SOL     OW12094   2.178   3.879   5.208
 3732SOL    HW112095   2.263   3.931   5.210
 3732SOL    HW212096   2.106   3.934   5.165
 3733SOL     OW12097   2.817   3.988   1.728
 3733SOL    HW112098   2.882   3.980   1.803
 3733SOL    HW212099   2.797   3.897   1.692
 3734SOL     OW12100   4.747   1.500   2.603
 3734SOL    HW112101   4.808   1.555   2.546
 3734SOL    HW212102   4.754   1.404   2.576
 3735SOL     OW12103   2.870   2.225   2.295
 3735SOL    HW112104   2.792   2.165   2.315
 3735SOL    HW212105   2.849   2.281   2.215
 3736SOL     OW12106   5.871   2.114   0.762
 3736SOL    HW112107   5.943   2.183   0.769
 3736SOL    HW212108   5.782   2.158   0.756
 3737SOL     OW12109   4.829   7.005   3.777
 3737SOL    HW112110   4.919   0.009   3.816
 3737SOL    HW212111   4.758   0.039   3.824
 3738SOL     OW12112   6.868   6.394   3.486
 3738SOL    HW112113   6.818   6.462   3.540
 3738SOL    HW212114   6.959   6.429   3.464
 3739SOL     OW12115   0.534   4.457   2.464
 3739SOL    HW112116   0.518   4.375   2.409
 3739SOL    HW212117   0.528   4.433   2.561
 3740SOL     OW12118   5.620   1.602   6.843
 3740SOL    HW112119   5.524   1.585   6.867
 3740SOL    HW212120   5.647   1.693   6.877
 3741SOL     OW12121   4.282   2.915   0.130
 3741SOL    HW112122   4.359   2.933   0.191
 3741SOL    HW212123   4.249   2.822   0.145
 3742SOL     OW12124   3.444   2.633   5.875
 3742SOL    HW112125   3.361   2.579   5.864
 3742SOL    HW212126   3.452   2.697   5.799
 3743SOL     OW12127   6.722   4.831   6.832
 3743SOL    HW112128   6.815   4.821   6.798
 3743SOL    HW212129   6.697   4.752   6.889
 3744SOL     OW12130   0.246   5.278   3.972
 3744SOL    HW112131   0.329   5.234   3.937
 3744SOL    HW212132   0.271   5.353   4.033
 3745SOL     OW12133   4.162   6.137   2.720
 3745SOL    HW112134   4.257   6.126   2.751
 3745SOL    HW212135   4.102   6.147   2.800
 3746SOL     OW12136   4.516   1.775   1.846
 3746SOL    HW112137   4.440   1.715   1.819
 3746SOL    HW212138   4.523   1.776   1.946
 3747SOL     OW12139   3.282   0.728   0.058
 3747SOL    HW112140   3.307   0.825   0.050
 3747SOL    HW212141   3.351   0.672   0.012
 3748SOL     OW12142   5.808   0.684   3.117
 3748SOL    HW112143   5.839   0.773   3.083
 3748SOL    HW212144   5.715   0.692   3.152
 3749SOL     OW12145   1.573   6.856   5.044
 3749SOL    HW112146   1.600   6.776   5.098
 3749SOL    HW212147   1.556   6.933   5.106
 3750SOL     OW12148   0.245   3.896   0.931
 3750SOL    HW112149   0.194   3.897   1.017
 3750SOL    HW212150   0.265   3.801   0.905
 3751SOL     OW12151   0.488   4.417   2.730
 3751SOL    HW112152   0.544   4.336   2.708
 3751SOL    HW212153   0.442   4.403   2.817
 3752SOL     OW12154   6.127   0.796   6.382
 3752SOL    HW112155   6.201   0.782   6.316
 3752SOL    HW212156   6.039   0.789   6.335
 3753SOL     OW12157   7.010   0.478   4.387
 3753SOL    HW112158   6.922   0.492   4.341
 3753SOL    HW212159   6.996   0.420   4.467
 3754SOL     OW12160   2.283   1.756   1.169
 3754SOL    HW112161   2.291   1.852   1.140
 3754SOL    HW212162   2.197   1.719   1.134
 3755SOL     OW12163   3.049   4.904   3.651
 3755SOL    HW112164   3.075   4.968   3.579
 3755SOL    HW212165   2.979   4.841   3.616
 3756SOL     OW12166   2.307   6.461   6.569
 3756SOL    HW112167   2.373   6.531   6.598
 3756SOL    HW212168   2.307   6.455   6.469
 3757SOL     OW12169   6.165   5.046   1.604
 3757SOL    HW112170   6.253   5.019   1.642
 3757SOL    HW212171   6.166   5.143   1.582
 3758SOL     OW12172   1.925   0.167   3.805
 3758SOL    HW112173   1.976   0.115   3.874
 3758SOL    HW212174   1.974   0.164   3.718
 3759SOL     OW12175   5.129   0.537   4.593
 3759SOL    HW112176   5.121   0.628   4.553
 3759SOL    HW212177   5.149   0.545   4.691
 3760SOL     OW12178   0.257   0.627   3.295
 3760SOL    HW112179   0.211   0.679   3.367
 3760SOL    HW212180   0.354   0.617   3.319
 3761SOL     OW12181   5.222   0.922   3.743
 3761SOL    HW112182   5.227   1.015   3.780
 3761SOL    HW212183   5.263   0.858   3.808
 3762SOL     OW12184   0.406   2.856   1.958
 3762SOL    HW112185   0.365   2.869   1.868
 3762SOL    HW212186   0.500   2.888   1.958
 3763SOL     OW12187   0.652   4.797   0.992
 3763SOL    HW112188   0.691   4.719   1.041
 3763SOL    HW212189   0.589   4.764   0.922
 3764SOL     OW12190   2.145   0.535   2.823
 3764SOL    HW112191   2.204   0.522   2.903
 3764SOL    HW212192   2.066   0.474   2.830
 3765SOL     OW12193   5.763   2.523   1.816
 3765SOL    HW112194   5.693   2.499   1.749
 3765SOL    HW212195   5.801   2.440   1.856
 3766SOL     OW12196   0.865   3.315   3.139
 3766SOL    HW112197   0.947   3.345   3.089
 3766SOL    HW212198   0.880   3.224   3.176
 3767SOL     OW12199   1.342   4.830   6.094
 3767SOL    HW112200   1.409   4.862   6.160
 3767SOL    HW212201   1.379   4.752   6.044
 3768SOL     OW12202   0.992   0.360   4.307
 3768SOL    HW112203   1.045   0.352   4.391
 3768SOL    HW212204   0.903   0.400   4.327
 3769SOL     OW12205   5.393   5.677   4.725
 3769SOL    HW112206   5.360   5.719   4.809
 3769SOL    HW212207   5.317   5.634   4.676
 3770SOL     OW12208   1.376   0.960   0.833
 3770SOL    HW112209   1.322   1.029   0.785
 3770SOL    HW212210   1.400   0.993   0.924
 3771SOL     OW12211   6.432   4.783   0.433
 3771SOL    HW112212   6.410   4.693   0.471
 3771SOL    HW212213   6.478   4.772   0.344
 3772SOL     OW12214   1.841   6.377   0.785
 3772SOL    HW112215   1.854   6.310   0.712
 3772SOL    HW212216   1.892   6.348   0.866
 3773SOL     OW12217   5.420   4.178   5.939
 3773SOL    HW112218   5.512   4.138   5.939
 3773SOL    HW212219   5.427   4.275   5.962
 3774SOL     OW12220   6.259   5.317   1.538
 3774SOL    HW112221   6.344   5.267   1.521
 3774SOL    HW212222   6.243   5.382   1.463
 3775SOL     OW12223   4.294   4.893   4.140
 3775SOL    HW112224   4.283   4.834   4.060
 3775SOL    HW212225   4.264   4.844   4.222
 3776SOL     OW12226   3.524   2.945   6.634
 3776SOL    HW112227   3.539   2.847   6.642
 3776SOL    HW212228   3.440   2.962   6.583
 3777SOL     OW12229   3.134   6.287   4.388
 3777SOL    HW112230   3.127   6.190   4.365
 3777SOL    HW212231   3.226   6.320   4.364
 3778SOL     OW12232   3.101   5.280   5.732
 3778SOL    HW112233   3.164   5.206   5.711
 3778SOL    HW212234   3.058   5.313   5.648
 3779SOL     OW12235   6.726   4.609   7.017
 3779SOL    HW112236   6.750   4.513   0.012
 3779SOL    HW212237   6.636   4.627   0.037
 3780SOL     OW12238   5.910   4.101   1.281
 3780SOL    HW112239   5.953   4.042   1.349
 3780SOL    HW212240   5.936   4.196   1.297
 3781SOL     OW12241   2.853   5.718   4.944
 3781SOL    HW112242   2.802   5.679   4.867
 3781SOL    HW212243   2.951   5.700   4.931
 3782SOL     OW12244   5.342   6.075   1.762
 3782SOL    HW112245   5.431   6.098   1.801
 3782SOL    HW212246   5.340   6.101   1.665
 3783SOL     OW12247   5.078   4.946   4.769
 3783SOL    HW112248   5.033   4.857   4.776
 3783SOL    HW212249   5.174   4.933   4.745
 3784SOL     OW12250   6.138   1.616   4.203
 3784SOL    HW112251   6.065   1.604   4.270
 3784SOL    HW212252   6.197   1.692   4.231
 3785SOL     OW12253   1.810   3.683   4.549
 3785SOL    HW112254   1.817   3.699   4.451
 3785SOL    HW212255   1.890   3.721   4.595
 3786SOL     OW12256   2.682   2.440   4.714
 3786SOL    HW112257   2.651   2.482   4.799
 3786SOL    HW212258   2.633   2.481   4.637
 3787SOL     OW12259   4.212   0.291   3.348
 3787SOL    HW112260   4.135   0.251   3.299
 3787SOL    HW212261   4.178   0.340   3.429
 3788SOL     OW12262   6.477   3.698   5.528
 3788SOL    HW112263   6.528   3.623   5.569
 3788SOL    HW212264   6.443   3.759   5.600
 3789SOL     OW12265   1.518   2.721   2.810
 3789SOL    HW112266   1.617   2.722   2.797
 3789SOL    HW212267   1.498   2.731   2.908
 3790SOL     OW12268   0.536   6.764   1.631
 3790SOL    HW112269   0.627   6.744   1.666
 3790SOL    HW212270   0.528   6.861   1.611
 3791SOL     OW12271   5.174   1.205   5.821
 3791SOL    HW112272   5.227   1.123   5.844
 3791SOL    HW212273   5.219   1.286   5.858
 3792SOL     OW12274   0.102   0.859   4.067
 3792SOL    HW112275   0.096   0.796   4.144
 3792SOL    HW212276   0.197   0.864   4.036
 3793SOL     OW12277   4.684   5.629   0.303
 3793SOL    HW112278   4.638   5.540   0.309
 3793SOL    HW212279   4.665   5.682   0.385
 3794SOL     OW12280   1.440   3.912   6.620
 3794SOL    HW112281   1.439   3.918   6.520
 3794SOL    HW212282   1.510   3.974   6.656
 3795SOL     OW12283   1.863   5.793   1.827
 3795SOL    HW112284   1.809   5.786   1.911
 3795SOL    HW212285   1.824   5.864   1.768
 3796SOL     OW12286   4.332   1.473   6.751
 3796SOL    HW112287   4.373   1.563   6.737
 3796SOL    HW212288   4.284   1.445   6.667
 3797SOL     OW12289   1.434   4.335   2.848
 3797SOL    HW112290   1.519   4.387   2.854
 3797SOL    HW212291   1.444   4.249   2.899
 3798SOL     OW12292   1.828   6.639   3.297
 3798SOL    HW112293   1.789   6.728   3.323
 3798SOL    HW212294   1.762   6.588   3.243
 3799SOL     OW12295   0.052   1.606   2.915
 3799SOL    HW112296   0.065   1.605   2.816
 3799SOL    HW212297   0.130   1.561   2.959
 3800SOL     OW12298   5.642   2.206   2.793
 3800SOL    HW112299   5.638   2.306   2.802
 3800SOL    HW212300   5.558   2.173   2.751
 3801SOL     OW12301   5.188   0.758   1.919
 3801SOL    HW112302   5.201   0.660   1.933
 3801SOL    HW212303   5.273   0.800   1.888
 3802SOL     OW12304   6.189   2.019   2.616
 3802SOL    HW112305   6.176   2.087   2.689
 3802SOL    HW212306   6.102   2.005   2.568
 3803SOL     OW12307   3.141   3.596   3.915
 3803SOL    HW112308   3.172   3.670   3.974
 3803SOL    HW212309   3.066   3.547   3.959
 3804SOL     OW12310   3.524   6.028   3.619
 3804SOL    HW112311   3.435   6.052   3.580
 3804SOL    HW212312   3.574   5.969   3.554
 3805SOL     OW12313   2.798   3.188   6.887
 3805SOL    HW112314   2.793   3.260   6.957
 3805SOL    HW212315   2.722   3.124   6.900
 3806SOL     OW12316   3.609   4.490   1.184
 3806SOL    HW112317   3.558   4.508   1.269
 3806SOL    HW212318   3.586   4.398   1.151
 3807SOL     OW12319   1.834   4.227   4.086
 3807SOL    HW112320   1.735   4.227   4.077
 3807SOL    HW212321   1.859   4.228   4.182
 3808SOL     OW12322   3.466   6.299   6.506
 3808SOL    HW112323   3.447   6.201   6.500
 3808SOL    HW212324   3.549   6.320   6.455
 3809SOL     OW12325   4.940   2.489   1.610
 3809SOL    HW112326   4.948   2.559   1.540
 3809SOL    HW212327   4.991   2.517   1.692
 3810SOL     OW12328   5.945   2.203   1.631
 3810SOL    HW112329   6.017   2.271   1.637
 3810SOL    HW212330   5.984   2.111   1.642
 3811SOL     OW12331   0.435   5.227   5.073
 3811SOL    HW112332   0.424   5.147   5.015
 3811SOL    HW212333   0.345   5.257   5.106
 3812SOL     OW12334   4.840   6.756   0.997
 3812SOL    HW112335   4.859   6.709   0.911
 3812SOL    HW212336   4.794   6.843   0.978
 3813SOL     OW12337   6.602   4.495   0.798
 3813SOL    HW112338   6.543   4.542   0.863
 3813SOL    HW212339   6.628   4.558   0.725
 3814SOL     OW12340   6.926   6.956   4.713
 3814SOL    HW112341   6.940   0.031   4.749
 3814SOL    HW212342   6.843   6.955   4.656
 3815SOL     OW12343   5.790   3.332   6.490
 3815SOL    HW112344   5.790   3.430   6.468
 3815SOL    HW212345   5.734   3.283   6.423
 3816SOL     OW12346   0.937   5.954   5.975
 3816SOL    HW112347   0.983   5.894   6.041
 3816SOL    HW212348   0.845   5.918   5.957
 3817SOL     OW12349   5.312   3.672   2.011
 3817SOL    HW112350   5.221   3.658   1.971
 3817SOL    HW212351   5.303   3.718   2.100
 3818SOL     OW12352   6.470   0.662   2.225
 3818SOL    HW112353   6.394   0.622   2.277
 3818SOL    HW212354   6.443   0.750   2.188
 3819SOL     OW12355   6.681   4.258   4.507
 3819SOL    HW112356   6.645   4.258   4.413
 3819SOL    HW212357   6.624   4.199   4.564
 3820SOL     OW12358   4.808   0.419   4.712
 3820SOL    HW112359   4.889   0.420   4.770
 3820SOL    HW212360   4.776   0.325   4.701
 3821SOL     OW12361   1.556   0.102   0.396
 3821SOL    HW112362   1.490   0.045   0.346
 3821SOL    HW212363   1.647   0.062   0.387
 3822SOL     OW12364   4.734   1.382   1.439
 3822SOL    HW112365   4.713   1.314   1.368
 3822SOL    HW212366   4.654   1.440   1.454
 3823SOL     OW12367   5.107   5.407   6.262
 3823SOL    HW112368   5.075   5.414   6.168
 3823SOL    HW212369   5.050   5.464   6.322
 3824SOL     OW12370   2.095   3.221   0.042
 3824SOL    HW112371   2.032   3.150   0.074
 3824SOL    HW212372   2.053   3.274   6.987
 3825SOL     OW12373   1.130   4.237   5.436
 3825SOL    HW112374   1.093   4.145   5.447
 3825SOL    HW212375   1.208   4.250   5.497
 3826SOL     OW12376   5.792   4.194   3.404
 3826SOL    HW112377   5.716   4.153   3.455
 3826SOL    HW212378   5.822   4.131   3.333
 3827SOL     OW12379   1.455   0.827   1.734
 3827SOL    HW112380   1.419   0.888   1.805
 3827SOL    HW212381   1.417   0.736   1.746
 3828SOL     OW12382   4.101   3.675   4.280
 3828SOL    HW112383   4.109   3.618   4.362
 3828SOL    HW212384   4.081   3.769   4.307
 3829SOL     OW12385   0.494   3.728   2.708
 3829SOL    HW112386   0.533   3.637   2.701
 3829SOL    HW212387   0.546   3.782   2.775
 3830SOL     OW12388   6.671   1.068   4.406
 3830SOL    HW112389   6.690   1.083   4.309
 3830SOL    HW212390   6.572   1.072   4.421
 3831SOL     OW12391   4.179   1.831   3.576
 3831SOL    HW112392   4.215   1.898   3.641
 3831SOL    HW212393   4.153   1.878   3.491
 3832SOL     OW12394   0.102   1.218   3.147
 3832SOL    HW112395   0.134   1.180   3.234
 3832SOL    HW212396   0.043   1.151   3.101
 3833SOL     OW12397   0.542   1.052   5.360
 3833SOL    HW112398   0.526   1.136   5.308
 3833SOL    HW212399   0.615   0.999   5.316
 3834SOL     OW12400   4.899   3.976   0.679
 3834SOL    HW112401   4.955   3.949   0.758
 3834SOL    HW212402   4.935   3.934   0.596
 3835SOL     OW12403   4.066   5.571   4.592
 3835SOL    HW112404   3.994   5.620   4.641
 3835SOL    HW212405   4.059   5.473   4.612
 3836SOL     OW12406   0.162   5.891   5.657
 3836SOL    HW112407   0.065   5.875   5.637
 3836SOL    HW212408   0.170   5.955   5.734
 3837SOL     OW12409   4.477   4.850   5.098
 3837SOL    HW112410   4.531   4.826   5.018
 3837SOL    HW212411   4.439   4.942   5.087
 3838SOL     OW12412   1.155   1.642   3.579
 3838SOL    HW112413   1.127   1.651   3.484
 3838SOL    HW212414   1.085   1.680   3.639
 3839SOL     OW12415   3.522   0.727   3.266
 3839SOL    HW112416   3.456   0.658   3.235
 3839SOL    HW212417   3.519   0.806   3.204
 3840SOL     OW12418   2.621   0.828   6.808
 3840SOL    HW112419   2.615   0.849   6.906
 3840SOL    HW212420   2.568   0.896   6.757
 3841SOL     OW12421   6.749   4.362   3.412
 3841SOL    HW112422   6.708   4.286   3.362
 3841SOL    HW212423   6.849   4.352   3.412
 3842SOL     OW12424   2.285   2.872   5.298
 3842SOL    HW112425   2.354   2.922   5.246
 3842SOL    HW212426   2.325   2.789   5.336
 3843SOL     OW12427   5.292   2.535   0.550
 3843SOL    HW112428   5.330   2.479   0.625
 3843SOL    HW212429   5.362   2.547   0.479
 3844SOL     OW12430   1.345   5.622   0.518
 3844SOL    HW112431   1.369   5.545   0.459
 3844SOL    HW212432   1.427   5.674   0.541
 3845SOL     OW12433   2.331   6.283   1.000
 3845SOL    HW112434   2.347   6.185   0.990
 3845SOL    HW212435   2.345   6.328   0.911
 3846SOL     OW12436   0.990   2.512   3.407
 3846SOL    HW112437   1.077   2.559   3.424
 3846SOL    HW212438   0.924   2.539   3.477
 3847SOL     OW12439   6.542   0.748   5.803
 3847SOL    HW112440   6.561   0.782   5.895
 3847SOL    HW212441   6.594   0.802   5.736
 3848SOL     OW12442   5.338   3.805   2.261
 3848SOL    HW112443   5.433   3.824   2.235
 3848SOL    HW212444   5.332   3.714   2.302
 3849SOL     OW12445   7.007   5.873   6.842
 3849SOL    HW112446   6.923   5.917   6.811
 3849SOL    HW212447   6.987   5.811   6.918
 3850SOL     OW12448   2.478   2.476   1.113
 3850SOL    HW112449   2.453   2.418   1.190
 3850SOL    HW212450   2.453   2.571   1.132
 3851SOL     OW12451   0.626   5.535   2.753
 3851SOL    HW112452   0.671   5.511   2.839
 3851SOL    HW212453   0.629   5.457   2.691
 3852SOL     OW12454   3.868   6.212   5.181
 3852SOL    HW112455   3.827   6.260   5.259
 3852SOL    HW212456   3.957   6.253   5.159
 3853SOL     OW12457   2.511   0.880   3.941
 3853SOL    HW112458   2.524   0.967   3.987
 3853SOL    HW212459   2.512   0.893   3.842
 3854SOL     OW12460   1.762   2.912   2.430
 3854SOL    HW112461   1.769   2.812   2.420
 3854SOL    HW212462   1.717   2.933   2.517
 3855SOL     OW12463   4.386   6.811   0.633
 3855SOL    HW112464   4.339   6.878   0.690
 3855SOL    HW212465   4.357   6.821   0.538
 3856SOL     OW12466   0.444   1.560   6.302
 3856SOL    HW112467   0.533   1.529   6.334
 3856SOL    HW212468   0.377   1.487   6.315
 3857SOL     OW12469   2.062   1.019   5.680
 3857SOL    HW112470   1.982   1.026   5.621
 3857SOL    HW212471   2.042   1.061   5.768
 3858SOL     OW12472   4.366   1.450   5.085
 3858SOL    HW112473   4.299   1.376   5.089
 3858SOL    HW212474   4.443   1.422   5.027
 3859SOL     OW12475   5.414   0.574   1.201
 3859SOL    HW112476   5.346   0.559   1.273
 3859SOL    HW212477   5.426   0.491   1.148
 3860SOL     OW12478   1.559   0.595   4.161
 3860SOL    HW112479   1.562   0.508   4.211
 3860SOL    HW212480   1.560   0.576   4.063
 3861SOL     OW12481   4.377   5.645   1.530
 3861SOL    HW112482   4.443   5.702   1.481
 3861SOL    HW212483   4.406   5.549   1.526
 3862SOL     OW12484   1.152   6.579   4.003
 3862SOL    HW112485   1.130   6.575   3.905
 3862SOL    HW212486   1.227   6.516   4.022
 3863SOL     OW12487   4.573   0.586   0.782
 3863SOL    HW112488   4.670   0.563   0.782
 3863SOL    HW212489   4.555   0.655   0.712
 3864SOL     OW12490   2.322   0.420   4.492
 3864SOL    HW112491   2.352   0.327   4.515
 3864SOL    HW212492   2.397   0.484   4.505
 3865SOL     OW12493   4.129   0.365   0.000
 3865SOL    HW112494   4.135   0.276   0.046
 3865SOL    HW212495   4.052   0.365   6.955
 3866SOL     OW12496   2.478   2.771   6.412
 3866SOL    HW112497   2.572   2.782   6.380
 3866SOL    HW212498   2.478   2.747   6.509
 3867SOL     OW12499   0.612   4.152   2.592
 3867SOL    HW112500   0.598   4.176   2.496
 3867SOL    HW212501   0.530   4.109   2.628
 3868SOL     OW12502   3.900   0.985   0.104
 3868SOL    HW112503   3.905   0.897   0.055
 3868SOL    HW212504   3.958   1.052   0.058
 3869SOL     OW12505   6.263   3.144   3.616
 3869SOL    HW112506   6.244   3.106   3.526
 3869SOL    HW212507   6.340   3.208   3.610
 3870SOL     OW12508   6.492   0.116   3.368
 3870SOL    HW112509   6.543   0.147   3.288
 3870SOL    HW212510   6.504   0.182   3.442
 3871SOL     OW12511   3.093   5.834   4.042
 3871SOL    HW112512   3.045   5.783   3.970
 3871SOL    HW212513   3.190   5.838   4.019
 3872SOL     OW12514   3.436   3.187   4.233
 3872SOL    HW112515   3.530   3.197   4.202
 3872SOL    HW212516   3.413   3.089   4.237
 3873SOL     OW12517   4.649   2.416   0.361
 3873SOL    HW112518   4.684   2.434   0.453
 3873SOL    HW212519   4.603   2.328   0.360
 3874SOL     OW12520   3.962   0.083   1.016
 3874SOL    HW112521   4.006   0.068   1.105
 3874SOL    HW212522   3.866   0.055   1.022
 3875SOL     OW12523   1.615   2.349   4.882
 3875SOL    HW112524   1.608   2.306   4.972
 3875SOL    HW212525   1.690   2.415   4.883
 3876SOL     OW12526   4.427   6.604   1.295
 3876SOL    HW112527   4.402   6.507   1.291
 3876SOL    HW212528   4.429   6.634   1.390
 3877SOL     OW12529   6.994   1.851   0.515
 3877SOL    HW112530   0.061   1.879   0.470
 3877SOL    HW212531   6.968   1.919   0.583
 3878SOL     OW12532   4.738   0.177   4.593
 3878SOL    HW112533   4.657   0.235   4.583
 3878SOL    HW212534   4.740   0.108   4.520
 3879SOL     OW12535   5.048   4.835   6.965
 3879SOL    HW112536   5.022   4.739   6.975
 3879SOL    HW212537   5.144   4.846   6.989
 3880SOL     OW12538   5.203   4.665   4.533
 3880SOL    HW112539   5.279   4.712   4.490
 3880SOL    HW212540   5.118   4.687   4.484
 3881SOL     OW12541   1.232   4.217   0.399
 3881SOL    HW112542   1.274   4.150   0.460
 3881SOL    HW212543   1.292   4.232   0.321
 3882SOL     OW12544   1.210   1.569   0.457
 3882SOL    HW112545   1.179   1.664   0.461
 3882SOL    HW212546   1.260   1.547   0.541
 3883SOL     OW12547   4.424   0.107   3.293
 3883SOL    HW112548   4.351   0.175   3.298
 3883SOL    HW212549   4.456   0.085   3.385
 3884SOL     OW12550   0.855   6.263   3.671
 3884SOL    HW112551   0.837   6.331   3.600
 3884SOL    HW212552   0.902   6.184   3.632
 3885SOL     OW12553   5.759   0.059   3.258
 3885SOL    HW112554   5.805   6.994   3.287
 3885SOL    HW212555   5.718   0.104   3.338
 3886SOL     OW12556   4.472   6.616   5.657
 3886SOL    HW112557   4.469   6.665   5.744
 3886SOL    HW212558   4.404   6.543   5.656
 3887SOL     OW12559   0.626   6.073   1.259
 3887SOL    HW112560   0.659   6.120   1.341
 3887SOL    HW212561   0.535   6.107   1.235
 3888SOL     OW12562   5.909   6.159   4.008
 3888SOL    HW112563   5.910   6.203   3.918
 3888SOL    HW212564   5.990   6.102   4.018
 3889SOL     OW12565   6.197   2.653   0.050
 3889SOL    HW112566   6.168   2.640   6.974
 3889SOL    HW212567   6.266   2.724   0.054
 3890SOL     OW12568   5.532   4.074   4.268
 3890SOL    HW112569   5.530   4.163   4.223
 3890SOL    HW212570   5.468   4.012   4.223
 3891SOL     OW12571   5.474   4.346   3.793
 3891SOL    HW112572   5.409   4.307   3.726
 3891SOL    HW212573   5.516   4.427   3.754
 3892SOL     OW12574   6.725   2.341   0.865
 3892SOL    HW112575   6.692   2.319   0.773
 3892SOL    HW212576   6.669   2.292   0.932
 3893SOL     OW12577   4.555   3.415   1.331
 3893SOL    HW112578   4.625   3.436   1.263
 3893SOL    HW212579   4.479   3.366   1.288
 3894SOL     OW12580   4.984   0.459   6.504
 3894SOL    HW112581   4.982   0.441   6.602
 3894SOL    HW212582   5.051   0.398   6.460
 3895SOL     OW12583   1.467   0.055   5.217
 3895SOL    HW112584   1.550   0.096   5.254
 3895SOL    HW212585   1.387   0.098   5.260
 3896SOL     OW12586   0.711   1.064   6.933
 3896SOL    HW112587   0.665   1.147   6.901
 3896SOL    HW212588   0.716   1.066   0.015
 3897SOL     OW12589   4.271   6.019   1.623
 3897SOL    HW112590   4.359   5.986   1.591
 3897SOL    HW212591   4.221   5.945   1.669
 3898SOL     OW12592   4.039   2.325   6.806
 3898SOL    HW112593   4.011   2.297   6.715
 3898SOL    HW212594   4.023   2.251   6.871
 3899SOL     OW12595   4.531   0.206   6.257
 3899SOL    HW112596   4.541   0.297   6.216
 3899SOL    HW212597   4.483   0.145   6.193
 3900SOL     OW12598   5.346   3.739   3.725
 3900SOL    HW112599   5.391   3.790   3.652
 3900SOL    HW212600   5.390   3.759   3.813
 3901SOL     OW12601   3.378   0.220   6.209
 3901SOL    HW112602   3.422   0.294   6.159
 3901SOL    HW212603   3.293   0.195   6.163
 3902SOL     OW12604   5.476   3.219   2.659
 3902SOL    HW112605   5.379   3.203   2.639
 3902SOL    HW212606   5.530   3.148   2.615
 3903SOL     OW12607   3.996   6.490   0.540
 3903SOL    HW112608   3.911   6.543   0.533
 3903SOL    HW212609   4.034   6.502   0.632
 3904SOL     OW12610   0.965   0.780   6.594
 3904SOL    HW112611   0.925   0.689   6.592
 3904SOL    HW212612   1.021   0.790   6.676
 3905SOL     OW12613   6.702   6.327   6.817
 3905SOL    HW112614   6.788   6.351   6.862
 3905SOL    HW212615   6.720   6.301   6.722
 3906SOL     OW12616   5.772   6.225   5.987
 3906SOL    HW112617   5.778   6.206   6.085
 3906SOL    HW212618   5.784   6.141   5.935
 3907SOL     OW12619   5.720   1.414   3.854
 3907SOL    HW112620   5.795   1.451   3.910
 3907SOL    HW212621   5.754   1.338   3.799
 3908SOL     OW12622   1.044   2.366   6.900
 3908SOL    HW112623   1.036   2.266   6.898
 3908SOL    HW212624   1.139   2.392   6.883
 3909SOL     OW12625   4.985   5.553   4.502
 3909SOL    HW112626   4.963   5.651   4.508
 3909SOL    HW212627   5.038   5.526   4.581
 3910SOL     OW12628   3.478   4.154   2.487
 3910SOL    HW112629   3.530   4.223   2.538
 3910SOL    HW212630   3.540   4.080   2.459
 3911SOL     OW12631   6.339   1.537   4.749
 3911SOL    HW112632   6.310   1.518   4.655
 3911SOL    HW212633   6.364   1.451   4.794
 3912SOL     OW12634   5.207   2.068   5.224
 3912SOL    HW112635   5.110   2.089   5.232
 3912SOL    HW212636   5.236   2.080   5.129
 3913SOL     OW12637   1.722   0.301   6.403
 3913SOL    HW112638   1.767   0.241   6.470
 3913SOL    HW212639   1.644   0.347   6.446
 3914SOL     OW12640   3.005   0.054   0.188
 3914SOL    HW112641   3.055   0.000   0.256
 3914SOL    HW212642   2.908   0.055   0.212
 3915SOL     OW12643   5.426   5.561   1.035
 3915SOL    HW112644   5.492   5.554   0.960
 3915SOL    HW212645   5.357   5.490   1.025
 3916SOL     OW12646   0.501   0.159   2.542
 3916SOL    HW112647   0.517   0.113   2.629
 3916SOL    HW212648   0.572   0.227   2.527
 3917SOL     OW12649   1.258   6.488   6.826
 3917SOL    HW112650   1.329   6.534   6.773
 3917SOL    HW212651   1.186   6.554   6.848
 3918SOL     OW12652   5.225   4.919   1.589
 3918SOL    HW112653   5.130   4.951   1.591
 3918SOL    HW212654   5.286   4.993   1.619
 3919SOL     OW12655   4.015   0.148   0.756
 3919SOL    HW112656   4.013   0.064   0.703
 3919SOL    HW212657   3.997   0.128   0.852
 3920SOL     OW12658   2.448   3.412   0.387
 3920SOL    HW112659   2.398   3.342   0.438
 3920SOL    HW212660   2.415   3.502   0.412
 3921SOL     OW12661   0.268   4.044   1.546
 3921SOL    HW112662   0.194   4.086   1.495
 3921SOL    HW212663   0.344   4.024   1.484
 3922SOL     OW12664   6.732   3.749   2.430
 3922SOL    HW112665   6.816   3.709   2.467
 3922SOL    HW212666   6.653   3.712   2.478
 3923SOL     OW12667   0.382   0.426   0.860
 3923SOL    HW112668   0.400   0.521   0.836
 3923SOL    HW212669   0.411   0.366   0.785
 3924SOL     OW12670   5.989   4.451   4.347
 3924SOL    HW112671   6.057   4.402   4.293
 3924SOL    HW212672   6.015   4.449   4.443
 3925SOL     OW12673   1.358   4.458   1.635
 3925SOL    HW112674   1.386   4.412   1.719
 3925SOL    HW212675   1.273   4.508   1.651
 3926SOL     OW12676   4.452   5.170   2.267
 3926SOL    HW112677   4.528   5.107   2.281
 3926SOL    HW212678   4.369   5.132   2.309
 3927SOL     OW12679   6.483   2.645   5.506
 3927SOL    HW112680   6.505   2.547   5.509
 3927SOL    HW212681   6.483   2.677   5.412
 3928SOL     OW12682   4.556   6.069   6.594
 3928SOL    HW112683   4.593   6.020   6.673
 3928SOL    HW212684   4.491   6.011   6.546
 3929SOL     OW12685   0.849   0.423   4.854
 3929SOL    HW112686   0.938   0.462   4.878
 3929SOL    HW212687   0.777   0.471   4.905
 3930SOL     OW12688   2.649   2.114   4.366
 3930SOL    HW112689   2.728   2.053   4.360
 3930SOL    HW212690   2.598   2.111   4.280
 3931SOL     OW12691   0.691   1.647   1.610
 3931SOL    HW112692   0.787   1.644   1.581
 3931SOL    HW212693   0.632   1.628   1.531
 3932SOL     OW12694   0.784   3.450   3.767
 3932SOL    HW112695   0.835   3.535   3.754
 3932SOL    HW212696   0.838   3.373   3.733
 3933SOL     OW12697   2.328   0.111   6.098
 3933SOL    HW112698   2.379   0.196   6.080
 3933SOL    HW212699   2.231   0.126   6.078
 3934SOL     OW12700   6.042   0.066   6.139
 3934SOL    HW112701   5.946   0.050   6.119
 3934SOL    HW212702   6.051   0.103   6.231
 3935SOL     OW12703   3.915   6.839   0.389
 3935SOL    HW112704   3.818   6.815   0.384
 3935SOL    HW212705   3.967   6.780   0.328
 3936SOL     OW12706   6.875   5.471   4.638
 3936SOL    HW112707   6.846   5.547   4.580
 3936SOL    HW212708   6.921   5.402   4.582
 3937SOL     OW12709   0.320   2.180   2.548
 3937SOL    HW112710   0.407   2.225   2.568
 3937SOL    HW212711   0.296   2.194   2.452
 3938SOL     OW12712   0.897   1.444   3.380
 3938SOL    HW112713   0.827   1.470   3.312
 3938SOL    HW212714   0.853   1.433   3.469
 3939SOL     OW12715   2.888   2.090   2.749
 3939SOL    HW112716   2.858   2.168   2.695
 3939SOL    HW212717   2.987   2.084   2.748
 3940SOL     OW12718   4.173   3.819   1.348
 3940SOL    HW112719   4.267   3.796   1.321
 3940SOL    HW212720   4.157   3.917   1.332
 3941SOL     OW12721   5.162   5.036   6.141
 3941SOL    HW112722   5.221   5.021   6.220
 3941SOL    HW212723   5.070   5.062   6.172
 3942SOL     OW12724   6.782   5.875   0.131
 3942SOL    HW112725   6.791   5.967   0.095
 3942SOL    HW212726   6.862   5.821   0.105
 3943SOL     OW12727   0.785   3.184   4.494
 3943SOL    HW112728   0.867   3.137   4.527
 3943SOL    HW212729   0.810   3.273   4.456
 3944SOL     OW12730   4.811   2.599   4.946
 3944SOL    HW112731   4.730   2.541   4.952
 3944SOL    HW212732   4.892   2.545   4.971
 3945SOL     OW12733   0.277   1.757   0.701
 3945SOL    HW112734   0.249   1.758   0.605
 3945SOL    HW212735   0.200   1.783   0.759
 3946SOL     OW12736   5.155   4.007   3.799
 3946SOL    HW112737   5.100   3.925   3.814
 3946SOL    HW212738   5.169   4.054   3.887
 3947SOL     OW12739   4.569   6.232   6.883
 3947SOL    HW112740   4.575   6.159   6.952
 3947SOL    HW212741   4.615   6.314   6.916
 3948SOL     OW12742   6.893   4.616   1.835
 3948SOL    HW112743   6.819   4.620   1.902
 3948SOL    HW212744   6.890   4.529   1.787
 3949SOL     OW12745   5.288   5.552   3.055
 3949SOL    HW112746   5.364   5.515   3.110
 3949SOL    HW212747   5.201   5.531   3.101
 3950SOL     OW12748   1.288   5.199   0.862
 3950SOL    HW112749   1.324   5.215   0.769
 3950SOL    HW212750   1.240   5.112   0.864
 3951SOL     OW12751   5.328   0.695   1.622
 3951SOL    HW112752   5.335   0.792   1.600
 3951SOL    HW212753   5.245   0.657   1.581
 3952SOL     OW12754   0.024   2.344   1.170
 3952SOL    HW112755   0.012   2.372   1.075
 3952SOL    HW212756   0.001   2.420   1.231
 3953SOL     OW12757   3.907   4.066   0.908
 3953SOL    HW112758   3.969   3.989   0.919
 3953SOL    HW212759   3.815   4.041   0.939
 3954SOL     OW12760   3.859   5.531   5.649
 3954SOL    HW112761   3.948   5.502   5.683
 3954SOL    HW212762   3.868   5.567   5.557
 3955SOL     OW12763   2.554   1.192   5.802
 3955SOL    HW112764   2.583   1.100   5.776
 3955SOL    HW212765   2.624   1.258   5.775
 3956SOL     OW12766   1.192   0.910   2.568
 3956SOL    HW112767   1.206   0.817   2.536
 3956SOL    HW212768   1.125   0.911   2.642
 3957SOL     OW12769   4.025   0.199   4.228
 3957SOL    HW112770   4.072   0.139   4.293
 3957SOL    HW212771   4.089   0.267   4.193
 3958SOL     OW12772   6.126   1.803   3.904
 3958SOL    HW112773   6.148   1.878   3.967
 3958SOL    HW212774   6.113   1.839   3.812
 3959SOL     OW12775   5.590   5.116   0.368
 3959SOL    HW112776   5.645   5.175   0.426
 3959SOL    HW212777   5.632   5.108   0.277
 3960SOL     OW12778   5.395   1.509   5.456
 3960SOL    HW112779   5.385   1.588   5.396
 3960SOL    HW212780   5.480   1.517   5.508
 3961SOL     OW12781   4.946   0.882   3.331
 3961SOL    HW112782   4.859   0.927   3.313
 3961SOL    HW212783   4.938   0.826   3.414
 3962SOL     OW12784   1.101   4.735   6.313
 3962SOL    HW112785   1.021   4.699   6.265
 3962SOL    HW212786   1.172   4.757   6.247
 3963SOL     OW12787   4.844   6.126   2.138
 3963SOL    HW112788   4.860   6.125   2.237
 3963SOL    HW212789   4.798   6.211   2.113
 3964SOL     OW12790   4.614   4.550   3.390
 3964SOL    HW112791   4.645   4.459   3.419
 3964SOL    HW212792   4.679   4.587   3.324
 3965SOL     OW12793   4.853   3.475   3.950
 3965SOL    HW112794   4.934   3.415   3.946
 3965SOL    HW212795   4.794   3.456   3.871
 3966SOL     OW12796   3.985   5.922   6.911
 3966SOL    HW112797   4.015   5.979   6.835
 3966SOL    HW212798   4.053   5.850   6.928
 3967SOL     OW12799   2.214   4.296   1.473
 3967SOL    HW112800   2.300   4.246   1.461
 3967SOL    HW212801   2.140   4.231   1.492
 3968SOL     OW12802   5.088   0.580   0.626
 3968SOL    HW112803   5.100   0.677   0.647
 3968SOL    HW212804   5.000   0.567   0.581
 3969SOL     OW12805   0.939   5.204   1.910
 3969SOL    HW112806   0.897   5.256   1.984
 3969SOL    HW212807   1.034   5.233   1.899
 3970SOL     OW12808   5.366   6.072   2.467
 3970SOL    HW112809   5.385   5.998   2.403
 3970SOL    HW212810   5.322   6.035   2.549
 3971SOL     OW12811   2.865   5.962   4.307
 3971SOL    HW112812   2.844   6.021   4.229
 3971SOL    HW212813   2.809   5.879   4.301
 3972SOL     OW12814   1.365   4.092   6.884
 3972SOL    HW112815   1.420   4.098   6.801
 3972SOL    HW212816   1.310   4.175   6.893
 3973SOL     OW12817   0.923   5.666   0.890
 3973SOL    HW112818   0.947   5.749   0.840
 3973SOL    HW212819   0.897   5.594   0.826
 3974SOL     OW12820   1.945   0.830   6.001
 3974SOL    HW112821   1.929   0.833   6.099
 3974SOL    HW212822   1.965   0.735   5.974
 3975SOL     OW12823   5.172   1.949   6.235
 3975SOL    HW112824   5.264   1.923   6.264
 3975SOL    HW212825   5.105   1.897   6.288
 3976SOL     OW12826   1.990   6.723   2.496
 3976SOL    HW112827   2.055   6.786   2.538
 3976SOL    HW212828   1.896   6.752   2.517
 3977SOL     OW12829   1.292   3.439   6.510
 3977SOL    HW112830   1.282   3.439   6.609
 3977SOL    HW212831   1.280   3.532   6.475
 3978SOL     OW12832   6.560   4.976   3.231
 3978SOL    HW112833   6.494   4.939   3.166
 3978SOL    HW212834   6.637   5.015   3.182
 3979SOL     OW12835   3.606   1.027   5.864
 3979SOL    HW112836   3.579   1.118   5.895
 3979SOL    HW212837   3.527   0.967   5.866
 3980SOL     OW12838   5.924   6.491   6.410
 3980SOL    HW112839   5.891   6.553   6.338
 3980SOL    HW212840   5.888   6.521   6.498
 3981SOL     OW12841   4.475   6.193   0.808
 3981SOL    HW112842   4.384   6.224   0.781
 3981SOL    HW212843   4.544   6.258   0.775
 3982SOL     OW12844   2.350   0.211   2.502
 3982SOL    HW112845   2.357   0.277   2.576
 3982SOL    HW212846   2.404   0.242   2.424
 3983SOL     OW12847   5.202   5.225   3.967
 3983SOL    HW112848   5.292   5.191   3.993
 3983SOL    HW212849   5.146   5.236   4.049
 3984SOL     OW12850   6.126   1.253   2.817
 3984SOL    HW112851   6.147   1.249   2.719
 3984SOL    HW212852   6.058   1.324   2.834
 3985SOL     OW12853   3.580   5.368   6.763
 3985SOL    HW112854   3.526   5.296   6.719
 3985SOL    HW212855   3.606   5.339   6.855
 3986SOL     OW12856   4.742   1.734   3.147
 3986SOL    HW112857   4.684   1.653   3.135
 3986SOL    HW212858   4.712   1.805   3.083
 3987SOL     OW12859   3.389   4.997   4.214
 3987SOL    HW112860   3.388   5.089   4.252
 3987SOL    HW212861   3.475   4.952   4.239
 3988SOL     OW12862   3.673   5.577   6.991
 3988SOL    HW112863   3.771   5.594   6.976
 3988SOL    HW212864   3.657   5.479   7.001
 3989SOL     OW12865   6.618   2.191   7.011
 3989SOL    HW112866   6.606   2.118   6.944
 3989SOL    HW212867   6.696   2.169   0.052
 3990SOL     OW12868   5.135   2.541   1.869
 3990SOL    HW112869   5.230   2.563   1.889
 3990SOL    HW212870   5.078   2.621   1.888
 3991SOL     OW12871   0.339   1.539   2.281
 3991SOL    HW112872   0.373   1.631   2.303
 3991SOL    HW212873   0.403   1.471   2.317
 3992SOL     OW12874   2.860   2.134   0.763
 3992SOL    HW112875   2.934   2.088   0.714
 3992SOL    HW212876   2.898   2.196   0.832
 3993SOL     OW12877   1.574   2.594   1.926
 3993SOL    HW112878   1.672   2.611   1.932
 3993SOL    HW212879   1.525   2.681   1.918
 3994SOL     OW12880   2.779   0.250   5.445
 3994SOL    HW112881   2.734   0.337   5.423
 3994SOL    HW212882   2.836   0.221   5.369
 3995SOL     OW12883   1.751   3.078   5.665
 3995SOL    HW112884   1.831   3.119   5.620
 3995SOL    HW212885   1.757   3.092   5.764
 3996SOL     OW12886   0.803   6.581   5.549
 3996SOL    HW112887   0.782   6.677   5.566
 3996SOL    HW212888   0.806   6.565   5.450
 3997SOL     OW12889   5.873   1.396   4.600
 3997SOL    HW112890   5.814   1.414   4.678
 3997SOL    HW212891   5.833   1.323   4.544
 3998SOL     OW12892   3.217   1.523   4.300
 3998SOL    HW112893   3.247   1.527   4.204
 3998SOL    HW212894   3.197   1.616   4.332
 3999SOL     OW12895   5.946   2.711   4.406
 3999SOL    HW112896   5.964   2.785   4.470
 3999SOL    HW212897   5.937   2.748   4.313
 4000SOL     OW12898   3.222   6.716   3.991
 4000SOL    HW112899   3.170   6.760   3.917
 4000SOL    HW212900   3.320   6.728   3.973
 4001SOL     OW12901   2.523   1.840   3.867
 4001SOL    HW112902   2.435   1.870   3.905
 4001SOL    HW212903   2.574   1.920   3.834
 4002SOL     OW12904   2.477   3.675   1.694
 4002SOL    HW112905   2.394   3.620   1.707
 4002SOL    HW212906   2.457   3.771   1.715
 4003SOL     OW12907   3.032   6.925   4.500
 4003SOL    HW112908   3.055   6.895   4.408
 4003SOL    HW212909   2.937   6.957   4.502
 4004SOL     OW12910   6.631   2.467   4.717
 4004SOL    HW112911   6.688   2.386   4.703
 4004SOL    HW212912   6.663   2.540   4.656
 4005SOL     OW12913   4.620   6.186   6.318
 4005SOL    HW112914   4.591   6.241   6.396
 4005SOL    HW212915   4.673   6.108   6.349
 4006SOL     OW12916   3.822   5.134   2.294
 4006SOL    HW112917   3.804   5.040   2.263
 4006SOL    HW212918   3.772   5.199   2.236
 4007SOL     OW12919   0.457   2.872   6.852
 4007SOL    HW112920   0.404   2.905   6.930
 4007SOL    HW212921   0.521   2.944   6.823
 4008SOL     OW12922   2.668   2.178   4.646
 4008SOL    HW112923   2.650   2.171   4.548
 4008SOL    HW212924   2.703   2.269   4.667
 4009SOL     OW12925   4.119   3.536   2.219
 4009SOL    HW112926   4.149   3.504   2.129
 4009SOL    HW212927   4.090   3.458   2.274
 4010SOL     OW12928   2.671   2.961   1.182
 4010SOL    HW112929   2.620   2.920   1.258
 4010SOL    HW212930   2.767   2.933   1.187
 4011SOL     OW12931   0.915   2.207   1.450
 4011SOL    HW112932   1.004   2.187   1.409
 4011SOL    HW212933   0.866   2.274   1.394
 4012SOL     OW12934   6.569   4.475   2.409
 4012SOL    HW112935   6.639   4.423   2.360
 4012SOL    HW212936   6.478   4.446   2.379
 4013SOL     OW12937   4.334   2.012   4.307
 4013SOL    HW112938   4.280   1.930   4.328
 4013SOL    HW212939   4.295   2.090   4.355
 4014SOL     OW12940   5.685   6.572   2.713
 4014SOL    HW112941   5.734   6.485   2.720
 4014SOL    HW212942   5.746   6.647   2.737
 4015SOL     OW12943   4.882   4.312   5.921
 4015SOL    HW112944   4.896   4.394   5.866
 4015SOL    HW212945   4.965   4.256   5.920
 4016SOL     OW12946   3.050   5.995   5.694
 4016SOL    HW112947   3.087   5.941   5.768
 4016SOL    HW212948   3.044   5.939   5.611
 4017SOL     OW12949   6.789   5.615   6.945
 4017SOL    HW112950   6.747   5.557   6.874
 4017SOL    HW212951   6.874   5.573   6.976
 4018SOL     OW12952   3.907   5.933   1.560
 4018SOL    HW112953   3.960   5.848   1.557
 4018SOL    HW212954   3.816   5.917   1.519
 4019SOL     OW12955   5.763   4.428   2.833
 4019SOL    HW112956   5.767   4.495   2.759
 4019SOL    HW212957   5.849   4.430   2.884
 4020SOL     OW12958   5.151   2.269   5.442
 4020SOL    HW112959   5.072   2.218   5.478
 4020SOL    HW212960   5.207   2.209   5.386
 4021SOL     OW12961   3.001   4.698   5.684
 4021SOL    HW112962   2.923   4.743   5.643
 4021SOL    HW212963   3.035   4.626   5.623
 4022SOL     OW12964   5.385   0.935   0.504
 4022SOL    HW112965   5.363   0.893   0.592
 4022SOL    HW212966   5.324   0.899   0.433
 4023SOL     OW12967   5.975   1.769   5.232
 4023SOL    HW112968   6.033   1.732   5.159
 4023SOL    HW212969   5.913   1.837   5.192
 4024SOL     OW12970   3.897   4.875   4.131
 4024SOL    HW112971   3.955   4.849   4.054
 4024SOL    HW212972   3.828   4.941   4.100
 4025SOL     OW12973   0.696   4.442   3.631
 4025SOL    HW112974   0.626   4.372   3.617
 4025SOL    HW212975   0.783   4.410   3.594
 4026SOL     OW12976   5.365   6.267   3.980
 4026SOL    HW112977   5.328   6.182   4.018
 4026SOL    HW212978   5.391   6.328   4.055
 4027SOL     OW12979   4.121   4.946   1.517
 4027SOL    HW112980   4.096   5.024   1.574
 4027SOL    HW212981   4.211   4.912   1.545
 4028SOL     OW12982   2.541   1.737   4.129
 4028SOL    HW112983   2.544   1.652   4.181
 4028SOL    HW212984   2.518   1.718   4.034
 4029SOL     OW12985   1.924   4.711   5.175
 4029SOL    HW112986   1.877   4.630   5.141
 4029SOL    HW212987   1.957   4.693   5.268
 4030SOL     OW12988   0.677   2.189   5.317
 4030SOL    HW112989   0.659   2.241   5.400
 4030SOL    HW212990   0.764   2.219   5.277
 4031SOL     OW12991   3.975   5.668   3.941
 4031SOL    HW112992   4.050   5.604   3.951
 4031SOL    HW212993   3.896   5.636   3.992
 4032SOL     OW12994   5.523   0.237   4.612
 4032SOL    HW112995   5.490   0.299   4.541
 4032SOL    HW212996   5.464   0.244   4.692
 4033SOL     OW12997   2.943   3.815   5.538
 4033SOL    HW112998   2.877   3.835   5.465
 4033SOL    HW212999   2.989   3.729   5.519
 4034SOL     OW13000   0.045   2.407   3.901
 4034SOL    HW113001   0.022   2.502   3.919
 4034SOL    HW213002   7.014   2.374   3.821
 4035SOL     OW13003   0.162   4.576   0.159
 4035SOL    HW113004   0.130   4.624   0.241
 4035SOL    HW213005   0.248   4.616   0.128
 4036SOL     OW13006   6.627   0.042   2.521
 4036SOL    HW113007   6.686   6.987   2.556
 4036SOL    HW213008   6.592   0.015   2.431
 4037SOL     OW13009   0.262   3.957   6.857
 4037SOL    HW113010   0.215   3.902   6.788
 4037SOL    HW213011   0.225   3.936   6.947
 4038SOL     OW13012   6.113   4.542   3.687
 4038SOL    HW113013   6.158   4.626   3.719
 4038SOL    HW213014   6.134   4.528   3.590
 4039SOL     OW13015   5.078   6.302   0.237
 4039SOL    HW113016   5.132   6.381   0.265
 4039SOL    HW213017   5.133   6.219   0.247
 4040SOL     OW13018   3.658   6.531   1.420
 4040SOL    HW113019   3.750   6.550   1.452
 4040SOL    HW213020   3.591   6.573   1.483
 4041SOL     OW13021   1.524   6.423   3.759
 4041SOL    HW113022   1.605   6.476   3.735
 4041SOL    HW213023   1.485   6.383   3.676
 4042SOL     OW13024   5.993   5.211   2.184
 4042SOL    HW113025   5.957   5.304   2.188
 4042SOL    HW213026   5.965   5.162   2.267
 4043SOL     OW13027   5.996   2.016   1.307
 4043SOL    HW113028   6.071   2.073   1.340
 4043SOL    HW213029   5.932   2.072   1.255
 4044SOL     OW13030   6.058   6.425   3.533
 4044SOL    HW113031   5.969   6.461   3.561
 4044SOL    HW213032   6.121   6.500   3.517
 4045SOL     OW13033   2.694   5.797   5.870
 4045SOL    HW113034   2.672   5.826   5.777
 4045SOL    HW213035   2.613   5.756   5.912
 4046SOL     OW13036   0.830   3.212   1.100
 4046SOL    HW113037   0.760   3.155   1.057
 4046SOL    HW213038   0.793   3.251   1.185
 4047SOL     OW13039   2.575   3.726   1.438
 4047SOL    HW113040   2.536   3.681   1.518
 4047SOL    HW213041   2.556   3.672   1.356
 4048SOL     OW13042   5.452   1.236   0.955
 4048SOL    HW113043   5.418   1.200   0.868
 4048SOL    HW213044   5.541   1.279   0.941
 4049SOL     OW13045   5.433   0.416   5.201
 4049SOL    HW113046   5.512   0.469   5.230
 4049SOL    HW213047   5.463   0.330   5.160
 4050SOL     OW13048   2.767   0.082   0.985
 4050SOL    HW113049   2.831   0.130   0.925
 4050SOL    HW213050   2.775   7.001   0.970
 4051SOL     OW13051   3.103   3.817   1.211
 4051SOL    HW113052   3.113   3.730   1.163
 4051SOL    HW213053   3.007   3.832   1.235
 4052SOL     OW13054   0.973   6.565   1.345
 4052SOL    HW113055   0.875   6.587   1.338
 4052SOL    HW213056   1.017   6.582   1.257
 4053SOL     OW13057   3.736   4.911   3.161
 4053SOL    HW113058   3.731   4.990   3.221
 4053SOL    HW213059   3.827   4.870   3.168
 4054SOL     OW13060   4.509   1.702   0.497
 4054SOL    HW113061   4.437   1.718   0.429
 4054SOL    HW213062   4.599   1.717   0.455
 4055SOL     OW13063   3.469   1.734   6.886
 4055SOL    HW113064   3.512   1.715   6.975
 4055SOL    HW213065   3.431   1.826   6.887
 4056SOL     OW13066   4.000   3.572   0.739
 4056SOL    HW113067   4.041   3.649   0.691
 4056SOL    HW213068   4.071   3.515   0.779
 4057SOL     OW13069   4.982   2.795   6.682
 4057SOL    HW113070   5.068   2.747   6.694
 4057SOL    HW213071   4.970   2.818   6.586
 4058SOL     OW13072   1.393   0.732   5.263
 4058SOL    HW113073   1.414   0.642   5.303
 4058SOL    HW213074   1.468   0.795   5.284
 4059SOL     OW13075   0.162   2.395   4.370
 4059SOL    HW113076   0.149   2.409   4.468
 4059SOL    HW213077   0.188   2.481   4.327
 4060SOL     OW13078   4.539   4.922   4.020
 4060SOL    HW113079   4.468   4.936   4.089
 4060SOL    HW213080   4.547   4.824   4.001
 4061SOL     OW13081   3.007   3.034   1.344
 4061SOL    HW113082   3.035   3.009   1.437
 4061SOL    HW213083   2.992   2.950   1.291
 4062SOL     OW13084   2.117   0.141   3.085
 4062SOL    HW113085   2.065   0.123   3.002
 4062SOL    HW213086   2.204   0.183   3.061
 4063SOL     OW13087   2.710   5.041   6.320
 4063SOL    HW113088   2.652   5.037   6.401
 4063SOL    HW213089   2.770   4.960   6.318
 4064SOL     OW13090   6.843   6.990   3.937
 4064SOL    HW113091   6.921   6.931   3.957
 4064SOL    HW213092   6.863   0.027   3.857
 4065SOL     OW13093   5.995   5.291   6.876
 4065SOL    HW113094   6.083   5.277   6.921
 4065SOL    HW213095   5.979   5.389   6.863
 4066SOL     OW13096   5.935   4.585   1.858
 4066SOL    HW113097   5.865   4.526   1.818
 4066SOL    HW213098   5.924   4.587   1.957
 4067SOL     OW13099   5.659   0.700   2.164
 4067SOL    HW113100   5.708   0.772   2.115
 4067SOL    HW213101   5.586   0.741   2.219
 4068SOL     OW13102   6.404   0.783   3.874
 4068SOL    HW113103   6.479   0.761   3.811
 4068SOL    HW213104   6.320   0.796   3.821
 4069SOL     OW13105   6.687   5.362   0.914
 4069SOL    HW113106   6.671   5.446   0.861
 4069SOL    HW213107   6.690   5.284   0.852
 4070SOL     OW13108   1.128   3.040   2.847
 4070SOL    HW113109   1.202   3.101   2.822
 4070SOL    HW213110   1.155   2.945   2.828
 4071SOL     OW13111   1.839   6.587   4.207
 4071SOL    HW113112   1.849   6.679   4.245
 4071SOL    HW213113   1.744   6.574   4.177
 4072SOL     OW13114   0.799   0.534   4.383
 4072SOL    HW113115   0.775   0.577   4.296
 4072SOL    HW213116   0.864   0.592   4.433
 4073SOL     OW13117   1.744   5.414   6.847
 4073SOL    HW113118   1.833   5.457   6.831
 4073SOL    HW213119   1.681   5.442   6.775
 4074SOL     OW13120   2.036   2.784   0.265
 4074SOL    HW113121   2.046   2.839   0.182
 4074SOL    HW213122   1.939   2.779   0.290
 4075SOL     OW13123   5.041   1.186   3.607
 4075SOL    HW113124   5.100   1.157   3.683
 4075SOL    HW213125   4.968   1.119   3.594
 4076SOL     OW13126   1.687   2.531   3.804
 4076SOL    HW113127   1.768   2.536   3.862
 4076SOL    HW213128   1.706   2.576   3.716
 4077SOL     OW13129   2.503   1.483   0.815
 4077SOL    HW113130   2.497   1.577   0.849
 4077SOL    HW213131   2.487   1.482   0.717
 4078SOL     OW13132   5.637   3.746   2.160
 4078SOL    HW113133   5.716   3.806   2.174
 4078SOL    HW213134   5.612   3.746   2.063
 4079SOL     OW13135   0.896   1.302   3.908
 4079SOL    HW113136   0.975   1.320   3.849
 4079SOL    HW213137   0.824   1.368   3.888
 4080SOL     OW13138   3.745   2.915   1.961
 4080SOL    HW113139   3.712   2.958   2.045
 4080SOL    HW213140   3.667   2.889   1.904
 4081SOL     OW13141   2.774   2.493   6.194
 4081SOL    HW113142   2.807   2.478   6.101
 4081SOL    HW213143   2.675   2.511   6.192
 4082SOL     OW13144   1.132   2.608   5.151
 4082SOL    HW113145   1.118   2.594   5.053
 4082SOL    HW213146   1.197   2.684   5.165
 4083SOL     OW13147   5.617   4.787   3.276
 4083SOL    HW113148   5.700   4.842   3.272
 4083SOL    HW213149   5.568   4.805   3.361
 4084SOL     OW13150   4.837   0.231   3.352
 4084SOL    HW113151   4.764   0.223   3.285
 4084SOL    HW213152   4.926   0.230   3.305
 4085SOL     OW13153   4.080   5.260   2.389
 4085SOL    HW113154   3.996   5.229   2.344
 4085SOL    HW213155   4.128   5.182   2.428
 4086SOL     OW13156   6.042   4.857   6.427
 4086SOL    HW113157   6.108   4.806   6.371
 4086SOL    HW213158   6.077   4.949   6.444
 4087SOL     OW13159   2.045   0.253   1.950
 4087SOL    HW113160   2.048   0.282   2.046
 4087SOL    HW213161   2.019   0.157   1.944
 4088SOL     OW13162   0.484   2.022   4.941
 4088SOL    HW113163   0.400   2.076   4.940
 4088SOL    HW213164   0.499   1.984   5.032
 4089SOL     OW13165   1.454   0.541   3.150
 4089SOL    HW113166   1.547   0.578   3.148
 4089SOL    HW213167   1.388   0.614   3.129
 4090SOL     OW13168   2.294   1.456   6.169
 4090SOL    HW113169   2.198   1.430   6.161
 4090SOL    HW213170   2.302   1.544   6.215
 4091SOL     OW13171   3.139   6.024   0.950
 4091SOL    HW113172   3.060   5.968   0.923
 4091SOL    HW213173   3.140   6.034   1.050
 4092SOL     OW13174   5.717   2.827   4.141
 4092SOL    HW113175   5.749   2.732   4.145
 4092SOL    HW213176   5.649   2.836   4.068
 4093SOL     OW13177   5.115   4.685   3.935
 4093SOL    HW113178   5.119   4.681   3.835
 4093SOL    HW213179   5.094   4.779   3.963
 4094SOL     OW13180   0.007   5.439   7.015
 4094SOL    HW113181   0.062   5.476   0.072
 4094SOL    HW213182   6.964   5.369   0.033
 4095SOL     OW13183   0.362   5.314   0.176
 4095SOL    HW113184   0.385   5.257   0.097
 4095SOL    HW213185   0.345   5.255   0.256
 4096SOL     OW13186   0.237   1.128   6.881
 4096SOL    HW113187   0.153   1.106   6.932
 4096SOL    HW213188   0.252   1.060   6.810
 4097SOL     OW13189   6.316   4.888   4.939
 4097SOL    HW113190   6.312   4.864   4.842
 4097SOL    HW213191   6.273   4.817   4.993
 4098SOL     OW13192   2.059   4.340   3.277
 4098SOL    HW113193   2.001   4.275   3.327
 4098SOL    HW213194   2.071   4.422   3.333
 4099SOL     OW13195   4.330   4.391   6.467
 4099SOL    HW113196   4.260   4.342   6.519
 4099SOL    HW213197   4.297   4.484   6.448
 4100SOL     OW13198   1.070   6.973   3.900
 4100SOL    HW113199   1.012   7.001   3.823
 4100SOL    HW213200   1.146   6.918   3.866
 4101SOL     OW13201   6.019   5.953   0.289
 4101SOL    HW113202   6.026   5.855   0.268
 4101SOL    HW213203   6.034   6.006   0.205
 4102SOL     OW13204   1.571   0.217   0.067
 4102SOL    HW113205   1.586   0.130   0.114
 4102SOL    HW213206   1.475   0.224   0.039
 4103SOL     OW13207   1.885   6.130   3.616
 4103SOL    HW113208   1.927   6.139   3.706
 4103SOL    HW213209   1.953   6.101   3.549
 4104SOL     OW13210   2.355   5.461   4.315
 4104SOL    HW113211   2.280   5.480   4.378
 4104SOL    HW213212   2.370   5.540   4.255
 4105SOL     OW13213   4.733   0.831   1.023
 4105SOL    HW113214   4.646   0.782   1.014
 4105SOL    HW213215   4.787   0.790   1.097
 4106SOL     OW13216   1.342   1.007   3.286
 4106SOL    HW113217   1.318   1.104   3.298
 4106SOL    HW213218   1.292   0.969   3.208
 4107SOL     OW13219   1.241   6.625   0.089
 4107SOL    HW113220   1.267   6.710   0.044
 4107SOL    HW213221   1.303   6.552   0.061
 4108SOL     OW13222   6.707   5.940   5.570
 4108SOL    HW113223   6.624   5.943   5.513
 4108SOL    HW213224   6.722   6.030   5.612
 4109SOL     OW13225   5.883   5.970   3.662
 4109SOL    HW113226   5.921   6.062   3.666
 4109SOL    HW213227   5.949   5.905   3.700
 4110SOL     OW13228   4.827   2.796   0.611
 4110SOL    HW113229   4.815   2.884   0.656
 4110SOL    HW213230   4.924   2.771   0.613
 4111SOL     OW13231   6.548   4.089   4.007
 4111SOL    HW113232   6.595   4.123   4.088
 4111SOL    HW213233   6.451   4.077   4.028
 4112SOL     OW13234   4.710   6.029   4.870
 4112SOL    HW113235   4.758   6.101   4.821
 4112SOL    HW213236   4.726   6.038   4.968
 4113SOL     OW13237   4.105   5.299   4.656
 4113SOL    HW113238   4.113   5.228   4.726
 4113SOL    HW213239   4.167   5.278   4.580
 4114SOL     OW13240   0.355   1.423   1.606
 4114SOL    HW113241   0.426   1.443   1.673
 4114SOL    HW213242   0.279   1.376   1.652
 4115SOL     OW13243   4.072   5.921   4.131
 4115SOL    HW113244   4.105   5.965   4.047
 4115SOL    HW213245   3.973   5.931   4.137
 4116SOL     OW13246   4.880   4.133   2.350
 4116SOL    HW113247   4.878   4.136   2.250
 4116SOL    HW213248   4.928   4.051   2.380
 4117SOL     OW13249   1.413   1.628   3.914
 4117SOL    HW113250   1.469   1.699   3.956
 4117SOL    HW213251   1.367   1.575   3.985
 4118SOL     OW13252   0.480   6.179   0.260
 4118SOL    HW113253   0.549   6.215   0.197
 4118SOL    HW213254   0.389   6.211   0.232
 4119SOL     OW13255   0.368   0.503   4.384
 4119SOL    HW113256   0.398   0.546   4.469
 4119SOL    HW213257   0.374   0.569   4.309
 4120SOL     OW13258   2.271   0.420   6.218
 4120SOL    HW113259   2.319   0.433   6.304
 4120SOL    HW213260   2.302   0.488   6.152
 4121SOL     OW13261   6.023   7.011   2.367
 4121SOL    HW113262   6.090   0.006   2.440
 4121SOL    HW213263   6.042   6.924   2.320
 4122SOL     OW13264   0.070   4.136   2.862
 4122SOL    HW113265   0.051   4.233   2.872
 4122SOL    HW213266   0.034   4.104   2.774
 4123SOL     OW13267   4.604   4.669   1.711
 4123SOL    HW113268   4.583   4.572   1.725
 4123SOL    HW213269   4.616   4.714   1.800
 4124SOL     OW13270   5.399   5.827   0.195
 4124SOL    HW113271   5.378   5.735   0.162
 4124SOL    HW213272   5.445   5.821   0.283
 4125SOL     OW13273   6.137   1.533   1.350
 4125SOL    HW113274   6.096   1.456   1.400
 4125SOL    HW213275   6.120   1.521   1.252
 4126SOL     OW13276   1.776   2.861   2.077
 4126SOL    HW113277   1.726   2.807   2.145
 4126SOL    HW213278   1.860   2.896   2.119
 4127SOL     OW13279   4.408   1.878   4.664
 4127SOL    HW113280   4.483   1.944   4.654
 4127SOL    HW213281   4.406   1.818   4.585
 4128SOL     OW13282   1.247   3.395   6.780
 4128SOL    HW113283   1.194   3.313   6.802
 4128SOL    HW213284   1.185   3.468   6.751
 4129SOL     OW13285   2.428   2.721   0.408
 4129SOL    HW113286   2.439   2.820   0.418
 4129SOL    HW213287   2.333   2.696   0.430
 4130SOL     OW13288   6.299   3.482   0.817
 4130SOL    HW113289   6.235   3.480   0.893
 4130SOL    HW213290   6.339   3.392   0.804
 4131SOL     OW13291   4.516   6.763   3.513
 4131SOL    HW113292   4.504   6.862   3.520
 4131SOL    HW213293   4.542   6.726   3.603
 4132SOL     OW13294   0.500   5.417   4.256
 4132SOL    HW113295   0.567   5.365   4.204
 4132SOL    HW213296   0.431   5.453   4.193
 4133SOL     OW13297   5.466   0.739   2.606
 4133SOL    HW113298   5.535   0.810   2.614
 4133SOL    HW213299   5.498   0.655   2.649
 4134SOL     OW13300   1.533   3.574   1.559
 4134SOL    HW113301   1.450   3.631   1.562
 4134SOL    HW213302   1.559   3.560   1.463
 4135SOL     OW13303   6.635   0.981   1.482
 4135SOL    HW113304   6.558   1.041   1.459
 4135SOL    HW213305   6.639   0.969   1.581
 4136SOL     OW13306   1.398   4.800   1.491
 4136SOL    HW113307   1.387   4.899   1.486
 4136SOL    HW213308   1.470   4.778   1.556
 4137SOL     OW13309   1.547   2.716   0.427
 4137SOL    HW113310   1.475   2.779   0.397
 4137SOL    HW213311   1.540   2.702   0.525
 4138SOL     OW13312   5.360   0.425   0.522
 4138SOL    HW113313   5.297   0.442   0.446
 4138SOL    HW213314   5.359   0.503   0.584
 4139SOL     OW13315   2.143   3.670   2.671
 4139SOL    HW113316   2.160   3.769   2.677
 4139SOL    HW213317   2.188   3.633   2.590
 4140SOL     OW13318   2.106   0.911   6.331
 4140SOL    HW113319   2.015   0.883   6.300
 4140SOL    HW213320   2.096   0.979   6.404
 4141SOL     OW13321   5.036   0.490   6.030
 4141SOL    HW113322   4.979   0.572   6.042
 4141SOL    HW213323   5.012   0.446   5.944
 4142SOL     OW13324   0.901   4.878   2.301
 4142SOL    HW113325   0.893   4.791   2.349
 4142SOL    HW213326   0.993   4.885   2.261
 4143SOL     OW13327   5.688   3.013   6.836
 4143SOL    HW113328   5.675   3.071   6.916
 4143SOL    HW213329   5.779   2.971   6.840
 4144SOL     OW13330   6.258   0.898   0.330
 4144SOL    HW113331   6.226   0.895   0.424
 4144SOL    HW213332   6.300   0.810   0.306
 4145SOL     OW13333   0.145   6.927   1.609
 4145SOL    HW113334   0.159   6.828   1.619
 4145SOL    HW213335   0.205   6.976   1.672
 4146SOL     OW13336   4.918   5.784   2.749
 4146SOL    HW113337   4.855   5.812   2.676
 4146SOL    HW213338   4.911   5.849   2.825
 4147SOL     OW13339   4.795   4.606   6.283
 4147SOL    HW113340   4.854   4.671   6.329
 4147SOL    HW213341   4.769   4.642   6.193
 4148SOL     OW13342   2.391   1.386   5.903
 4148SOL    HW113343   2.336   1.384   5.986
 4148SOL    HW213344   2.446   1.303   5.896
 4149SOL     OW13345   2.206   3.535   6.464
 4149SOL    HW113346   2.189   3.443   6.430
 4149SOL    HW213347   2.131   3.564   6.523
 4150SOL     OW13348   5.464   2.070   6.395
 4150SOL    HW113349   5.523   2.118   6.459
 4150SOL    HW213350   5.429   1.987   6.438
 4151SOL     OW13351   3.304   6.173   4.090
 4151SOL    HW113352   3.298   6.135   3.998
 4151SOL    HW213353   3.297   6.273   4.086
 4152SOL     OW13354   2.630   4.564   1.166
 4152SOL    HW113355   2.663   4.472   1.144
 4152SOL    HW213356   2.695   4.608   1.228
 4153SOL     OW13357   6.950   5.880   1.331
 4153SOL    HW113358   6.892   5.897   1.411
 4153SOL    HW213359   6.984   5.787   1.333
 4154SOL     OW13360   1.110   6.403   3.785
 4154SOL    HW113361   1.135   6.343   3.709
 4154SOL    HW213362   1.017   6.380   3.815
 4155SOL     OW13363   0.627   0.870   1.389
 4155SOL    HW113364   0.606   0.793   1.450
 4155SOL    HW213365   0.714   0.910   1.417
 4156SOL     OW13366   0.211   5.265   5.795
 4156SOL    HW113367   0.142   5.338   5.794
 4156SOL    HW213368   0.260   5.264   5.707
 4157SOL     OW13369   6.837   6.372   1.403
 4157SOL    HW113370   6.746   6.390   1.367
 4157SOL    HW213371   6.871   6.454   1.450
 4158SOL     OW13372   0.774   2.613   1.413
 4158SOL    HW113373   0.719   2.675   1.468
 4158SOL    HW213374   0.867   2.607   1.451
 4159SOL     OW13375   3.467   0.817   4.182
 4159SOL    HW113376   3.465   0.765   4.097
 4159SOL    HW213377   3.429   0.909   4.166
 4160SOL     OW13378   6.426   6.623   6.770
 4160SOL    HW113379   6.374   6.561   6.710
 4160SOL    HW213380   6.445   6.576   6.857
 4161SOL     OW13381   4.036   3.233   1.841
 4161SOL    HW113382   4.077   3.248   1.751
 4161SOL    HW213383   4.100   3.260   1.912
 4162SOL     OW13384   4.918   5.948   1.941
 4162SOL    HW113385   4.905   6.017   2.012
 4162SOL    HW213386   4.869   5.975   1.858
 4163SOL     OW13387   3.587   6.651   1.674
 4163SOL    HW113388   3.649   6.710   1.726
 4163SOL    HW213389   3.498   6.648   1.719
 4164SOL     OW13390   6.628   0.257   5.538
 4164SOL    HW113391   6.695   0.328   5.560
 4164SOL    HW213392   6.570   0.240   5.618
 4165SOL     OW13393   4.598   1.078   4.826
 4165SOL    HW113394   4.509   1.044   4.855
 4165SOL    HW213395   4.585   1.151   4.758
 4166SOL     OW13396   5.970   1.347   1.493
 4166SOL    HW113397   5.878   1.386   1.500
 4166SOL    HW213398   5.977   1.266   1.552
 4167SOL     OW13399   3.898   5.276   4.465
 4167SOL    HW113400   3.972   5.238   4.520
 4167SOL    HW213401   3.812   5.269   4.517
 4168SOL     OW13402   5.093   3.790   6.587
 4168SOL    HW113403   5.085   3.707   6.642
 4168SOL    HW213404   5.091   3.766   6.490
 4169SOL     OW13405   5.110   3.590   5.296
 4169SOL    HW113406   5.187   3.653   5.290
 4169SOL    HW213407   5.092   3.568   5.392
 4170SOL     OW13408   0.610   3.317   4.071
 4170SOL    HW113409   0.593   3.415   4.082
 4170SOL    HW213410   0.694   3.304   4.019
 4171SOL     OW13411   0.550   2.703   0.615
 4171SOL    HW113412   0.549   2.796   0.653
 4171SOL    HW213413   0.544   2.637   0.690
 4172SOL     OW13414   2.725   4.328   1.057
 4172SOL    HW113415   2.784   4.263   1.104
 4172SOL    HW213416   2.739   4.321   0.958
 4173SOL     OW13417   4.678   2.557   5.751
 4173SOL    HW113418   4.695   2.500   5.832
 4173SOL    HW213419   4.638   2.501   5.679
 4174SOL     OW13420   3.543   0.452   4.880
 4174SOL    HW113421   3.552   0.512   4.801
 4174SOL    HW213422   3.534   0.507   4.963
 4175SOL     OW13423   0.859   4.538   6.803
 4175SOL    HW113424   0.765   4.535   6.836
 4175SOL    HW213425   0.907   4.616   6.842
 4176SOL     OW13426   4.714   0.434   6.497
 4176SOL    HW113427   4.806   0.467   6.516
 4176SOL    HW213428   4.649   0.478   6.560
 4177SOL     OW13429   4.325   4.794   2.681
 4177SOL    HW113430   4.251   4.780   2.616
 4177SOL    HW213431   4.385   4.867   2.648
 4178SOL     OW13432   4.106   5.500   1.266
 4178SOL    HW113433   4.032   5.503   1.198
 4178SOL    HW213434   4.096   5.576   1.330
 4179SOL     OW13435   5.215   2.960   5.225
 4179SOL    HW113436   5.117   2.951   5.205
 4179SOL    HW213437   5.254   3.030   5.165
 4180SOL     OW13438   4.706   3.959   6.985
 4180SOL    HW113439   4.804   3.941   6.974
 4180SOL    HW213440   4.689   4.057   6.980
 4181SOL     OW13441   4.596   0.188   4.835
 4181SOL    HW113442   4.533   0.166   4.760
 4181SOL    HW213443   4.680   0.135   4.824
 4182SOL     OW13444   0.222   6.424   4.034
 4182SOL    HW113445   0.200   6.334   3.996
 4182SOL    HW213446   0.142   6.483   4.026
 4183SOL     OW13447   3.693   2.154   1.236
 4183SOL    HW113448   3.765   2.217   1.264
 4183SOL    HW213449   3.683   2.082   1.305
 4184SOL     OW13450   3.326   5.416   3.706
 4184SOL    HW113451   3.406   5.454   3.658
 4184SOL    HW213452   3.279   5.490   3.755
 4185SOL     OW13453   6.250   3.221   3.345
 4185SOL    HW113454   6.271   3.289   3.415
 4185SOL    HW213455   6.210   3.266   3.265
 4186SOL     OW13456   1.415   6.235   0.430
 4186SOL    HW113457   1.490   6.177   0.464
 4186SOL    HW213458   1.381   6.292   0.504
 4187SOL     OW13459   1.603   3.606   6.390
 4187SOL    HW113460   1.507   3.613   6.366
 4187SOL    HW213461   1.640   3.697   6.407
 4188SOL     OW13462   4.649   6.923   0.577
 4188SOL    HW113463   4.610   6.985   0.509
 4188SOL    HW213464   4.576   6.886   0.634
 4189SOL     OW13465   5.065   5.134   3.738
 4189SOL    HW113466   5.130   5.183   3.798
 4189SOL    HW213467   4.975   5.177   3.744
 4190SOL     OW13468   6.999   6.351   0.749
 4190SOL    HW113469   6.985   6.339   0.847
 4190SOL    HW213470   0.039   6.278   0.714
 4191SOL     OW13471   4.713   4.323   6.145
 4191SOL    HW113472   4.765   4.323   6.060
 4191SOL    HW213473   4.728   4.409   6.194
 4192SOL     OW13474   0.961   3.425   1.507
 4192SOL    HW113475   0.962   3.331   1.542
 4192SOL    HW213476   0.889   3.477   1.553
 4193SOL     OW13477   7.000   0.207   0.713
 4193SOL    HW113478   6.979   0.165   0.801
 4193SOL    HW213479   0.003   0.135   0.646
 4194SOL     OW13480   4.438   1.607   5.291
 4194SOL    HW113481   4.410   1.546   5.217
 4194SOL    HW213482   4.504   1.673   5.256
 4195SOL     OW13483   3.379   5.920   1.417
 4195SOL    HW113484   3.381   6.018   1.439
 4195SOL    HW213485   3.359   5.909   1.320
 4196SOL     OW13486   6.382   2.472   2.205
 4196SOL    HW113487   6.391   2.509   2.112
 4196SOL    HW213488   6.374   2.373   2.201
 4197SOL     OW13489   3.453   0.380   6.663
 4197SOL    HW113490   3.530   0.380   6.599
 4197SOL    HW213491   3.367   0.388   6.613
 4198SOL     OW13492   5.961   1.948   2.504
 4198SOL    HW113493   5.959   1.868   2.443
 4198SOL    HW213494   5.879   2.003   2.489
 4199SOL     OW13495   0.686   4.002   6.081
 4199SOL    HW113496   0.606   4.043   6.038
 4199SOL    HW213497   0.758   3.989   6.012
 4200SOL     OW13498   4.414   1.155   3.628
 4200SOL    HW113499   4.502   1.194   3.597
 4200SOL    HW213500   4.400   1.178   3.724
 4201SOL     OW13501   5.360   6.839   3.592
 4201SOL    HW113502   5.446   6.881   3.566
 4201SOL    HW213503   5.377   6.761   3.653
 4202SOL     OW13504   5.044   4.304   1.359
 4202SOL    HW113505   4.982   4.354   1.420
 4202SOL    HW213506   5.093   4.234   1.412
 4203SOL     OW13507   6.823   5.795   6.420
 4203SOL    HW113508   6.764   5.864   6.379
 4203SOL    HW213509   6.826   5.714   6.360
 4204SOL     OW13510   2.560   3.423   6.224
 4204SOL    HW113511   2.488   3.411   6.155
 4204SOL    HW213512   2.531   3.491   6.291
 4205SOL     OW13513   3.820   6.623   5.182
 4205SOL    HW113514   3.918   6.608   5.188
 4205SOL    HW213515   3.779   6.554   5.122
 4206SOL     OW13516   1.190   2.563   4.589
 4206SOL    HW113517   1.262   2.559   4.657
 4206SOL    HW213518   1.191   2.653   4.546
 4207SOL     OW13519   1.009   2.340   2.100
 4207SOL    HW113520   0.967   2.430   2.114
 4207SOL    HW213521   0.962   2.291   2.027
 4208SOL     OW13522   1.951   3.377   5.002
 4208SOL    HW113523   2.005   3.425   5.072
 4208SOL    HW213524   1.998   3.294   4.975
 4209SOL     OW13525   6.962   6.390   2.701
 4209SOL    HW113526   6.883   6.442   2.669
 4209SOL    HW213527   6.931   6.313   2.757
 4210SOL     OW13528   3.842   3.010   4.939
 4210SOL    HW113529   3.939   3.004   4.915
 4210SOL    HW213530   3.786   2.986   4.860
 4211SOL     OW13531   4.234   2.459   5.456
 4211SOL    HW113532   4.187   2.371   5.470
 4211SOL    HW213533   4.188   2.509   5.383
 4212SOL     OW13534   0.173   2.763   3.119
 4212SOL    HW113535   0.123   2.819   3.186
 4212SOL    HW213536   0.232   2.822   3.064
 4213SOL     OW13537   3.261   0.990   3.616
 4213SOL    HW113538   3.206   0.922   3.568
 4213SOL    HW213539   3.358   0.978   3.592
 4214SOL     OW13540   0.767   5.562   4.185
 4214SOL    HW113541   0.742   5.467   4.201
 4214SOL    HW213542   0.790   5.575   4.089
 4215SOL     OW13543   4.386   6.342   5.329
 4215SOL    HW113544   4.367   6.338   5.231
 4215SOL    HW213545   4.381   6.250   5.369
 4216SOL     OW13546   2.697   5.831   2.233
 4216SOL    HW113547   2.620   5.787   2.187
 4216SOL    HW213548   2.779   5.775   2.223
 4217SOL     OW13549   0.640   0.625   2.570
 4217SOL    HW113550   0.582   0.707   2.565
 4217SOL    HW213551   0.710   0.638   2.640
 4218SOL     OW13552   2.556   1.127   1.635
 4218SOL    HW113553   2.635   1.178   1.603
 4218SOL    HW213554   2.576   1.029   1.634
 4219SOL     OW13555   4.452   6.349   3.722
 4219SOL    HW113556   4.535   6.299   3.746
 4219SOL    HW213557   4.456   6.376   3.626
 4220SOL     OW13558   4.807   2.351   1.885
 4220SOL    HW113559   4.872   2.340   1.961
 4220SOL    HW213560   4.735   2.414   1.913
 4221SOL     OW13561   0.393   5.710   6.959
 4221SOL    HW113562   0.356   5.802   6.955
 4221SOL    HW213563   0.329   5.646   6.918
 4222SOL     OW13564   5.008   2.749   3.951
 4222SOL    HW113565   5.091   2.775   3.901
 4222SOL    HW213566   4.939   2.820   3.939
 4223SOL     OW13567   4.049   3.766   2.091
 4223SOL    HW113568   4.120   3.780   2.022
 4223SOL    HW213569   4.083   3.704   2.162
 4224SOL     OW13570   4.975   3.541   4.751
 4224SOL    HW113571   4.973   3.442   4.738
 4224SOL    HW213572   4.908   3.567   4.821
 4225SOL     OW13573   0.166   2.133   5.416
 4225SOL    HW113574   0.157   2.154   5.513
 4225SOL    HW213575   0.253   2.169   5.382
 4226SOL     OW13576   1.394   5.499   4.737
 4226SOL    HW113577   1.475   5.441   4.743
 4226SOL    HW213578   1.329   5.471   4.808
 4227SOL     OW13579   5.440   5.658   2.559
 4227SOL    HW113580   5.375   5.607   2.615
 4227SOL    HW213581   5.518   5.686   2.616
 4228SOL     OW13582   1.010   5.052   3.929
 4228SOL    HW113583   1.016   4.979   3.862
 4228SOL    HW213584   0.948   5.024   4.003
 4229SOL     OW13585   6.416   4.595   5.751
 4229SOL    HW113586   6.414   4.566   5.656
 4229SOL    HW213587   6.491   4.660   5.765
 4230SOL     OW13588   0.463   0.765   2.188
 4230SOL    HW113589   0.550   0.795   2.228
 4230SOL    HW213590   0.390   0.828   2.215
 4231SOL     OW13591   5.614   1.715   5.786
 4231SOL    HW113592   5.531   1.659   5.789
 4231SOL    HW213593   5.653   1.712   5.694
 4232SOL     OW13594   1.513   5.457   3.703
 4232SOL    HW113595   1.580   5.526   3.730
 4232SOL    HW213596   1.502   5.391   3.778
 4233SOL     OW13597   5.320   5.903   3.537
 4233SOL    HW113598   5.302   5.865   3.447
 4233SOL    HW213599   5.399   5.963   3.532
 4234SOL     OW13600   2.832   5.554   5.842
 4234SOL    HW113601   2.791   5.638   5.876
 4234SOL    HW213602   2.931   5.557   5.855
 4235SOL     OW13603   0.389   5.737   5.663
 4235SOL    HW113604   0.441   5.759   5.581
 4235SOL    HW213605   0.309   5.797   5.669
 4236SOL     OW13606   0.642   5.304   2.609
 4236SOL    HW113607   0.719   5.293   2.546
 4236SOL    HW213608   0.616   5.214   2.645
 4237SOL     OW13609   6.792   4.475   3.649
 4237SOL    HW113610   6.741   4.439   3.727
 4237SOL    HW213611   6.767   4.424   3.567
 4238SOL     OW13612   2.263   6.954   3.471
 4238SOL    HW113613   2.355   6.915   3.467
 4238SOL    HW213614   2.196   6.881   3.465
 4239SOL     OW13615   4.005   1.117   3.744
 4239SOL    HW113616   3.972   1.209   3.725
 4239SOL    HW213617   4.013   1.104   3.843
 4240SOL     OW13618   0.409   6.207   1.130
 4240SOL    HW113619   0.323   6.158   1.119
 4240SOL    HW213620   0.391   6.303   1.148
 4241SOL     OW13621   6.421   2.850   0.374
 4241SOL    HW113622   6.510   2.819   0.408
 4241SOL    HW213623   6.356   2.774   0.375
 4242SOL     OW13624   2.132   2.100   3.729
 4242SOL    HW113625   2.146   2.159   3.649
 4242SOL    HW213626   2.174   2.011   3.712
 4243SOL     OW13627   5.348   0.795   3.515
 4243SOL    HW113628   5.309   0.789   3.423
 4243SOL    HW213629   5.303   0.869   3.565
 4244SOL     OW13630   3.448   3.522   2.304
 4244SOL    HW113631   3.435   3.591   2.233
 4244SOL    HW213632   3.428   3.431   2.266
 4245SOL     OW13633   6.128   2.775   6.320
 4245SOL    HW113634   6.198   2.728   6.372
 4245SOL    HW213635   6.100   2.858   6.368
 4246SOL     OW13636   0.750   3.582   1.964
 4246SOL    HW113637   0.651   3.576   1.978
 4246SOL    HW213638   0.796   3.581   2.053
 4247SOL     OW13639   0.293   5.891   5.116
 4247SOL    HW113640   0.320   5.861   5.024
 4247SOL    HW213641   0.209   5.946   5.109
 4248SOL     OW13642   1.351   2.775   5.213
 4248SOL    HW113643   1.348   2.802   5.309
 4248SOL    HW213644   1.438   2.803   5.172
 4249SOL     OW13645   5.486   3.606   5.753
 4249SOL    HW113646   5.392   3.637   5.741
 4249SOL    HW213647   5.495   3.557   5.840
 4250SOL     OW13648   6.845   4.833   3.299
 4250SOL    HW113649   6.877   4.835   3.394
 4250SOL    HW213650   6.783   4.755   3.286
 4251SOL     OW13651   5.799   4.364   0.414
 4251SOL    HW113652   5.764   4.309   0.489
 4251SOL    HW213653   5.747   4.449   0.408
 4252SOL     OW13654   0.945   4.960   5.724
 4252SOL    HW113655   0.902   4.913   5.801
 4252SOL    HW213656   1.040   4.981   5.747
 4253SOL     OW13657   4.416   0.449   2.575
 4253SOL    HW113658   4.511   0.471   2.554
 4253SOL    HW213659   4.378   0.394   2.500
 4254SOL     OW13660   2.478   4.186   1.394
 4254SOL    HW113661   2.520   4.143   1.313
 4254SOL    HW213662   2.542   4.181   1.471
 4255SOL     OW13663   6.804   2.990   4.717
 4255SOL    HW113664   6.738   3.034   4.656
 4255SOL    HW213665   6.765   2.904   4.751
 4256SOL     OW13666   1.909   6.999   1.570
 4256SOL    HW113667   1.928   0.030   1.655
 4256SOL    HW213668   1.985   7.011   1.506
 4257SOL     OW13669   3.511   1.795   4.694
 4257SOL    HW113670   3.463   1.709   4.680
 4257SOL    HW213671   3.578   1.785   4.768
 4258SOL     OW13672   5.782   6.910   2.475
 4258SOL    HW113673   5.847   6.973   2.433
 4258SOL    HW213674   5.694   6.955   2.486
 4259SOL     OW13675   2.350   2.300   6.812
 4259SOL    HW113676   2.322   2.344   6.727
 4259SOL    HW213677   2.408   2.363   6.865
 4260SOL     OW13678   4.885   5.696   3.240
 4260SOL    HW113679   4.971   5.742   3.222
 4260SOL    HW213680   4.840   5.738   3.319
 4261SOL     OW13681   1.652   6.363   1.966
 4261SOL    HW113682   1.626   6.373   2.062
 4261SOL    HW213683   1.596   6.423   1.909
 4262SOL     OW13684   0.794   5.217   6.722
 4262SOL    HW113685   0.886   5.255   6.721
 4262SOL    HW213686   0.797   5.124   6.758
 4263SOL     OW13687   2.723   4.443   5.688
 4263SOL    HW113688   2.743   4.535   5.656
 4263SOL    HW213689   2.794   4.415   5.754
 4264SOL     OW13690   0.181   0.816   0.709
 4264SOL    HW113691   0.213   0.911   0.697
 4264SOL    HW213692   0.094   0.816   0.758
 4265SOL     OW13693   6.602   1.649   0.593
 4265SOL    HW113694   6.526   1.599   0.636
 4265SOL    HW213695   6.677   1.657   0.658
 4266SOL     OW13696   2.589   5.444   0.138
 4266SOL    HW113697   2.657   5.427   0.209
 4266SOL    HW213698   2.628   5.502   0.067
 4267SOL     OW13699   1.668   3.615   5.401
 4267SOL    HW113700   1.698   3.560   5.479
 4267SOL    HW213701   1.724   3.594   5.321
 4268SOL     OW13702   2.365   1.036   0.474
 4268SOL    HW113703   2.331   0.976   0.401
 4268SOL    HW213704   2.289   1.068   0.529
 4269SOL     OW13705   3.369   3.402   0.078
 4269SOL    HW113706   3.448   3.384   0.136
 4269SOL    HW213707   3.328   3.315   0.050
 4270SOL     OW13708   2.995   3.138   4.792
 4270SOL    HW113709   3.050   3.054   4.786
 4270SOL    HW213710   2.944   3.138   4.878
 4271SOL     OW13711   0.982   6.952   5.958
 4271SOL    HW113712   0.951   6.884   5.892
 4271SOL    HW213713   1.076   6.978   5.937
 4272SOL     OW13714   6.728   4.855   4.960
 4272SOL    HW113715   6.685   4.764   4.960
 4272SOL    HW213716   6.696   4.907   5.039
 4273SOL     OW13717   5.152   0.012   5.523
 4273SOL    HW113718   5.242   7.016   5.482
 4273SOL    HW213719   5.128   6.950   5.578
 4274SOL     OW13720   1.477   6.707   3.452
 4274SOL    HW113721   1.428   6.705   3.539
 4274SOL    HW213722   1.532   6.624   3.443
 4275SOL     OW13723   0.733   0.207   5.952
 4275SOL    HW113724   0.782   0.282   5.907
 4275SOL    HW213725   0.782   0.180   6.034
 4276SOL     OW13726   2.169   4.510   2.911
 4276SOL    HW113727   2.116   4.434   2.949
 4276SOL    HW213728   2.166   4.505   2.811
 4277SOL     OW13729   7.013   5.341   3.942
 4277SOL    HW113730   0.091   5.312   3.941
 4277SOL    HW213731   6.957   5.271   3.899
 4278SOL     OW13732   6.994   6.321   4.475
 4278SOL    HW113733   0.037   6.359   4.544
 4278SOL    HW213734   6.910   6.288   4.519
 4279SOL     OW13735   3.495   6.382   5.176
 4279SOL    HW113736   3.577   6.390   5.119
 4279SOL    HW213737   3.451   6.471   5.185
 4280SOL     OW13738   5.906   1.886   4.592
 4280SOL    HW113739   5.924   1.860   4.687
 4280SOL    HW213740   5.993   1.892   4.542
 4281SOL     OW13741   2.343   4.461   5.269
 4281SOL    HW113742   2.349   4.461   5.169
 4281SOL    HW213743   2.329   4.368   5.301
 4282SOL     OW13744   2.044   2.339   0.926
 4282SOL    HW113745   2.076   2.402   0.997
 4282SOL    HW213746   2.060   2.380   0.836
 4283SOL     OW13747   1.879   0.488   4.582
 4283SOL    HW113748   1.839   0.533   4.502
 4283SOL    HW213749   1.824   0.509   4.663
 4284SOL     OW13750   5.538   1.718   2.107
 4284SOL    HW113751   5.622   1.671   2.135
 4284SOL    HW213752   5.560   1.811   2.079
 4285SOL     OW13753   0.991   0.250   5.127
 4285SOL    HW113754   0.939   0.194   5.063
 4285SOL    HW213755   1.084   0.262   5.093
 4286SOL     OW13756   4.598   6.047   0.041
 4286SOL    HW113757   4.681   6.034   0.095
 4286SOL    HW213758   4.530   5.978   0.067
 4287SOL     OW13759   5.716   0.017   4.861
 4287SOL    HW113760   5.667   0.101   4.839
 4287SOL    HW213761   5.791   0.004   4.797
 4288SOL     OW13762   1.386   6.677   2.686
 4288SOL    HW113763   1.394   6.734   2.605
 4288SOL    HW213764   1.395   6.733   2.768
 4289SOL     OW13765   5.573   2.661   1.444
 4289SOL    HW113766   5.666   2.674   1.410
 4289SOL    HW213767   5.511   2.723   1.397
 4290SOL     OW13768   2.148   1.077   2.362
 4290SOL    HW113769   2.147   0.992   2.309
 4290SOL    HW213770   2.080   1.140   2.324
 4291SOL     OW13771   5.947   3.199   0.582
 4291SOL    HW113772   5.883   3.129   0.615
 4291SOL    HW213773   6.036   3.157   0.567
 4292SOL     OW13774   5.805   4.299   6.224
 4292SOL    HW113775   5.777   4.395   6.230
 4292SOL    HW213776   5.780   4.262   6.135
 4293SOL     OW13777   6.886   3.206   6.487
 4293SOL    HW113778   6.820   3.281   6.500
 4293SOL    HW213779   6.837   3.123   6.462
 4294SOL     OW13780   4.244   2.245   6.367
 4294SOL    HW113781   4.341   2.225   6.352
 4294SOL    HW213782   4.198   2.254   6.278
 4295SOL     OW13783   3.362   0.011   4.367
 4295SOL    HW113784   3.401   6.952   4.317
 4295SOL    HW213785   3.348   7.003   4.463
 4296SOL     OW13786   2.572   1.540   1.172
 4296SOL    HW113787   2.504   1.468   1.158
 4296SOL    HW213788   2.541   1.602   1.244
 4297SOL     OW13789   5.513   0.699   5.586
 4297SOL    HW113790   5.554   0.613   5.555
 4297SOL    HW213791   5.413   0.691   5.585
 4298SOL     OW13792   2.616   5.773   1.494
 4298SOL    HW113793   2.524   5.735   1.507
 4298SOL    HW213794   2.610   5.871   1.479
 4299SOL     OW13795   1.121   3.529   6.178
 4299SOL    HW113796   1.146   3.447   6.125
 4299SOL    HW213797   1.022   3.530   6.191
 4300SOL     OW13798   3.848   1.158   6.847
 4300SOL    HW113799   3.859   1.079   6.787
 4300SOL    HW213800   3.760   1.152   6.895
 4301SOL     OW13801   2.669   2.041   0.540
 4301SOL    HW113802   2.721   2.036   0.626
 4301SOL    HW213803   2.618   1.956   0.527
 4302SOL     OW13804   1.042   6.670   6.817
 4302SOL    HW113805   1.015   6.581   6.780
 4302SOL    HW213806   0.968   6.708   6.871
 4303SOL     OW13807   6.506   3.624   2.533
 4303SOL    HW113808   6.432   3.585   2.478
 4303SOL    HW213809   6.555   3.551   2.580
 4304SOL     OW13810   3.324   3.338   3.841
 4304SOL    HW113811   3.290   3.370   3.930
 4304SOL    HW213812   3.313   3.412   3.774
 4305SOL     OW13813   6.164   0.832   3.744
 4305SOL    HW113814   6.092   0.898   3.767
 4305SOL    HW213815   6.207   0.860   3.658
 4306SOL     OW13816   6.544   4.310   6.053
 4306SOL    HW113817   6.619   4.251   6.021
 4306SOL    HW213818   6.498   4.267   6.130
 4307SOL     OW13819   4.821   3.679   5.932
 4307SOL    HW113820   4.824   3.599   5.993
 4307SOL    HW213821   4.732   3.684   5.887
 4308SOL     OW13822   5.243   5.714   4.437
 4308SOL    HW113823   5.194   5.646   4.491
 4308SOL    HW213824   5.217   5.705   4.341
 4309SOL     OW13825   1.793   1.279   0.598
 4309SOL    HW113826   1.814   1.193   0.645
 4309SOL    HW213827   1.737   1.259   0.517
 4310SOL     OW13828   1.793   2.096   3.036
 4310SOL    HW113829   1.790   2.121   2.939
 4310SOL    HW213830   1.888   2.103   3.069
 4311SOL     OW13831   1.590   5.944   3.479
 4311SOL    HW113832   1.515   5.913   3.422
 4311SOL    HW213833   1.558   5.958   3.572
 4312SOL     OW13834   1.967   6.006   2.339
 4312SOL    HW113835   1.997   6.072   2.408
 4312SOL    HW213836   1.899   6.049   2.280
 4313SOL     OW13837   4.609   1.512   1.774
 4313SOL    HW113838   4.637   1.597   1.819
 4313SOL    HW213839   4.580   1.532   1.681
 4314SOL     OW13840   4.970   3.480   2.699
 4314SOL    HW113841   4.925   3.394   2.720
 4314SOL    HW213842   4.956   3.545   2.774
 4315SOL     OW13843   2.594   0.656   2.061
 4315SOL    HW113844   2.604   0.749   2.026
 4315SOL    HW213845   2.525   0.607   2.007
 4316SOL     OW13846   5.570   0.587   1.712
 4316SOL    HW113847   5.576   0.521   1.787
 4316SOL    HW213848   5.475   0.606   1.691
 4317SOL     OW13849   3.254   1.125   4.314
 4317SOL    HW113850   3.235   1.105   4.218
 4317SOL    HW213851   3.177   1.175   4.354
 4318SOL     OW13852   0.783   3.529   3.324
 4318SOL    HW113853   0.684   3.526   3.313
 4318SOL    HW213854   0.824   3.448   3.283
 4319SOL     OW13855   3.349   3.546   6.600
 4319SOL    HW113856   3.397   3.606   6.537
 4319SOL    HW213857   3.250   3.560   6.591
 4320SOL     OW13858   0.188   6.610   2.856
 4320SOL    HW113859   0.141   6.604   2.768
 4320SOL    HW213860   0.164   6.696   2.901
 4321SOL     OW13861   6.509   0.282   5.211
 4321SOL    HW113862   6.597   0.239   5.194
 4321SOL    HW213863   6.510   0.326   5.301
 4322SOL     OW13864   6.308   1.023   6.964
 4322SOL    HW113865   6.355   1.109   6.985
 4322SOL    HW213866   6.275   1.025   6.870
 4323SOL     OW13867   5.911   2.636   2.891
 4323SOL    HW113868   5.992   2.620   2.947
 4323SOL    HW213869   5.870   2.724   2.916
 4324SOL     OW13870   6.096   3.966   6.314
 4324SOL    HW113871   6.154   3.886   6.297
 4324SOL    HW213872   6.097   3.986   6.412
 4325SOL     OW13873   2.065   1.636   6.749
 4325SOL    HW113874   2.064   1.639   6.649
 4325SOL    HW213875   2.147   1.683   6.783
 4326SOL     OW13876   6.204   2.999   5.657
 4326SOL    HW113877   6.252   3.066   5.714
 4326SOL    HW213878   6.255   2.987   5.571
 4327SOL     OW13879   6.169   6.179   1.899
 4327SOL    HW113880   6.252   6.226   1.870
 4327SOL    HW213881   6.094   6.244   1.904
 4328SOL     OW13882   5.048   5.114   6.750
 4328SOL    HW113883   5.125   5.177   6.752
 4328SOL    HW213884   5.001   5.116   6.838
 4329SOL     OW13885   4.099   2.264   5.759
 4329SOL    HW113886   4.046   2.348   5.743
 4329SOL    HW213887   4.043   2.200   5.812
 4330SOL     OW13888   1.298   0.473   5.979
 4330SOL    HW113889   1.302   0.385   6.026
 4330SOL    HW213890   1.366   0.475   5.905
 4331SOL     OW13891   5.895   2.160   6.766
 4331SOL    HW113892   5.951   2.183   6.686
 4331SOL    HW213893   5.799   2.153   6.738
 4332SOL     OW13894   4.853   3.065   2.210
 4332SOL    HW113895   4.942   3.023   2.195
 4332SOL    HW213896   4.804   3.071   2.123
 4333SOL     OW13897   5.714   1.281   5.148
 4333SOL    HW113898   5.752   1.195   5.181
 4333SOL    HW213899   5.623   1.264   5.110
 4334SOL     OW13900   3.912   2.103   1.898
 4334SOL    HW113901   3.848   2.179   1.889
 4334SOL    HW213902   3.913   2.049   1.814
 4335SOL     OW13903   3.137   4.082   4.628
 4335SOL    HW113904   3.066   4.151   4.644
 4335SOL    HW213905   3.143   4.021   4.707
 4336SOL     OW13906   1.500   6.487   4.853
 4336SOL    HW113907   1.473   6.578   4.823
 4336SOL    HW213908   1.484   6.478   4.951
 4337SOL     OW13909   6.924   4.946   0.478
 4337SOL    HW113910   6.902   4.879   0.407
 4337SOL    HW213911   6.972   4.900   0.553
 4338SOL     OW13912   6.162   6.054   4.014
 4338SOL    HW113913   6.166   6.068   4.113
 4338SOL    HW213914   6.238   5.996   3.985
 4339SOL     OW13915   6.095   1.956   5.393
 4339SOL    HW113916   6.058   1.893   5.323
 4339SOL    HW213917   6.171   1.911   5.440
 4340SOL     OW13918   5.638   4.082   1.248
 4340SOL    HW113919   5.731   4.113   1.267
 4340SOL    HW213920   5.587   4.076   1.334
 4341SOL     OW13921   1.711   3.963   1.787
 4341SOL    HW113922   1.717   4.056   1.752
 4341SOL    HW213923   1.716   3.964   1.887
 4342SOL     OW13924   0.705   2.679   2.720
 4342SOL    HW113925   0.804   2.698   2.721
 4342SOL    HW213926   0.664   2.717   2.803
 4343SOL     OW13927   3.015   0.986   0.637
 4343SOL    HW113928   3.102   0.937   0.637
 4343SOL    HW213929   2.946   0.929   0.682
 4344SOL     OW13930   2.167   4.780   3.270
 4344SOL    HW113931   2.112   4.830   3.337
 4344SOL    HW213932   2.106   4.730   3.208
 4345SOL     OW13933   1.569   2.563   5.243
 4345SOL    HW113934   1.590   2.561   5.341
 4345SOL    HW213935   1.619   2.638   5.200
 4346SOL     OW13936   1.900   3.317   1.906
 4346SOL    HW113937   1.931   3.335   1.999
 4346SOL    HW213938   1.840   3.236   1.906
 4347SOL     OW13939   6.096   6.890   2.846
 4347SOL    HW113940   6.100   6.956   2.920
 4347SOL    HW213941   6.123   6.800   2.879
 4348SOL     OW13942   1.440   3.517   0.462
 4348SOL    HW113943   1.369   3.554   0.402
 4348SOL    HW213944   1.510   3.587   0.478
 4349SOL     OW13945   0.357   1.414   3.734
 4349SOL    HW113946   0.408   1.330   3.715
 4349SOL    HW213947   0.392   1.488   3.676
 4350SOL     OW13948   5.454   2.519   4.147
 4350SOL    HW113949   5.371   2.464   4.143
 4350SOL    HW213950   5.442   2.592   4.215
 4351SOL     OW13951   3.140   5.535   2.343
 4351SOL    HW113952   3.129   5.457   2.281
 4351SOL    HW213953   3.192   5.506   2.424
 4352SOL     OW13954   0.241   1.833   2.356
 4352SOL    HW113955   0.213   1.885   2.275
 4352SOL    HW213956   0.209   1.880   2.438
 4353SOL     OW13957   2.946   6.018   6.514
 4353SOL    HW113958   2.965   5.995   6.609
 4353SOL    HW213959   2.848   6.008   6.496
 4354SOL     OW13960   2.635   6.801   0.076
 4354SOL    HW113961   2.631   6.711   0.033
 4354SOL    HW213962   2.667   6.869   0.009
 4355SOL     OW13963   4.004   1.096   0.643
 4355SOL    HW113964   4.034   1.001   0.658
 4355SOL    HW213965   3.908   1.104   0.668
 4356SOL     OW13966   4.187   4.248   0.522
 4356SOL    HW113967   4.222   4.310   0.592
 4356SOL    HW213968   4.089   4.233   0.538
 4357SOL     OW13969   6.341   0.066   0.195
 4357SOL    HW113970   6.321   0.164   0.186
 4357SOL    HW213971   6.366   0.029   0.105
 4358SOL     OW13972   0.544   0.032   1.548
 4358SOL    HW113973   0.594   0.072   1.472
 4358SOL    HW213974   0.479   0.098   1.585
 4359SOL     OW13975   0.721   2.218   3.923
 4359SOL    HW113976   0.737   2.127   3.959
 4359SOL    HW213977   0.741   2.286   3.993
 4360SOL     OW13978   1.209   3.057   1.011
 4360SOL    HW113979   1.244   3.150   1.014
 4360SOL    HW213980   1.282   2.993   1.033
 4361SOL     OW13981   5.026   2.629   2.215
 4361SOL    HW113982   4.945   2.688   2.216
 4361SOL    HW213983   5.103   2.678   2.173
 4362SOL     OW13984   6.366   4.272   5.286
 4362SOL    HW113985   6.272   4.307   5.290
 4362SOL    HW213986   6.385   4.241   5.193
 4363SOL     OW13987   5.219   2.918   5.509
 4363SOL    HW113988   5.204   2.928   5.411
 4363SOL    HW213989   5.152   2.973   5.559
 4364SOL     OW13990   3.144   3.879   4.430
 4364SOL    HW113991   3.143   3.950   4.501
 4364SOL    HW213992   3.073   3.812   4.449
 4365SOL     OW13993   3.988   2.160   2.565
 4365SOL    HW113994   3.926   2.144   2.488
 4365SOL    HW213995   4.040   2.244   2.547
 4366SOL     OW13996   5.536   6.048   1.008
 4366SOL    HW113997   5.591   6.087   0.934
 4366SOL    HW213998   5.586   5.973   1.051
 4367SOL     OW13999   1.644   6.115   6.077
 4367SOL    HW114000   1.635   6.108   5.977
 4367SOL    HW214001   1.562   6.078   6.120
 4368SOL     OW14002   5.803   4.207   1.632
 4368SOL    HW114003   5.887   4.261   1.639
 4368SOL    HW214004   5.727   4.266   1.604
 4369SOL     OW14005   4.070   5.508   2.243
 4369SOL    HW114006   4.049   5.437   2.311
 4369SOL    HW214007   4.009   5.497   2.165
 4370SOL     OW14008   5.854   4.609   3.884
 4370SOL    HW114009   5.853   4.629   3.786
 4370SOL    HW214010   5.786   4.539   3.904
 4371SOL     OW14011   5.458   0.776   2.334
 4371SOL    HW114012   5.460   0.744   2.429
 4371SOL    HW214013   5.384   0.843   2.322
 4372SOL     OW14014   4.339   1.465   3.488
 4372SOL    HW114015   4.421   1.482   3.543
 4372SOL    HW214016   4.333   1.533   3.415
 4373SOL     OW14017   6.349   1.859   6.724
 4373SOL    HW114018   6.331   1.770   6.682
 4373SOL    HW214019   6.275   1.922   6.701
 4374SOL     OW14020   1.733   2.322   1.983
 4374SOL    HW114021   1.783   2.252   1.931
 4374SOL    HW214022   1.680   2.379   1.921
 4375SOL     OW14023   2.588   6.505   4.787
 4375SOL    HW114024   2.523   6.525   4.861
 4375SOL    HW214025   2.681   6.521   4.820
 4376SOL     OW14026   6.161   0.354   3.087
 4376SOL    HW114027   6.079   0.297   3.082
 4376SOL    HW214028   6.147   0.427   3.153
 4377SOL     OW14029   5.766   4.060   6.880
 4377SOL    HW114030   5.857   4.039   6.916
 4377SOL    HW214031   5.771   4.139   6.819
 4378SOL     OW14032   1.813   0.275   4.034
 4378SOL    HW114033   1.852   0.252   3.945
 4378SOL    HW214034   1.842   0.207   4.101
 4379SOL     OW14035   2.754   1.806   4.742
 4379SOL    HW114036   2.807   1.752   4.808
 4379SOL    HW214037   2.787   1.901   4.743
 4380SOL     OW14038   0.454   1.254   1.921
 4380SOL    HW114039   0.477   1.335   1.867
 4380SOL    HW214040   0.364   1.265   1.963
 4381SOL     OW14041   2.442   6.253   5.598
 4381SOL    HW114042   2.512   6.186   5.576
 4381SOL    HW214043   2.436   6.264   5.697
 4382SOL     OW14044   6.867   3.118   5.559
 4382SOL    HW114045   6.815   3.059   5.497
 4382SOL    HW214046   6.920   3.062   5.622
 4383SOL     OW14047   5.456   2.895   6.730
 4383SOL    HW114048   5.538   2.945   6.756
 4383SOL    HW214049   5.463   2.801   6.765
 4384SOL     OW14050   6.462   6.433   3.388
 4384SOL    HW114051   6.423   6.347   3.356
 4384SOL    HW214052   6.467   6.432   3.488
 4385SOL     OW14053   5.551   1.680   4.597
 4385SOL    HW114054   5.570   1.778   4.593
 4385SOL    HW214055   5.538   1.645   4.505
 4386SOL     OW14056   0.870   3.253   5.267
 4386SOL    HW114057   0.883   3.165   5.313
 4386SOL    HW214058   0.948   3.272   5.208
 4387SOL     OW14059   6.610   2.362   0.365
 4387SOL    HW114060   6.537   2.344   0.431
 4387SOL    HW214061   6.569   2.392   0.278
 4388SOL     OW14062   4.747   1.637   6.657
 4388SOL    HW114063   4.808   1.649   6.735
 4388SOL    HW214064   4.795   1.661   6.572
 4389SOL     OW14065   6.810   3.820   1.506
 4389SOL    HW114066   6.890   3.783   1.555
 4389SOL    HW214067   6.739   3.844   1.572
 4390SOL     OW14068   5.908   0.891   1.527
 4390SOL    HW114069   5.854   0.824   1.577
 4390SOL    HW214070   5.875   0.897   1.433
 4391SOL     OW14071   2.204   5.706   6.044
 4391SOL    HW114072   2.153   5.720   5.960
 4391SOL    HW214073   2.158   5.753   6.119
 4392SOL     OW14074   1.603   2.690   4.594
 4392SOL    HW114075   1.641   2.747   4.522
 4392SOL    HW214076   1.518   2.648   4.562
 4393SOL     OW14077   4.780   6.838   1.928
 4393SOL    HW114078   4.723   6.797   1.999
 4393SOL    HW214079   4.875   6.810   1.940
 4394SOL     OW14080   1.455   0.453   1.456
 4394SOL    HW114081   1.459   0.426   1.552
 4394SOL    HW214082   1.548   0.453   1.418
 4395SOL     OW14083   2.832   5.680   1.167
 4395SOL    HW114084   2.784   5.632   1.094
 4395SOL    HW214085   2.874   5.613   1.229
 4396SOL     OW14086   2.096   0.604   3.569
 4396SOL    HW114087   2.114   0.506   3.555
 4396SOL    HW214088   2.178   0.648   3.604
 4397SOL     OW14089   3.234   1.772   3.810
 4397SOL    HW114090   3.182   1.831   3.748
 4397SOL    HW214091   3.223   1.805   3.904
 4398SOL     OW14092   1.998   2.947   5.778
 4398SOL    HW114093   2.086   2.962   5.823
 4398SOL    HW214094   1.926   2.993   5.830
 4399SOL     OW14095   3.002   6.740   2.259
 4399SOL    HW114096   2.941   6.671   2.299
 4399SOL    HW214097   2.954   6.786   2.184
 4400SOL     OW14098   2.182   5.894   4.920
 4400SOL    HW114099   2.214   5.988   4.910
 4400SOL    HW214100   2.252   5.840   4.965
 4401SOL     OW14101   3.620   6.879   5.938
 4401SOL    HW114102   3.609   6.824   6.021
 4401SOL    HW214103   3.530   6.909   5.907
 4402SOL     OW14104   1.044   0.316   3.477
 4402SOL    HW114105   1.138   0.305   3.510
 4402SOL    HW214106   0.986   0.349   3.551
 4403SOL     OW14107   1.277   4.636   1.306
 4403SOL    HW114108   1.184   4.613   1.336
 4403SOL    HW214109   1.331   4.667   1.384
 4404SOL     OW14110   0.468   6.096   6.430
 4404SOL    HW114111   0.564   6.111   6.455
 4404SOL    HW214112   0.444   6.001   6.449
 4405SOL     OW14113   1.991   4.942   3.415
 4405SOL    HW114114   2.010   5.039   3.403
 4405SOL    HW214115   1.899   4.921   3.380
 4406SOL     OW14116   5.892   3.514   2.117
 4406SOL    HW114117   5.888   3.578   2.194
 4406SOL    HW214118   5.800   3.502   2.079
 4407SOL     OW14119   6.489   6.271   2.186
 4407SOL    HW114120   6.505   6.259   2.088
 4407SOL    HW214121   6.561   6.329   2.224
 4408SOL     OW14122   4.247   0.322   1.126
 4408SOL    HW114123   4.205   0.241   1.167
 4408SOL    HW214124   4.214   0.332   1.032
 4409SOL     OW14125   3.874   0.977   2.261
 4409SOL    HW114126   3.937   1.053   2.246
 4409SOL    HW214127   3.780   1.012   2.265
 4410SOL     OW14128   0.903   6.082   1.253
 4410SOL    HW114129   0.811   6.050   1.228
 4410SOL    HW214130   0.899   6.128   1.342
 4411SOL     OW14131   3.109   4.546   5.472
 4411SOL    HW114132   3.091   4.475   5.404
 4411SOL    HW214133   3.059   4.629   5.447
 4412SOL     OW14134   4.679   6.177   2.403
 4412SOL    HW114135   4.580   6.166   2.414
 4412SOL    HW214136   4.700   6.274   2.385
 4413SOL     OW14137   4.132   6.670   3.734
 4413SOL    HW114138   4.037   6.642   3.744
 4413SOL    HW214139   4.192   6.597   3.766
 4414SOL     OW14140   4.724   4.236   1.518
 4414SOL    HW114141   4.782   4.317   1.528
 4414SOL    HW214142   4.769   4.171   1.456
 4415SOL     OW14143   3.291   3.590   1.526
 4415SOL    HW114144   3.271   3.521   1.596
 4415SOL    HW214145   3.219   3.659   1.527
 4416SOL     OW14146   4.464   2.424   3.206
 4416SOL    HW114147   4.394   2.366   3.248
 4416SOL    HW214148   4.555   2.392   3.235
 4417SOL     OW14149   0.821   3.909   3.487
 4417SOL    HW114150   0.749   3.916   3.418
 4417SOL    HW214151   0.902   3.867   3.447
 4418SOL     OW14152   6.320   6.850   0.342
 4418SOL    HW114153   6.294   6.870   0.437
 4418SOL    HW214154   6.340   6.936   0.295
 4419SOL     OW14155   6.810   5.961   6.623
 4419SOL    HW114156   6.834   5.881   6.570
 4419SOL    HW214157   6.886   6.025   6.624
 4420SOL     OW14158   3.649   2.383   0.943
 4420SOL    HW114159   3.743   2.400   0.912
 4420SOL    HW214160   3.616   2.462   0.994
 4421SOL     OW14161   1.283   2.868   4.595
 4421SOL    HW114162   1.305   2.836   4.687
 4421SOL    HW214163   1.346   2.941   4.569
 4422SOL     OW14164   6.994   4.621   6.978
 4422SOL    HW114165   0.039   4.590   0.031
 4422SOL    HW214166   6.900   4.618   7.013
 4423SOL     OW14167   5.244   4.165   5.026
 4423SOL    HW114168   5.344   4.169   5.032
 4423SOL    HW214169   5.214   4.070   5.035
 4424SOL     OW14170   4.721   5.884   3.860
 4424SOL    HW114171   4.634   5.889   3.908
 4424SOL    HW214172   4.742   5.788   3.839
 4425SOL     OW14173   1.332   5.999   1.413
 4425SOL    HW114174   1.259   5.964   1.354
 4425SOL    HW214175   1.420   5.983   1.370
 4426SOL     OW14176   0.913   6.995   4.112
 4426SOL    HW114177   0.976   6.982   4.035
 4426SOL    HW214178   0.823   0.002   4.078
 4427SOL     OW14179   3.387   6.163   3.002
 4427SOL    HW114180   3.439   6.172   2.917
 4427SOL    HW214181   3.441   6.112   3.069
 4428SOL     OW14182   5.830   0.510   4.029
 4428SOL    HW114183   5.762   0.567   3.982
 4428SOL    HW214184   5.904   0.567   4.063
 4429SOL     OW14185   2.368   6.331   3.562
 4429SOL    HW114186   2.344   6.426   3.542
 4429SOL    HW214187   2.319   6.270   3.499
 4430SOL     OW14188   5.167   4.419   5.061
 4430SOL    HW114189   5.202   4.325   5.056
 4430SOL    HW214190   5.197   4.470   4.981
 4431SOL     OW14191   3.326   0.479   4.294
 4431SOL    HW114192   3.415   0.486   4.338
 4431SOL    HW214193   3.276   0.565   4.305
 4432SOL     OW14194   1.288   4.029   6.341
 4432SOL    HW114195   1.215   3.967   6.311
 4432SOL    HW214196   1.250   4.098   6.403
 4433SOL     OW14197   1.130   0.784   5.255
 4433SOL    HW114198   1.225   0.759   5.274
 4433SOL    HW214199   1.070   0.708   5.281
 4434SOL     OW14200   6.851   0.889   1.834
 4434SOL    HW114201   6.862   0.876   1.932
 4434SOL    HW214202   6.812   0.979   1.816
 4435SOL     OW14203   2.494   3.978   0.546
 4435SOL    HW114204   2.442   3.960   0.463
 4435SOL    HW214205   2.436   3.962   0.626
 4436SOL     OW14206   4.551   1.553   1.503
 4436SOL    HW114207   4.458   1.527   1.528
 4436SOL    HW214208   4.556   1.652   1.489
 4437SOL     OW14209   0.012   3.974   1.400
 4437SOL    HW114210   0.044   3.886   1.433
 4437SOL    HW214211   6.940   3.994   1.438
 4438SOL     OW14212   3.952   0.359   5.960
 4438SOL    HW114213   3.987   0.443   5.919
 4438SOL    HW214214   4.027   0.295   5.973
 4439SOL     OW14215   2.148   6.513   2.025
 4439SOL    HW114216   2.100   6.561   1.951
 4439SOL    HW214217   2.243   6.498   1.999
 4440SOL     OW14218   1.541   4.984   0.061
 4440SOL    HW114219   1.607   4.997   0.135
 4440SOL    HW214220   1.552   5.057   7.012
 4441SOL     OW14221   0.242   1.039   0.347
 4441SOL    HW114222   0.168   0.996   0.294
 4441SOL    HW214223   0.313   0.971   0.366
 4442SOL     OW14224   2.241   4.470   6.504
 4442SOL    HW114225   2.165   4.495   6.563
 4442SOL    HW214226   2.207   4.438   6.416
 4443SOL     OW14227   0.085   5.017   5.889
 4443SOL    HW114228   0.052   5.057   5.975
 4443SOL    HW214229   0.131   5.088   5.835
 4444SOL     OW14230   5.322   3.970   0.272
 4444SOL    HW114231   5.392   3.954   0.201
 4444SOL    HW214232   5.252   4.031   0.235
 4445SOL     OW14233   0.130   5.824   0.647
 4445SOL    HW114234   0.072   5.873   0.583
 4445SOL    HW214235   0.079   5.749   0.689
 4446SOL     OW14236   5.331   1.097   1.208
 4446SOL    HW114237   5.373   1.151   1.135
 4446SOL    HW214238   5.242   1.064   1.178
 4447SOL     OW14239   5.043   5.298   5.794
 4447SOL    HW114240   4.975   5.363   5.826
 4447SOL    HW214241   5.133   5.325   5.828
 4448SOL     OW14242   3.614   6.672   2.080
 4448SOL    HW114243   3.570   6.587   2.053
 4448SOL    HW214244   3.698   6.685   2.028
 4449SOL     OW14245   3.275   1.168   5.729
 4449SOL    HW114246   3.181   1.172   5.762
 4449SOL    HW214247   3.324   1.251   5.758
 4450SOL     OW14248   3.496   0.034   0.146
 4450SOL    HW114249   3.574   0.039   0.084
 4450SOL    HW214250   3.445   6.969   0.129
 4451SOL     OW14251   4.748   4.162   3.230
 4451SOL    HW114252   4.771   4.209   3.145
 4451SOL    HW214253   4.702   4.076   3.208
 4452SOL     OW14254   4.926   5.839   4.492
 4452SOL    HW114255   4.939   5.937   4.475
 4452SOL    HW214256   4.860   5.827   4.566
 4453SOL     OW14257   0.032   3.577   1.137
 4453SOL    HW114258   0.124   3.586   1.099
 4453SOL    HW214259   6.984   3.619   1.075
 4454SOL     OW14260   1.029   2.573   0.067
 4454SOL    HW114261   0.944   2.624   0.082
 4454SOL    HW214262   1.014   2.502   7.017
 4455SOL     OW14263   0.459   6.364   5.007
 4455SOL    HW114264   0.453   6.389   4.910
 4455SOL    HW214265   0.411   6.433   5.061
 4456SOL     OW14266   2.135   6.809   4.715
 4456SOL    HW114267   2.043   6.776   4.698
 4456SOL    HW214268   2.146   6.900   4.677
 4457SOL     OW14269   0.560   2.397   4.817
 4457SOL    HW114270   0.611   2.479   4.841
 4457SOL    HW214271   0.543   2.343   4.899
 4458SOL     OW14272   1.721   3.357   0.407
 4458SOL    HW114273   1.758   3.429   0.466
 4458SOL    HW214274   1.749   3.267   0.441
 4459SOL     OW14275   1.173   2.361   3.283
 4459SOL    HW114276   1.226   2.432   3.236
 4459SOL    HW214277   1.088   2.401   3.318
 4460SOL     OW14278   6.825   3.620   4.061
 4460SOL    HW114279   6.758   3.561   4.015
 4460SOL    HW214280   6.781   3.666   4.138
 4461SOL     OW14281   2.508   0.872   1.538
 4461SOL    HW114282   2.526   0.799   1.472
 4461SOL    HW214283   2.421   0.854   1.584
 4462SOL     OW14284   6.268   4.624   2.986
 4462SOL    HW114285   6.319   4.539   2.999
 4462SOL    HW214286   6.185   4.622   3.043
 4463SOL     OW14287   5.894   1.917   0.542
 4463SOL    HW114288   5.949   1.966   0.475
 4463SOL    HW214289   5.904   1.959   0.632
 4464SOL     OW14290   0.491   5.706   0.395
 4464SOL    HW114291   0.549   5.780   0.361
 4464SOL    HW214292   0.520   5.620   0.353
 4465SOL     OW14293   2.391   5.898   1.277
 4465SOL    HW114294   2.297   5.920   1.249
 4465SOL    HW214295   2.391   5.818   1.336
 4466SOL     OW14296   1.807   1.837   3.593
 4466SOL    HW114297   1.712   1.822   3.567
 4466SOL    HW214298   1.817   1.828   3.693
 4467SOL     OW14299   3.976   6.067   2.932
 4467SOL    HW114300   3.992   5.998   3.002
 4467SOL    HW214301   3.925   6.143   2.972
 4468SOL     OW14302   1.379   2.972   1.337
 4468SOL    HW114303   1.303   2.932   1.285
 4468SOL    HW214304   1.379   3.071   1.325
 4469SOL     OW14305   3.220   6.295   0.960
 4469SOL    HW114306   3.166   6.214   0.937
 4469SOL    HW214307   3.299   6.300   0.900
 4470SOL     OW14308   1.226   0.619   2.506
 4470SOL    HW114309   1.284   0.616   2.425
 4470SOL    HW214310   1.130   0.616   2.479
 4471SOL     OW14311   1.272   1.569   5.979
 4471SOL    HW114312   1.178   1.598   5.993
 4471SOL    HW214313   1.324   1.581   6.064
 4472SOL     OW14314   1.534   2.616   0.708
 4472SOL    HW114315   1.469   2.549   0.745
 4472SOL    HW214316   1.626   2.580   0.717
 4473SOL     OW14317   6.992   3.393   4.520
 4473SOL    HW114318   0.057   3.377   4.467
 4473SOL    HW214319   6.912   3.373   4.463
 4474SOL     OW14320   2.830   6.382   1.331
 4474SOL    HW114321   2.734   6.408   1.340
 4474SOL    HW214322   2.844   6.337   1.242
 4475SOL     OW14323   1.097   3.578   1.182
 4475SOL    HW114324   1.109   3.658   1.122
 4475SOL    HW214325   1.047   3.606   1.264
 4476SOL     OW14326   4.779   1.210   3.852
 4476SOL    HW114327   4.729   1.123   3.860
 4476SOL    HW214328   4.721   1.284   3.886
 4477SOL     OW14329   1.721   0.798   5.554
 4477SOL    HW114330   1.752   0.709   5.589
 4477SOL    HW214331   1.625   0.811   5.575
 4478SOL     OW14332   1.697   0.304   0.504
 4478SOL    HW114333   1.643   0.231   0.464
 4478SOL    HW214334   1.657   0.393   0.480
 4479SOL     OW14335   1.838   3.063   0.458
 4479SOL    HW114336   1.752   3.060   0.407
 4479SOL    HW214337   1.880   2.972   0.459
 4480SOL     OW14338   1.004   5.640   4.337
 4480SOL    HW114339   0.912   5.618   4.307
 4480SOL    HW214340   1.059   5.671   4.260
 4481SOL     OW14341   2.591   3.726   6.083
 4481SOL    HW114342   2.577   3.793   6.011
 4481SOL    HW214343   2.651   3.653   6.051
 4482SOL     OW14344   2.917   5.735   6.783
 4482SOL    HW114345   2.967   5.649   6.797
 4482SOL    HW214346   2.978   5.812   6.804
 4483SOL     OW14347   0.668   3.132   1.496
 4483SOL    HW114348   0.709   3.169   1.413
 4483SOL    HW214349   0.726   3.156   1.575
 4484SOL     OW14350   2.505   2.483   6.932
 4484SOL    HW114351   2.506   2.566   6.876
 4484SOL    HW214352   2.518   2.508   0.010
 4485SOL     OW14353   5.446   2.758   4.933
 4485SOL    HW114354   5.373   2.792   4.992
 4485SOL    HW214355   5.463   2.824   4.860
 4486SOL     OW14356   4.688   5.089   5.608
 4486SOL    HW114357   4.723   4.998   5.587
 4486SOL    HW214358   4.764   5.153   5.616
 4487SOL     OW14359   1.237   2.997   0.136
 4487SOL    HW114360   1.175   3.051   0.080
 4487SOL    HW214361   1.307   2.956   0.079
 4488SOL     OW14362   6.972   3.956   4.243
 4488SOL    HW114363   6.964   4.048   4.203
 4488SOL    HW214364   6.986   3.965   4.342
 4489SOL     OW14365   4.376   5.371   5.859
 4489SOL    HW114366   4.381   5.315   5.941
 4489SOL    HW214367   4.403   5.317   5.780
 4490SOL     OW14368   4.717   1.560   1.143
 4490SOL    HW114369   4.784   1.593   1.210
 4490SOL    HW214370   4.758   1.561   1.051
 4491SOL     OW14371   0.987   2.675   3.051
 4491SOL    HW114372   0.916   2.671   3.121
 4491SOL    HW214373   1.013   2.582   3.025
 4492SOL     OW14374   5.790   0.734   1.729
 4492SOL    HW114375   5.871   0.688   1.766
 4492SOL    HW214376   5.710   0.675   1.738
 4493SOL     OW14377   4.740   1.610   4.475
 4493SOL    HW114378   4.668   1.582   4.539
 4493SOL    HW214379   4.702   1.672   4.407
 4494SOL     OW14380   0.992   0.245   1.189
 4494SOL    HW114381   0.964   0.260   1.094
 4494SOL    HW214382   1.036   0.327   1.225
 4495SOL     OW14383   4.688   5.404   1.798
 4495SOL    HW114384   4.595   5.402   1.834
 4495SOL    HW214385   4.695   5.473   1.726
 4496SOL     OW14386   3.652   6.078   6.619
 4496SOL    HW114387   3.705   6.080   6.534
 4496SOL    HW214388   3.588   6.002   6.618
 4497SOL     OW14389   3.936   1.558   6.306
 4497SOL    HW114390   3.882   1.488   6.353
 4497SOL    HW214391   3.878   1.605   6.238
 4498SOL     OW14392   1.423   5.596   5.511
 4498SOL    HW114393   1.376   5.529   5.569
 4498SOL    HW214394   1.356   5.642   5.453
 4499SOL     OW14395   6.046   2.284   2.027
 4499SOL    HW114396   5.968   2.251   1.974
 4499SOL    HW214397   6.131   2.258   1.981
 4500SOL     OW14398   3.685   6.028   6.908
 4500SOL    HW114399   3.756   6.086   6.947
 4500SOL    HW214400   3.662   6.061   6.816
 4501SOL     OW14401   5.011   1.027   2.917
 4501SOL    HW114402   4.919   1.061   2.900
 4501SOL    HW214403   5.037   1.046   3.011
 4502SOL     OW14404   0.500   3.800   6.747
 4502SOL    HW114405   0.446   3.842   6.821
 4502SOL    HW214406   0.460   3.823   6.659
 4503SOL     OW14407   2.470   0.400   2.710
 4503SOL    HW114408   2.413   0.465   2.660
 4503SOL    HW214409   2.564   0.406   2.676
 4504SOL     OW14410   0.531   2.237   3.030
 4504SOL    HW114411   0.527   2.140   3.008
 4504SOL    HW214412   0.455   2.261   3.091
 4505SOL     OW14413   6.262   4.413   3.993
 4505SOL    HW114414   6.333   4.468   4.038
 4505SOL    HW214415   6.174   4.459   4.003
 4506SOL     OW14416   4.751   2.789   4.769
 4506SOL    HW114417   4.784   2.726   4.839
 4506SOL    HW214418   4.710   2.738   4.694
 4507SOL     OW14419   6.237   2.565   3.313
 4507SOL    HW114420   6.222   2.470   3.342
 4507SOL    HW214421   6.243   2.624   3.393
 4508SOL     OW14422   0.262   5.269   0.884
 4508SOL    HW114423   0.303   5.269   0.976
 4508SOL    HW214424   0.324   5.315   0.820
 4509SOL     OW14425   4.769   2.850   2.375
 4509SOL    HW114426   4.791   2.925   2.313
 4509SOL    HW214427   4.767   2.764   2.324
 4510SOL     OW14428   3.889   1.840   4.477
 4510SOL    HW114429   3.972   1.826   4.423
 4510SOL    HW214430   3.914   1.874   4.567
 4511SOL     OW14431   0.843   4.410   0.642
 4511SOL    HW114432   0.886   4.364   0.720
 4511SOL    HW214433   0.749   4.376   0.631
 4512SOL     OW14434   3.099   2.780   5.780
 4512SOL    HW114435   3.151   2.791   5.695
 4512SOL    HW214436   3.140   2.707   5.835
 4513SOL     OW14437   1.115   6.298   0.330
 4513SOL    HW114438   1.099   6.381   0.277
 4513SOL    HW214439   1.211   6.294   0.357
 4514SOL     OW14440   3.129   4.397   6.934
 4514SOL    HW114441   3.136   4.310   6.884
 4514SOL    HW214442   3.214   4.449   6.922
 4515SOL     OW14443   4.411   0.732   6.089
 4515SOL    HW114444   4.471   0.796   6.041
 4515SOL    HW214445   4.432   0.733   6.187
 4516SOL     OW14446   3.459   2.065   4.757
 4516SOL    HW114447   3.479   1.967   4.749
 4516SOL    HW214448   3.438   2.086   4.853
 4517SOL     OW14449   3.511   0.747   5.489
 4517SOL    HW114450   3.441   0.795   5.437
 4517SOL    HW214451   3.584   0.812   5.514
 4518SOL     OW14452   1.656   0.188   0.951
 4518SOL    HW114453   1.656   0.116   0.883
 4518SOL    HW214454   1.749   0.199   0.987
 4519SOL     OW14455   5.068   6.482   6.701
 4519SOL    HW114456   5.166   6.467   6.685
 4519SOL    HW214457   5.037   6.425   6.777
 4520SOL     OW14458   4.450   6.076   4.847
 4520SOL    HW114459   4.540   6.036   4.861
 4520SOL    HW214460   4.456   6.150   4.780
 4521SOL     OW14461   4.219   2.253   4.450
 4521SOL    HW114462   4.162   2.242   4.369
 4521SOL    HW214463   4.279   2.333   4.438
 4522SOL     OW14464   5.101   4.397   3.123
 4522SOL    HW114465   5.159   4.323   3.159
 4522SOL    HW214466   5.005   4.369   3.126
 4523SOL     OW14467   0.174   3.456   5.913
 4523SOL    HW114468   0.263   3.423   5.943
 4523SOL    HW214469   0.177   3.555   5.903
 4524SOL     OW14470   0.871   3.077   2.805
 4524SOL    HW114471   0.854   3.085   2.903
 4524SOL    HW214472   0.970   3.073   2.789
 4525SOL     OW14473   2.836   1.651   5.010
 4525SOL    HW114474   2.908   1.706   5.052
 4525SOL    HW214475   2.774   1.617   5.081
 4526SOL     OW14476   0.464   6.933   5.598
 4526SOL    HW114477   0.380   6.906   5.645
 4526SOL    HW214478   0.509   7.006   5.650
 4527SOL     OW14479   6.464   0.599   2.789
 4527SOL    HW114480   6.469   0.515   2.844
 4527SOL    HW214481   6.554   0.618   2.751
 4528SOL     OW14482   4.224   0.987   5.184
 4528SOL    HW114483   4.171   0.931   5.120
 4528SOL    HW214484   4.228   0.942   5.273
 4529SOL     OW14485   2.208   1.130   4.537
 4529SOL    HW114486   2.185   1.203   4.473
 4529SOL    HW214487   2.249   1.054   4.486
 4530SOL     OW14488   3.391   5.398   5.747
 4530SOL    HW114489   3.484   5.396   5.711
 4530SOL    HW214490   3.371   5.313   5.795
 4531SOL     OW14491   1.089   5.456   5.985
 4531SOL    HW114492   1.160   5.521   6.011
 4531SOL    HW214493   1.119   5.363   6.008
 4532SOL     OW14494   5.902   0.858   2.494
 4532SOL    HW114495   5.904   0.760   2.476
 4532SOL    HW214496   5.896   0.907   2.407
 4533SOL     OW14497   2.890   0.567   2.315
 4533SOL    HW114498   2.864   0.476   2.282
 4533SOL    HW214499   2.817   0.605   2.371
 4534SOL     OW14500   4.417   1.569   3.854
 4534SOL    HW114501   4.386   1.651   3.902
 4534SOL    HW214502   4.337   1.513   3.830
 4535SOL     OW14503   2.783   1.267   1.060
 4535SOL    HW114504   2.814   1.171   1.066
 4535SOL    HW214505   2.815   1.306   0.974
 4536SOL     OW14506   2.678   0.953   5.729
 4536SOL    HW114507   2.627   0.868   5.719
 4536SOL    HW214508   2.669   1.007   5.646
 4537SOL     OW14509   3.687   2.926   3.517
 4537SOL    HW114510   3.695   2.856   3.446
 4537SOL    HW214511   3.591   2.956   3.524
 4538SOL     OW14512   0.088   1.905   0.918
 4538SOL    HW114513   0.108   1.991   0.966
 4538SOL    HW214514   0.028   1.924   0.840
 4539SOL     OW14515   1.851   6.224   5.394
 4539SOL    HW114516   1.755   6.198   5.384
 4539SOL    HW214517   1.902   6.195   5.313
 4540SOL     OW14518   0.561   0.795   0.067
 4540SOL    HW114519   0.559   0.849   0.151
 4540SOL    HW214520   0.623   0.838   0.001
 4541SOL     OW14521   4.455   2.914   6.062
 4541SOL    HW114522   4.450   2.848   6.137
 4541SOL    HW214523   4.476   2.865   5.977
 4542SOL     OW14524   6.326   2.401   1.068
 4542SOL    HW114525   6.259   2.328   1.079
 4542SOL    HW214526   6.414   2.371   1.105
 4543SOL     OW14527   3.255   2.072   0.159
 4543SOL    HW114528   3.231   2.007   0.088
 4543SOL    HW214529   3.176   2.130   0.180
 4544SOL     OW14530   5.536   6.345   0.356
 4544SOL    HW114531   5.546   6.358   0.257
 4544SOL    HW214532   5.501   6.252   0.374
 4545SOL     OW14533   2.278   2.963   4.780
 4545SOL    HW114534   2.316   2.997   4.865
 4545SOL    HW214535   2.335   2.889   4.744
 4546SOL     OW14536   3.176   1.523   6.338
 4546SOL    HW114537   3.105   1.462   6.372
 4546SOL    HW214538   3.145   1.618   6.346
 4547SOL     OW14539   6.804   0.483   6.989
 4547SOL    HW114540   6.808   0.526   0.061
 4547SOL    HW214541   6.866   0.530   6.927
 4548SOL     OW14542   2.359   2.590   2.247
 4548SOL    HW114543   2.314   2.521   2.190
 4548SOL    HW214544   2.457   2.591   2.226
 4549SOL     OW14545   6.262   4.127   4.017
 4549SOL    HW114546   6.223   4.217   4.003
 4549SOL    HW214547   6.266   4.077   3.930
 4550SOL     OW14548   1.617   4.526   2.975
 4550SOL    HW114549   1.692   4.475   2.932
 4550SOL    HW214550   1.581   4.473   3.053
 4551SOL     OW14551   1.257   3.073   4.413
 4551SOL    HW114552   1.265   3.156   4.467
 4551SOL    HW214553   1.179   3.019   4.444
 4552SOL     OW14554   5.727   1.270   0.935
 4552SOL    HW114555   5.745   1.272   1.033
 4552SOL    HW214556   5.696   1.179   0.908
 4553SOL     OW14557   6.728   5.281   6.204
 4553SOL    HW114558   6.681   5.337   6.274
 4553SOL    HW214559   6.739   5.188   6.239
 4554SOL     OW14560   6.372   6.008   2.881
 4554SOL    HW114561   6.359   5.997   2.782
 4554SOL    HW214562   6.313   5.944   2.930
 4555SOL     OW14563   1.719   1.100   6.802
 4555SOL    HW114564   1.693   1.064   6.892
 4555SOL    HW214565   1.639   1.141   6.758
 4556SOL     OW14566   5.905   4.565   5.461
 4556SOL    HW114567   5.807   4.552   5.479
 4556SOL    HW214568   5.922   4.660   5.436
 4557SOL     OW14569   6.810   4.793   2.546
 4557SOL    HW114570   6.809   4.892   2.563
 4557SOL    HW214571   6.760   4.774   2.461
 4558SOL     OW14572   0.728   3.188   5.536
 4558SOL    HW114573   0.634   3.162   5.517
 4558SOL    HW214574   0.784   3.173   5.454
 4559SOL     OW14575   0.112   2.428   2.277
 4559SOL    HW114576   0.051   2.459   2.205
 4559SOL    HW214577   0.165   2.506   2.312
 4560SOL     OW14578   6.220   4.333   2.850
 4560SOL    HW114579   6.149   4.303   2.914
 4560SOL    HW214580   6.295   4.376   2.900
 4561SOL     OW14581   3.773   2.186   4.121
 4561SOL    HW114582   3.789   2.105   4.066
 4561SOL    HW214583   3.706   2.245   4.075
 4562SOL     OW14584   2.868   1.028   1.115
 4562SOL    HW114585   2.831   0.991   1.200
 4562SOL    HW214586   2.908   0.953   1.061
 4563SOL     OW14587   1.031   3.778   1.552
 4563SOL    HW114588   0.952   3.840   1.548
 4563SOL    HW214589   1.023   3.720   1.633
 4564SOL     OW14590   1.093   3.756   2.320
 4564SOL    HW114591   1.178   3.739   2.269
 4564SOL    HW214592   1.028   3.682   2.302
 4565SOL     OW14593   2.257   5.941   6.321
 4565SOL    HW114594   2.336   5.908   6.270
 4565SOL    HW214595   2.177   5.887   6.296
 4566SOL     OW14596   5.972   4.629   2.123
 4566SOL    HW114597   6.045   4.681   2.166
 4566SOL    HW214598   5.884   4.660   2.157
 4567SOL     OW14599   0.508   0.729   6.576
 4567SOL    HW114600   0.517   0.745   6.478
 4567SOL    HW214601   0.467   0.639   6.592
 4568SOL     OW14602   1.148   5.610   3.565
 4568SOL    HW114603   1.157   5.543   3.638
 4568SOL    HW214604   1.239   5.640   3.536
 4569SOL     OW14605   2.338   0.967   3.406
 4569SOL    HW114606   2.269   0.921   3.349
 4569SOL    HW214607   2.383   1.038   3.352
 4570SOL     OW14608   5.547   5.868   2.063
 4570SOL    HW114609   5.637   5.908   2.051
 4570SOL    HW214610   5.548   5.772   2.036
 4571SOL     OW14611   2.855   3.146   6.468
 4571SOL    HW114612   2.950   3.176   6.462
 4571SOL    HW214613   2.840   3.097   6.554
 4572SOL     OW14614   2.913   3.132   1.884
 4572SOL    HW114615   2.961   3.164   1.802
 4572SOL    HW214616   2.818   3.113   1.862
 4573SOL     OW14617   1.939   5.567   1.683
 4573SOL    HW114618   1.907   5.653   1.722
 4573SOL    HW214619   2.012   5.529   1.740
 4574SOL     OW14620   5.263   1.458   1.136
 4574SOL    HW114621   5.260   1.502   1.047
 4574SOL    HW214622   5.336   1.500   1.191
 4575SOL     OW14623   0.216   6.494   4.570
 4575SOL    HW114624   0.254   6.499   4.478
 4575SOL    HW214625   0.291   6.482   4.636
 4576SOL     OW14626   2.684   4.956   4.890
 4576SOL    HW114627   2.749   4.906   4.947
 4576SOL    HW214628   2.684   4.917   4.798
 4577SOL     OW14629   1.954   1.779   2.194
 4577SOL    HW114630   1.985   1.872   2.213
 4577SOL    HW214631   2.029   1.715   2.211
 4578SOL     OW14632   1.397   1.201   2.288
 4578SOL    HW114633   1.334   1.124   2.292
 4578SOL    HW214634   1.354   1.277   2.238
 4579SOL     OW14635   4.029   1.709   2.161
 4579SOL    HW114636   4.070   1.770   2.229
 4579SOL    HW214637   3.961   1.760   2.109
 4580SOL     OW14638   0.063   2.575   0.243
 4580SOL    HW114639   6.994   2.560   0.198
 4580SOL    HW214640   0.108   2.655   0.203
 4581SOL     OW14641   3.377   0.423   1.252
 4581SOL    HW114642   3.404   0.508   1.296
 4581SOL    HW214643   3.432   0.348   1.288
 4582SOL     OW14644   6.102   1.135   3.852
 4582SOL    HW114645   6.172   1.184   3.800
 4582SOL    HW214646   6.011   1.163   3.820
 4583SOL     OW14647   1.466   0.210   6.627
 4583SOL    HW114648   1.433   0.293   6.580
 4583SOL    HW214649   1.533   0.164   6.569
 4584SOL     OW14650   1.713   0.549   5.186
 4584SOL    HW114651   1.767   0.512   5.261
 4584SOL    HW214652   1.756   0.633   5.152
 4585SOL     OW14653   1.692   3.656   3.384
 4585SOL    HW114654   1.673   3.753   3.372
 4585SOL    HW214655   1.724   3.618   3.297
 4586SOL     OW14656   5.538   4.383   6.644
 4586SOL    HW114657   5.563   4.463   6.589
 4586SOL    HW214658   5.618   4.353   6.697
 4587SOL     OW14659   2.992   3.671   4.513
 4587SOL    HW114660   2.927   3.597   4.496
 4587SOL    HW214661   2.997   3.688   4.612
 4588SOL     OW14662   3.213   3.908   5.850
 4588SOL    HW114663   3.223   3.927   5.752
 4588SOL    HW214664   3.240   3.814   5.868
 4589SOL     OW14665   5.623   0.426   2.582
 4589SOL    HW114666   5.571   0.462   2.660
 4589SOL    HW214667   5.687   0.356   2.614
 4590SOL     OW14668   3.403   5.856   1.136
 4590SOL    HW114669   3.499   5.862   1.108
 4590SOL    HW214670   3.353   5.934   1.097
 4591SOL     OW14671   1.930   0.616   5.686
 4591SOL    HW114672   2.011   0.635   5.741
 4591SOL    HW214673   1.957   0.603   5.591
 4592SOL     OW14674   2.108   1.626   3.698
 4592SOL    HW114675   2.061   1.570   3.630
 4592SOL    HW214676   2.039   1.670   3.756
 4593SOL     OW14677   1.955   6.088   4.311
 4593SOL    HW114678   1.893   6.060   4.384
 4593SOL    HW214679   1.973   6.186   4.318
 4594SOL     OW14680   1.933   0.372   2.811
 4594SOL    HW114681   1.888   0.344   2.726
 4594SOL    HW214682   1.880   0.340   2.889
 4595SOL     OW14683   4.943   2.131   6.413
 4595SOL    HW114684   5.033   2.147   6.452
 4595SOL    HW214685   4.872   2.161   6.477
 4596SOL     OW14686   0.566   1.001   2.628
 4596SOL    HW114687   0.636   1.010   2.557
 4596SOL    HW214688   0.527   1.090   2.648
 4597SOL     OW14689   2.908   6.375   6.814
 4597SOL    HW114690   2.864   6.375   6.724
 4597SOL    HW214691   2.891   6.462   6.860
 4598SOL     OW14692   1.864   5.243   0.305
 4598SOL    HW114693   1.905   5.234   0.395
 4598SOL    HW214694   1.850   5.152   0.265
 4599SOL     OW14695   2.426   5.379   2.754
 4599SOL    HW114696   2.386   5.465   2.722
 4599SOL    HW214697   2.460   5.327   2.675
 4600SOL     OW14698   0.273   6.643   5.957
 4600SOL    HW114699   0.318   6.594   5.882
 4600SOL    HW214700   0.329   6.637   6.039
 4601SOL     OW14701   1.699   1.285   4.829
 4601SOL    HW114702   1.791   1.270   4.792
 4601SOL    HW214703   1.704   1.297   4.928
 4602SOL     OW14704   3.000   2.327   6.496
 4602SOL    HW114705   2.972   2.403   6.555
 4602SOL    HW214706   3.070   2.273   6.542
 4603SOL     OW14707   4.997   6.734   0.708
 4603SOL    HW114708   4.986   6.815   0.651
 4603SOL    HW214709   5.040   6.660   0.656
 4604SOL     OW14710   5.637   6.981   5.679
 4604SOL    HW114711   5.610   0.056   5.654
 4604SOL    HW214712   5.558   6.920   5.675
 4605SOL     OW14713   3.448   0.309   1.970
 4605SOL    HW114714   3.545   0.323   1.990
 4605SOL    HW214715   3.420   0.366   1.893
 4606SOL     OW14716   7.017   6.617   4.370
 4606SOL    HW114717   7.017   6.574   4.460
 4606SOL    HW214718   0.071   6.578   4.314
 4607SOL     OW14719   1.997   2.589   1.336
 4607SOL    HW114720   1.931   2.517   1.359
 4607SOL    HW214721   1.948   2.674   1.317
 4608SOL     OW14722   6.580   3.439   4.170
 4608SOL    HW114723   6.518   3.516   4.188
 4608SOL    HW214724   6.606   3.440   4.074
 4609SOL     OW14725   4.272   6.494   6.957
 4609SOL    HW114726   4.311   6.408   6.923
 4609SOL    HW214727   4.241   6.482   0.033
 4610SOL     OW14728   5.087   3.280   0.370
 4610SOL    HW114729   5.177   3.321   0.357
 4610SOL    HW214730   5.082   3.240   0.462
 4611SOL     OW14731   1.096   0.808   6.371
 4611SOL    HW114732   1.166   0.739   6.388
 4611SOL    HW214733   1.033   0.811   6.448
 4612SOL     OW14734   2.227   0.216   1.283
 4612SOL    HW114735   2.216   0.284   1.357
 4612SOL    HW214736   2.296   0.248   1.219
 4613SOL     OW14737   1.641   4.679   1.590
 4613SOL    HW114738   1.624   4.606   1.656
 4613SOL    HW214739   1.698   4.644   1.515
 4614SOL     OW14740   6.298   4.129   4.488
 4614SOL    HW114741   6.233   4.110   4.562
 4614SOL    HW214742   6.366   4.057   4.483
 4615SOL     OW14743   0.854   2.194   0.397
 4615SOL    HW114744   0.949   2.184   0.427
 4615SOL    HW214745   0.844   2.280   0.347
 4616SOL     OW14746   6.353   2.777   5.744
 4616SOL    HW114747   6.384   2.718   5.670
 4616SOL    HW214748   6.298   2.851   5.707
 4617SOL     OW14749   0.325   2.975   3.012
 4617SOL    HW114750   0.301   3.046   2.946
 4617SOL    HW214751   0.420   2.985   3.040
 4618SOL     OW14752   1.996   4.711   5.455
 4618SOL    HW114753   2.088   4.749   5.465
 4618SOL    HW214754   1.977   4.650   5.532
 4619SOL     OW14755   4.132   6.363   5.463
 4619SOL    HW114756   4.215   6.308   5.472
 4619SOL    HW214757   4.151   6.442   5.405
 4620SOL     OW14758   0.269   5.060   2.299
 4620SOL    HW114759   0.213   4.984   2.264
 4620SOL    HW214760   0.306   5.112   2.222
 4621SOL     OW14761   4.269   0.543   3.165
 4621SOL    HW114762   4.342   0.598   3.205
 4621SOL    HW214763   4.278   0.448   3.195
 4622SOL     OW14764   5.108   5.722   1.641
 4622SOL    HW114765   5.129   5.745   1.735
 4622SOL    HW214766   5.012   5.745   1.621
 4623SOL     OW14767   2.885   4.938   1.217
 4623SOL    HW114768   2.937   4.983   1.289
 4623SOL    HW214769   2.824   5.005   1.173
 4624SOL     OW14770   4.599   1.052   2.165
 4624SOL    HW114771   4.622   1.149   2.170
 4624SOL    HW214772   4.580   1.018   2.257
 4625SOL     OW14773   1.605   5.703   1.176
 4625SOL    HW114774   1.550   5.626   1.208
 4625SOL    HW214775   1.547   5.768   1.127
 4626SOL     OW14776   4.164   3.750   1.862
 4626SOL    HW114777   4.242   3.754   1.799
 4626SOL    HW214778   4.091   3.809   1.827
 4627SOL     OW14779   5.970   6.529   4.971
 4627SOL    HW114780   5.909   6.450   4.969
 4627SOL    HW214781   6.050   6.508   5.028
 4628SOL     OW14782   5.757   4.845   4.327
 4628SOL    HW114783   5.805   4.908   4.388
 4628SOL    HW214784   5.735   4.761   4.376
 4629SOL     OW14785   2.050   6.025   6.619
 4629SOL    HW114786   2.128   5.966   6.600
 4629SOL    HW214787   1.970   5.992   6.568
 4630SOL     OW14788   1.517   3.233   2.305
 4630SOL    HW114789   1.546   3.298   2.376
 4630SOL    HW214790   1.595   3.176   2.280
 4631SOL     OW14791   0.081   0.793   3.464
 4631SOL    HW114792   0.007   0.851   3.499
 4631SOL    HW214793   0.097   0.717   3.526
 4632SOL     OW14794   3.141   5.007   2.595
 4632SOL    HW114795   3.056   5.046   2.632
 4632SOL    HW214796   3.182   4.946   2.663
 4633SOL     OW14797   5.103   1.049   4.324
 4633SOL    HW114798   5.181   1.107   4.349
 4633SOL    HW214799   5.025   1.070   4.383
 4634SOL     OW14800   2.919   3.689   4.794
 4634SOL    HW114801   2.891   3.766   4.852
 4634SOL    HW214802   2.872   3.606   4.824
 4635SOL     OW14803   4.999   6.214   1.302
 4635SOL    HW114804   5.054   6.297   1.300
 4635SOL    HW214805   4.963   6.195   1.211
 4636SOL     OW14806   2.153   5.490   0.737
 4636SOL    HW114807   2.094   5.430   0.791
 4636SOL    HW214808   2.212   5.435   0.679
 4637SOL     OW14809   2.390   1.180   2.844
 4637SOL    HW114810   2.362   1.148   2.754
 4637SOL    HW214811   2.365   1.276   2.855
 4638SOL     OW14812   3.172   4.777   0.233
 4638SOL    HW114813   3.272   4.782   0.224
 4638SOL    HW214814   3.130   4.826   0.157
 4639SOL     OW14815   2.671   2.209   1.131
 4639SOL    HW114816   2.663   2.290   1.189
 4639SOL    HW214817   2.761   2.168   1.144
 4640SOL     OW14818   6.707   2.667   6.587
 4640SOL    HW114819   6.615   2.640   6.616
 4640SOL    HW214820   6.725   2.631   6.495
 4641SOL     OW14821   1.073   5.637   4.025
 4641SOL    HW114822   1.127   5.671   3.949
 4641SOL    HW214823   1.123   5.565   4.073
 4642SOL     OW14824   0.012   1.344   3.750
 4642SOL    HW114825   6.974   1.409   3.802
 4642SOL    HW214826   0.098   1.328   3.798
 4643SOL     OW14827   0.458   1.851   0.051
 4643SOL    HW114828   0.506   1.852   0.138
 4643SOL    HW214829   0.429   1.758   0.029
 4644SOL     OW14830   1.416   1.072   0.426
 4644SOL    HW114831   1.504   1.103   0.391
 4644SOL    HW214832   1.351   1.149   0.425
 4645SOL     OW14833   0.910   1.752   3.661
 4645SOL    HW114834   0.889   1.811   3.739
 4645SOL    HW214835   0.849   1.775   3.584
 4646SOL     OW14836   2.038   4.758   4.003
 4646SOL    HW114837   1.985   4.757   3.918
 4646SOL    HW214838   2.119   4.701   3.992
 4647SOL     OW14839   1.443   6.393   2.381
 4647SOL    HW114840   1.457   6.296   2.399
 4647SOL    HW214841   1.386   6.433   2.453
 4648SOL     OW14842   2.943   1.670   4.389
 4648SOL    HW114843   2.850   1.647   4.416
 4648SOL    HW214844   2.991   1.587   4.362
 4649SOL     OW14845   5.719   0.533   0.350
 4649SOL    HW114846   5.626   0.570   0.344
 4649SOL    HW214847   5.715   0.434   0.362
 4650SOL     OW14848   5.416   6.175   1.227
 4650SOL    HW114849   5.458   6.125   1.151
 4650SOL    HW214850   5.466   6.260   1.243
 4651SOL     OW14851   6.182   3.361   6.196
 4651SOL    HW114852   6.246   3.422   6.148
 4651SOL    HW214853   6.088   3.390   6.177
 4652SOL     OW14854   0.333   6.472   4.272
 4652SOL    HW114855   0.385   6.557   4.263
 4652SOL    HW214856   0.297   6.446   4.182
 4653SOL     OW14857   5.554   5.526   0.543
 4653SOL    HW114858   5.457   5.539   0.521
 4653SOL    HW214859   5.592   5.610   0.580
 4654SOL     OW14860   0.166   6.712   5.250
 4654SOL    HW114861   0.070   6.714   5.222
 4654SOL    HW214862   0.192   6.618   5.273
 4655SOL     OW14863   4.526   2.309   1.362
 4655SOL    HW114864   4.430   2.329   1.379
 4655SOL    HW214865   4.542   2.301   1.264
 4656SOL     OW14866   0.728   1.296   1.937
 4656SOL    HW114867   0.746   1.375   1.878
 4656SOL    HW214868   0.635   1.303   1.975
 4657SOL     OW14869   5.020   0.113   2.017
 4657SOL    HW114870   4.977   0.125   2.107
 4657SOL    HW214871   5.108   0.068   2.029
 4658SOL     OW14872   1.793   2.608   5.804
 4658SOL    HW114873   1.791   2.508   5.813
 4658SOL    HW214874   1.701   2.641   5.783
 4659SOL     OW14875   3.034   4.755   0.656
 4659SOL    HW114876   3.007   4.702   0.736
 4659SOL    HW214877   2.952   4.790   0.610
 4660SOL     OW14878   1.560   6.206   4.571
 4660SOL    HW114879   1.534   6.226   4.477
 4660SOL    HW214880   1.488   6.154   4.616
 4661SOL     OW14881   0.762   2.707   5.524
 4661SOL    HW114882   0.842   2.767   5.512
 4661SOL    HW214883   0.701   2.746   5.593
 4662SOL     OW14884   2.964   6.419   5.231
 4662SOL    HW114885   2.960   6.323   5.258
 4662SOL    HW214886   2.975   6.426   5.132
 4663SOL     OW14887   1.484   6.454   0.074
 4663SOL    HW114888   1.441   6.369   0.104
 4663SOL    HW214889   1.570   6.433   0.028
 4664SOL     OW14890   6.750   6.336   0.184
 4664SOL    HW114891   6.686   6.413   0.182
 4664SOL    HW214892   6.700   6.252   0.204
 4665SOL     OW14893   2.062   0.292   4.498
 4665SOL    HW114894   2.141   0.336   4.456
 4665SOL    HW214895   2.007   0.361   4.547
 4666SOL     OW14896   2.398   1.946   5.392
 4666SOL    HW114897   2.420   2.033   5.436
 4666SOL    HW214898   2.333   1.896   5.450
 4667SOL     OW14899   6.401   3.966   1.279
 4667SOL    HW114900   6.301   3.960   1.280
 4667SOL    HW214901   6.438   3.889   1.227
 4668SOL     OW14902   4.188   2.162   3.961
 4668SOL    HW114903   4.267   2.215   3.994
 4668SOL    HW214904   4.151   2.206   3.879
 4669SOL     OW14905   5.468   6.849   6.295
 4669SOL    HW114906   5.568   6.860   6.296
 4669SOL    HW214907   5.424   6.937   6.309
 4670SOL     OW14908   0.791   2.687   0.862
 4670SOL    HW114909   0.750   2.706   0.951
 4670SOL    HW214910   0.775   2.592   0.836
 4671SOL     OW14911   0.650   3.832   0.660
 4671SOL    HW114912   0.595   3.754   0.631
 4671SOL    HW214913   0.632   3.851   0.756
 4672SOL     OW14914   2.915   3.599   6.182
 4672SOL    HW114915   2.934   3.580   6.086
 4672SOL    HW214916   2.879   3.517   6.226
 4673SOL     OW14917   6.016   0.643   0.005
 4673SOL    HW114918   6.029   0.740   7.004
 4673SOL    HW214919   5.995   0.631   0.102
 4674SOL     OW14920   1.606   1.929   0.935
 4674SOL    HW114921   1.665   2.005   0.906
 4674SOL    HW214922   1.511   1.955   0.922
 4675SOL     OW14923   2.173   6.280   6.764
 4675SOL    HW114924   2.122   6.201   6.730
 4675SOL    HW214925   2.199   6.339   6.688
 4676SOL     OW14926   0.431   6.060   4.049
 4676SOL    HW114927   0.445   6.136   3.985
 4676SOL    HW214928   0.508   6.057   4.113
 4677SOL     OW14929   4.281   0.327   6.711
 4677SOL    HW114930   4.333   0.299   6.630
 4677SOL    HW214931   4.292   0.257   6.782
 4678SOL     OW14932   1.945   4.465   0.036
 4678SOL    HW114933   1.954   4.369   0.009
 4678SOL    HW214934   1.977   4.477   0.129
 4679SOL     OW14935   3.090   0.937   6.120
 4679SOL    HW114936   3.027   0.917   6.045
 4679SOL    HW214937   3.183   0.947   6.085
 4680SOL     OW14938   1.828   5.069   0.594
 4680SOL    HW114939   1.831   4.969   0.593
 4680SOL    HW214940   1.913   5.105   0.556
 4681SOL     OW14941   0.286   5.550   5.193
 4681SOL    HW114942   0.379   5.545   5.229
 4681SOL    HW214943   0.239   5.628   5.233
 4682SOL     OW14944   4.322   6.651   0.878
 4682SOL    HW114945   4.364   6.672   0.789
 4682SOL    HW214946   4.392   6.653   0.949
 4683SOL     OW14947   6.276   4.291   3.334
 4683SOL    HW114948   6.340   4.249   3.398
 4683SOL    HW214949   6.183   4.286   3.372
 4684SOL     OW14950   1.462   1.323   4.418
 4684SOL    HW114951   1.434   1.227   4.412
 4684SOL    HW214952   1.495   1.353   4.328
 4685SOL     OW14953   5.334   5.032   4.904
 4685SOL    HW114954   5.344   5.008   4.808
 4685SOL    HW214955   5.285   5.119   4.911
 4686SOL     OW14956   4.257   6.048   0.021
 4686SOL    HW114957   4.180   6.106   0.047
 4686SOL    HW214958   4.239   5.954   0.049
 4687SOL     OW14959   6.232   6.080   4.596
 4687SOL    HW114960   6.218   6.029   4.681
 4687SOL    HW214961   6.299   6.033   4.539
 4688SOL     OW14962   0.698   2.430   6.359
 4688SOL    HW114963   0.739   2.362   6.298
 4688SOL    HW214964   0.600   2.411   6.369
 4689SOL     OW14965   1.235   6.220   5.114
 4689SOL    HW114966   1.303   6.271   5.166
 4689SOL    HW214967   1.280   6.147   5.061
 4690SOL     OW14968   1.255   1.995   6.640
 4690SOL    HW114969   1.190   2.065   6.613
 4690SOL    HW214970   1.219   1.944   6.719
 4691SOL     OW14971   2.346   5.640   0.882
 4691SOL    HW114972   2.402   5.722   0.870
 4691SOL    HW214973   2.278   5.635   0.809
 4692SOL     OW14974   0.216   5.286   3.428
 4692SOL    HW114975   0.312   5.311   3.416
 4692SOL    HW214976   0.208   5.187   3.436
 4693SOL     OW14977   0.538   1.200   3.678
 4693SOL    HW114978   0.635   1.220   3.665
 4693SOL    HW214979   0.522   1.178   3.775
 4694SOL     OW14980   1.557   2.233   6.124
 4694SOL    HW114981   1.470   2.233   6.074
 4694SOL    HW214982   1.590   2.139   6.134
 4695SOL     OW14983   3.604   3.193   2.005
 4695SOL    HW114984   3.544   3.203   1.926
 4695SOL    HW214985   3.678   3.261   2.000
 4696SOL     OW14986   0.284   2.859   6.297
 4696SOL    HW114987   0.256   2.824   6.387
 4696SOL    HW214988   0.224   2.935   6.271
 4697SOL     OW14989   0.918   5.194   0.345
 4697SOL    HW114990   0.847   5.260   0.367
 4697SOL    HW214991   0.958   5.215   0.255
 4698SOL     OW14992   5.813   3.487   0.759
 4698SOL    HW114993   5.851   3.552   0.694
 4698SOL    HW214994   5.852   3.505   0.850
 4699SOL     OW14995   6.854   7.004   2.752
 4699SOL    HW114996   6.807   6.924   2.716
 4699SOL    HW214997   6.815   0.011   2.841
 4700SOL     OW14998   4.902   1.268   1.108
 4700SOL    HW114999   4.867   1.359   1.126
 4700SOL    HW215000   4.834   1.216   1.055
 4701SOL     OW15001   0.596   0.920   0.972
 4701SOL    HW115002   0.666   0.859   1.008
 4701SOL    HW215003   0.506   0.892   1.005
 4702SOL     OW15004   3.179   3.888   0.350
 4702SOL    HW115005   3.125   3.950   0.407
 4702SOL    HW215006   3.207   3.935   0.266
 4703SOL     OW15007   2.266   0.619   2.007
 4703SOL    HW115008   2.285   0.714   1.982
 4703SOL    HW215009   2.289   0.558   1.931
 4704SOL     OW15010   5.431   6.334   0.859
 4704SOL    HW115011   5.521   6.356   0.823
 4704SOL    HW215012   5.367   6.321   0.783
 4705SOL     OW15013   3.110   3.808   4.152
 4705SOL    HW115014   3.119   3.884   4.088
 4705SOL    HW215015   3.096   3.842   4.244
 4706SOL     OW15016   4.041   5.652   0.307
 4706SOL    HW115017   4.002   5.743   0.298
 4706SOL    HW215018   3.969   5.583   0.295
 4707SOL     OW15019   2.270   5.671   1.342
 4707SOL    HW115020   2.245   5.615   1.421
 4707SOL    HW215021   2.207   5.653   1.267
 4708SOL     OW15022   2.272   2.387   1.854
 4708SOL    HW115023   2.255   2.350   1.945
 4708SOL    HW215024   2.310   2.316   1.796
 4709SOL     OW15025   4.137   4.894   5.918
 4709SOL    HW115026   4.053   4.897   5.865
 4709SOL    HW215027   4.121   4.848   6.005
 4710SOL     OW15028   4.396   1.212   0.378
 4710SOL    HW115029   4.422   1.286   0.440
 4710SOL    HW215030   4.297   1.208   0.370
 4711SOL     OW15031   3.223   0.538   2.756
 4711SOL    HW115032   3.198   0.535   2.659
 4711SOL    HW215033   3.195   0.625   2.796
 4712SOL     OW15034   2.033   5.231   0.526
 4712SOL    HW115035   2.100   5.163   0.497
 4712SOL    HW215036   2.032   5.235   0.626
 4713SOL     OW15037   1.765   5.444   0.901
 4713SOL    HW115038   1.677   5.484   0.876
 4713SOL    HW215039   1.756   5.345   0.911
 4714SOL     OW15040   2.939   2.089   1.282
 4714SOL    HW115041   2.936   2.066   1.379
 4714SOL    HW215042   3.033   2.112   1.257
 4715SOL     OW15043   0.054   3.123   3.667
 4715SOL    HW115044   0.074   3.203   3.723
 4715SOL    HW215045   6.986   3.082   3.695
 4716SOL     OW15046   3.358   5.961   0.780
 4716SOL    HW115047   3.424   5.892   0.809
 4716SOL    HW215048   3.279   5.961   0.842
 4717SOL     OW15049   1.625   6.106   3.688
 4717SOL    HW115050   1.546   6.146   3.643
 4717SOL    HW215051   1.707   6.120   3.632
 4718SOL     OW15052   6.009   1.389   5.887
 4718SOL    HW115053   6.004   1.358   5.792
 4718SOL    HW215054   5.995   1.312   5.949
 4719SOL     OW15055   4.341   3.017   0.898
 4719SOL    HW115056   4.433   2.980   0.884
 4719SOL    HW215057   4.274   2.943   0.893
 4720SOL     OW15058   2.716   0.707   5.056
 4720SOL    HW115059   2.727   0.748   4.966
 4720SOL    HW215060   2.619   0.704   5.080
 4721SOL     OW15061   1.639   2.220   1.217
 4721SOL    HW115062   1.716   2.192   1.160
 4721SOL    HW215063   1.554   2.207   1.167
 4722SOL     OW15064   2.386   0.421   0.725
 4722SOL    HW115065   2.469   0.400   0.674
 4722SOL    HW215066   2.377   0.521   0.734
 4723SOL     OW15067   2.042   6.665   6.572
 4723SOL    HW115068   1.971   6.650   6.641
 4723SOL    HW215069   2.111   6.593   6.579
 4724SOL     OW15070   4.225   6.233   1.891
 4724SOL    HW115071   4.184   6.145   1.866
 4724SOL    HW215072   4.161   6.306   1.870
 4725SOL     OW15073   4.989   6.625   3.514
 4725SOL    HW115074   4.929   6.637   3.593
 4725SOL    HW215075   4.947   6.665   3.433
 4726SOL     OW15076   0.416   5.178   6.648
 4726SOL    HW115077   0.381   5.098   6.599
 4726SOL    HW215078   0.506   5.203   6.613
 4727SOL     OW15079   0.206   5.886   0.284
 4727SOL    HW115080   0.294   5.935   0.279
 4727SOL    HW215081   0.222   5.788   0.270
 4728SOL     OW15082   6.986   1.165   0.015
 4728SOL    HW115083   6.969   1.235   0.085
 4728SOL    HW215084   6.898   1.131   6.999
 4729SOL     OW15085   3.489   0.961   1.679
 4729SOL    HW115086   3.587   0.945   1.691
 4729SOL    HW215087   3.468   0.966   1.581
 4730SOL     OW15088   1.999   0.394   5.427
 4730SOL    HW115089   2.077   0.442   5.468
 4730SOL    HW215090   2.030   0.306   5.391
 4731SOL     OW15091   5.368   1.490   5.092
 4731SOL    HW115092   5.307   1.431   5.039
 4731SOL    HW215093   5.463   1.470   5.069
 4732SOL     OW15094   0.269   2.013   0.487
 4732SOL    HW115095   0.283   2.095   0.432
 4732SOL    HW215096   0.274   2.037   0.584
 4733SOL     OW15097   0.168   3.085   3.216
 4733SOL    HW115098   0.145   3.031   3.297
 4733SOL    HW215099   0.242   3.040   3.166
 4734SOL     OW15100   4.236   4.160   6.756
 4734SOL    HW115101   4.198   4.183   6.845
 4734SOL    HW215102   4.335   4.174   6.757
 4735SOL     OW15103   1.449   4.943   3.522
 4735SOL    HW115104   1.353   4.968   3.508
 4735SOL    HW215105   1.492   4.924   3.433
 4736SOL     OW15106   1.157   0.800   0.488
 4736SOL    HW115107   1.108   0.752   0.415
 4736SOL    HW215108   1.134   0.897   0.486
 4737SOL     OW15109   2.244   5.175   1.730
 4737SOL    HW115110   2.206   5.117   1.657
 4737SOL    HW215111   2.342   5.157   1.739
 4738SOL     OW15112   6.631   6.051   2.496
 4738SOL    HW115113   6.713   6.090   2.455
 4738SOL    HW215114   6.551   6.105   2.469
 4739SOL     OW15115   4.457   0.695   1.001
 4739SOL    HW115116   4.370   0.654   1.027
 4739SOL    HW215117   4.492   0.651   0.918
 4740SOL     OW15118   0.986   1.689   3.000
 4740SOL    HW115119   0.900   1.739   3.011
 4740SOL    HW215120   1.049   1.714   3.073
 4741SOL     OW15121   4.230   3.502   1.519
 4741SOL    HW115122   4.272   3.567   1.583
 4741SOL    HW215123   4.256   3.525   1.426
 4742SOL     OW15124   3.828   6.897   0.757
 4742SOL    HW115125   3.839   6.934   0.849
 4742SOL    HW215126   3.867   6.805   0.753
 4743SOL     OW15127   2.543   5.137   1.388
 4743SOL    HW115128   2.445   5.158   1.394
 4743SOL    HW215129   2.560   5.082   1.306
 4744SOL     OW15130   2.052   6.240   0.899
 4744SOL    HW115131   2.078   6.144   0.913
 4744SOL    HW215132   2.072   6.267   0.804
 4745SOL     OW15133   1.097   4.435   0.337
 4745SOL    HW115134   1.127   4.487   0.257
 4745SOL    HW215135   1.155   4.355   0.349
 4746SOL     OW15136   4.521   5.527   4.211
 4746SOL    HW115137   4.430   5.498   4.239
 4746SOL    HW215138   4.537   5.503   4.116
 4747SOL     OW15139   1.464   1.994   0.593
 4747SOL    HW115140   1.452   2.091   0.571
 4747SOL    HW215141   1.558   1.977   0.621
 4748SOL     OW15142   1.485   6.520   3.127
 4748SOL    HW115143   1.560   6.512   3.061
 4748SOL    HW215144   1.425   6.595   3.099
 4749SOL     OW15145   1.909   0.714   6.641
 4749SOL    HW115146   1.872   0.681   6.728
 4749SOL    HW215147   1.878   0.807   6.624
 4750SOL     OW15148   4.720   3.212   5.328
 4750SOL    HW115149   4.798   3.264   5.295
 4750SOL    HW215150   4.752   3.133   5.381
 4751SOL     OW15151   4.452   0.722   3.258
 4751SOL    HW115152   4.498   0.791   3.202
 4751SOL    HW215153   4.497   0.717   3.348
 4752SOL     OW15154   4.392   1.753   0.233
 4752SOL    HW115155   4.461   1.807   0.185
 4752SOL    HW215156   4.354   1.685   0.170
 4753SOL     OW15157   3.159   5.699   5.005
 4753SOL    HW115158   3.145   5.790   5.043
 4753SOL    HW215159   3.238   5.700   4.943
 4754SOL     OW15160   4.967   4.746   6.478
 4754SOL    HW115161   5.046   4.770   6.535
 4754SOL    HW215162   4.899   4.820   6.483
 4755SOL     OW15163   1.414   0.923   1.463
 4755SOL    HW115164   1.441   0.877   1.547
 4755SOL    HW215165   1.413   0.858   1.388
 4756SOL     OW15166   5.905   4.011   6.622
 4756SOL    HW115167   5.812   3.975   6.616
 4756SOL    HW215168   5.910   4.098   6.573
 4757SOL     OW15169   1.957   3.825   1.647
 4757SOL    HW115170   2.043   3.872   1.667
 4757SOL    HW215171   1.885   3.861   1.705
 4758SOL     OW15172   3.229   6.495   3.192
 4758SOL    HW115173   3.163   6.420   3.187
 4758SOL    HW215174   3.227   6.547   3.106
 4759SOL     OW15175   0.928   5.026   1.398
 4759SOL    HW115176   0.892   5.087   1.328
 4759SOL    HW215177   1.023   5.052   1.419
 4760SOL     OW15178   1.847   5.950   1.157
 4760SOL    HW115179   1.780   5.880   1.133
 4760SOL    HW215180   1.800   6.039   1.166
 4761SOL     OW15181   6.708   6.556   1.131
 4761SOL    HW115182   6.645   6.517   1.198
 4761SOL    HW215183   6.757   6.634   1.171
 4762SOL     OW15184   1.521   0.003   1.660
 4762SOL    HW115185   1.507   7.007   1.563
 4762SOL    HW215186   1.467   6.955   1.713
 4763SOL     OW15187   5.720   4.430   1.837
 4763SOL    HW115188   5.677   4.417   1.748
 4763SOL    HW215189   5.659   4.484   1.896
 4764SOL     OW15190   3.992   3.504   6.402
 4764SOL    HW115191   3.929   3.454   6.463
 4764SOL    HW215192   4.046   3.439   6.350
 4765SOL     OW15193   3.220   1.839   4.389
 4765SOL    HW115194   3.213   1.795   4.479
 4765SOL    HW215195   3.258   1.931   4.401
 4766SOL     OW15196   0.482   0.184   4.231
 4766SOL    HW115197   0.519   0.091   4.234
 4766SOL    HW215198   0.463   0.215   4.324
 4767SOL     OW15199   1.519   4.357   3.824
 4767SOL    HW115200   1.575   4.416   3.766
 4767SOL    HW215201   1.434   4.405   3.848
 4768SOL     OW15202   3.608   2.437   6.820
 4768SOL    HW115203   3.628   2.493   6.901
 4768SOL    HW215204   3.591   2.343   6.848
 4769SOL     OW15205   2.382   5.290   1.048
 4769SOL    HW115206   2.340   5.207   1.085
 4769SOL    HW215207   2.314   5.364   1.047
 4770SOL     OW15208   0.494   1.607   5.690
 4770SOL    HW115209   0.552   1.529   5.665
 4770SOL    HW215210   0.551   1.689   5.699
 4771SOL     OW15211   2.192   6.590   4.858
 4771SOL    HW115212   2.176   6.521   4.788
 4771SOL    HW215213   2.189   6.681   4.817
 4772SOL     OW15214   2.988   5.438   1.992
 4772SOL    HW115215   2.996   5.387   1.907
 4772SOL    HW215216   3.047   5.396   2.061
 4773SOL     OW15217   2.257   5.039   4.749
 4773SOL    HW115218   2.183   5.039   4.815
 4773SOL    HW215219   2.306   4.952   4.754
 4774SOL     OW15220   1.609   3.947   0.240
 4774SOL    HW115221   1.628   3.966   0.143
 4774SOL    HW215222   1.634   3.852   0.261
 4775SOL     OW15223   6.428   6.115   5.057
 4775SOL    HW115224   6.399   6.198   5.009
 4775SOL    HW215225   6.473   6.054   4.993
 4776SOL     OW15226   0.700   1.461   6.773
 4776SOL    HW115227   0.761   1.419   6.706
 4776SOL    HW215228   0.651   1.390   6.823
 4777SOL     OW15229   0.633   6.985   2.042
 4777SOL    HW115230   0.551   6.976   1.987
 4777SOL    HW215231   0.612   0.015   2.127
 4778SOL     OW15232   0.990   1.937   5.995
 4778SOL    HW115233   1.030   1.893   6.075
 4778SOL    HW215234   1.028   1.897   5.912
 4779SOL     OW15235   5.419   0.586   4.039
 4779SOL    HW115236   5.395   0.675   4.077
 4779SOL    HW215237   5.466   0.532   4.108
 4780SOL     OW15238   6.196   2.846   4.756
 4780SOL    HW115239   6.285   2.881   4.728
 4780SOL    HW215240   6.200   2.746   4.761
 4781SOL     OW15241   2.165   6.298   2.544
 4781SOL    HW115242   2.241   6.252   2.591
 4781SOL    HW215243   2.174   6.283   2.445
 4782SOL     OW15244   6.987   6.534   3.998
 4782SOL    HW115245   6.965   6.603   3.929
 4782SOL    HW215246   6.912   6.469   4.005
 4783SOL     OW15247   6.704   3.299   0.542
 4783SOL    HW115248   6.721   3.390   0.506
 4783SOL    HW215249   6.622   3.300   0.598
 4784SOL     OW15250   5.203   3.007   6.632
 4784SOL    HW115251   5.123   2.961   6.669
 4784SOL    HW215252   5.286   2.963   6.668
 4785SOL     OW15253   0.542   6.282   3.882
 4785SOL    HW115254   0.560   6.208   3.818
 4785SOL    HW215255   0.519   6.365   3.830
 4786SOL     OW15256   1.856   6.199   0.566
 4786SOL    HW115257   1.788   6.254   0.517
 4786SOL    HW215258   1.856   6.106   0.530
 4787SOL     OW15259   3.451   1.318   4.329
 4787SOL    HW115260   3.432   1.412   4.358
 4787SOL    HW215261   3.369   1.263   4.339
 4788SOL     OW15262   5.723   6.516   0.059
 4788SOL    HW115263   5.713   6.583   7.003
 4788SOL    HW215264   5.638   6.464   0.068
 4789SOL     OW15265   5.454   1.393   3.407
 4789SOL    HW115266   5.550   1.413   3.387
 4789SOL    HW215267   5.404   1.382   3.321
 4790SOL     OW15268   6.802   2.082   4.862
 4790SOL    HW115269   6.725   2.019   4.853
 4790SOL    HW215270   6.808   2.138   4.779
 4791SOL     OW15271   7.005   0.420   0.520
 4791SOL    HW115272   6.910   0.445   0.538
 4791SOL    HW215273   0.025   0.374   0.601
 4792SOL     OW15274   2.279   2.874   2.640
 4792SOL    HW115275   2.208   2.932   2.599
 4792SOL    HW215276   2.288   2.790   2.587
 4793SOL     OW15277   0.871   3.946   5.881
 4793SOL    HW115278   0.963   3.912   5.901
 4793SOL    HW215279   0.859   3.953   5.782
 4794SOL     OW15280   4.142   1.541   4.352
 4794SOL    HW115281   4.058   1.486   4.352
 4794SOL    HW215282   4.217   1.486   4.314
 4795SOL     OW15283   0.163   0.409   5.962
 4795SOL    HW115284   0.190   0.321   6.002
 4795SOL    HW215285   0.223   0.430   5.885
 4796SOL     OW15286   3.920   1.466   4.727
 4796SOL    HW115287   4.002   1.417   4.699
 4796SOL    HW215288   3.865   1.408   4.788
 4797SOL     OW15289   1.611   5.342   4.762
 4797SOL    HW115290   1.573   5.261   4.716
 4797SOL    HW215291   1.711   5.335   4.765
 4798SOL     OW15292   3.976   4.505   6.298
 4798SOL    HW115293   4.056   4.563   6.311
 4798SOL    HW215294   3.893   4.559   6.313
 4799SOL     OW15295   3.219   3.248   6.220
 4799SOL    HW115296   3.218   3.281   6.314
 4799SOL    HW215297   3.289   3.178   6.209
 4800SOL     OW15298   0.875   4.990   0.810
 4800SOL    HW115299   0.832   4.976   0.900
 4800SOL    HW215300   0.974   4.980   0.819
 4801SOL     OW15301   5.232   2.806   1.696
 4801SOL    HW115302   5.143   2.827   1.737
 4801SOL    HW215303   5.247   2.866   1.618
 4802SOL     OW15304   6.924   6.691   3.779
 4802SOL    HW115305   6.875   6.770   3.818
 4802SOL    HW215306   6.870   6.652   3.705
 4803SOL     OW15307   4.833   4.054   6.188
 4803SOL    HW115308   4.878   4.028   6.274
 4803SOL    HW215309   4.786   4.142   6.201
 4804SOL     OW15310   4.694   1.544   0.861
 4804SOL    HW115311   4.623   1.615   0.862
 4804SOL    HW215312   4.675   1.480   0.787
 4805SOL     OW15313   6.868   1.243   0.383
 4805SOL    HW115314   6.946   1.274   0.439
 4805SOL    HW215315   6.804   1.319   0.370
 4806SOL     OW15316   1.397   0.782   2.858
 4806SOL    HW115317   1.422   0.821   2.769
 4806SOL    HW215318   1.398   0.853   2.928
 4807SOL     OW15319   0.993   3.630   5.798
 4807SOL    HW115320   1.086   3.625   5.760
 4807SOL    HW215321   0.980   3.719   5.842
 4808SOL     OW15322   4.314   5.449   1.083
 4808SOL    HW115323   4.298   5.495   0.996
 4808SOL    HW215324   4.240   5.472   1.147
 4809SOL     OW15325   3.472   4.542   1.395
 4809SOL    HW115326   3.471   4.640   1.417
 4809SOL    HW215327   3.453   4.489   1.478
 4810SOL     OW15328   0.496   4.499   4.024
 4810SOL    HW115329   0.555   4.419   4.029
 4810SOL    HW215330   0.435   4.501   4.103
 4811SOL     OW15331   3.343   3.973   3.984
 4811SOL    HW115332   3.423   3.928   3.945
 4811SOL    HW215333   3.333   4.064   3.943
 4812SOL     OW15334   0.553   0.124   2.255
 4812SOL    HW115335   0.536   0.208   2.204
 4812SOL    HW215336   0.529   0.138   2.352
 4813SOL     OW15337   5.952   1.888   5.986
 4813SOL    HW115338   5.855   1.897   5.962
 4813SOL    HW215339   5.980   1.793   5.976
 4814SOL     OW15340   6.182   4.209   1.420
 4814SOL    HW115341   6.243   4.280   1.454
 4814SOL    HW215342   6.101   4.252   1.380
 4815SOL     OW15343   5.660   5.338   2.380
 4815SOL    HW115344   5.673   5.430   2.343
 4815SOL    HW215345   5.597   5.287   2.321
 4816SOL     OW15346   1.681   1.258   2.604
 4816SOL    HW115347   1.727   1.192   2.546
 4816SOL    HW215348   1.583   1.255   2.587
 4817SOL     OW15349   3.774   1.762   0.648
 4817SOL    HW115350   3.823   1.745   0.733
 4817SOL    HW215351   3.677   1.775   0.667
 4818SOL     OW15352   3.765   0.261   5.586
 4818SOL    HW115353   3.669   0.253   5.561
 4818SOL    HW215354   3.791   0.182   5.642
 4819SOL     OW15355   2.841   0.631   1.107
 4819SOL    HW115356   2.744   0.655   1.111
 4819SOL    HW215357   2.877   0.622   1.200
 4820SOL     OW15358   6.187   4.360   1.918
 4820SOL    HW115359   6.180   4.448   1.871
 4820SOL    HW215360   6.183   4.375   2.017
 4821SOL     OW15361   0.024   4.430   1.485
 4821SOL    HW115362   0.009   4.347   1.432
 4821SOL    HW215363   7.001   4.420   1.576
 4822SOL     OW15364   2.079   4.245   2.640
 4822SOL    HW115365   2.097   4.196   2.725
 4822SOL    HW215366   1.982   4.269   2.635
 4823SOL     OW15367   1.075   1.159   4.590
 4823SOL    HW115368   1.125   1.232   4.638
 4823SOL    HW215369   0.992   1.197   4.549
 4824SOL     OW15370   5.318   3.049   2.414
 4824SOL    HW115371   5.316   3.079   2.318
 4824SOL    HW215372   5.286   3.123   2.473
 4825SOL     OW15373   0.749   3.256   2.595
 4825SOL    HW115374   0.785   3.219   2.509
 4825SOL    HW215375   0.780   3.199   2.671
 4826SOL     OW15376   6.326   6.064   0.357
 4826SOL    HW115377   6.326   6.162   0.378
 4826SOL    HW215378   6.235   6.037   0.326
 4827SOL     OW15379   5.149   0.773   1.063
 4827SOL    HW115380   5.113   0.818   1.145
 4827SOL    HW215381   5.108   0.814   0.982
 4828SOL     OW15382   5.950   3.619   0.561
 4828SOL    HW115383   5.986   3.599   0.470
 4828SOL    HW215384   5.898   3.704   0.559
 4829SOL     OW15385   2.969   0.331   6.130
 4829SOL    HW115386   2.948   0.370   6.219
 4829SOL    HW215387   2.975   0.404   6.062
 4830SOL     OW15388   4.370   0.146   4.635
 4830SOL    HW115389   4.289   0.188   4.677
 4830SOL    HW215390   4.381   0.053   4.669
 4831SOL     OW15391   6.144   3.562   5.982
 4831SOL    HW115392   6.103   3.484   5.934
 4831SOL    HW215393   6.166   3.633   5.915
 4832SOL     OW15394   2.477   3.612   6.432
 4832SOL    HW115395   2.384   3.586   6.458
 4832SOL    HW215396   2.475   3.696   6.377
 4833SOL     OW15397   4.661   1.625   2.808
 4833SOL    HW115398   4.627   1.717   2.791
 4833SOL    HW215399   4.684   1.580   2.722
 4834SOL     OW15400   5.161   1.174   2.488
 4834SOL    HW115401   5.088   1.124   2.442
 4834SOL    HW215402   5.188   1.125   2.571
 4835SOL     OW15403   2.199   0.372   6.634
 4835SOL    HW115404   2.137   0.413   6.567
 4835SOL    HW215405   2.190   0.419   6.722
 4836SOL     OW15406   5.442   2.248   3.900
 4836SOL    HW115407   5.522   2.293   3.939
 4836SOL    HW215408   5.410   2.299   3.820
 4837SOL     OW15409   1.518   3.579   0.763
 4837SOL    HW115410   1.536   3.646   0.835
 4837SOL    HW215411   1.532   3.621   0.673
 4838SOL     OW15412   3.369   5.836   2.480
 4838SOL    HW115413   3.405   5.781   2.556
 4838SOL    HW215414   3.278   5.802   2.455
 4839SOL     OW15415   0.418   6.055   6.781
 4839SOL    HW115416   0.508   6.086   6.750
 4839SOL    HW215417   0.388   5.978   6.724
 4840SOL     OW15418   6.940   6.795   0.077
 4840SOL    HW115419   6.963   6.734   0.154
 4840SOL    HW215420   6.872   6.861   0.107
 4841SOL     OW15421   2.861   5.461   2.440
 4841SOL    HW115422   2.938   5.506   2.393
 4841SOL    HW215423   2.784   5.524   2.444
 4842SOL     OW15424   4.186   5.942   1.325
 4842SOL    HW115425   4.151   6.011   1.262
 4842SOL    HW215426   4.199   5.983   1.415
 4843SOL     OW15427   0.265   3.519   6.876
 4843SOL    HW115428   0.201   3.596   6.868
 4843SOL    HW215429   0.256   3.479   6.967
 4844SOL     OW15430   5.798   2.236   6.407
 4844SOL    HW115431   5.730   2.305   6.382
 4844SOL    HW215432   5.760   2.176   6.477
 4845SOL     OW15433   6.032   5.719   3.844
 4845SOL    HW115434   6.041   5.696   3.941
 4845SOL    HW215435   6.109   5.776   3.816
 4846SOL     OW15436   1.247   3.922   0.530
 4846SOL    HW115437   1.235   3.830   0.566
 4846SOL    HW215438   1.236   3.921   0.431
 4847SOL     OW15439   3.510   2.128   4.290
 4847SOL    HW115440   3.593   2.164   4.247
 4847SOL    HW215441   3.532   2.042   4.336
 4848SOL     OW15442   2.553   2.240   2.361
 4848SOL    HW115443   2.515   2.151   2.333
 4848SOL    HW215444   2.559   2.300   2.281
 4849SOL     OW15445   1.598   6.753   0.462
 4849SOL    HW115446   1.539   6.829   0.488
 4849SOL    HW215447   1.674   6.788   0.406
 4850SOL     OW15448   4.321   0.743   2.368
 4850SOL    HW115449   4.344   0.801   2.289
 4850SOL    HW215450   4.388   0.756   2.440
 4851SOL     OW15451   5.050   6.228   4.969
 4851SOL    HW115452   4.977   6.175   5.012
 4851SOL    HW215453   5.026   6.325   4.972
 4852SOL     OW15454   1.861   0.957   0.246
 4852SOL    HW115455   1.844   0.865   0.281
 4852SOL    HW215456   1.899   0.950   0.154
 4853SOL     OW15457   2.989   1.815   2.336
 4853SOL    HW115458   3.043   1.899   2.338
 4853SOL    HW215459   2.978   1.784   2.241
 4854SOL     OW15460   5.342   6.798   1.358
 4854SOL    HW115461   5.442   6.799   1.350
 4854SOL    HW215462   5.305   6.878   1.312
 4855SOL     OW15463   6.906   1.997   2.370
 4855SOL    HW115464   6.818   1.962   2.339
 4855SOL    HW215465   6.895   2.090   2.406
 4856SOL     OW15466   3.134   4.881   3.337
 4856SOL    HW115467   3.104   4.967   3.379
 4856SOL    HW215468   3.233   4.884   3.323
 4857SOL     OW15469   6.761   1.613   5.718
 4857SOL    HW115470   6.857   1.601   5.691
 4857SOL    HW215471   6.702   1.599   5.638
 4858SOL     OW15472   1.293   2.064   4.218
 4858SOL    HW115473   1.391   2.081   4.223
 4858SOL    HW215474   1.276   1.984   4.160
 4859SOL     OW15475   2.491   5.892   4.690
 4859SOL    HW115476   2.418   5.956   4.712
 4859SOL    HW215477   2.573   5.943   4.664
 4860SOL     OW15478   4.716   5.306   0.822
 4860SOL    HW115479   4.766   5.293   0.736
 4860SOL    HW215480   4.739   5.232   0.885
 4861SOL     OW15481   4.824   4.106   4.924
 4861SOL    HW115482   4.808   4.051   5.007
 4861SOL    HW215483   4.794   4.054   4.844
 4862SOL     OW15484   1.444   6.900   2.178
 4862SOL    HW115485   1.348   6.926   2.186
 4862SOL    HW215486   1.452   6.821   2.117
 4863SOL     OW15487   5.896   3.857   0.110
 4863SOL    HW115488   5.819   3.823   0.055
 4863SOL    HW215489   5.888   3.821   0.203
 4864SOL     OW15490   2.952   1.294   3.142
 4864SOL    HW115491   3.000   1.334   3.064
 4864SOL    HW215492   2.998   1.319   3.226
 4865SOL     OW15493   2.768   6.310   4.641
 4865SOL    HW115494   2.706   6.380   4.606
 4865SOL    HW215495   2.740   6.285   4.734
 4866SOL     OW15496   6.871   3.707   0.952
 4866SOL    HW115497   6.832   3.784   1.002
 4866SOL    HW215498   6.879   3.730   0.855
 4867SOL     OW15499   4.683   7.006   3.190
 4867SOL    HW115500   4.721   7.001   3.282
 4867SOL    HW215501   4.594   0.034   3.192
 4868SOL     OW15502   6.471   5.056   1.196
 4868SOL    HW115503   6.455   4.978   1.135
 4868SOL    HW215504   6.569   5.074   1.201
 4869SOL     OW15505   0.334   1.599   7.004
 4869SOL    HW115506   0.247   1.569   0.024
 4869SOL    HW215507   0.344   1.564   6.911
 4870SOL     OW15508   0.702   6.247   2.214
 4870SOL    HW115509   0.714   6.316   2.141
 4870SOL    HW215510   0.740   6.160   2.184
 4871SOL     OW15511   0.916   1.495   4.507
 4871SOL    HW115512   1.016   1.492   4.511
 4871SOL    HW215513   0.885   1.456   4.420
 4872SOL     OW15514   5.983   0.075   4.011
 4872SOL    HW115515   5.951   7.004   4.041
 4872SOL    HW215516   5.910   0.123   3.963
 4873SOL     OW15517   6.663   6.320   5.419
 4873SOL    HW115518   6.678   6.268   5.504
 4873SOL    HW215519   6.671   6.418   5.438
 4874SOL     OW15520   4.653   2.637   3.181
 4874SOL    HW115521   4.563   2.596   3.164
 4874SOL    HW215522   4.655   2.676   3.273
 4875SOL     OW15523   5.503   6.317   5.877
 4875SOL    HW115524   5.496   6.344   5.781
 4875SOL    HW215525   5.598   6.290   5.897
 4876SOL     OW15526   1.690   1.133   3.033
 4876SOL    HW115527   1.703   1.062   2.963
 4876SOL    HW215528   1.733   1.218   3.003
 4877SOL     OW15529   0.244   2.093   4.643
 4877SOL    HW115530   0.283   2.159   4.708
 4877SOL    HW215531   0.315   2.064   4.579
 4878SOL     OW15532   0.145   2.672   2.642
 4878SOL    HW115533   0.227   2.709   2.686
 4878SOL    HW215534   0.153   2.573   2.635
 4879SOL     OW15535   5.043   1.697   3.097
 4879SOL    HW115536   5.094   1.769   3.051
 4879SOL    HW215537   4.955   1.734   3.129
 4880SOL     OW15538   6.136   2.605   6.051
 4880SOL    HW115539   6.081   2.524   6.032
 4880SOL    HW215540   6.137   2.622   6.150
 4881SOL     OW15541   1.360   3.052   2.180
 4881SOL    HW115542   1.400   3.130   2.229
 4881SOL    HW215543   1.383   2.967   2.228
 4882SOL     OW15544   4.552   2.520   4.914
 4882SOL    HW115545   4.502   2.604   4.890
 4882SOL    HW215546   4.539   2.452   4.842
 4883SOL     OW15547   6.357   4.277   1.699
 4883SOL    HW115548   6.389   4.368   1.671
 4883SOL    HW215549   6.334   4.279   1.797
 4884SOL     OW15550   1.864   6.221   1.466
 4884SOL    HW115551   1.954   6.260   1.487
 4884SOL    HW215552   1.864   6.186   1.373
 4885SOL     OW15553   1.439   4.672   0.933
 4885SOL    HW115554   1.442   4.572   0.924
 4885SOL    HW215555   1.532   4.707   0.941
 4886SOL     OW15556   2.883   1.163   2.434
 4886SOL    HW115557   2.842   1.254   2.434
 4886SOL    HW215558   2.926   1.146   2.345
 4887SOL     OW15559   0.468   0.007   1.146
 4887SOL    HW115560   0.522   0.079   1.102
 4887SOL    HW215561   0.437   0.039   1.236
 4888SOL     OW15562   3.531   6.590   2.885
 4888SOL    HW115563   3.530   6.674   2.831
 4888SOL    HW215564   3.440   6.548   2.885
 4889SOL     OW15565   6.793   2.752   3.463
 4889SOL    HW115566   6.860   2.680   3.483
 4889SOL    HW215567   6.824   2.805   3.385
 4890SOL     OW15568   0.251   1.411   4.703
 4890SOL    HW115569   0.219   1.416   4.609
 4890SOL    HW215570   0.337   1.361   4.707
 4891SOL     OW15571   2.634   5.412   5.932
 4891SOL    HW115572   2.646   5.333   5.992
 4891SOL    HW215573   2.723   5.451   5.910
 4892SOL     OW15574   5.247   6.051   3.012
 4892SOL    HW115575   5.255   5.987   2.936
 4892SOL    HW215576   5.337   6.062   3.056
 4893SOL     OW15577   0.467   3.521   1.937
 4893SOL    HW115578   0.403   3.491   2.009
 4893SOL    HW215579   0.440   3.479   1.850
 4894SOL     OW15580   4.609   6.755   2.152
 4894SOL    HW115581   4.681   6.738   2.220
 4894SOL    HW215582   4.537   6.686   2.163
 4895SOL     OW15583   0.014   4.521   3.789
 4895SOL    HW115584   6.946   4.492   3.749
 4895SOL    HW215585   0.085   4.521   3.718
 4896SOL     OW15586   2.103   4.980   4.136
 4896SOL    HW115587   2.157   4.954   4.216
 4896SOL    HW215588   2.085   4.898   4.081
 4897SOL     OW15589   2.035   6.591   5.276
 4897SOL    HW115590   2.125   6.553   5.296
 4897SOL    HW215591   2.024   6.600   5.177
 4898SOL     OW15592   3.750   1.951   3.957
 4898SOL    HW115593   3.829   1.897   3.927
 4898SOL    HW215594   3.724   1.923   4.049
 4899SOL     OW15595   0.097   4.908   1.576
 4899SOL    HW115596   0.019   4.972   1.573
 4899SOL    HW215597   0.091   4.845   1.499
 4900SOL     OW15598   3.997   6.010   5.573
 4900SOL    HW115599   4.078   6.009   5.632
 4900SOL    HW215600   3.999   5.930   5.513
 4901SOL     OW15601   0.766   1.459   6.186
 4901SOL    HW115602   0.746   1.549   6.149
 4901SOL    HW215603   0.791   1.397   6.112
 4902SOL     OW15604   1.874   0.188   6.090
 4902SOL    HW115605   1.908   0.278   6.116
 4902SOL    HW215606   1.774   0.186   6.099
 4903SOL     OW15607   5.434   4.909   1.953
 4903SOL    HW115608   5.372   4.848   1.904
 4903SOL    HW215609   5.526   4.870   1.953
 4904SOL     OW15610   1.541   0.515   0.453
 4904SOL    HW115611   1.456   0.504   0.504
 4904SOL    HW215612   1.585   0.601   0.479
 4905SOL     OW15613   3.234   6.290   2.560
 4905SOL    HW115614   3.215   6.333   2.471
 4905SOL    HW215615   3.251   6.193   2.547
 4906SOL     OW15616   5.451   3.045   4.814
 4906SOL    HW115617   5.525   2.998   4.766
 4906SOL    HW215618   5.367   3.038   4.760
 4907SOL     OW15619   4.629   1.414   6.530
 4907SOL    HW115620   4.669   1.500   6.564
 4907SOL    HW215621   4.657   1.401   6.435
 4908SOL     OW15622   4.506   7.007   0.210
 4908SOL    HW115623   4.599   6.974   0.222
 4908SOL    HW215624   4.509   0.078   0.164
 4909SOL     OW15625   5.801   4.501   4.131
 4909SOL    HW115626   5.746   4.418   4.116
 4909SOL    HW215627   5.866   4.484   4.206
 4910SOL     OW15628   4.880   1.190   5.913
 4910SOL    HW115629   4.823   1.154   5.839
 4910SOL    HW215630   4.969   1.144   5.911
 4911SOL     OW15631   0.275   2.208   1.804
 4911SOL    HW115632   0.203   2.176   1.866
 4911SOL    HW215633   0.332   2.275   1.851
 4912SOL     OW15634   5.964   2.104   4.204
 4912SOL    HW115635   5.897   2.094   4.131
 4912SOL    HW215636   6.005   2.196   4.199
 4913SOL     OW15637   6.438   2.761   5.256
 4913SOL    HW115638   6.387   2.726   5.177
 4913SOL    HW215639   6.529   2.789   5.227
 4914SOL     OW15640   4.445   0.653   4.088
 4914SOL    HW115641   4.410   0.666   3.995
 4914SOL    HW215642   4.491   0.736   4.119
 4915SOL     OW15643   3.668   5.334   5.674
 4915SOL    HW115644   3.663   5.321   5.773
 4915SOL    HW215645   3.725   5.414   5.654
 4916SOL     OW15646   6.297   1.576   3.883
 4916SOL    HW115647   6.299   1.525   3.969
 4916SOL    HW215648   6.246   1.662   3.896
 4917SOL     OW15649   4.723   0.224   0.888
 4917SOL    HW115650   4.637   0.222   0.837
 4917SOL    HW215651   4.780   0.299   0.855
 4918SOL     OW15652   6.409   5.577   1.947
 4918SOL    HW115653   6.400   5.655   1.885
 4918SOL    HW215654   6.495   5.583   1.997
 4919SOL     OW15655   3.897   3.986   2.114
 4919SOL    HW115656   3.942   3.911   2.065
 4919SOL    HW215657   3.966   4.040   2.162
 4920SOL     OW15658   5.825   0.761   5.315
 4920SOL    HW115659   5.873   0.720   5.393
 4920SOL    HW215660   5.740   0.803   5.347
 4921SOL     OW15661   0.095   6.941   2.221
 4921SOL    HW115662   0.007   6.933   2.174
 4921SOL    HW215663   0.137   0.011   2.197
 4922SOL     OW15664   3.838   2.388   6.125
 4922SOL    HW115665   3.868   2.294   6.108
 4922SOL    HW215666   3.781   2.419   6.049
 4923SOL     OW15667   3.542   1.381   2.661
 4923SOL    HW115668   3.598   1.463   2.665
 4923SOL    HW215669   3.476   1.381   2.735
 4924SOL     OW15670   2.540   0.717   5.715
 4924SOL    HW115671   2.544   0.617   5.719
 4924SOL    HW215672   2.469   0.745   5.650
 4925SOL     OW15673   5.275   6.246   3.362
 4925SOL    HW115674   5.310   6.329   3.318
 4925SOL    HW215675   5.178   6.258   3.384
 4926SOL     OW15676   5.429   2.372   0.746
 4926SOL    HW115677   5.467   2.283   0.771
 4926SOL    HW215678   5.362   2.400   0.815
 4927SOL     OW15679   3.477   1.479   6.325
 4927SOL    HW115680   3.382   1.512   6.330
 4927SOL    HW215681   3.537   1.542   6.374
 4928SOL     OW15682   0.523   2.495   0.774
 4928SOL    HW115683   0.446   2.455   0.723
 4928SOL    HW215684   0.510   2.479   0.872
 4929SOL     OW15685   0.224   6.226   4.767
 4929SOL    HW115686   0.243   6.305   4.708
 4929SOL    HW215687   0.235   6.253   4.862
 4930SOL     OW15688   5.414   6.850   2.352
 4930SOL    HW115689   5.383   6.804   2.435
 4930SOL    HW215690   5.465   6.932   2.377
 4931SOL     OW15691   6.144   6.219   0.827
 4931SOL    HW115692   6.121   6.218   0.925
 4931SOL    HW215693   6.102   6.298   0.784
 4932SOL     OW15694   3.173   3.200   2.039
 4932SOL    HW115695   3.094   3.161   1.991
 4932SOL    HW215696   3.160   3.298   2.051
 4933SOL     OW15697   3.378   6.021   5.384
 4933SOL    HW115698   3.423   6.037   5.296
 4933SOL    HW215699   3.299   6.081   5.393
 4934SOL     OW15700   3.945   5.154   3.109
 4934SOL    HW115701   3.905   5.063   3.104
 4934SOL    HW215702   3.872   5.223   3.103
 4935SOL     OW15703   1.343   1.385   5.793
 4935SOL    HW115704   1.309   1.298   5.828
 4935SOL    HW215705   1.314   1.459   5.852
 4936SOL     OW15706   2.676   3.188   1.055
 4936SOL    HW115707   2.653   3.100   1.097
 4936SOL    HW215708   2.594   3.244   1.048
 4937SOL     OW15709   4.683   2.832   5.123
 4937SOL    HW115710   4.624   2.900   5.079
 4937SOL    HW215711   4.683   2.748   5.068
 4938SOL     OW15712   3.795   5.660   5.892
 4938SOL    HW115713   3.848   5.614   5.963
 4938SOL    HW215714   3.807   5.612   5.805
 4939SOL     OW15715   4.378   3.205   5.764
 4939SOL    HW115716   4.360   3.123   5.709
 4939SOL    HW215717   4.338   3.194   5.855
 4940SOL     OW15718   2.589   6.509   4.531
 4940SOL    HW115719   2.590   6.533   4.628
 4940SOL    HW215720   2.554   6.587   4.478
 4941SOL     OW15721   5.379   0.651   0.671
 4941SOL    HW115722   5.375   0.593   0.753
 4941SOL    HW215723   5.301   0.714   0.671
 4942SOL     OW15724   4.915   3.750   5.197
 4942SOL    HW115725   4.981   3.681   5.227
 4942SOL    HW215726   4.839   3.706   5.149
 4943SOL     OW15727   4.562   2.313   1.060
 4943SOL    HW115728   4.566   2.251   0.982
 4943SOL    HW215729   4.523   2.401   1.031
 4944SOL     OW15730   2.554   4.532   2.219
 4944SOL    HW115731   2.462   4.538   2.180
 4944SOL    HW215732   2.576   4.436   2.239
 4945SOL     OW15733   0.420   6.937   4.365
 4945SOL    HW115734   0.326   6.970   4.354
 4945SOL    HW215735   0.446   6.947   4.461
 4946SOL     OW15736   1.409   3.557   2.400
 4946SOL    HW115737   1.420   3.497   2.320
 4946SOL    HW215738   1.438   3.650   2.376
 4947SOL     OW15739   0.551   6.769   0.618
 4947SOL    HW115740   0.641   6.809   0.636
 4947SOL    HW215741   0.563   6.677   0.579
 4948SOL     OW15742   2.489   1.181   1.914
 4948SOL    HW115743   2.544   1.143   1.838
 4948SOL    HW215744   2.525   1.270   1.940
 4949SOL     OW15745   5.487   1.578   4.335
 4949SOL    HW115746   5.473   1.676   4.319
 4949SOL    HW215747   5.543   1.540   4.261
 4950SOL     OW15748   3.262   5.554   4.575
 4950SOL    HW115749   3.266   5.475   4.514
 4950SOL    HW215750   3.213   5.529   4.659
 4951SOL     OW15751   4.230   2.321   3.743
 4951SOL    HW115752   4.189   2.282   3.661
 4951SOL    HW215753   4.268   2.410   3.722
 4952SOL     OW15754   0.391   6.067   5.319
 4952SOL    HW115755   0.292   6.069   5.333
 4952SOL    HW215756   0.411   6.052   5.222
 4953SOL     OW15757   2.133   5.447   1.839
 4953SOL    HW115758   2.163   5.374   1.777
 4953SOL    HW215759   2.063   5.411   1.901
 4954SOL     OW15760   5.576   5.834   6.630
 4954SOL    HW115761   5.644   5.848   6.702
 4954SOL    HW215762   5.507   5.907   6.634
 4955SOL     OW15763   1.431   6.302   1.285
 4955SOL    HW115764   1.358   6.233   1.293
 4955SOL    HW215765   1.462   6.327   1.377
 4956SOL     OW15766   4.449   6.507   4.162
 4956SOL    HW115767   4.397   6.423   4.174
 4956SOL    HW215768   4.512   6.496   4.085
 4957SOL     OW15769   0.970   0.686   3.987
 4957SOL    HW115770   1.056   0.675   4.038
 4957SOL    HW215771   0.896   0.705   4.050
 4958SOL     OW15772   7.008   5.953   0.433
 4958SOL    HW115773   0.072   5.943   0.377
 4958SOL    HW215774   6.950   6.025   0.393
 4959SOL     OW15775   0.747   0.794   1.158
 4959SOL    HW115776   0.762   0.695   1.160
 4959SOL    HW215777   0.718   0.825   1.249
 4960SOL     OW15778   4.011   0.025   4.658
 4960SOL    HW115779   4.057   0.045   4.572
 4960SOL    HW215780   4.080   0.012   4.730
 4961SOL     OW15781   4.620   0.788   5.204
 4961SOL    HW115782   4.718   0.776   5.218
 4961SOL    HW215783   4.574   0.789   5.292
 4962SOL     OW15784   6.944   1.189   0.667
 4962SOL    HW115785   6.926   1.102   0.622
 4962SOL    HW215786   0.016   1.186   0.710
 4963SOL     OW15787   0.372   4.735   1.599
 4963SOL    HW115788   0.315   4.685   1.665
 4963SOL    HW215789   0.313   4.793   1.542
 4964SOL     OW15790   3.720   6.601   3.073
 4964SOL    HW115791   3.795   6.663   3.050
 4964SOL    HW215792   3.646   6.612   3.006
 4965SOL     OW15793   6.778   0.236   4.550
 4965SOL    HW115794   6.691   0.271   4.586
 4965SOL    HW215795   6.779   0.136   4.556
 4966SOL     OW15796   3.381   4.898   3.738
 4966SOL    HW115797   3.419   4.912   3.647
 4966SOL    HW215798   3.297   4.845   3.731
 4967SOL     OW15799   4.009   2.532   5.750
 4967SOL    HW115800   3.964   2.557   5.664
 4967SOL    HW215801   4.010   2.610   5.812
 4968SOL     OW15802   5.962   2.767   5.296
 4968SOL    HW115803   6.023   2.717   5.357
 4968SOL    HW215804   6.012   2.840   5.251
 4969SOL     OW15805   1.308   1.538   1.772
 4969SOL    HW115806   1.332   1.477   1.696
 4969SOL    HW215807   1.392   1.577   1.810
 4970SOL     OW15808   0.925   2.307   5.791
 4970SOL    HW115809   0.914   2.381   5.725
 4970SOL    HW215810   0.865   2.322   5.869
 4971SOL     OW15811   5.617   5.981   3.629
 4971SOL    HW115812   5.715   5.979   3.650
 4971SOL    HW215813   5.572   6.050   3.685
 4972SOL     OW15814   1.642   2.800   6.238
 4972SOL    HW115815   1.617   2.726   6.176
 4972SOL    HW215816   1.602   2.784   6.328
 4973SOL     OW15817   5.256   6.673   2.554
 4973SOL    HW115818   5.234   6.591   2.606
 4973SOL    HW215819   5.172   6.725   2.535
 4974SOL     OW15820   5.268   7.014   2.189
 4974SOL    HW115821   5.284   0.087   2.228
 4974SOL    HW215822   5.308   6.945   2.249
 4975SOL     OW15823   5.519   5.844   0.438
 4975SOL    HW115824   5.528   5.830   0.537
 4975SOL    HW215825   5.597   5.802   0.392
 4976SOL     OW15826   4.040   0.806   5.060
 4976SOL    HW115827   3.955   0.796   5.009
 4976SOL    HW215828   4.110   0.748   5.018
 4977SOL     OW15829   3.659   3.964   0.359
 4977SOL    HW115830   3.584   3.955   0.293
 4977SOL    HW215831   3.625   4.012   0.441
 4978SOL     OW15832   5.682   2.862   6.384
 4978SOL    HW115833   5.601   2.918   6.405
 4978SOL    HW215834   5.686   2.784   6.447
 4979SOL     OW15835   1.325   0.899   5.790
 4979SOL    HW115836   1.274   0.815   5.806
 4979SOL    HW215837   1.312   0.962   5.867
 4980SOL     OW15838   2.416   5.321   2.116
 4980SOL    HW115839   2.464   5.352   2.199
 4980SOL    HW215840   2.339   5.382   2.098
 4981SOL     OW15841   4.444   6.656   5.369
 4981SOL    HW115842   4.432   6.565   5.328
 4981SOL    HW215843   4.449   6.646   5.469
 4982SOL     OW15844   2.252   3.280   0.522
 4982SOL    HW115845   2.186   3.277   0.447
 4982SOL    HW215846   2.256   3.190   0.567
 4983SOL     OW15847   5.244   3.206   4.229
 4983SOL    HW115848   5.234   3.236   4.133
 4983SOL    HW215849   5.206   3.277   4.289
 4984SOL     OW15850   4.748   4.086   2.605
 4984SOL    HW115851   4.658   4.048   2.586
 4984SOL    HW215852   4.796   4.102   2.518
 4985SOL     OW15853   5.558   4.887   2.652
 4985SOL    HW115854   5.628   4.887   2.724
 4985SOL    HW215855   5.526   4.980   2.638
 4986SOL     OW15856   4.488   4.869   2.079
 4986SOL    HW115857   4.405   4.923   2.064
 4986SOL    HW215858   4.463   4.778   2.113
 4987SOL     OW15859   6.920   3.468   1.698
 4987SOL    HW115860   7.000   3.498   1.647
 4987SOL    HW215861   6.844   3.451   1.636
 4988SOL     OW15862   0.464   2.104   4.468
 4988SOL    HW115863   0.484   2.197   4.497
 4988SOL    HW215864   0.544   2.046   4.483
 4989SOL     OW15865   0.869   0.898   0.271
 4989SOL    HW115866   0.852   0.927   0.365
 4989SOL    HW215867   0.899   0.803   0.270
 4990SOL     OW15868   0.946   2.220   5.318
 4990SOL    HW115869   0.992   2.135   5.292
 4990SOL    HW215870   1.011   2.296   5.314
 4991SOL     OW15871   1.324   2.760   4.359
 4991SOL    HW115872   1.277   2.786   4.275
 4991SOL    HW215873   1.297   2.822   4.433
 4992SOL     OW15874   3.511   0.437   6.084
 4992SOL    HW115875   3.576   0.497   6.131
 4992SOL    HW215876   3.548   0.410   5.995
 4993SOL     OW15877   2.970   6.029   3.936
 4993SOL    HW115878   2.997   6.042   3.841
 4993SOL    HW215879   3.031   5.962   3.980
 4994SOL     OW15880   0.105   6.633   2.584
 4994SOL    HW115881   0.055   6.546   2.584
 4994SOL    HW215882   0.102   6.673   2.493
 4995SOL     OW15883   5.791   2.804   6.100
 4995SOL    HW115884   5.792   2.707   6.122
 4995SOL    HW215885   5.793   2.857   6.185
 4996SOL     OW15886   1.110   1.360   3.709
 4996SOL    HW115887   1.142   1.427   3.642
 4996SOL    HW215888   1.121   1.268   3.672
 4997SOL     OW15889   0.540   2.510   3.656
 4997SOL    HW115890   0.515   2.603   3.632
 4997SOL    HW215891   0.461   2.464   3.698
 4998SOL     OW15892   1.889   5.451   4.759
 4998SOL    HW115893   1.969   5.465   4.818
 4998SOL    HW215894   1.840   5.538   4.750
 4999SOL     OW15895   5.903   4.917   1.330
 4999SOL    HW115896   5.806   4.920   1.307
 4999SOL    HW215897   5.955   4.887   1.250
 5000SOL     OW15898   0.379   6.203   4.321
 5000SOL    HW115899   0.386   6.299   4.348
 5000SOL    HW215900   0.446   6.149   4.372
 5001SOL     OW15901   4.493   4.339   5.813
 5001SOL    HW115902   4.487   4.383   5.723
 5001SOL    HW215903   4.560   4.265   5.809
 5002SOL     OW15904   2.246   1.262   2.025
 5002SOL    HW115905   2.281   1.218   1.942
 5002SOL    HW215906   2.294   1.226   2.105
 5003SOL     OW15907   6.624   5.666   2.989
 5003SOL    HW115908   6.540   5.686   3.040
 5003SOL    HW215909   6.703   5.686   3.047
 5004SOL     OW15910   3.257   5.602   7.012
 5004SOL    HW115911   3.186   5.667   0.021
 5004SOL    HW215912   3.308   5.638   6.935
 5005SOL     OW15913   4.579   2.121   6.847
 5005SOL    HW115914   4.534   2.185   6.909
 5005SOL    HW215915   4.515   2.095   6.774
 5006SOL     OW15916   5.473   6.106   4.307
 5006SOL    HW115917   5.427   6.192   4.287
 5006SOL    HW215918   5.549   6.122   4.370
 5007SOL     OW15919   3.848   1.566   5.477
 5007SOL    HW115920   3.815   1.619   5.398
 5007SOL    HW215921   3.846   1.624   5.559
 5008SOL     OW15922   6.289   1.362   3.701
 5008SOL    HW115923   6.313   1.427   3.630
 5008SOL    HW215924   6.280   1.410   3.788
 5009SOL     OW15925   1.540   6.464   3.384
 5009SOL    HW115926   1.471   6.418   3.440
 5009SOL    HW215927   1.505   6.476   3.292
 5010SOL     OW15928   3.768   3.226   4.339
 5010SOL    HW115929   3.813   3.141   4.366
 5010SOL    HW215930   3.730   3.215   4.247
 5011SOL     OW15931   1.225   2.817   2.743
 5011SOL    HW115932   1.283   2.777   2.814
 5011SOL    HW215933   1.281   2.838   2.662
 5012SOL     OW15934   6.315   2.395   6.693
 5012SOL    HW115935   6.354   2.379   6.784
 5012SOL    HW215936   6.296   2.307   6.649
 5013SOL     OW15937   3.989   1.074   6.440
 5013SOL    HW115938   3.949   1.160   6.472
 5013SOL    HW215939   3.954   0.999   6.495
 5014SOL     OW15940   5.972   6.544   0.196
 5014SOL    HW115941   5.890   6.532   0.140
 5014SOL    HW215942   6.040   6.475   0.172
 5015SOL     OW15943   4.799   2.396   3.431
 5015SOL    HW115944   4.862   2.397   3.353
 5015SOL    HW215945   4.754   2.485   3.438
 5016SOL     OW15946   1.653   0.034   2.911
 5016SOL    HW115947   1.750   0.057   2.923
 5016SOL    HW215948   1.623   6.995   2.987
 5017SOL     OW15949   2.554   2.836   1.424
 5017SOL    HW115950   2.521   2.765   1.487
 5017SOL    HW215951   2.571   2.920   1.475
 5018SOL     OW15952   6.788   5.762   3.989
 5018SOL    HW115953   6.794   5.707   4.072
 5018SOL    HW215954   6.725   5.838   4.004
 5019SOL     OW15955   2.002   4.709   6.426
 5019SOL    HW115956   2.003   4.610   6.414
 5019SOL    HW215957   1.986   4.731   6.522
 5020SOL     OW15958   5.051   5.632   6.470
 5020SOL    HW115959   5.005   5.721   6.473
 5020SOL    HW215960   5.144   5.644   6.434
 5021SOL     OW15961   1.604   4.659   6.490
 5021SOL    HW115962   1.632   4.742   6.539
 5021SOL    HW215963   1.673   4.588   6.503
 5022SOL     OW15964   1.020   5.548   0.399
 5022SOL    HW115965   1.013   5.644   0.426
 5022SOL    HW215966   1.083   5.501   0.461
 5023SOL     OW15967   6.074   3.180   2.506
 5023SOL    HW115968   6.110   3.155   2.596
 5023SOL    HW215969   6.115   3.266   2.476
 5024SOL     OW15970   6.248   3.684   4.657
 5024SOL    HW115971   6.222   3.591   4.686
 5024SOL    HW215972   6.321   3.717   4.716
 5025SOL     OW15973   5.829   1.083   3.446
 5025SOL    HW115974   5.775   1.007   3.409
 5025SOL    HW215975   5.924   1.075   3.415
 5026SOL     OW15976   0.962   6.545   4.210
 5026SOL    HW115977   1.022   6.520   4.286
 5026SOL    HW215978   1.019   6.571   4.131
 5027SOL     OW15979   0.942   6.811   3.704
 5027SOL    HW115980   0.915   6.767   3.790
 5027SOL    HW215981   1.025   6.768   3.669
 5028SOL     OW15982   0.269   0.408   2.694
 5028SOL    HW115983   0.358   0.373   2.723
 5028SOL    HW215984   0.198   0.375   2.757
 5029SOL     OW15985   0.164   1.298   1.754
 5029SOL    HW115986   0.176   1.201   1.775
 5029SOL    HW215987   0.127   1.345   1.834
 5030SOL     OW15988   1.529   5.947   6.796
 5030SOL    HW115989   1.542   6.036   6.753
 5030SOL    HW215990   1.611   5.922   6.847
 5031SOL     OW15991   5.488   0.214   5.034
 5031SOL    HW115992   5.444   0.146   5.093
 5031SOL    HW215993   5.427   0.235   4.957
 5032SOL     OW15994   1.857   5.579   1.128
 5032SOL    HW115995   1.778   5.630   1.162
 5032SOL    HW215996   1.831   5.525   1.048
 5033SOL     OW15997   1.868   4.310   5.574
 5033SOL    HW115998   1.920   4.391   5.601
 5033SOL    HW215999   1.929   4.242   5.534
 5034SOL     OW16000   6.755   3.495   1.254
 5034SOL    HW116001   6.854   3.493   1.238
 5034SOL    HW216002   6.735   3.453   1.343
 5035SOL     OW16003   5.865   4.226   0.937
 5035SOL    HW116004   5.949   4.202   0.986
 5035SOL    HW216005   5.794   4.159   0.959
 5036SOL     OW16006   1.352   0.426   1.970
 5036SOL    HW116007   1.316   0.347   2.019
 5036SOL    HW216008   1.450   0.415   1.957
 5037SOL     OW16009   4.434   2.275   3.527
 5037SOL    HW116010   4.511   2.286   3.464
 5037SOL    HW216011   4.447   2.335   3.606
 5038SOL     OW16012   2.652   6.498   5.584
 5038SOL    HW116013   2.681   6.531   5.494
 5038SOL    HW216014   2.604   6.411   5.574
 5039SOL     OW16015   1.666   1.786   4.747
 5039SOL    HW116016   1.730   1.711   4.766
 5039SOL    HW216017   1.682   1.860   4.812
 5040SOL     OW16018   2.603   3.482   5.849
 5040SOL    HW116019   2.540   3.549   5.808
 5040SOL    HW216020   2.571   3.390   5.828
 5041SOL     OW16021   1.431   4.629   0.530
 5041SOL    HW116022   1.491   4.653   0.607
 5041SOL    HW216023   1.338   4.615   0.563
 5042SOL     OW16024   5.781   2.532   6.153
 5042SOL    HW116025   5.714   2.486   6.211
 5042SOL    HW216026   5.846   2.464   6.117
 5043SOL     OW16027   4.442   0.455   3.721
 5043SOL    HW116028   4.367   0.397   3.752
 5043SOL    HW216029   4.529   0.409   3.739
 5044SOL     OW16030   6.680   4.617   3.313
 5044SOL    HW116031   6.712   4.537   3.364
 5044SOL    HW216032   6.580   4.616   3.308
 5045SOL     OW16033   6.301   2.846   6.594
 5045SOL    HW116034   6.364   2.924   6.590
 5045SOL    HW216035   6.217   2.873   6.640
 5046SOL     OW16036   3.274   3.081   4.728
 5046SOL    HW116037   3.302   3.136   4.649
 5046SOL    HW216038   3.327   2.997   4.731
 5047SOL     OW16039   1.003   0.911   2.775
 5047SOL    HW116040   1.016   0.960   2.861
 5047SOL    HW216041   0.905   0.900   2.757
 5048SOL     OW16042   5.695   2.785   1.845
 5048SOL    HW116043   5.727   2.691   1.837
 5048SOL    HW216044   5.757   2.845   1.794
 5049SOL     OW16045   1.453   2.418   2.736
 5049SOL    HW116046   1.451   2.518   2.737
 5049SOL    HW216047   1.536   2.386   2.782
 5050SOL     OW16048   0.760   3.334   1.326
 5050SOL    HW116049   0.685   3.399   1.317
 5050SOL    HW216050   0.837   3.378   1.373
 5051SOL     OW16051   2.947   5.214   0.254
 5051SOL    HW116052   3.044   5.224   0.234
 5051SOL    HW216053   2.901   5.172   0.176
 5052SOL     OW16054   5.412   4.655   1.294
 5052SOL    HW116055   5.382   4.579   1.235
 5052SOL    HW216056   5.502   4.686   1.264
 5053SOL     OW16057   2.257   4.677   0.465
 5053SOL    HW116058   2.179   4.626   0.501
 5053SOL    HW216059   2.237   4.707   0.372
 5054SOL     OW16060   3.855   5.637   4.757
 5054SOL    HW116061   3.864   5.647   4.856
 5054SOL    HW216062   3.773   5.684   4.725
 5055SOL     OW16063   1.490   2.102   4.499
 5055SOL    HW116064   1.438   2.019   4.522
 5055SOL    HW216065   1.525   2.094   4.406
 5056SOL     OW16066   1.670   3.058   5.356
 5056SOL    HW116067   1.687   3.059   5.455
 5056SOL    HW216068   1.727   3.128   5.312
 5057SOL     OW16069   0.569   4.663   2.835
 5057SOL    HW116070   0.485   4.717   2.841
 5057SOL    HW216071   0.552   4.579   2.784
 5058SOL     OW16072   3.584   4.045   6.625
 5058SOL    HW116073   3.682   4.060   6.611
 5058SOL    HW216074   3.534   4.130   6.608
 5059SOL     OW16075   3.350   1.512   3.503
 5059SOL    HW116076   3.350   1.416   3.530
 5059SOL    HW216077   3.404   1.565   3.570
 5060SOL     OW16078   0.387   3.118   6.047
 5060SOL    HW116079   0.346   3.208   6.030
 5060SOL    HW216080   0.440   3.122   6.132
 5061SOL     OW16081   3.732   2.866   5.677
 5061SOL    HW116082   3.750   2.797   5.747
 5061SOL    HW216083   3.783   2.950   5.699
 5062SOL     OW16084   4.994   1.452   3.237
 5062SOL    HW116085   4.981   1.455   3.336
 5062SOL    HW216086   5.019   1.543   3.204
 5063SOL     OW16087   0.855   0.655   2.742
 5063SOL    HW116088   0.855   0.591   2.818
 5063SOL    HW216089   0.940   0.646   2.690
 5064SOL     OW16090   4.609   5.916   1.016
 5064SOL    HW116091   4.659   5.899   0.931
 5064SOL    HW216092   4.639   5.853   1.086
 5065SOL     OW16093   2.380   0.460   2.325
 5065SOL    HW116094   2.332   0.444   2.239
 5065SOL    HW216095   2.314   0.466   2.400
 5066SOL     OW16096   2.727   4.800   1.885
 5066SOL    HW116097   2.697   4.834   1.974
 5066SOL    HW216098   2.796   4.728   1.899
 5067SOL     OW16099   4.750   2.962   0.331
 5067SOL    HW116100   4.788   2.915   0.411
 5067SOL    HW216101   4.821   2.974   0.262
 5068SOL     OW16102   2.792   6.242   0.850
 5068SOL    HW116103   2.723   6.174   0.826
 5068SOL    HW216104   2.751   6.333   0.850
 5069SOL     OW16105   3.207   4.835   5.582
 5069SOL    HW116106   3.298   4.799   5.602
 5069SOL    HW216107   3.137   4.776   5.624
 5070SOL     OW16108   6.117   3.414   3.595
 5070SOL    HW116109   6.151   3.492   3.648
 5070SOL    HW216110   6.136   3.329   3.644
 5071SOL     OW16111   2.904   0.637   4.431
 5071SOL    HW116112   2.823   0.627   4.374
 5071SOL    HW216113   2.877   0.646   4.527
 5072SOL     OW16114   0.551   1.401   0.340
 5072SOL    HW116115   0.482   1.339   0.376
 5072SOL    HW216116   0.575   1.373   0.247
 5073SOL     OW16117   2.312   1.098   2.594
 5073SOL    HW116118   2.258   1.104   2.510
 5073SOL    HW216119   2.340   1.003   2.608
 5074SOL     OW16120   3.389   2.365   1.711
 5074SOL    HW116121   3.331   2.311   1.773
 5074SOL    HW216122   3.481   2.373   1.749
 5075SOL     OW16123   0.954   3.550   7.005
 5075SOL    HW116124   0.975   3.478   0.053
 5075SOL    HW216125   0.965   3.640   0.029
 5076SOL     OW16126   5.643   0.119   6.408
 5076SOL    HW116127   5.680   0.197   6.459
 5076SOL    HW216128   5.554   0.143   6.369
 5077SOL     OW16129   0.900   4.586   3.957
 5077SOL    HW116130   0.815   4.638   3.951
 5077SOL    HW216131   0.961   4.630   4.023
 5078SOL     OW16132   0.902   1.617   4.140
 5078SOL    HW116133   0.933   1.592   4.048
 5078SOL    HW216134   0.823   1.679   4.132
 5079SOL     OW16135   1.300   2.874   5.459
 5079SOL    HW116136   1.361   2.938   5.504
 5079SOL    HW216137   1.243   2.828   5.528
 5080SOL     OW16138   5.909   5.605   6.690
 5080SOL    HW116139   5.878   5.595   6.785
 5080SOL    HW216140   5.965   5.687   6.682
 5081SOL     OW16141   3.285   5.110   5.623
 5081SOL    HW116142   3.243   5.021   5.606
 5081SOL    HW216143   3.362   5.123   5.561
 5082SOL     OW16144   5.390   5.816   2.354
 5082SOL    HW116145   5.415   5.757   2.431
 5082SOL    HW216146   5.457   5.806   2.281
 5083SOL     OW16147   1.595   0.112   3.391
 5083SOL    HW116148   1.602   0.171   3.310
 5083SOL    HW216149   1.499   0.103   3.417
 5084SOL     OW16150   1.766   4.875   5.393
 5084SOL    HW116151   1.826   4.823   5.454
 5084SOL    HW216152   1.769   4.835   5.301
 5085SOL     OW16153   0.464   4.175   6.035
 5085SOL    HW116154   0.486   4.265   6.073
 5085SOL    HW216155   0.477   4.178   5.936
 5086SOL     OW16156   2.276   5.648   2.403
 5086SOL    HW116157   2.264   5.720   2.335
 5086SOL    HW216158   2.188   5.629   2.447
 5087SOL     OW16159   6.802   4.919   1.802
 5087SOL    HW116160   6.855   4.838   1.828
 5087SOL    HW216161   6.849   4.967   1.729
 5088SOL     OW16162   5.266   6.342   1.805
 5088SOL    HW116163   5.247   6.359   1.901
 5088SOL    HW216164   5.275   6.243   1.789
 5089SOL     OW16165   5.640   5.081   5.561
 5089SOL    HW116166   5.621   4.986   5.584
 5089SOL    HW216167   5.739   5.096   5.561
 5090SOL     OW16168   2.993   0.202   4.956
 5090SOL    HW116169   3.006   0.112   4.915
 5090SOL    HW216170   3.080   0.252   4.957
 5091SOL     OW16171   6.300   6.881   6.974
 5091SOL    HW116172   6.236   6.915   6.906
 5091SOL    HW216173   6.251   6.824   0.022
 5092SOL     OW16174   2.922   3.397   3.978
 5092SOL    HW116175   2.915   3.477   4.038
 5092SOL    HW216176   2.952   3.318   4.032
 5093SOL     OW16177   2.075   2.173   3.033
 5093SOL    HW116178   2.109   2.144   2.943
 5093SOL    HW216179   2.149   2.167   3.100
 5094SOL     OW16180   2.523   5.280   5.582
 5094SOL    HW116181   2.472   5.300   5.498
 5094SOL    HW216182   2.613   5.322   5.577
 5095SOL     OW16183   6.438   1.475   3.194
 5095SOL    HW116184   6.458   1.526   3.110
 5095SOL    HW216185   6.477   1.383   3.187
 5096SOL     OW16186   5.746   3.053   5.342
 5096SOL    HW116187   5.746   3.017   5.435
 5096SOL    HW216188   5.792   3.142   5.341
 5097SOL     OW16189   1.264   0.445   6.317
 5097SOL    HW116190   1.206   0.501   6.259
 5097SOL    HW216191   1.239   0.460   6.413
 5098SOL     OW16192   3.901   2.351   1.277
 5098SOL    HW116193   3.949   2.367   1.190
 5098SOL    HW216194   3.939   2.410   1.347
 5099SOL     OW16195   1.076   0.326   1.897
 5099SOL    HW116196   1.082   0.425   1.886
 5099SOL    HW216197   1.008   0.305   1.967
 5100SOL     OW16198   5.810   4.567   2.569
 5100SOL    HW116199   5.727   4.564   2.513
 5100SOL    HW216200   5.886   4.527   2.519
 5101SOL     OW16201   3.899   6.970   6.156
 5101SOL    HW116202   3.905   7.003   6.250
 5101SOL    HW216203   3.813   7.002   6.115
 5102SOL     OW16204   4.916   4.450   4.626
 5102SOL    HW116205   4.949   4.400   4.706
 5102SOL    HW216206   4.842   4.398   4.582
 5103SOL     OW16207   1.217   1.149   6.594
 5103SOL    HW116208   1.170   1.113   6.513
 5103SOL    HW216209   1.160   1.136   6.675
 5104SOL     OW16210   3.553   3.653   1.575
 5104SOL    HW116211   3.456   3.638   1.591
 5104SOL    HW216212   3.582   3.602   1.494
 5105SOL     OW16213   4.089   4.013   6.309
 5105SOL    HW116214   4.078   4.022   6.210
 5105SOL    HW216215   4.036   3.934   6.341
 5106SOL     OW16216   4.261   2.565   0.490
 5106SOL    HW116217   4.298   2.521   0.572
 5106SOL    HW216218   4.337   2.595   0.432
 5107SOL     OW16219   4.687   3.466   0.395
 5107SOL    HW116220   4.652   3.372   0.385
 5107SOL    HW216221   4.610   3.529   0.402
 5108SOL     OW16222   4.025   5.014   6.842
 5108SOL    HW116223   4.065   5.055   6.924
 5108SOL    HW216224   3.951   4.953   6.868
 5109SOL     OW16225   1.130   2.845   1.265
 5109SOL    HW116226   1.107   2.770   1.202
 5109SOL    HW216227   1.138   2.809   1.358
 5110SOL     OW16228   4.852   0.681   6.063
 5110SOL    HW116229   4.876   0.700   6.158
 5110SOL    HW216230   4.820   0.766   6.019
 5111SOL     OW16231   0.923   6.655   4.923
 5111SOL    HW116232   0.992   6.592   4.959
 5111SOL    HW216233   0.918   6.736   4.982
 5112SOL     OW16234   0.069   0.122   2.731
 5112SOL    HW116235   6.997   0.083   2.718
 5112SOL    HW216236   0.124   0.060   2.788
 5113SOL     OW16237   1.961   3.756   0.197
 5113SOL    HW116238   1.919   3.745   0.107
 5113SOL    HW216239   2.046   3.809   0.188
 5114SOL     OW16240   4.778   5.586   0.684
 5114SOL    HW116241   4.701   5.535   0.723
 5114SOL    HW216242   4.744   5.661   0.629
 5115SOL     OW16243   2.300   3.589   1.095
 5115SOL    HW116244   2.230   3.541   1.041
 5115SOL    HW216245   2.293   3.687   1.079
 5116SOL     OW16246   1.896   6.927   6.626
 5116SOL    HW116247   1.950   7.007   6.654
 5116SOL    HW216248   1.936   6.887   6.544
 5117SOL     OW16249   1.262   2.228   3.868
 5117SOL    HW116250   1.185   2.167   3.885
 5117SOL    HW216251   1.345   2.188   3.907
 5118SOL     OW16252   5.160   6.210   6.387
 5118SOL    HW116253   5.231   6.281   6.389
 5118SOL    HW216254   5.135   6.185   6.480
 5119SOL     OW16255   5.256   1.528   0.580
 5119SOL    HW116256   5.320   1.591   0.535
 5119SOL    HW216257   5.197   1.485   0.511
 5120SOL     OW16258   5.378   6.824   5.711
 5120SOL    HW116259   5.323   6.756   5.662
 5120SOL    HW216260   5.355   6.822   5.808
 5121SOL     OW16261   1.589   4.129   6.683
 5121SOL    HW116262   1.567   4.177   6.598
 5121SOL    HW216263   1.678   4.161   6.716
 5122SOL     OW16264   5.070   5.169   4.197
 5122SOL    HW116265   5.116   5.179   4.286
 5122SOL    HW216266   4.973   5.148   4.212
 5123SOL     OW16267   5.454   2.896   1.913
 5123SOL    HW116268   5.532   2.838   1.889
 5123SOL    HW216269   5.370   2.842   1.913
 5124SOL     OW16270   2.201   5.952   3.726
 5124SOL    HW116271   2.139   5.923   3.799
 5124SOL    HW216272   2.221   6.049   3.738
 5125SOL     OW16273   0.078   1.741   3.683
 5125SOL    HW116274   0.115   1.694   3.603
 5125SOL    HW216275   7.011   1.697   3.711
 5126SOL     OW16276   2.182   0.119   0.247
 5126SOL    HW116277   2.174   0.085   0.153
 5126SOL    HW216278   2.163   0.045   0.311
 5127SOL     OW16279   1.550   5.212   6.926
 5127SOL    HW116280   1.638   5.259   6.919
 5127SOL    HW216281   1.516   5.191   6.834
 5128SOL     OW16282   6.413   6.478   1.579
 5128SOL    HW116283   6.383   6.550   1.516
 5128SOL    HW216284   6.366   6.392   1.557
 5129SOL     OW16285   5.639   6.715   1.214
 5129SOL    HW116286   5.723   6.707   1.160
 5129SOL    HW216287   5.659   6.768   1.297
 5130SOL     OW16288   6.804   5.013   3.043
 5130SOL    HW116289   6.809   4.921   3.004
 5130SOL    HW216290   6.890   5.034   3.089
 5131SOL     OW16291   2.514   2.539   3.071
 5131SOL    HW116292   2.493   2.604   2.998
 5131SOL    HW216293   2.591   2.481   3.043
 5132SOL     OW16294   2.853   5.629   5.193
 5132SOL    HW116295   2.833   5.678   5.109
 5132SOL    HW216296   2.952   5.617   5.202
 5133SOL     OW16297   3.689   6.327   6.359
 5133SOL    HW116298   3.775   6.378   6.363
 5133SOL    HW216299   3.686   6.275   6.274
 5134SOL     OW16300   0.277   3.614   0.504
 5134SOL    HW116301   0.183   3.636   0.476
 5134SOL    HW216302   0.328   3.580   0.426
 5135SOL     OW16303   6.510   1.753   4.644
 5135SOL    HW116304   6.478   1.658   4.647
 5135SOL    HW216305   6.473   1.797   4.562
 5136SOL     OW16306   4.000   1.550   3.892
 5136SOL    HW116307   3.933   1.504   3.834
 5136SOL    HW216308   4.092   1.529   3.859
 5137SOL     OW16309   3.521   4.527   6.489
 5137SOL    HW116310   3.608   4.494   6.528
 5137SOL    HW216311   3.510   4.624   6.509
 5138SOL     OW16312   2.470   3.655   5.662
 5138SOL    HW116313   2.419   3.739   5.646
 5138SOL    HW216314   2.486   3.608   5.575
 5139SOL     OW16315   0.652   0.292   3.589
 5139SOL    HW116316   0.654   0.210   3.646
 5139SOL    HW216317   0.714   0.280   3.511
 5140SOL     OW16318   3.232   2.788   1.141
 5140SOL    HW116319   3.217   2.694   1.110
 5140SOL    HW216320   3.248   2.788   1.239
 5141SOL     OW16321   6.152   3.527   6.755
 5141SOL    HW116322   6.162   3.495   6.661
 5141SOL    HW216323   6.072   3.485   6.797
 5142SOL     OW16324   5.622   3.514   4.501
 5142SOL    HW116325   5.595   3.434   4.448
 5142SOL    HW216326   5.664   3.485   4.587
 5143SOL     OW16327   6.754   5.383   4.179
 5143SOL    HW116328   6.730   5.353   4.087
 5143SOL    HW216329   6.845   5.425   4.179
 5144SOL     OW16330   1.418   1.358   5.400
 5144SOL    HW116331   1.436   1.289   5.470
 5144SOL    HW216332   1.418   1.314   5.310
 5145SOL     OW16333   2.859   5.247   5.829
 5145SOL    HW116334   2.811   5.332   5.807
 5145SOL    HW216335   2.951   5.250   5.790
 5146SOL     OW16336   2.747   5.082   0.093
 5146SOL    HW116337   2.753   4.987   0.062
 5146SOL    HW216338   2.659   5.120   0.065
 5147SOL     OW16339   5.916   4.554   6.547
 5147SOL    HW116340   5.874   4.643   6.530
 5147SOL    HW216341   5.946   4.549   6.642
 5148SOL     OW16342   0.595   5.982   1.598
 5148SOL    HW116343   0.529   6.043   1.640
 5148SOL    HW216344   0.547   5.907   1.553
 5149SOL     OW16345   0.009   1.358   4.420
 5149SOL    HW116346   0.109   1.355   4.415
 5149SOL    HW216347   6.999   1.433   4.480
 5150SOL     OW16348   1.717   4.794   4.370
 5150SOL    HW116349   1.736   4.802   4.468
 5150SOL    HW216350   1.787   4.738   4.327
 5151SOL     OW16351   4.256   1.020   6.551
 5151SOL    HW116352   4.297   1.043   6.462
 5151SOL    HW216353   4.169   1.068   6.561
 5152SOL     OW16354   0.583   4.986   0.108
 5152SOL    HW116355   0.625   4.898   0.086
 5152SOL    HW216356   0.570   4.994   0.207
 5153SOL     OW16357   1.725   1.920   0.624
 5153SOL    HW116358   1.794   1.910   0.695
 5153SOL    HW216359   1.749   1.863   0.546
 5154SOL     OW16360   1.768   2.855   4.749
 5154SOL    HW116361   1.779   2.845   4.651
 5154SOL    HW216362   1.778   2.766   4.794
 5155SOL     OW16363   3.150   0.539   2.451
 5155SOL    HW116364   3.073   0.567   2.393
 5155SOL    HW216365   3.232   0.588   2.423
 5156SOL     OW16366   5.885   2.647   5.053
 5156SOL    HW116367   5.914   2.708   5.127
 5156SOL    HW216368   5.935   2.668   4.970
 5157SOL     OW16369   5.134   3.126   3.431
 5157SOL    HW116370   5.220   3.172   3.449
 5157SOL    HW216371   5.152   3.036   3.390
 5158SOL     OW16372   4.073   1.612   1.416
 5158SOL    HW116373   4.137   1.662   1.357
 5158SOL    HW216374   4.072   1.654   1.507
 5159SOL     OW16375   1.739   3.173   3.982
 5159SOL    HW116376   1.822   3.134   3.943
 5159SOL    HW216377   1.671   3.101   3.996
 5160SOL     OW16378   1.880   3.098   4.233
 5160SOL    HW116379   1.829   3.129   4.153
 5160SOL    HW216380   1.905   3.177   4.289
 5161SOL     OW16381   1.291   3.205   5.614
 5161SOL    HW116382   1.347   3.123   5.608
 5161SOL    HW216383   1.312   3.265   5.536
 5162SOL     OW16384   6.803   6.410   4.193
 5162SOL    HW116385   6.890   6.437   4.235
 5162SOL    HW216386   6.782   6.316   4.221
 5163SOL     OW16387   5.774   3.861   0.859
 5163SOL    HW116388   5.803   3.838   0.767
 5163SOL    HW216389   5.821   3.802   0.925
 5164SOL     OW16390   5.856   3.858   6.034
 5164SOL    HW116391   5.862   3.945   6.083
 5164SOL    HW216392   5.911   3.789   6.081
 5165SOL     OW16393   6.446   4.449   4.344
 5165SOL    HW116394   6.500   4.387   4.287
 5165SOL    HW216395   6.419   4.529   4.291
 5166SOL     OW16396   1.244   6.425   1.900
 5166SOL    HW116397   1.246   6.422   2.000
 5166SOL    HW216398   1.164   6.374   1.867
 5167SOL     OW16399   0.514   6.495   6.092
 5167SOL    HW116400   0.574   6.417   6.105
 5167SOL    HW216401   0.539   6.543   6.008
 5168SOL     OW16402   4.006   2.186   2.871
 5168SOL    HW116403   3.970   2.164   2.781
 5168SOL    HW216404   4.067   2.265   2.864
 5169SOL     OW16405   3.632   4.221   5.893
 5169SOL    HW116406   3.553   4.184   5.844
 5169SOL    HW216407   3.622   4.204   5.991
 5170SOL     OW16408   5.496   4.031   4.978
 5170SOL    HW116409   5.427   4.016   4.908
 5170SOL    HW216410   5.584   4.049   4.935
 5171SOL     OW16411   2.505   4.503   4.347
 5171SOL    HW116412   2.582   4.449   4.382
 5171SOL    HW216413   2.539   4.592   4.316
 5172SOL     OW16414   0.912   5.315   1.660
 5172SOL    HW116415   0.995   5.284   1.614
 5172SOL    HW216416   0.908   5.275   1.752
 5173SOL     OW16417   5.521   3.401   5.936
 5173SOL    HW116418   5.453   3.385   6.008
 5173SOL    HW216419   5.524   3.322   5.875
 5174SOL     OW16420   1.192   4.525   6.090
 5174SOL    HW116421   1.119   4.561   6.031
 5174SOL    HW216422   1.278   4.569   6.066
 5175SOL     OW16423   0.190   4.805   6.666
 5175SOL    HW116424   0.200   4.888   6.609
 5175SOL    HW216425   0.187   4.725   6.607
 5176SOL     OW16426   5.702   3.465   0.382
 5176SOL    HW116427   5.645   3.544   0.360
 5176SOL    HW216428   5.781   3.495   0.436
 5177SOL     OW16429   5.099   6.998   6.322
 5177SOL    HW116430   5.066   7.018   6.414
 5177SOL    HW216431   5.030   0.007   6.255
 5178SOL     OW16432   2.482   2.563   1.918
 5178SOL    HW116433   2.420   2.501   1.871
 5178SOL    HW216434   2.463   2.657   1.891
 5179SOL     OW16435   2.953   6.226   5.798
 5179SOL    HW116436   2.856   6.217   5.818
 5179SOL    HW216437   2.988   6.139   5.762
 5180SOL     OW16438   2.855   1.711   1.557
 5180SOL    HW116439   2.795   1.774   1.508
 5180SOL    HW216440   2.943   1.755   1.575
 5181SOL     OW16441   4.275   6.663   2.624
 5181SOL    HW116442   4.285   6.587   2.687
 5181SOL    HW216443   4.249   6.745   2.674
 5182SOL     OW16444   4.996   4.444   1.810
 5182SOL    HW116445   4.903   4.414   1.831
 5182SOL    HW216446   5.031   4.501   1.884
 5183SOL     OW16447   4.544   0.355   2.298
 5183SOL    HW116448   4.558   0.257   2.312
 5183SOL    HW216449   4.465   0.369   2.239
 5184SOL     OW16450   0.870   1.036   3.199
 5184SOL    HW116451   0.882   1.127   3.159
 5184SOL    HW216452   0.795   1.038   3.264
 5185SOL     OW16453   3.924   0.740   2.329
 5185SOL    HW116454   3.866   0.741   2.411
 5185SOL    HW216455   3.918   0.829   2.283
 5186SOL     OW16456   6.324   4.497   0.551
 5186SOL    HW116457   6.372   4.425   0.601
 5186SOL    HW216458   6.243   4.458   0.506
 5187SOL     OW16459   5.091   2.053   3.826
 5187SOL    HW116460   5.024   2.107   3.775
 5187SOL    HW216461   5.114   1.970   3.776
 5188SOL     OW16462   1.132   3.893   5.830
 5188SOL    HW116463   1.143   3.992   5.821
 5188SOL    HW216464   1.196   3.859   5.900
 5189SOL     OW16465   4.729   5.699   6.505
 5189SOL    HW116466   4.658   5.719   6.437
 5189SOL    HW216467   4.687   5.695   6.596
 5190SOL     OW16468   1.433   2.313   3.618
 5190SOL    HW116469   1.395   2.314   3.710
 5190SOL    HW216470   1.502   2.241   3.610
 5191SOL     OW16471   3.848   0.082   1.715
 5191SOL    HW116472   3.901   0.101   1.798
 5191SOL    HW216473   3.852   7.003   1.695
 5192SOL     OW16474   6.016   5.298   2.584
 5192SOL    HW116475   5.938   5.278   2.643
 5192SOL    HW216476   5.995   5.378   2.528
 5193SOL     OW16477   4.909   3.857   2.618
 5193SOL    HW116478   4.864   3.778   2.578
 5193SOL    HW216479   4.840   3.924   2.646
 5194SOL     OW16480   5.956   0.654   5.530
 5194SOL    HW116481   5.905   0.622   5.610
 5194SOL    HW216482   6.053   0.658   5.553
 5195SOL     OW16483   6.932   5.813   6.020
 5195SOL    HW116484   6.929   5.762   5.934
 5195SOL    HW216485   6.845   5.860   6.033
 5196SOL     OW16486   0.221   3.913   2.213
 5196SOL    HW116487   0.134   3.939   2.172
 5196SOL    HW216488   0.287   3.892   2.141
 5197SOL     OW16489   3.160   6.035   4.752
 5197SOL    HW116490   3.137   5.999   4.661
 5197SOL    HW216491   3.125   5.973   4.822
 5198SOL     OW16492   4.526   6.861   5.191
 5198SOL    HW116493   4.515   6.789   5.260
 5198SOL    HW216494   4.566   6.822   5.108
 5199SOL     OW16495   1.278   4.730   1.859
 5199SOL    HW116496   1.240   4.648   1.816
 5199SOL    HW216497   1.207   4.801   1.864
 5200SOL     OW16498   6.698   0.517   5.381
 5200SOL    HW116499   6.680   0.614   5.366
 5200SOL    HW216500   6.784   0.491   5.337
 5201SOL     OW16501   6.407   5.103   4.174
 5201SOL    HW116502   6.317   5.059   4.166
 5201SOL    HW216503   6.420   5.165   4.097
 5202SOL     OW16504   3.796   2.826   6.348
 5202SOL    HW116505   3.865   2.888   6.312
 5202SOL    HW216506   3.839   2.760   6.409
 5203SOL     OW16507   1.829   0.252   0.229
 5203SOL    HW116508   1.827   0.260   0.328
 5203SOL    HW216509   1.737   0.262   0.192
 5204SOL     OW16510   3.073   0.741   0.212
 5204SOL    HW116511   3.147   0.733   0.145
 5204SOL    HW216512   2.989   0.768   0.167
 5205SOL     OW16513   0.542   5.842   1.190
 5205SOL    HW116514   0.604   5.786   1.135
 5205SOL    HW216515   0.590   5.923   1.223
 5206SOL     OW16516   1.023   4.765   4.128
 5206SOL    HW116517   0.951   4.816   4.175
 5206SOL    HW216518   1.071   4.707   4.194
 5207SOL     OW16519   0.246   0.318   3.553
 5207SOL    HW116520   0.230   0.260   3.473
 5207SOL    HW216521   0.288   0.264   3.626
 5208SOL     OW16522   4.982   1.997   0.439
 5208SOL    HW116523   4.882   1.999   0.429
 5208SOL    HW216524   5.007   2.018   0.533
 5209SOL     OW16525   5.621   6.129   2.561
 5209SOL    HW116526   5.678   6.047   2.561
 5209SOL    HW216527   5.525   6.104   2.552
 5210SOL     OW16528   5.506   4.226   0.077
 5210SOL    HW116529   5.460   4.237   7.007
 5210SOL    HW216530   5.467   4.291   0.143
 5211SOL     OW16531   4.801   3.083   4.743
 5211SOL    HW116532   4.705   3.107   4.752
 5211SOL    HW216533   4.814   2.985   4.760
 5212SOL     OW16534   1.067   3.642   0.461
 5212SOL    HW116535   1.119   3.591   0.529
 5212SOL    HW216536   1.023   3.720   0.505
 5213SOL     OW16537   4.056   3.668   2.482
 5213SOL    HW116538   4.133   3.641   2.424
 5213SOL    HW216539   4.021   3.588   2.530
 5214SOL     OW16540   5.307   3.734   5.462
 5214SOL    HW116541   5.402   3.766   5.452
 5214SOL    HW216542   5.288   3.718   5.559
 5215SOL     OW16543   0.348   3.792   5.061
 5215SOL    HW116544   0.425   3.729   5.054
 5215SOL    HW216545   0.382   3.883   5.086
 5216SOL     OW16546   5.117   5.393   1.263
 5216SOL    HW116547   5.065   5.477   1.276
 5216SOL    HW216548   5.161   5.394   1.173
 5217SOL     OW16549   4.291   6.128   3.535
 5217SOL    HW116550   4.379   6.103   3.575
 5217SOL    HW216551   4.238   6.181   3.601
 5218SOL     OW16552   0.702   0.138   1.343
 5218SOL    HW116553   0.752   0.201   1.403
 5218SOL    HW216554   0.680   0.184   1.258
 5219SOL     OW16555   3.268   1.686   4.955
 5219SOL    HW116556   3.201   1.748   4.915
 5219SOL    HW216557   3.320   1.641   4.882
 5220SOL     OW16558   2.216   4.551   3.906
 5220SOL    HW116559   2.261   4.489   3.970
 5220SOL    HW216560   2.282   4.581   3.836
 5221SOL     OW16561   6.395   5.857   0.986
 5221SOL    HW116562   6.383   5.819   1.078
 5221SOL    HW216563   6.489   5.891   0.976
 5222SOL     OW16564   6.038   3.801   0.985
 5222SOL    HW116565   6.077   3.759   0.903
 5222SOL    HW216566   6.088   3.771   1.066
 5223SOL     OW16567   0.371   3.143   0.922
 5223SOL    HW116568   0.398   3.186   0.835
 5223SOL    HW216569   0.274   3.160   0.939
 5224SOL     OW16570   0.302   2.345   4.779
 5224SOL    HW116571   0.401   2.357   4.770
 5224SOL    HW216572   0.256   2.398   4.707
 5225SOL     OW16573   0.182   1.864   4.782
 5225SOL    HW116574   0.118   1.871   4.858
 5225SOL    HW216575   0.186   1.952   4.733
 5226SOL     OW16576   0.802   6.706   3.942
 5226SOL    HW116577   0.733   6.718   4.014
 5226SOL    HW216578   0.833   6.611   3.941
 5227SOL     OW16579   0.054   2.883   5.351
 5227SOL    HW116580   0.082   2.922   5.438
 5227SOL    HW216581   6.983   2.838   5.361
 5228SOL     OW16582   0.989   1.560   5.831
 5228SOL    HW116583   1.015   1.650   5.796
 5228SOL    HW216584   0.984   1.494   5.755
 5229SOL     OW16585   3.056   1.263   6.033
 5229SOL    HW116586   3.005   1.211   6.101
 5229SOL    HW216587   3.051   1.216   5.945
 5230SOL     OW16588   6.654   6.717   2.017
 5230SOL    HW116589   6.645   6.648   1.945
 5230SOL    HW216590   6.571   6.773   2.020
 5231SOL     OW16591   6.624   2.105   1.735
 5231SOL    HW116592   6.580   2.033   1.680
 5231SOL    HW216593   6.558   2.178   1.752
 5232SOL     OW16594   1.551   2.724   5.728
 5232SOL    HW116595   1.544   2.814   5.686
 5232SOL    HW216596   1.463   2.700   5.770
 5233SOL     OW16597   2.558   0.076   2.949
 5233SOL    HW116598   2.657   0.072   2.962
 5233SOL    HW216599   2.537   0.092   2.852
 5234SOL     OW16600   1.797   2.137   0.212
 5234SOL    HW116601   1.729   2.064   0.219
 5234SOL    HW216602   1.861   2.130   0.288
 5235SOL     OW16603   2.208   2.440   1.483
 5235SOL    HW116604   2.136   2.490   1.434
 5235SOL    HW216605   2.254   2.378   1.420
 5236SOL     OW16606   3.510   5.384   1.674
 5236SOL    HW116607   3.539   5.474   1.704
 5236SOL    HW216608   3.425   5.391   1.622
 5237SOL     OW16609   1.791   2.128   2.776
 5237SOL    HW116610   1.839   2.209   2.743
 5237SOL    HW216611   1.748   2.081   2.699
 5238SOL     OW16612   0.717   6.599   2.931
 5238SOL    HW116613   0.626   6.611   2.971
 5238SOL    HW216614   0.731   6.669   2.860
 5239SOL     OW16615   2.557   3.607   1.165
 5239SOL    HW116616   2.588   3.687   1.113
 5239SOL    HW216617   2.462   3.586   1.143
 5240SOL     OW16618   1.853   3.441   5.615
 5240SOL    HW116619   1.930   3.504   5.628
 5240SOL    HW216620   1.888   3.349   5.595
 5241SOL     OW16621   0.543   5.527   1.981
 5241SOL    HW116622   0.639   5.532   1.951
 5241SOL    HW216623   0.533   5.454   2.048
 5242SOL     OW16624   4.632   0.329   6.829
 5242SOL    HW116625   4.610   0.417   6.788
 5242SOL    HW216626   4.548   0.283   6.857
 5243SOL     OW16627   2.563   6.635   2.282
 5243SOL    HW116628   2.571   6.637   2.182
 5243SOL    HW216629   2.478   6.588   2.308
 5244SOL     OW16630   4.402   2.256   7.013
 5244SOL    HW116631   4.314   2.213   0.009
 5244SOL    HW216632   4.402   2.348   0.036
 5245SOL     OW16633   3.969   3.494   1.601
 5245SOL    HW116634   4.068   3.504   1.588
 5245SOL    HW216635   3.933   3.428   1.536
 5246SOL     OW16636   6.093   3.342   0.354
 5246SOL    HW116637   6.037   3.318   0.432
 5246SOL    HW216638   6.074   3.436   0.326
 5247SOL     OW16639   4.027   1.819   6.385
 5247SOL    HW116640   4.013   1.807   6.483
 5247SOL    HW216641   4.021   1.730   6.339
 5248SOL     OW16642   6.873   0.922   3.542
 5248SOL    HW116643   6.891   1.012   3.581
 5248SOL    HW216644   6.777   0.899   3.555
 5249SOL     OW16645   0.256   4.833   6.973
 5249SOL    HW116646   0.263   4.774   6.892
 5249SOL    HW216647   0.195   4.910   6.953
 5250SOL     OW16648   1.958   5.383   1.260
 5250SOL    HW116649   1.876   5.350   1.307
 5250SOL    HW216650   1.932   5.450   1.189
 5251SOL     OW16651   0.738   4.871   0.561
 5251SOL    HW116652   0.724   4.776   0.591
 5251SOL    HW216653   0.778   4.924   0.636
 5252SOL     OW16654   4.265   6.797   2.374
 5252SOL    HW116655   4.311   6.823   2.459
 5252SOL    HW216656   4.190   6.734   2.395
 5253SOL     OW16657   6.738   5.990   4.508
 5253SOL    HW116658   6.835   5.969   4.509
 5253SOL    HW216659   6.726   6.089   4.521
 5254SOL     OW16660   5.615   6.992   3.905
 5254SOL    HW116661   5.541   0.041   3.911
 5254SOL    HW216662   5.636   6.958   3.997
 5255SOL     OW16663   5.922   1.612   5.467
 5255SOL    HW116664   5.960   1.667   5.541
 5255SOL    HW216665   5.947   1.651   5.379
 5256SOL     OW16666   0.098   1.627   2.628
 5256SOL    HW116667   0.062   1.720   2.617
 5256SOL    HW216668   0.136   1.595   2.542
 5257SOL     OW16669   3.883   0.696   6.087
 5257SOL    HW116670   3.876   0.662   5.994
 5257SOL    HW216671   3.978   0.716   6.109
 5258SOL     OW16672   4.074   1.467   2.944
 5258SOL    HW116673   4.034   1.467   3.035
 5258SOL    HW216674   4.168   1.433   2.949
 5259SOL     OW16675   6.450   5.455   3.385
 5259SOL    HW116676   6.478   5.362   3.410
 5259SOL    HW216677   6.392   5.451   3.303
 5260SOL     OW16678   2.535   1.181   0.663
 5260SOL    HW116679   2.592   1.229   0.597
 5260SOL    HW216680   2.472   1.120   0.615
 5261SOL     OW16681   5.522   3.950   0.071
 5261SOL    HW116682   5.495   4.043   0.046
 5261SOL    HW216683   5.568   3.907   7.012
 5262SOL     OW16684   1.972   0.729   2.721
 5262SOL    HW116685   1.887   0.702   2.765
 5262SOL    HW216686   2.049   0.690   2.771
 5263SOL     OW16687   1.258   6.452   2.170
 5263SOL    HW116688   1.164   6.442   2.204
 5263SOL    HW216689   1.322   6.442   2.246
 5264SOL     OW16690   6.177   1.647   1.785
 5264SOL    HW116691   6.173   1.687   1.694
 5264SOL    HW216692   6.119   1.565   1.789
 5265SOL     OW16693   6.437   5.089   4.544
 5265SOL    HW116694   6.533   5.100   4.519
 5265SOL    HW216695   6.385   5.169   4.513
 5266SOL     OW16696   1.937   0.426   0.026
 5266SOL    HW116697   1.914   0.375   6.961
 5266SOL    HW216698   1.904   0.377   0.106
 5267SOL     OW16699   5.347   2.989   4.381
 5267SOL    HW116700   5.321   3.066   4.324
 5267SOL    HW216701   5.293   2.990   4.466
 5268SOL     OW16702   5.299   0.500   6.161
 5268SOL    HW116703   5.340   0.589   6.178
 5268SOL    HW216704   5.206   0.512   6.125
 5269SOL     OW16705   0.452   6.831   4.003
 5269SOL    HW116706   0.454   6.798   4.097
 5269SOL    HW216707   0.489   6.924   4.000
 5270SOL     OW16708   0.121   2.109   5.702
 5270SOL    HW116709   0.081   2.114   5.794
 5270SOL    HW216710   0.131   2.014   5.674
 5271SOL     OW16711   0.600   4.791   3.124
 5271SOL    HW116712   0.656   4.720   3.167
 5271SOL    HW216713   0.649   4.828   3.045
 5272SOL     OW16714   4.764   0.836   0.196
 5272SOL    HW116715   4.675   0.790   0.193
 5272SOL    HW216716   4.751   0.933   0.175
 5273SOL     OW16717   1.504   2.132   2.890
 5273SOL    HW116718   1.558   2.053   2.862
 5273SOL    HW216719   1.461   2.113   2.979
 5274SOL     OW16720   4.871   5.155   1.850
 5274SOL    HW116721   4.818   5.217   1.792
 5274SOL    HW216722   4.935   5.103   1.793
 5275SOL     OW16723   4.320   1.771   6.575
 5275SOL    HW116724   4.256   1.695   6.561
 5275SOL    HW216725   4.350   1.805   6.486
 5276SOL     OW16726   4.697   6.434   2.307
 5276SOL    HW116727   4.712   6.533   2.302
 5276SOL    HW216728   4.692   6.397   2.214
 5277SOL     OW16729   2.453   2.799   1.770
 5277SOL    HW116730   2.433   2.887   1.726
 5277SOL    HW216731   2.434   2.725   1.707
 5278SOL     OW16732   4.578   3.942   1.447
 5278SOL    HW116733   4.513   4.009   1.482
 5278SOL    HW216734   4.663   3.947   1.500
 5279SOL     OW16735   2.675   5.685   2.728
 5279SOL    HW116736   2.761   5.727   2.755
 5279SOL    HW216737   2.601   5.721   2.785
 5280SOL     OW16738   5.174   6.160   4.467
 5280SOL    HW116739   5.077   6.149   4.448
 5280SOL    HW216740   5.209   6.078   4.512
 5281SOL     OW16741   0.067   2.026   1.675
 5281SOL    HW116742   0.097   1.955   1.739
 5281SOL    HW216743   0.143   2.089   1.658
 5282SOL     OW16744   4.614   1.966   2.405
 5282SOL    HW116745   4.694   1.924   2.363
 5282SOL    HW216746   4.533   1.947   2.350
 5283SOL     OW16747   5.160   4.855   6.650
 5283SOL    HW116748   5.126   4.924   6.714
 5283SOL    HW216749   5.235   4.805   6.692
 5284SOL     OW16750   5.753   3.071   3.830
 5284SOL    HW116751   5.768   3.108   3.922
 5284SOL    HW216752   5.782   2.975   3.827
 5285SOL     OW16753   3.390   5.826   3.344
 5285SOL    HW116754   3.324   5.818   3.419
 5285SOL    HW216755   3.348   5.876   3.268
 5286SOL     OW16756   2.151   4.757   1.994
 5286SOL    HW116757   2.066   4.751   2.048
 5286SOL    HW216758   2.187   4.850   1.999
 5287SOL     OW16759   0.995   1.502   1.332
 5287SOL    HW116760   0.997   1.569   1.407
 5287SOL    HW216761   0.904   1.460   1.328
 5288SOL     OW16762   4.134   0.464   0.484
 5288SOL    HW116763   4.059   0.401   0.505
 5288SOL    HW216764   4.111   0.555   0.518
 5289SOL     OW16765   2.288   5.268   1.373
 5289SOL    HW116766   2.354   5.306   1.308
 5289SOL    HW216767   2.256   5.340   1.434
 5290SOL     OW16768   4.963   5.781   0.540
 5290SOL    HW116769   5.020   5.755   0.618
 5290SOL    HW216770   4.946   5.880   0.543
 5291SOL     OW16771   1.490   5.100   5.975
 5291SOL    HW116772   1.497   5.088   5.876
 5291SOL    HW216773   1.470   5.012   6.017
 5292SOL     OW16774   4.830   3.023   5.780
 5292SOL    HW116775   4.802   3.051   5.872
 5292SOL    HW216776   4.758   2.967   5.739
 5293SOL     OW16777   0.574   0.798   4.544
 5293SOL    HW116778   0.492   0.793   4.601
 5293SOL    HW216779   0.613   0.706   4.533
 5294SOL     OW16780   5.393   1.978   5.406
 5294SOL    HW116781   5.336   2.032   5.344
 5294SOL    HW216782   5.339   1.955   5.488
 5295SOL     OW16783   6.002   0.858   2.038
 5295SOL    HW116784   5.990   0.804   2.121
 5295SOL    HW216785   6.054   0.806   1.970
 5296SOL     OW16786   0.828   4.457   0.364
 5296SOL    HW116787   0.925   4.443   0.344
 5296SOL    HW216788   0.816   4.469   0.463
 5297SOL     OW16789   1.857   3.072   1.572
 5297SOL    HW116790   1.802   3.155   1.566
 5297SOL    HW216791   1.842   3.028   1.661
 5298SOL     OW16792   0.944   4.834   1.640
 5298SOL    HW116793   0.940   4.799   1.733
 5298SOL    HW216794   1.036   4.870   1.622
 5299SOL     OW16795   3.323   0.488   1.790
 5299SOL    HW116796   3.332   0.579   1.749
 5299SOL    HW216797   3.323   0.419   1.717
 5300SOL     OW16798   0.112   5.385   3.175
 5300SOL    HW116799   0.097   5.308   3.114
 5300SOL    HW216800   0.118   5.353   3.269
 5301SOL     OW16801   4.927   1.115   0.127
 5301SOL    HW116802   4.860   1.122   0.053
 5301SOL    HW216803   4.904   1.182   0.198
 5302SOL     OW16804   6.388   4.573   3.333
 5302SOL    HW116805   6.321   4.505   3.302
 5302SOL    HW216806   6.341   4.656   3.362
 5303SOL     OW16807   0.581   4.842   3.689
 5303SOL    HW116808   0.606   4.758   3.737
 5303SOL    HW216809   0.660   4.903   3.687
 5304SOL     OW16810   5.384   1.965   5.738
 5304SOL    HW116811   5.352   1.879   5.699
 5304SOL    HW216812   5.472   1.990   5.698
 5305SOL     OW16813   2.765   0.952   3.049
 5305SOL    HW116814   2.731   0.993   2.965
 5305SOL    HW216815   2.735   1.008   3.127
 5306SOL     OW16816   2.606   0.360   5.133
 5306SOL    HW116817   2.633   0.268   5.162
 5306SOL    HW216818   2.597   0.419   5.213
 5307SOL     OW16819   4.519   6.748   6.597
 5307SOL    HW116820   4.426   6.717   6.577
 5307SOL    HW216821   4.571   6.753   6.512
 5308SOL     OW16822   6.602   0.837   3.428
 5308SOL    HW116823   6.599   0.915   3.366
 5308SOL    HW216824   6.591   0.752   3.375
 5309SOL     OW16825   3.786   3.692   3.893
 5309SOL    HW116826   3.874   3.740   3.890
 5309SOL    HW216827   3.783   3.623   3.820
 5310SOL     OW16828   5.587   1.984   0.465
 5310SOL    HW116829   5.656   1.935   0.517
 5310SOL    HW216830   5.611   2.081   0.460
 5311SOL     OW16831   1.991   5.869   6.861
 5311SOL    HW116832   2.038   5.925   6.793
 5311SOL    HW216833   2.057   5.836   6.929
 5312SOL     OW16834   0.365   2.588   2.106
 5312SOL    HW116835   0.311   2.570   2.189
 5312SOL    HW216836   0.367   2.686   2.088
 5313SOL     OW16837   1.444   5.660   6.923
 5313SOL    HW116838   1.532   5.655   6.969
 5313SOL    HW216839   1.438   5.746   6.871
 5314SOL     OW16840   3.199   5.171   0.897
 5314SOL    HW116841   3.215   5.184   0.800
 5314SOL    HW216842   3.102   5.155   0.913
 5315SOL     OW16843   5.211   3.253   2.587
 5315SOL    HW116844   5.177   3.221   2.676
 5315SOL    HW216845   5.150   3.323   2.552
 5316SOL     OW16846   6.580   5.263   4.992
 5316SOL    HW116847   6.526   5.208   4.928
 5316SOL    HW216848   6.670   5.281   4.953
 5317SOL     OW16849   5.624   6.052   2.943
 5317SOL    HW116850   5.684   6.074   2.866
 5317SOL    HW216851   5.641   5.958   2.973
 5318SOL     OW16852   0.322   2.679   5.007
 5318SOL    HW116853   0.258   2.647   5.077
 5318SOL    HW216854   0.413   2.644   5.026
 5319SOL     OW16855   3.894   6.859   1.632
 5319SOL    HW116856   3.993   6.875   1.624
 5319SOL    HW216857   3.871   6.772   1.588
 5320SOL     OW16858   5.683   3.554   6.090
 5320SOL    HW116859   5.638   3.606   6.162
 5320SOL    HW216860   5.613   3.518   6.027
 5321SOL     OW16861   1.692   5.099   6.492
 5321SOL    HW116862   1.779   5.146   6.505
 5321SOL    HW216863   1.703   5.028   6.422
 5322SOL     OW16864   3.291   6.205   0.419
 5322SOL    HW116865   3.294   6.105   0.421
 5322SOL    HW216866   3.225   6.235   0.350
 5323SOL     OW16867   6.341   3.299   0.292
 5323SOL    HW116868   6.253   3.319   0.335
 5323SOL    HW216869   6.362   3.369   0.224
 5324SOL     OW16870   3.724   2.905   1.593
 5324SOL    HW116871   3.790   2.953   1.651
 5324SOL    HW216872   3.653   2.865   1.650
 5325SOL     OW16873   4.966   6.022   3.825
 5325SOL    HW116874   4.888   5.963   3.843
 5325SOL    HW216875   5.011   5.993   3.740
 5326SOL     OW16876   6.774   0.295   2.383
 5326SOL    HW116877   6.691   0.258   2.342
 5326SOL    HW216878   6.849   0.290   2.317
 5327SOL     OW16879   6.628   0.548   4.881
 5327SOL    HW116880   6.717   0.505   4.891
 5327SOL    HW216881   6.639   0.645   4.859
 5328SOL     OW16882   3.700   5.181   0.798
 5328SOL    HW116883   3.639   5.130   0.738
 5328SOL    HW216884   3.662   5.181   0.891
 5329SOL     OW16885   6.637   5.241   0.337
 5329SOL    HW116886   6.736   5.226   0.338
 5329SOL    HW216887   6.596   5.197   0.417
 5330SOL     OW16888   3.787   4.974   0.275
 5330SOL    HW116889   3.712   4.996   0.211
 5330SOL    HW216890   3.865   5.033   0.256
 5331SOL     OW16891   4.300   2.746   6.672
 5331SOL    HW116892   4.320   2.670   6.610
 5331SOL    HW216893   4.365   2.745   6.748
 5332SOL     OW16894   6.512   3.095   0.227
 5332SOL    HW116895   6.455   3.164   0.272
 5332SOL    HW216896   6.460   3.010   0.218
 5333SOL     OW16897   1.231   1.833   4.076
 5333SOL    HW116898   1.174   1.752   4.061
 5333SOL    HW216899   1.327   1.809   4.063
 5334SOL     OW16900   3.373   5.818   1.918
 5334SOL    HW116901   3.378   5.776   2.009
 5334SOL    HW216902   3.319   5.759   1.858
 5335SOL     OW16903   0.333   4.192   1.317
 5335SOL    HW116904   0.323   4.264   1.385
 5335SOL    HW216905   0.307   4.227   1.227
 5336SOL     OW16906   1.532   3.047   4.567
 5336SOL    HW116907   1.608   3.049   4.503
 5336SOL    HW216908   1.556   3.097   4.650
 5337SOL     OW16909   5.921   5.376   0.534
 5337SOL    HW116910   5.918   5.476   0.543
 5337SOL    HW216911   6.017   5.346   0.529
 5338SOL     OW16912   6.119   3.456   1.068
 5338SOL    HW116913   6.150   3.551   1.075
 5338SOL    HW216914   6.192   3.395   1.101
 5339SOL     OW16915   5.564   3.835   2.879
 5339SOL    HW116916   5.545   3.921   2.831
 5339SOL    HW216917   5.483   3.776   2.873
 5340SOL     OW16918   5.052   3.897   2.332
 5340SOL    HW116919   5.021   3.869   2.241
 5340SOL    HW216920   5.039   3.821   2.396
 5341SOL     OW16921   4.043   4.825   3.891
 5341SOL    HW116922   4.116   4.762   3.921
 5341SOL    HW216923   4.048   4.837   3.792
 5342SOL     OW16924   6.518   5.948   4.842
 5342SOL    HW116925   6.554   5.863   4.879
 5342SOL    HW216926   6.591   6.000   4.798
 5343SOL     OW16927   3.202   2.709   6.670
 5343SOL    HW116928   3.175   2.794   6.624
 5343SOL    HW216929   3.161   2.706   6.762
 5344SOL     OW16930   1.010   1.573   6.274
 5344SOL    HW116931   1.042   1.501   6.335
 5344SOL    HW216932   0.913   1.560   6.254
 5345SOL     OW16933   4.296   1.241   6.846
 5345SOL    HW116934   4.367   1.186   6.803
 5345SOL    HW216935   4.310   1.337   6.823
 5346SOL     OW16936   3.088   6.412   3.559
 5346SOL    HW116937   3.140   6.435   3.477
 5346SOL    HW216938   3.007   6.471   3.565
 5347SOL     OW16939   5.559   1.788   3.959
 5347SOL    HW116940   5.499   1.865   3.982
 5347SOL    HW216941   5.652   1.821   3.946
 5348SOL     OW16942   5.079   2.712   4.343
 5348SOL    HW116943   5.047   2.796   4.299
 5348SOL    HW216944   5.126   2.655   4.275
 5349SOL     OW16945   0.785   3.515   1.696
 5349SOL    HW116946   0.752   3.600   1.655
 5349SOL    HW216947   0.779   3.522   1.795
 5350SOL     OW16948   0.946   6.137   6.892
 5350SOL    HW116949   0.995   6.063   6.845
 5350SOL    HW216950   1.012   6.203   6.929
 5351SOL     OW16951   6.397   6.184   3.283
 5351SOL    HW116952   6.350   6.160   3.368
 5351SOL    HW216953   6.338   6.242   3.227
 5352SOL     OW16954   1.152   3.101   5.836
 5352SOL    HW116955   1.198   3.134   5.754
 5352SOL    HW216956   1.053   3.107   5.822
 5353SOL     OW16957   3.982   5.087   3.843
 5353SOL    HW116958   3.989   4.993   3.878
 5353SOL    HW216959   4.036   5.148   3.900
 5354SOL     OW16960   4.101   6.133   1.117
 5354SOL    HW116961   4.031   6.199   1.090
 5354SOL    HW216962   4.184   6.150   1.065
 5355SOL     OW16963   5.462   4.360   5.327
 5355SOL    HW116964   5.422   4.270   5.312
 5355SOL    HW216965   5.414   4.405   5.402
 5356SOL     OW16966   6.991   5.657   1.035
 5356SOL    HW116967   6.971   5.739   1.087
 5356SOL    HW216968   0.072   5.642   1.031
 5357SOL     OW16969   6.389   3.655   2.920
 5357SOL    HW116970   6.289   3.662   2.916
 5357SOL    HW216971   6.415   3.558   2.918
 5358SOL     OW16972   4.262   1.574   0.047
 5358SOL    HW116973   4.216   1.510   0.110
 5358SOL    HW216974   4.302   1.522   6.990
 5359SOL     OW16975   3.353   1.973   6.847
 5359SOL    HW116976   3.400   2.047   6.896
 5359SOL    HW216977   3.276   1.941   6.901
 5360SOL     OW16978   5.649   4.737   4.103
 5360SOL    HW116979   5.711   4.659   4.088
 5360SOL    HW216980   5.686   4.795   4.176
 5361SOL     OW16981   1.510   5.448   2.324
 5361SOL    HW116982   1.416   5.471   2.300
 5361SOL    HW216983   1.532   5.487   2.414
 5362SOL     OW16984   5.931   1.457   2.351
 5362SOL    HW116985   5.868   1.380   2.366
 5362SOL    HW216986   6.018   1.438   2.395
 5363SOL     OW16987   5.929   5.298   3.510
 5363SOL    HW116988   6.018   5.323   3.470
 5363SOL    HW216989   5.893   5.376   3.561
 5364SOL     OW16990   4.246   1.243   2.836
 5364SOL    HW116991   4.310   1.306   2.792
 5364SOL    HW216992   4.190   1.199   2.766
 5365SOL     OW16993   3.032   3.228   4.241
 5365SOL    HW116994   3.046   3.219   4.340
 5365SOL    HW216995   3.047   3.139   4.197
 5366SOL     OW16996   6.233   6.329   3.133
 5366SOL    HW116997   6.177   6.412   3.141
 5366SOL    HW216998   6.177   6.255   3.098
 5367SOL     OW16999   6.163   5.978   1.506
 5367SOL    HW117000   6.243   5.918   1.500
 5367SOL    HW217001   6.115   5.978   1.418
 5368SOL     OW17002   0.048   5.777   3.979
 5368SOL    HW117003   0.080   5.761   3.886
 5368SOL    HW217004   6.967   5.791   3.978
 5369SOL     OW17005   3.729   5.563   2.620
 5369SOL    HW117006   3.717   5.464   2.615
 5369SOL    HW217007   3.791   5.585   2.695
 5370SOL     OW17008   1.350   3.262   0.563
 5370SOL    HW117009   1.271   3.260   0.502
 5370SOL    HW217010   1.399   3.349   0.551
 5371SOL     OW17011   5.942   5.192   4.871
 5371SOL    HW117012   5.859   5.241   4.848
 5371SOL    HW217013   6.022   5.243   4.841
 5372SOL     OW17014   1.323   6.989   3.130
 5372SOL    HW117015   1.313   6.958   3.224
 5372SOL    HW217016   1.297   0.067   3.124
 5373SOL     OW17017   3.146   1.331   6.777
 5373SOL    HW117018   3.078   1.339   6.850
 5373SOL    HW217019   3.227   1.385   6.800
 5374SOL     OW17020   2.065   4.226   2.182
 5374SOL    HW117021   1.978   4.193   2.146
 5374SOL    HW217022   2.059   4.323   2.202
 5375SOL     OW17023   2.442   4.498   4.664
 5375SOL    HW117024   2.505   4.558   4.715
 5375SOL    HW217025   2.427   4.414   4.717
 5376SOL     OW17026   0.646   6.763   5.940
 5376SOL    HW117027   0.590   6.805   5.869
 5376SOL    HW217028   0.691   6.682   5.903
 5377SOL     OW17029   1.928   1.133   3.216
 5377SOL    HW117030   1.992   1.210   3.222
 5377SOL    HW217031   1.835   1.168   3.206
 5378SOL     OW17032   4.749   0.777   2.406
 5378SOL    HW117033   4.676   0.826   2.359
 5378SOL    HW217034   4.815   0.744   2.338
 5379SOL     OW17035   1.994   2.183   5.167
 5379SOL    HW117036   2.004   2.232   5.254
 5379SOL    HW217037   1.934   2.104   5.181
 5380SOL     OW17038   3.835   6.655   1.914
 5380SOL    HW117039   3.880   6.589   1.853
 5380SOL    HW217040   3.868   6.747   1.893
 5381SOL     OW17041   3.208   0.081   3.914
 5381SOL    HW117042   3.264   7.017   3.925
 5381SOL    HW217043   3.211   0.112   3.819
 5382SOL     OW17044   4.869   1.050   1.738
 5382SOL    HW117045   4.922   0.966   1.726
 5382SOL    HW217046   4.860   1.097   1.650
 5383SOL     OW17047   2.486   2.549   4.537
 5383SOL    HW117048   2.487   2.575   4.441
 5383SOL    HW217049   2.411   2.485   4.554
 5384SOL     OW17050   5.769   5.011   5.264
 5384SOL    HW117051   5.697   5.073   5.236
 5384SOL    HW217052   5.783   4.942   5.192
 5385SOL     OW17053   3.856   3.241   6.145
 5385SOL    HW117054   3.804   3.316   6.186
 5385SOL    HW217055   3.793   3.166   6.122
 5386SOL     OW17056   4.972   4.529   4.369
 5386SOL    HW117057   4.947   4.455   4.307
 5386SOL    HW217058   4.961   4.498   4.464
 5387SOL     OW17059   0.663   1.850   3.851
 5387SOL    HW117060   0.720   1.857   3.933
 5387SOL    HW217061   0.569   1.878   3.873
 5388SOL     OW17062   0.521   6.763   2.490
 5388SOL    HW117063   0.500   6.667   2.475
 5388SOL    HW217064   0.445   6.807   2.538
 5389SOL     OW17065   4.907   1.397   3.689
 5389SOL    HW117066   4.968   1.335   3.640
 5389SOL    HW217067   4.850   1.344   3.752
 5390SOL     OW17068   0.437   3.061   3.334
 5390SOL    HW117069   0.533   3.076   3.360
 5390SOL    HW217070   0.377   3.090   3.408
 5391SOL     OW17071   2.816   2.735   0.679
 5391SOL    HW117072   2.862   2.702   0.597
 5391SOL    HW217073   2.723   2.698   0.683
 5392SOL     OW17074   6.033   0.725   4.043
 5392SOL    HW117075   6.009   0.822   4.040
 5392SOL    HW217076   6.122   0.712   3.999
 5393SOL     OW17077   4.405   2.468   4.491
 5393SOL    HW117078   4.472   2.401   4.522
 5393SOL    HW217079   4.329   2.471   4.556
 5394SOL     OW17080   0.831   1.907   1.458
 5394SOL    HW117081   0.873   1.998   1.462
 5394SOL    HW217082   0.747   1.911   1.404
 5395SOL     OW17083   6.419   1.541   0.740
 5395SOL    HW117084   6.414   1.447   0.706
 5395SOL    HW217085   6.424   1.540   0.839
 5396SOL     OW17086   4.261   3.975   0.542
 5396SOL    HW117087   4.210   4.060   0.530
 5396SOL    HW217088   4.345   3.979   0.489
 5397SOL     OW17089   0.280   0.978   2.841
 5397SOL    HW117090   0.311   0.997   2.748
 5397SOL    HW217091   0.343   0.914   2.884
 5398SOL     OW17092   6.009   2.432   2.662
 5398SOL    HW117093   6.098   2.424   2.617
 5398SOL    HW217094   5.986   2.528   2.675
 5399SOL     OW17095   1.494   2.226   7.001
 5399SOL    HW117096   1.427   2.296   6.976
 5399SOL    HW217097   1.578   2.240   6.949
 5400SOL     OW17098   4.696   3.188   1.713
 5400SOL    HW117099   4.605   3.190   1.671
 5400SOL    HW217100   4.698   3.119   1.785
 5401SOL     OW17101   5.486   2.839   1.173
 5401SOL    HW117102   5.493   2.758   1.115
 5401SOL    HW217103   5.412   2.826   1.238
 5402SOL     OW17104   1.452   6.750   2.424
 5402SOL    HW117105   1.439   6.793   2.335
 5402SOL    HW217106   1.543   6.709   2.427
 5403SOL     OW17107   4.485   2.618   0.323
 5403SOL    HW117108   4.546   2.544   0.349
 5403SOL    HW217109   4.536   2.705   0.325
 5404SOL     OW17110   5.036   0.401   6.797
 5404SOL    HW117111   5.020   0.467   6.870
 5404SOL    HW217112   5.134   0.395   6.778
 5405SOL     OW17113   0.386   4.804   0.196
 5405SOL    HW117114   0.437   4.886   0.219
 5405SOL    HW217115   0.362   4.806   0.099
 5406SOL     OW17116   2.325   0.819   6.104
 5406SOL    HW117117   2.366   0.895   6.054
 5406SOL    HW217118   2.256   0.854   6.167
 5407SOL     OW17119   1.773   6.901   3.351
 5407SOL    HW117120   1.864   6.914   3.312
 5407SOL    HW217121   1.733   6.991   3.373
 5408SOL     OW17122   2.369   1.792   4.405
 5408SOL    HW117123   2.384   1.723   4.334
 5408SOL    HW217124   2.438   1.782   4.476
 5409SOL     OW17125   0.738   2.720   1.788
 5409SOL    HW117126   0.709   2.815   1.801
 5409SOL    HW217127   0.791   2.691   1.868
 5410SOL     OW17128   6.895   2.433   0.626
 5410SOL    HW117129   6.841   2.385   0.557
 5410SOL    HW217130   6.834   2.472   0.695
 5411SOL     OW17131   3.382   5.464   0.216
 5411SOL    HW117132   3.350   5.507   0.301
 5411SOL    HW217133   3.350   5.518   0.138
 5412SOL     OW17134   0.167   2.231   6.228
 5412SOL    HW117135   0.113   2.147   6.217
 5412SOL    HW217136   0.260   2.214   6.197
 5413SOL     OW17137   1.057   5.394   4.574
 5413SOL    HW117138   1.144   5.382   4.527
 5413SOL    HW217139   1.033   5.492   4.574
 5414SOL     OW17140   5.315   4.500   5.550
 5414SOL    HW117141   5.376   4.436   5.597
 5414SOL    HW217142   5.306   4.583   5.606
 5415SOL     OW17143   3.874   0.579   0.217
 5415SOL    HW117144   3.782   0.612   0.194
 5415SOL    HW217145   3.880   0.481   0.197
 5416SOL     OW17146   3.438   5.878   6.883
 5416SOL    HW117147   3.530   5.918   6.888
 5416SOL    HW217148   3.413   5.863   6.788
 5417SOL     OW17149   4.297   6.859   4.184
 5417SOL    HW117150   4.252   6.916   4.253
 5417SOL    HW217151   4.281   6.762   4.206
 5418SOL     OW17152   6.721   2.798   5.589
 5418SOL    HW117153   6.687   2.882   5.548
 5418SOL    HW217154   6.644   2.738   5.612
 5419SOL     OW17155   4.363   1.446   5.921
 5419SOL    HW117156   4.313   1.489   5.997
 5419SOL    HW217157   4.340   1.494   5.836
 5420SOL     OW17158   1.210   2.024   1.966
 5420SOL    HW117159   1.158   2.006   2.049
 5420SOL    HW217160   1.291   1.966   1.963
 5421SOL     OW17161   3.671   4.878   2.263
 5421SOL    HW117162   3.683   4.819   2.183
 5421SOL    HW217163   3.591   4.936   2.250
 5422SOL     OW17164   2.604   4.812   3.815
 5422SOL    HW117165   2.631   4.772   3.728
 5422SOL    HW217166   2.510   4.846   3.809
 5423SOL     OW17167   4.503   6.705   1.792
 5423SOL    HW117168   4.513   6.804   1.802
 5423SOL    HW217169   4.581   6.659   1.835
 5424SOL     OW17170   4.276   3.750   5.564
 5424SOL    HW117171   4.334   3.682   5.609
 5424SOL    HW217172   4.291   3.747   5.466
 5425SOL     OW17173   1.258   4.427   5.255
 5425SOL    HW117174   1.212   4.363   5.316
 5425SOL    HW217175   1.244   4.399   5.160
 5426SOL     OW17176   6.430   5.536   1.278
 5426SOL    HW117177   6.482   5.571   1.356
 5426SOL    HW217178   6.478   5.457   1.239
 5427SOL     OW17179   4.138   2.989   6.941
 5427SOL    HW117180   4.183   3.008   6.854
 5427SOL    HW217181   4.207   2.974   7.012
 5428SOL     OW17182   5.577   5.292   2.893
 5428SOL    HW117183   5.562   5.388   2.919
 5428SOL    HW217184   5.515   5.233   2.945
 5429SOL     OW17185   3.401   0.801   4.700
 5429SOL    HW117186   3.455   0.843   4.773
 5429SOL    HW217187   3.378   0.870   4.632
 5430SOL     OW17188   2.910   4.056   5.196
 5430SOL    HW117189   2.870   4.042   5.286
 5430SOL    HW217190   2.913   4.153   5.175
 5431SOL     OW17191   4.745   4.735   0.436
 5431SOL    HW117192   4.701   4.755   0.524
 5431SOL    HW217193   4.819   4.800   0.420
 5432SOL     OW17194   0.198   5.214   6.334
 5432SOL    HW117195   0.110   5.254   6.309
 5432SOL    HW217196   0.258   5.287   6.368
 5433SOL     OW17197   3.171   0.571   1.335
 5433SOL    HW117198   3.219   0.500   1.283
 5433SOL    HW217199   3.082   0.536   1.364
 5434SOL     OW17200   4.880   0.666   4.365
 5434SOL    HW117201   4.844   0.577   4.395
 5434SOL    HW217202   4.809   0.736   4.379
 5435SOL     OW17203   6.460   4.892   0.773
 5435SOL    HW117204   6.545   4.839   0.775
 5435SOL    HW217205   6.465   4.960   0.699
 5436SOL     OW17206   1.782   4.350   2.874
 5436SOL    HW117207   1.854   4.310   2.931
 5436SOL    HW217208   1.806   4.339   2.778
 5437SOL     OW17209   3.343   6.202   1.462
 5437SOL    HW117210   3.374   6.247   1.378
 5437SOL    HW217211   3.261   6.249   1.496
 5438SOL     OW17212   4.608   5.966   2.242
 5438SOL    HW117213   4.645   6.028   2.311
 5438SOL    HW217214   4.659   5.977   2.156
 5439SOL     OW17215   1.126   4.538   1.744
 5439SOL    HW117216   1.073   4.588   1.812
 5439SOL    HW217217   1.073   4.528   1.660
 5440SOL     OW17218   5.975   6.789   3.888
 5440SOL    HW117219   6.009   6.869   3.838
 5440SOL    HW217220   5.886   6.762   3.851
 5441SOL     OW17221   5.606   2.836   4.680
 5441SOL    HW117222   5.613   2.841   4.581
 5441SOL    HW217223   5.610   2.740   4.709
 5442SOL     OW17224   3.208   6.903   6.595
 5442SOL    HW117225   3.235   6.998   6.576
 5442SOL    HW217226   3.274   6.841   6.553
 5443SOL     OW17227   5.099   1.054   3.176
 5443SOL    HW117228   5.026   1.019   3.234
 5443SOL    HW217229   5.140   1.135   3.219
 5444SOL     OW17230   6.232   0.621   5.585
 5444SOL    HW117231   6.230   0.652   5.680
 5444SOL    HW217232   6.326   0.605   5.557
 5445SOL     OW17233   5.548   5.708   5.512
 5445SOL    HW117234   5.520   5.612   5.501
 5445SOL    HW217235   5.545   5.732   5.609
 5446SOL     OW17236   6.517   4.021   5.923
 5446SOL    HW117237   6.440   4.016   5.987
 5446SOL    HW217238   6.596   4.063   5.969
 5447SOL     OW17239   0.146   1.558   1.364
 5447SOL    HW117240   0.134   1.600   1.274
 5447SOL    HW217241   0.059   1.558   1.413
 5448SOL     OW17242   5.023   5.001   3.069
 5448SOL    HW117243   5.048   4.986   2.974
 5448SOL    HW217244   5.074   5.079   3.106
 5449SOL     OW17245   2.828   0.933   1.734
 5449SOL    HW117246   2.876   1.014   1.701
 5449SOL    HW217247   2.854   0.854   1.679
 5450SOL     OW17248   3.900   5.610   1.589
 5450SOL    HW117249   3.932   5.559   1.669
 5450SOL    HW217250   3.978   5.633   1.531
 5451SOL     OW17251   6.371   0.074   2.967
 5451SOL    HW117252   6.373   6.995   2.992
 5451SOL    HW217253   6.448   0.121   3.010
 5452SOL     OW17254   2.095   3.747   2.347
 5452SOL    HW117255   2.128   3.835   2.380
 5452SOL    HW217256   1.996   3.742   2.357
 5453SOL     OW17257   6.253   4.060   3.708
 5453SOL    HW117258   6.317   4.137   3.707
 5453SOL    HW217259   6.160   4.094   3.722
 5454SOL     OW17260   6.479   4.225   3.507
 5454SOL    HW117261   6.527   4.181   3.583
 5454SOL    HW217262   6.514   4.318   3.495
 5455SOL     OW17263   2.503   1.857   3.498
 5455SOL    HW117264   2.418   1.858   3.552
 5455SOL    HW217265   2.556   1.939   3.519
 5456SOL     OW17266   5.056   2.289   0.967
 5456SOL    HW117267   4.972   2.295   0.913
 5456SOL    HW217268   5.035   2.302   1.064
 5457SOL     OW17269   5.250   1.363   6.584
 5457SOL    HW117270   5.241   1.320   6.674
 5457SOL    HW217271   5.191   1.444   6.580
 5458SOL     OW17272   6.046   3.590   0.309
 5458SOL    HW117273   6.111   3.657   0.273
 5458SOL    HW217274   5.991   3.554   0.233
 5459SOL     OW17275   1.900   3.661   5.213
 5459SOL    HW117276   1.970   3.590   5.220
 5459SOL    HW217277   1.895   3.694   5.119
 5460SOL     OW17278   0.855   0.948   1.507
 5460SOL    HW117279   0.896   0.912   1.590
 5460SOL    HW217280   0.880   1.044   1.496
 5461SOL     OW17281   6.242   1.094   5.458
 5461SOL    HW117282   6.311   1.080   5.529
 5461SOL    HW217283   6.205   1.005   5.429
 5462SOL     OW17284   4.517   4.212   6.710
 5462SOL    HW117285   4.575   4.141   6.670
 5462SOL    HW217286   4.481   4.270   6.636
 5463SOL     OW17287   1.101   2.684   5.998
 5463SOL    HW117288   1.171   2.754   6.016
 5463SOL    HW217289   1.037   2.681   6.075
 5464SOL     OW17290   2.320   5.753   5.736
 5464SOL    HW117291   2.333   5.655   5.726
 5464SOL    HW217292   2.223   5.775   5.736
 5465SOL     OW17293   0.529   6.972   4.594
 5465SOL    HW117294   0.520   7.015   4.683
 5465SOL    HW217295   0.622   6.936   4.584
 5466SOL     OW17296   6.224   2.140   4.840
 5466SOL    HW117297   6.248   2.112   4.747
 5466SOL    HW217298   6.126   2.158   4.845
 5467SOL     OW17299   4.732   2.792   4.351
 5467SOL    HW117300   4.691   2.734   4.421
 5467SOL    HW217301   4.795   2.857   4.393
 5468SOL     OW17302   0.040   1.042   0.982
 5468SOL    HW117303   6.984   0.991   0.939
 5468SOL    HW217304   0.109   0.979   1.017
 5469SOL     OW17305   3.752   0.305   4.240
 5469SOL    HW117306   3.683   0.245   4.281
 5469SOL    HW217307   3.843   0.266   4.257
 5470SOL     OW17308   3.771   5.578   4.090
 5470SOL    HW117309   3.798   5.485   4.114
 5470SOL    HW217310   3.689   5.604   4.142
 5471SOL     OW17311   4.845   1.010   3.607
 5471SOL    HW117312   4.787   0.962   3.542
 5471SOL    HW217313   4.791   1.031   3.689
 5472SOL     OW17314   3.082   3.267   6.927
 5472SOL    HW117315   3.094   3.364   6.905
 5472SOL    HW217316   3.005   3.230   6.876
 5473SOL     OW17317   2.495   4.635   1.759
 5473SOL    HW117318   2.567   4.569   1.778
 5473SOL    HW217319   2.535   4.724   1.739
 5474SOL     OW17320   0.992   4.902   2.613
 5474SOL    HW117321   1.013   4.944   2.702
 5474SOL    HW217322   0.898   4.869   2.614
 5475SOL     OW17323   0.573   1.055   4.914
 5475SOL    HW117324   0.657   1.000   4.917
 5475SOL    HW217325   0.535   1.052   4.822
 5476SOL     OW17326   2.360   0.102   5.210
 5476SOL    HW117327   2.426   0.095   5.285
 5476SOL    HW217328   2.405   0.079   5.123
 5477SOL     OW17329   1.516   3.916   3.965
 5477SOL    HW117330   1.418   3.936   3.966
 5477SOL    HW217331   1.531   3.826   3.923
 5478SOL     OW17332   5.306   4.694   5.990
 5478SOL    HW117333   5.355   4.641   6.058
 5478SOL    HW217334   5.223   4.733   6.031
 5479SOL     OW17335   4.617   2.070   4.591
 5479SOL    HW117336   4.614   2.071   4.491
 5479SOL    HW217337   4.712   2.067   4.622
 5480SOL     OW17338   0.480   3.566   4.082
 5480SOL    HW117339   0.504   3.658   4.114
 5480SOL    HW217340   0.478   3.566   3.982
 5481SOL     OW17341   4.544   1.221   5.970
 5481SOL    HW117342   4.517   1.313   5.998
 5481SOL    HW217343   4.605   1.226   5.891
 5482SOL     OW17344   4.907   2.923   1.219
 5482SOL    HW117345   4.983   2.863   1.194
 5482SOL    HW217346   4.936   2.984   1.293
 5483SOL     OW17347   6.778   2.454   6.359
 5483SOL    HW117348   6.757   2.521   6.287
 5483SOL    HW217349   6.707   2.384   6.362
 5484SOL     OW17350   6.992   6.729   4.880
 5484SOL    HW117351   0.070   6.718   4.905
 5484SOL    HW217352   6.982   6.812   4.824
 5485SOL     OW17353   3.325   0.115   5.301
 5485SOL    HW117354   3.329   0.021   5.267
 5485SOL    HW217355   3.267   0.119   5.382
 5486SOL     OW17356   1.103   0.888   4.361
 5486SOL    HW117357   1.168   0.915   4.432
 5486SOL    HW217358   1.135   0.921   4.272
 5487SOL     OW17359   4.794   5.069   1.022
 5487SOL    HW117360   4.756   5.088   1.112
 5487SOL    HW217361   4.894   5.078   1.025
 5488SOL     OW17362   5.127   1.052   6.116
 5488SOL    HW117363   5.158   0.959   6.094
 5488SOL    HW217364   5.102   1.056   6.213
 5489SOL     OW17365   1.102   3.742   3.026
 5489SOL    HW117366   1.155   3.740   2.942
 5489SOL    HW217367   1.163   3.762   3.103
 5490SOL     OW17368   1.654   1.958   6.827
 5490SOL    HW117369   1.691   2.051   6.837
 5490SOL    HW217370   1.698   1.898   6.894
 5491SOL     OW17371   0.566   4.974   1.187
 5491SOL    HW117372   0.539   4.923   1.269
 5491SOL    HW217373   0.601   4.911   1.118
 5492SOL     OW17374   1.143   0.778   5.555
 5492SOL    HW117375   1.075   0.751   5.487
 5492SOL    HW217376   1.154   0.878   5.553
 5493SOL     OW17377   3.259   3.095   7.003
 5493SOL    HW117378   3.190   3.142   6.949
 5493SOL    HW217379   3.330   3.059   6.943
 5494SOL     OW17380   5.969   2.897   2.062
 5494SOL    HW117381   5.870   2.883   2.058
 5494SOL    HW217382   6.007   2.897   1.969
 5495SOL     OW17383   3.579   3.024   2.487
 5495SOL    HW117384   3.587   3.024   2.388
 5495SOL    HW217385   3.575   3.118   2.521
 5496SOL     OW17386   3.265   5.709   1.506
 5496SOL    HW117387   3.316   5.786   1.467
 5496SOL    HW217388   3.260   5.719   1.605
 5497SOL     OW17389   6.922   6.666   2.322
 5497SOL    HW117390   6.885   6.660   2.415
 5497SOL    HW217391   6.914   6.760   2.290
 5498SOL     OW17392   4.209   1.249   5.082
 5498SOL    HW117393   4.116   1.277   5.105
 5498SOL    HW217394   4.230   1.162   5.126
 5499SOL     OW17395   0.510   1.561   3.553
 5499SOL    HW117396   0.495   1.654   3.518
 5499SOL    HW217397   0.483   1.495   3.483
 5500SOL     OW17398   1.681   5.820   2.063
 5500SOL    HW117399   1.678   5.720   2.071
 5500SOL    HW217400   1.617   5.850   1.992
 5501SOL     OW17401   2.094   0.005   2.626
 5501SOL    HW117402   2.180   6.991   2.667
 5501SOL    HW217403   2.113   0.045   2.537
 5502SOL     OW17404   4.970   3.944   6.763
 5502SOL    HW117405   5.016   3.882   6.700
 5502SOL    HW217406   4.998   3.924   6.856
 5503SOL     OW17407   1.632   5.695   3.818
 5503SOL    HW117408   1.674   5.727   3.733
 5503SOL    HW217409   1.691   5.718   3.895
 5504SOL     OW17410   3.379   2.103   5.011
 5504SOL    HW117411   3.434   2.082   5.091
 5504SOL    HW217412   3.327   2.187   5.027
 5505SOL     OW17413   2.408   5.119   5.833
 5505SOL    HW117414   2.432   5.189   5.766
 5505SOL    HW217415   2.440   5.147   5.923
 5506SOL     OW17416   6.389   0.129   5.668
 5506SOL    HW117417   6.395   0.030   5.657
 5506SOL    HW217418   6.364   0.171   5.581
 5507SOL     OW17419   2.813   6.146   4.107
 5507SOL    HW117420   2.870   6.079   4.059
 5507SOL    HW217421   2.848   6.238   4.089
 5508SOL     OW17422   2.711   1.002   6.139
 5508SOL    HW117423   2.778   0.931   6.120
 5508SOL    HW217424   2.638   0.965   6.196
 5509SOL     OW17425   6.091   6.107   6.672
 5509SOL    HW117426   6.093   6.113   6.572
 5509SOL    HW217427   6.145   6.182   6.711
 5510SOL     OW17428   5.394   1.181   5.489
 5510SOL    HW117429   5.448   1.243   5.431
 5510SOL    HW217430   5.435   1.179   5.581
 5511SOL     OW17431   0.106   1.417   2.392
 5511SOL    HW117432   0.189   1.436   2.339
 5511SOL    HW217433   0.118   1.331   2.443
 5512SOL     OW17434   1.415   0.064   1.041
 5512SOL    HW117435   1.492   0.119   1.010
 5512SOL    HW217436   1.363   0.115   1.109
 5513SOL     OW17437   4.153   4.828   4.723
 5513SOL    HW117438   4.234   4.773   4.744
 5513SOL    HW217439   4.118   4.870   4.807
 5514SOL     OW17440   5.891   5.232   2.899
 5514SOL    HW117441   5.793   5.232   2.920
 5514SOL    HW217442   5.907   5.180   2.815
 5515SOL     OW17443   6.563   2.637   1.041
 5515SOL    HW117444   6.591   2.695   0.964
 5515SOL    HW217445   6.464   2.623   1.038
 5516SOL     OW17446   1.629   2.993   6.075
 5516SOL    HW117447   1.646   2.921   6.142
 5516SOL    HW217448   1.533   2.988   6.045
 5517SOL     OW17449   2.541   1.685   2.302
 5517SOL    HW117450   2.528   1.679   2.203
 5517SOL    HW217451   2.625   1.735   2.322
 5518SOL     OW17452   6.051   4.942   4.896
 5518SOL    HW117453   6.149   4.951   4.877
 5518SOL    HW217454   6.008   5.032   4.891
 5519SOL     OW17455   5.148   3.486   4.281
 5519SOL    HW117456   5.061   3.527   4.253
 5519SOL    HW217457   5.216   3.558   4.295
 5520SOL     OW17458   1.844   3.512   1.738
 5520SOL    HW117459   1.876   3.436   1.794
 5520SOL    HW217460   1.767   3.557   1.783
 5521SOL     OW17461   5.340   5.150   1.884
 5521SOL    HW117462   5.393   5.069   1.909
 5521SOL    HW217463   5.318   5.147   1.786
 5522SOL     OW17464   2.179   3.619   1.724
 5522SOL    HW117465   2.150   3.705   1.766
 5522SOL    HW217466   2.221   3.561   1.794
 5523SOL     OW17467   2.258   0.753   2.300
 5523SOL    HW117468   2.344   0.801   2.316
 5523SOL    HW217469   2.197   0.766   2.378
 5524SOL     OW17470   0.519   5.954   6.180
 5524SOL    HW117471   0.466   6.006   6.247
 5524SOL    HW217472   0.556   6.016   6.111
 5525SOL     OW17473   6.646   5.727   4.949
 5525SOL    HW117474   6.586   5.654   4.916
 5525SOL    HW217475   6.741   5.705   4.927
 5526SOL     OW17476   6.350   3.294   4.417
 5526SOL    HW117477   6.282   3.230   4.454
 5526SOL    HW217478   6.389   3.256   4.332
 5527SOL     OW17479   1.817   3.642   1.408
 5527SOL    HW117480   1.863   3.695   1.337
 5527SOL    HW217481   1.722   3.627   1.382
 5528SOL     OW17482   0.396   3.633   3.065
 5528SOL    HW117483   0.341   3.581   2.999
 5528SOL    HW217484   0.336   3.672   3.134
 5529SOL     OW17485   1.754   1.176   5.113
 5529SOL    HW117486   1.820   1.101   5.118
 5529SOL    HW217487   1.769   1.238   5.190
 5530SOL     OW17488   1.088   2.447   0.456
 5530SOL    HW117489   1.052   2.524   0.508
 5530SOL    HW217490   1.140   2.387   0.516
 5531SOL     OW17491   3.379   2.766   6.118
 5531SOL    HW117492   3.285   2.779   6.087
 5531SOL    HW217493   3.435   2.731   6.043
 5532SOL     OW17494   2.631   1.283   1.296
 5532SOL    HW117495   2.539   1.294   1.260
 5532SOL    HW217496   2.696   1.282   1.220
 5533SOL     OW17497   4.332   0.761   1.586
 5533SOL    HW117498   4.325   0.664   1.561
 5533SOL    HW217499   4.334   0.817   1.504
 5534SOL     OW17500   6.881   3.645   6.013
 5534SOL    HW117501   6.937   3.669   6.092
 5534SOL    HW217502   6.849   3.728   5.968
 5535SOL     OW17503   6.251   2.924   3.279
 5535SOL    HW117504   6.164   2.894   3.240
 5535SOL    HW217505   6.247   3.023   3.296
 5536SOL     OW17506   2.054   0.525   3.841
 5536SOL    HW117507   1.967   0.522   3.891
 5536SOL    HW217508   2.043   0.584   3.761
 5537SOL     OW17509   4.405   0.950   4.472
 5537SOL    HW117510   4.368   0.868   4.517
 5537SOL    HW217511   4.365   1.031   4.514
 5538SOL     OW17512   4.913   1.386   0.246
 5538SOL    HW117513   4.821   1.346   0.239
 5538SOL    HW217514   4.906   1.483   0.268
 5539SOL     OW17515   3.296   6.822   0.466
 5539SOL    HW117516   3.359   6.801   0.391
 5539SOL    HW217517   3.331   6.900   0.518
 5540SOL     OW17518   5.287   1.027   6.702
 5540SOL    HW117519   5.245   1.093   6.766
 5540SOL    HW217520   5.259   0.935   6.727
 5541SOL     OW17521   4.490   3.750   6.398
 5541SOL    HW117522   4.430   3.769   6.476
 5541SOL    HW217523   4.572   3.808   6.404
 5542SOL     OW17524   4.470   4.624   0.039
 5542SOL    HW117525   4.552   4.670   0.006
 5542SOL    HW217526   4.409   4.604   6.980
 5543SOL     OW17527   1.299   0.379   1.036
 5543SOL    HW117528   1.225   0.447   1.037
 5543SOL    HW217529   1.297   0.327   1.121
 5544SOL     OW17530   4.353   5.526   6.252
 5544SOL    HW117531   4.392   5.531   6.160
 5544SOL    HW217532   4.272   5.584   6.258
 5545SOL     OW17533   3.811   0.760   3.282
 5545SOL    HW117534   3.851   0.846   3.314
 5545SOL    HW217535   3.711   0.765   3.291
 5546SOL     OW17536   0.831   5.770   5.266
 5546SOL    HW117537   0.830   5.860   5.222
 5546SOL    HW217538   0.846   5.700   5.196
 5547SOL     OW17539   5.636   1.488   4.983
 5547SOL    HW117540   5.665   1.417   5.047
 5547SOL    HW217541   5.681   1.574   5.005
 5548SOL     OW17542   6.788   4.442   5.475
 5548SOL    HW117543   6.725   4.475   5.405
 5548SOL    HW217544   6.881   4.442   5.439
 5549SOL     OW17545   4.410   3.178   1.116
 5549SOL    HW117546   4.369   3.156   1.205
 5549SOL    HW217547   4.380   3.112   1.048
 5550SOL     OW17548   1.132   3.378   2.435
 5550SOL    HW117549   1.132   3.376   2.335
 5550SOL    HW217550   1.038   3.381   2.468
 5551SOL     OW17551   2.114   5.162   3.729
 5551SOL    HW117552   2.116   5.227   3.805
 5551SOL    HW217553   2.020   5.130   3.716
 5552SOL     OW17554   0.323   6.618   6.569
 5552SOL    HW117555   0.306   6.697   6.510
 5552SOL    HW217556   0.422   6.599   6.570
 5553SOL     OW17557   4.856   0.199   6.766
 5553SOL    HW117558   4.930   0.265   6.779
 5553SOL    HW217559   4.768   0.244   6.778
 5554SOL     OW17560   5.543   2.506   1.662
 5554SOL    HW117561   5.550   2.582   1.598
 5554SOL    HW217562   5.526   2.421   1.611
 5555SOL     OW17563   1.888   3.865   2.501
 5555SOL    HW117564   1.940   3.857   2.586
 5555SOL    HW217565   1.799   3.821   2.512
 5556SOL     OW17566   6.398   0.518   5.019
 5556SOL    HW117567   6.478   0.544   4.965
 5556SOL    HW217568   6.412   0.427   5.058
 5557SOL     OW17569   3.343   6.096   1.862
 5557SOL    HW117570   3.265   6.154   1.887
 5557SOL    HW217571   3.311   6.004   1.841
 5558SOL     OW17572   3.422   4.795   0.108
 5558SOL    HW117573   3.441   4.793   0.207
 5558SOL    HW217574   3.467   4.874   0.067
 5559SOL     OW17575   1.586   0.000   2.644
 5559SOL    HW117576   1.580   0.015   2.742
 5559SOL    HW217577   1.613   0.086   2.599
 5560SOL     OW17578   0.392   5.893   2.967
 5560SOL    HW117579   0.402   5.943   2.881
 5560SOL    HW217580   0.331   5.943   3.028
 5561SOL     OW17581   3.095   0.579   3.872
 5561SOL    HW117582   3.143   0.508   3.924
 5561SOL    HW217583   3.036   0.631   3.933
 5562SOL     OW17584   4.053   3.841   0.916
 5562SOL    HW117585   3.997   3.785   0.977
 5562SOL    HW217586   4.057   3.799   0.826
 5563SOL     OW17587   2.763   4.704   2.771
 5563SOL    HW117588   2.770   4.621   2.717
 5563SOL    HW217589   2.672   4.743   2.761
 5564SOL     OW17590   5.595   0.713   5.911
 5564SOL    HW117591   5.680   0.729   5.962
 5564SOL    HW217592   5.588   0.779   5.836
 5565SOL     OW17593   3.321   2.320   6.689
 5565SOL    HW117594   3.272   2.235   6.669
 5565SOL    HW217595   3.404   2.299   6.741
 5566SOL     OW17596   1.354   3.170   6.464
 5566SOL    HW117597   1.274   3.222   6.492
 5566SOL    HW217598   1.326   3.097   6.402
 5567SOL     OW17599   6.498   4.087   1.487
 5567SOL    HW117600   6.438   4.122   1.559
 5567SOL    HW217601   6.444   4.032   1.423
 5568SOL     OW17602   4.403   6.573   2.211
 5568SOL    HW117603   4.369   6.641   2.276
 5568SOL    HW217604   4.430   6.490   2.260
 5569SOL     OW17605   2.512   2.606   4.242
 5569SOL    HW117606   2.448   2.643   4.174
 5569SOL    HW217607   2.593   2.571   4.197
 5570SOL     OW17608   6.964   3.356   2.966
 5570SOL    HW117609   6.984   3.312   3.054
 5570SOL    HW217610   6.881   3.410   2.974
 5571SOL     OW17611   6.962   5.242   1.776
 5571SOL    HW117612   0.043   5.247   1.778
 5571SOL    HW217613   6.926   5.241   1.870
 5572SOL     OW17614   0.755   3.405   4.873
 5572SOL    HW117615   0.688   3.358   4.816
 5572SOL    HW217616   0.710   3.478   4.924
 5573SOL     OW17617   2.492   5.258   4.603
 5573SOL    HW117618   2.433   5.198   4.548
 5573SOL    HW217619   2.440   5.294   4.680
 5574SOL     OW17620   0.375   2.419   6.601
 5574SOL    HW117621   0.421   2.364   6.670
 5574SOL    HW217622   0.374   2.515   6.630
 5575SOL     OW17623   0.412   0.608   1.310
 5575SOL    HW117624   0.457   0.679   1.365
 5575SOL    HW217625   0.353   0.553   1.370
 5576SOL     OW17626   1.882   3.725   3.583
 5576SOL    HW117627   1.880   3.676   3.496
 5576SOL    HW217628   1.802   3.785   3.589
 5577SOL     OW17629   1.505   3.346   6.300
 5577SOL    HW117630   1.434   3.293   6.346
 5577SOL    HW217631   1.527   3.427   6.354
 5578SOL     OW17632   3.442   2.849   2.633
 5578SOL    HW117633   3.474   2.927   2.580
 5578SOL    HW217634   3.456   2.765   2.581
 5579SOL     OW17635   6.760   2.620   1.408
 5579SOL    HW117636   6.789   2.705   1.364
 5579SOL    HW217637   6.840   2.572   1.443
 5580SOL     OW17638   4.561   2.006   5.318
 5580SOL    HW117639   4.496   2.081   5.336
 5580SOL    HW217640   4.601   1.975   5.404
 5581SOL     OW17641   0.654   1.609   0.460
 5581SOL    HW117642   0.627   1.522   0.419
 5581SOL    HW217643   0.743   1.598   0.505
 5582SOL     OW17644   2.260   3.487   6.159
 5582SOL    HW117645   2.231   3.579   6.187
 5582SOL    HW217646   2.219   3.419   6.219
 5583SOL     OW17647   5.145   1.548   2.169
 5583SOL    HW117648   5.089   1.579   2.092
 5583SOL    HW217649   5.103   1.467   2.210
 5584SOL     OW17650   0.193   4.422   5.060
 5584SOL    HW117651   0.107   4.467   5.036
 5584SOL    HW217652   0.199   4.412   5.159
 5585SOL     OW17653   4.506   5.697   2.212
 5585SOL    HW117654   4.468   5.723   2.123
 5585SOL    HW217655   4.563   5.771   2.247
 5586SOL     OW17656   6.775   2.702   6.182
 5586SOL    HW117657   6.689   2.674   6.140
 5586SOL    HW217658   6.784   2.801   6.177
 5587SOL     OW17659   4.466   0.847   6.664
 5587SOL    HW117660   4.396   0.904   6.622
 5587SOL    HW217661   4.524   0.807   6.593
 5588SOL     OW17662   3.225   6.650   2.087
 5588SOL    HW117663   3.255   6.715   2.018
 5588SOL    HW217664   3.176   6.699   2.160
 5589SOL     OW17665   5.911   4.293   6.507
 5589SOL    HW117666   5.878   4.278   6.414
 5589SOL    HW217667   5.928   4.390   6.522
 5590SOL     OW17668   5.795   5.866   3.957
 5590SOL    HW117669   5.831   5.959   3.958
 5590SOL    HW217670   5.868   5.801   3.978
 5591SOL     OW17671   6.297   1.338   1.712
 5591SOL    HW117672   6.210   1.386   1.722
 5591SOL    HW217673   6.373   1.402   1.722
 5592SOL     OW17674   0.913   4.388   3.490
 5592SOL    HW117675   0.928   4.303   3.439
 5592SOL    HW217676   0.994   4.446   3.484
 5593SOL     OW17677   6.336   1.930   7.005
 5593SOL    HW117678   6.334   1.887   6.914
 5593SOL    HW217679   6.382   1.870   0.051
 5594SOL     OW17680   5.600   2.247   5.572
 5594SOL    HW117681   5.514   2.297   5.564
 5594SOL    HW217682   5.661   2.272   5.497
 5595SOL     OW17683   0.744   2.612   4.880
 5595SOL    HW117684   0.802   2.543   4.922
 5595SOL    HW217685   0.666   2.631   4.939
 5596SOL     OW17686   4.164   0.140   2.826
 5596SOL    HW117687   4.245   0.199   2.826
 5596SOL    HW217688   4.088   0.189   2.785
 5597SOL     OW17689   5.275   3.066   3.711
 5597SOL    HW117690   5.315   3.152   3.679
 5597SOL    HW217691   5.184   3.055   3.671
 5598SOL     OW17692   5.447   2.715   4.330
 5598SOL    HW117693   5.377   2.787   4.336
 5598SOL    HW217694   5.536   2.754   4.354
 5599SOL     OW17695   0.560   1.447   4.557
 5599SOL    HW117696   0.658   1.457   4.571
 5599SOL    HW217697   0.518   1.537   4.546
 5600SOL     OW17698   1.408   2.593   4.060
 5600SOL    HW117699   1.385   2.542   4.143
 5600SOL    HW217700   1.455   2.533   3.995
 5601SOL     OW17701   2.713   0.579   6.266
 5601SOL    HW117702   2.792   0.532   6.306
 5601SOL    HW217703   2.651   0.608   6.339
 5602SOL     OW17704   0.727   1.070   0.763
 5602SOL    HW117705   0.678   1.152   0.733
 5602SOL    HW217706   0.669   1.019   0.827
 5603SOL     OW17707   5.194   1.837   0.049
 5603SOL    HW117708   5.196   1.935   0.031
 5603SOL    HW217709   5.270   1.793   0.002
 5604SOL     OW17710   6.058   2.120   5.838
 5604SOL    HW117711   6.013   2.052   5.897
 5604SOL    HW217712   6.147   2.144   5.877
 5605SOL     OW17713   0.499   1.704   4.499
 5605SOL    HW117714   0.569   1.774   4.485
 5605SOL    HW217715   0.411   1.748   4.517
 5606SOL     OW17716   5.138   6.460   1.283
 5606SOL    HW117717   5.095   6.544   1.250
 5606SOL    HW217718   5.174   6.475   1.375
 5607SOL     OW17719   5.242   1.797   1.935
 5607SOL    HW117720   5.166   1.765   1.991
 5607SOL    HW217721   5.327   1.755   1.965
 5608SOL     OW17722   4.305   0.275   5.223
 5608SOL    HW117723   4.362   0.206   5.178
 5608SOL    HW217724   4.263   0.236   5.304
 5609SOL     OW17725   2.648   6.097   6.831
 5609SOL    HW117726   2.661   6.003   6.801
 5609SOL    HW217727   2.550   6.117   6.834
 5610SOL     OW17728   5.016   0.592   7.014
 5610SOL    HW117729   5.116   0.592   7.010
 5610SOL    HW217730   4.983   0.686   0.007
 5611SOL     OW17731   1.662   5.020   2.956
 5611SOL    HW117732   1.748   5.018   2.904
 5611SOL    HW217733   1.605   4.943   2.928
 5612SOL     OW17734   3.809   0.711   5.818
 5612SOL    HW117735   3.750   0.704   5.737
 5612SOL    HW217736   3.889   0.653   5.806
 5613SOL     OW17737   4.480   4.596   2.374
 5613SOL    HW117738   4.387   4.616   2.342
 5613SOL    HW217739   4.526   4.537   2.308
 5614SOL     OW17740   4.677   2.664   3.465
 5614SOL    HW117741   4.679   2.666   3.565
 5614SOL    HW217742   4.746   2.726   3.429
 5615SOL     OW17743   1.252   0.457   0.096
 5615SOL    HW117744   1.253   0.358   0.105
 5615SOL    HW217745   1.162   0.492   0.119
 5616SOL     OW17746   2.209   1.386   4.399
 5616SOL    HW117747   2.207   1.482   4.429
 5616SOL    HW217748   2.135   1.369   4.335
 5617SOL     OW17749   2.462   0.627   5.132
 5617SOL    HW117750   2.435   0.545   5.081
 5617SOL    HW217751   2.391   0.650   5.199
 5618SOL     OW17752   6.067   4.276   3.777
 5618SOL    HW117753   6.088   4.371   3.753
 5618SOL    HW217754   6.022   4.273   3.866
 5619SOL     OW17755   2.037   3.776   5.769
 5619SOL    HW117756   2.093   3.816   5.841
 5619SOL    HW217757   2.096   3.743   5.695
 5620SOL     OW17758   3.669   2.141   0.101
 5620SOL    HW117759   3.688   2.213   0.168
 5620SOL    HW217760   3.641   2.058   0.148
 5621SOL     OW17761   1.626   1.518   5.445
 5621SOL    HW117762   1.546   1.463   5.424
 5621SOL    HW217763   1.654   1.503   5.540
 5622SOL     OW17764   4.822   0.804   5.816
 5622SOL    HW117765   4.771   0.774   5.736
 5622SOL    HW217766   4.905   0.749   5.825
 5623SOL     OW17767   1.804   6.186   6.268
 5623SOL    HW117768   1.767   6.149   6.183
 5623SOL    HW217769   1.730   6.195   6.335
 5624SOL     OW17770   1.048   4.455   3.151
 5624SOL    HW117771   1.105   4.487   3.226
 5624SOL    HW217772   0.954   4.485   3.165
 5625SOL     OW17773   6.598   3.029   4.505
 5625SOL    HW117774   6.591   3.104   4.439
 5625SOL    HW217775   6.577   2.943   4.460
 5626SOL     OW17776   3.359   6.644   5.244
 5626SOL    HW117777   3.281   6.650   5.306
 5626SOL    HW217778   3.329   6.661   5.150
 5627SOL     OW17779   1.839   6.149   1.742
 5627SOL    HW117780   1.876   6.220   1.801
 5627SOL    HW217781   1.830   6.184   1.648
 5628SOL     OW17782   1.937   1.776   5.402
 5628SOL    HW117783   1.976   1.734   5.320
 5628SOL    HW217784   2.011   1.812   5.459
 5629SOL     OW17785   3.380   3.723   2.589
 5629SOL    HW117786   3.407   3.765   2.676
 5629SOL    HW217787   3.363   3.794   2.521
 5630SOL     OW17788   0.827   4.786   1.312
 5630SOL    HW117789   0.883   4.703   1.319
 5630SOL    HW217790   0.871   4.860   1.363
 5631SOL     OW17791   4.121   1.184   0.412
 5631SOL    HW117792   4.076   1.179   0.501
 5631SOL    HW217793   4.087   1.111   0.354
 5632SOL     OW17794   4.343   4.037   6.450
 5632SOL    HW117795   4.393   4.083   6.377
 5632SOL    HW217796   4.248   4.025   6.422
 5633SOL     OW17797   6.761   2.929   4.056
 5633SOL    HW117798   6.786   2.853   3.996
 5633SOL    HW217799   6.837   2.994   4.060
 5634SOL     OW17800   3.717   5.104   4.718
 5634SOL    HW117801   3.771   5.032   4.674
 5634SOL    HW217802   3.668   5.065   4.796
 5635SOL     OW17803   2.560   2.508   4.964
 5635SOL    HW117804   2.502   2.589   4.972
 5635SOL    HW217805   2.505   2.426   4.974
 5636SOL     OW17806   3.989   5.477   3.090
 5636SOL    HW117807   3.897   5.448   3.118
 5636SOL    HW217808   4.057   5.422   3.137
 5637SOL     OW17809   6.193   0.061   4.450
 5637SOL    HW117810   6.113   0.111   4.417
 5637SOL    HW217811   6.269   0.125   4.464
 5638SOL     OW17812   5.252   2.854   0.103
 5638SOL    HW117813   5.301   2.937   0.133
 5638SOL    HW217814   5.272   2.780   0.167
 5639SOL     OW17815   0.680   1.326   6.412
 5639SOL    HW117816   0.751   1.317   6.482
 5639SOL    HW217817   0.721   1.364   6.328
 5640SOL     OW17818   2.375   0.035   3.832
 5640SOL    HW117819   2.438   0.094   3.781
 5640SOL    HW217820   2.394   6.957   3.810
 5641SOL     OW17821   6.410   5.172   5.631
 5641SOL    HW117822   6.375   5.119   5.554
 5641SOL    HW217823   6.403   5.270   5.611
 5642SOL     OW17824   1.827   1.834   6.584
 5642SOL    HW117825   1.819   1.740   6.618
 5642SOL    HW217826   1.788   1.897   6.651
 5643SOL     OW17827   6.525   2.785   4.409
 5643SOL    HW117828   6.491   2.710   4.467
 5643SOL    HW217829   6.617   2.763   4.377
 5644SOL     OW17830   2.892   6.822   6.224
 5644SOL    HW117831   2.911   6.917   6.199
 5644SOL    HW217832   2.806   6.817   6.274
 5645SOL     OW17833   5.716   3.675   3.768
 5645SOL    HW117834   5.718   3.593   3.825
 5645SOL    HW217835   5.760   3.655   3.680
 5646SOL     OW17836   2.015   4.285   3.002
 5646SOL    HW117837   2.027   4.285   3.102
 5646SOL    HW217838   2.046   4.198   2.965
 5647SOL     OW17839   5.978   6.111   2.819
 5647SOL    HW117840   5.956   6.022   2.779
 5647SOL    HW217841   6.049   6.156   2.765
 5648SOL     OW17842   3.631   6.300   2.892
 5648SOL    HW117843   3.616   6.247   2.808
 5648SOL    HW217844   3.580   6.385   2.888
 5649SOL     OW17845   0.681   5.767   3.619
 5649SOL    HW117846   0.694   5.671   3.597
 5649SOL    HW217847   0.598   5.778   3.674
 5650SOL     OW17848   0.136   4.430   0.506
 5650SOL    HW117849   0.194   4.401   0.582
 5650SOL    HW217850   0.186   4.419   0.420
 5651SOL     OW17851   1.626   0.817   0.942
 5651SOL    HW117852   1.622   0.808   1.041
 5651SOL    HW217853   1.543   0.862   0.909
 5652SOL     OW17854   0.523   4.924   1.774
 5652SOL    HW117855   0.594   4.945   1.707
 5652SOL    HW217856   0.462   4.854   1.738
 5653SOL     OW17857   0.078   6.366   1.639
 5653SOL    HW117858   0.088   6.425   1.719
 5653SOL    HW217859   0.166   6.358   1.592
 5654SOL     OW17860   2.324   6.118   4.618
 5654SOL    HW117861   2.377   6.183   4.563
 5654SOL    HW217862   2.249   6.082   4.562
 5655SOL     OW17863   6.520   3.051   4.001
 5655SOL    HW117864   6.594   3.007   4.051
 5655SOL    HW217865   6.533   3.037   3.903
 5656SOL     OW17866   0.527   2.869   6.490
 5656SOL    HW117867   0.436   2.839   6.462
 5656SOL    HW217868   0.574   2.793   6.536
 5657SOL     OW17869   4.334   5.155   5.042
 5657SOL    HW117870   4.352   5.253   5.027
 5657SOL    HW217871   4.283   5.118   4.964
 5658SOL     OW17872   1.914   2.120   5.612
 5658SOL    HW117873   1.853   2.150   5.538
 5658SOL    HW217874   1.860   2.073   5.682
 5659SOL     OW17875   3.324   4.106   6.283
 5659SOL    HW117876   3.398   4.038   6.289
 5659SOL    HW217877   3.357   4.186   6.233
 5660SOL     OW17878   4.205   0.009   6.980
 5660SOL    HW117879   4.283   6.967   6.996
 5660SOL    HW217880   4.144   6.984   6.913
 5661SOL     OW17881   1.207   5.488   5.706
 5661SOL    HW117882   1.162   5.463   5.791
 5661SOL    HW217883   1.154   5.454   5.628
 5662SOL     OW17884   2.693   6.361   2.523
 5662SOL    HW117885   2.781   6.383   2.566
 5662SOL    HW217886   2.695   6.267   2.490
 5663SOL     OW17887   1.131   3.219   0.382
 5663SOL    HW117888   1.070   3.141   0.400
 5663SOL    HW217889   1.178   3.205   0.295
 5664SOL     OW17890   5.151   4.119   4.308
 5664SOL    HW117891   5.178   4.038   4.360
 5664SOL    HW217892   5.061   4.103   4.266
 5665SOL     OW17893   2.262   0.710   1.050
 5665SOL    HW117894   2.175   0.694   1.098
 5665SOL    HW217895   2.293   0.803   1.068
 5666SOL     OW17896   6.446   0.933   5.074
 5666SOL    HW117897   6.440   0.851   5.131
 5666SOL    HW217898   6.355   0.960   5.045
 5667SOL     OW17899   2.586   5.651   4.737
 5667SOL    HW117900   2.555   5.744   4.717
 5667SOL    HW217901   2.582   5.596   4.654
 5668SOL     OW17902   5.731   3.259   3.635
 5668SOL    HW117903   5.801   3.244   3.565
 5668SOL    HW217904   5.740   3.191   3.707
 5669SOL     OW17905   6.207   4.032   6.603
 5669SOL    HW117906   6.304   4.006   6.611
 5669SOL    HW217907   6.160   4.008   6.688
 5670SOL     OW17908   1.228   2.578   2.261
 5670SOL    HW117909   1.179   2.552   2.344
 5670SOL    HW217910   1.247   2.496   2.207
 5671SOL     OW17911   0.252   0.051   3.467
 5671SOL    HW117912   0.283   0.048   3.562
 5671SOL    HW217913   0.178   7.003   3.455
 5672SOL     OW17914   5.141   3.918   5.075
 5672SOL    HW117915   5.047   3.896   5.101
 5672SOL    HW217916   5.204   3.854   5.118
 5673SOL     OW17917   1.001   0.534   1.063
 5673SOL    HW117918   0.937   0.533   1.140
 5673SOL    HW217919   1.047   0.623   1.060
 5674SOL     OW17920   1.820   5.752   5.213
 5674SOL    HW117921   1.748   5.726   5.277
 5674SOL    HW217922   1.885   5.677   5.202
 5675SOL     OW17923   2.086   1.827   0.332
 5675SOL    HW117924   2.125   1.919   0.330
 5675SOL    HW217925   2.159   1.759   0.341
 5676SOL     OW17926   2.729   2.164   1.740
 5676SOL    HW117927   2.756   2.109   1.819
 5676SOL    HW217928   2.810   2.202   1.695
 5677SOL     OW17929   6.869   0.124   1.226
 5677SOL    HW117930   6.819   0.208   1.246
 5677SOL    HW217931   6.911   0.090   1.310
 5678SOL     OW17932   3.589   2.095   1.713
 5678SOL    HW117933   3.492   2.093   1.687
 5678SOL    HW217934   3.607   2.175   1.770
 5679SOL     OW17935   6.129   3.368   5.296
 5679SOL    HW117936   6.093   3.289   5.346
 5679SOL    HW217937   6.073   3.385   5.215
 5680SOL     OW17938   1.739   5.781   5.771
 5680SOL    HW117939   1.694   5.811   5.688
 5680SOL    HW217940   1.764   5.860   5.827
 5681SOL     OW17941   0.756   4.126   3.208
 5681SOL    HW117942   0.693   4.057   3.243
 5681SOL    HW217943   0.850   4.094   3.220
 5682SOL     OW17944   2.349   4.236   2.143
 5682SOL    HW117945   2.341   4.330   2.110
 5682SOL    HW217946   2.259   4.194   2.146
 5683SOL     OW17947   4.697   1.403   6.916
 5683SOL    HW117948   4.667   1.314   6.952
 5683SOL    HW217949   4.654   1.419   6.828
 5684SOL     OW17950   2.503   2.550   5.380
 5684SOL    HW117951   2.537   2.644   5.371
 5684SOL    HW217952   2.518   2.518   5.474
 5685SOL     OW17953   2.755   1.998   3.892
 5685SOL    HW117954   2.806   1.939   3.954
 5685SOL    HW217955   2.742   2.088   3.934
 5686SOL     OW17956   3.167   6.280   5.952
 5686SOL    HW117957   3.079   6.271   5.906
 5686SOL    HW217958   3.240   6.246   5.892
 5687SOL     OW17959   2.370   6.308   5.896
 5687SOL    HW117960   2.378   6.208   5.893
 5687SOL    HW217961   2.377   6.339   5.991
 5688SOL     OW17962   2.194   3.155   3.244
 5688SOL    HW117963   2.118   3.164   3.180
 5688SOL    HW217964   2.238   3.244   3.257
 5689SOL     OW17965   1.247   1.782   1.635
 5689SOL    HW117966   1.315   1.854   1.621
 5689SOL    HW217967   1.293   1.699   1.666
 5690SOL     OW17968   1.375   5.805   0.172
 5690SOL    HW117969   1.332   5.793   0.262
 5690SOL    HW217970   1.389   5.716   0.130
 5691SOL     OW17971   3.813   1.198   2.643
 5691SOL    HW117972   3.820   1.282   2.697
 5691SOL    HW217973   3.728   1.199   2.591
 5692SOL     OW17974   4.525   4.755   1.308
 5692SOL    HW117975   4.624   4.752   1.298
 5692SOL    HW217976   4.487   4.826   1.249
 5693SOL     OW17977   3.411   0.955   1.401
 5693SOL    HW117978   3.333   0.912   1.356
 5693SOL    HW217979   3.470   0.999   1.333
 5694SOL     OW17980   0.234   0.070   2.516
 5694SOL    HW117981   0.181   0.107   2.593
 5694SOL    HW217982   0.330   0.099   2.525
 5695SOL     OW17983   0.830   0.563   0.859
 5695SOL    HW117984   0.905   0.536   0.920
 5695SOL    HW217985   0.745   0.569   0.912
 5696SOL     OW17986   1.657   0.022   3.846
 5696SOL    HW117987   1.720   7.011   3.918
 5696SOL    HW217988   1.657   6.972   3.772
 5697SOL     OW17989   6.227   2.642   0.414
 5697SOL    HW117990   6.210   2.584   0.334
 5697SOL    HW217991   6.140   2.661   0.460
 5698SOL     OW17992   2.306   2.685   3.653
 5698SOL    HW117993   2.208   2.702   3.664
 5698SOL    HW217994   2.335   2.719   3.563
 5699SOL     OW17995   2.383   2.490   2.729
 5699SOL    HW117996   2.478   2.459   2.731
 5699SOL    HW217997   2.378   2.584   2.763
 5700SOL     OW17998   6.044   0.543   3.557
 5700SOL    HW117999   6.088   0.472   3.612
 5700SOL    HW218000   6.083   0.542   3.464
 5701SOL     OW18001   6.704   0.709   0.724
 5701SOL    HW118002   6.643   0.737   0.797
 5701SOL    HW218003   6.653   0.656   0.656
 5702SOL     OW18004   2.522   6.801   4.845
 5702SOL    HW118005   2.554   6.882   4.893
 5702SOL    HW218006   2.576   6.722   4.874
 5703SOL     OW18007   6.975   2.662   6.584
 5703SOL    HW118008   7.005   2.567   6.591
 5703SOL    HW218009   6.875   2.665   6.594
 5704SOL     OW18010   5.418   4.722   4.228
 5704SOL    HW118011   5.507   4.736   4.186
 5704SOL    HW218012   5.387   4.628   4.212
 5705SOL     OW18013   5.891   6.682   6.233
 5705SOL    HW118014   5.840   6.766   6.253
 5705SOL    HW218015   5.845   6.633   6.159
 5706SOL     OW18016   5.659   2.209   6.967
 5706SOL    HW118017   5.733   2.174   0.006
 5706SOL    HW218018   5.611   2.282   7.015
 5707SOL     OW18019   5.618   6.561   2.439
 5707SOL    HW118020   5.618   6.558   2.539
 5707SOL    HW218021   5.566   6.484   2.403
 5708SOL     OW18022   4.402   5.931   3.293
 5708SOL    HW118023   4.453   5.883   3.222
 5708SOL    HW218024   4.391   6.027   3.267
 5709SOL     OW18025   0.719   1.124   2.293
 5709SOL    HW118026   0.660   1.075   2.229
 5709SOL    HW218027   0.787   1.178   2.242
 5710SOL     OW18028   2.415   2.063   0.806
 5710SOL    HW118029   2.503   2.109   0.794
 5710SOL    HW218030   2.344   2.114   0.759
 5711SOL     OW18031   5.181   2.188   2.113
 5711SOL    HW118032   5.135   2.129   2.047
 5711SOL    HW218033   5.269   2.217   2.076
 5712SOL     OW18034   6.544   6.199   1.699
 5712SOL    HW118035   6.505   6.197   1.607
 5712SOL    HW218036   6.640   6.226   1.694
 5713SOL     OW18037   2.628   6.424   0.712
 5713SOL    HW118038   2.637   6.354   0.640
 5713SOL    HW218039   2.535   6.424   0.747
 5714SOL     OW18040   6.283   6.254   1.486
 5714SOL    HW118041   6.243   6.267   1.395
 5714SOL    HW218042   6.258   6.163   1.519
 5715SOL     OW18043   0.898   0.281   1.505
 5715SOL    HW118044   0.809   0.325   1.495
 5715SOL    HW218045   0.971   0.347   1.487
 5716SOL     OW18046   6.946   4.231   6.174
 5716SOL    HW118047   6.946   4.321   6.219
 5716SOL    HW218048   6.996   4.237   6.088
 5717SOL     OW18049   1.379   5.140   3.012
 5717SOL    HW118050   1.338   5.049   3.002
 5717SOL    HW218051   1.478   5.134   2.996
 5718SOL     OW18052   1.008   3.119   0.042
 5718SOL    HW118053   1.032   3.207   0.084
 5718SOL    HW218054   0.954   3.136   6.977
 5719SOL     OW18055   2.873   3.867   0.704
 5719SOL    HW118056   2.838   3.893   0.615
 5719SOL    HW218057   2.973   3.858   0.699
 5720SOL     OW18058   2.002   5.161   5.714
 5720SOL    HW118059   2.090   5.205   5.732
 5720SOL    HW218060   1.995   5.141   5.616
 5721SOL     OW18061   4.190   4.382   0.283
 5721SOL    HW118062   4.278   4.427   0.271
 5721SOL    HW218063   4.199   4.308   0.350
 5722SOL     OW18064   0.802   0.954   5.324
 5722SOL    HW118065   0.884   1.002   5.292
 5722SOL    HW218066   0.816   0.922   5.418
 5723SOL     OW18067   4.220   3.252   0.175
 5723SOL    HW118068   4.281   3.327   0.152
 5723SOL    HW218069   4.149   3.244   0.105
 5724SOL     OW18070   5.037   2.470   3.590
 5724SOL    HW118071   5.116   2.410   3.581
 5724SOL    HW218072   4.958   2.428   3.544
 5725SOL     OW18073   6.678   4.293   3.821
 5725SOL    HW118074   6.581   4.272   3.809
 5725SOL    HW218075   6.732   4.212   3.797
 5726SOL     OW18076   5.338   4.600   2.676
 5726SOL    HW118077   5.263   4.536   2.696
 5726SOL    HW218078   5.400   4.603   2.755
 5727SOL     OW18079   0.304   2.827   4.544
 5727SOL    HW118080   0.387   2.804   4.494
 5727SOL    HW218081   0.239   2.872   4.483
 5728SOL     OW18082   5.249   6.076   5.098
 5728SOL    HW118083   5.177   6.126   5.049
 5728SOL    HW218084   5.313   6.141   5.139
 5729SOL     OW18085   1.907   1.591   6.025
 5729SOL    HW118086   1.935   1.611   5.931
 5729SOL    HW218087   1.815   1.628   6.041
 5730SOL     OW18088   6.201   4.187   5.906
 5730SOL    HW118089   6.238   4.106   5.950
 5730SOL    HW218090   6.151   4.242   5.973
 5731SOL     OW18091   0.275   6.251   2.034
 5731SOL    HW118092   0.296   6.284   2.126
 5731SOL    HW218093   0.289   6.152   2.030
 5732SOL     OW18094   1.297   6.835   3.810
 5732SOL    HW118095   1.250   6.759   3.765
 5732SOL    HW218096   1.393   6.809   3.826
 5733SOL     OW18097   3.415   0.376   5.393
 5733SOL    HW118098   3.493   0.415   5.345
 5733SOL    HW218099   3.386   0.292   5.347
 5734SOL     OW18100   2.126   6.117   3.071
 5734SOL    HW118101   2.038   6.089   3.108
 5734SOL    HW218102   2.129   6.097   2.973
 5735SOL     OW18103   3.004   1.095   2.190
 5735SOL    HW118104   3.078   1.135   2.245
 5735SOL    HW218105   3.043   1.054   2.108
 5736SOL     OW18106   1.070   5.616   0.127
 5736SOL    HW118107   1.051   5.575   0.216
 5736SOL    HW218108   0.989   5.667   0.097
 5737SOL     OW18109   5.646   4.583   0.412
 5737SOL    HW118110   5.577   4.644   0.372
 5737SOL    HW218111   5.697   4.631   0.483
 5738SOL     OW18112   1.487   3.954   5.883
 5738SOL    HW118113   1.532   3.919   5.965
 5738SOL    HW218114   1.471   3.880   5.818
 5739SOL     OW18115   0.951   1.071   0.984
 5739SOL    HW118116   0.871   1.074   0.925
 5739SOL    HW218117   1.000   1.158   0.979
 5740SOL     OW18118   3.909   5.922   5.975
 5740SOL    HW118119   4.004   5.909   5.948
 5740SOL    HW218120   3.851   5.853   5.931
 5741SOL     OW18121   0.747   4.928   4.045
 5741SOL    HW118122   0.768   4.980   4.127
 5741SOL    HW218123   0.720   4.835   4.070
 5742SOL     OW18124   6.408   6.734   3.965
 5742SOL    HW118125   6.483   6.669   3.976
 5742SOL    HW218126   6.344   6.700   3.897
 5743SOL     OW18127   1.603   6.592   5.571
 5743SOL    HW118128   1.676   6.525   5.558
 5743SOL    HW218129   1.633   6.681   5.537
 5744SOL     OW18130   6.495   0.285   2.249
 5744SOL    HW118131   6.503   0.359   2.182
 5744SOL    HW218132   6.438   0.316   2.325
 5745SOL     OW18133   1.500   1.822   3.621
 5745SOL    HW118134   1.479   1.785   3.530
 5745SOL    HW218135   1.427   1.797   3.685
 5746SOL     OW18136   5.340   3.387   0.342
 5746SOL    HW118137   5.398   3.422   0.416
 5746SOL    HW218138   5.319   3.461   0.278
 5747SOL     OW18139   1.149   5.730   3.145
 5747SOL    HW118140   1.061   5.745   3.191
 5747SOL    HW218141   1.204   5.814   3.151
 5748SOL     OW18142   2.331   6.487   2.411
 5748SOL    HW118143   2.291   6.441   2.490
 5748SOL    HW218144   2.263   6.547   2.370
 5749SOL     OW18145   2.707   1.672   3.559
 5749SOL    HW118146   2.642   1.732   3.513
 5749SOL    HW218147   2.683   1.666   3.656
 5750SOL     OW18148   6.481   5.838   2.570
 5750SOL    HW118149   6.507   5.935   2.569
 5750SOL    HW218150   6.559   5.783   2.598
 5751SOL     OW18151   2.125   4.088   5.657
 5751SOL    HW118152   2.081   4.044   5.578
 5751SOL    HW218153   2.176   4.168   5.625
 5752SOL     OW18154   6.620   0.413   6.636
 5752SOL    HW118155   6.585   0.500   6.673
 5752SOL    HW218156   6.554   0.341   6.655
 5753SOL     OW18157   3.617   2.524   0.607
 5753SOL    HW118158   3.697   2.464   0.606
 5753SOL    HW218159   3.647   2.618   0.625
 5754SOL     OW18160   5.927   4.571   1.491
 5754SOL    HW118161   5.970   4.659   1.512
 5754SOL    HW218162   5.828   4.584   1.483
 5755SOL     OW18163   3.672   3.963   1.068
 5755SOL    HW118164   3.598   3.899   1.047
 5755SOL    HW218165   3.730   3.924   1.139
 5756SOL     OW18166   0.164   5.702   4.734
 5756SOL    HW118167   0.231   5.711   4.808
 5756SOL    HW218168   0.188   5.624   4.677
 5757SOL     OW18169   0.381   4.688   0.849
 5757SOL    HW118170   0.296   4.644   0.819
 5757SOL    HW218171   0.396   4.669   0.946
 5758SOL     OW18172   1.113   1.983   5.559
 5758SOL    HW118173   1.020   2.013   5.538
 5758SOL    HW218174   1.177   2.025   5.495
 5759SOL     OW18175   5.665   1.679   5.276
 5759SOL    HW118176   5.594   1.628   5.228
 5759SOL    HW218177   5.742   1.619   5.298
 5760SOL     OW18178   1.786   5.362   2.382
 5760SOL    HW118179   1.825   5.430   2.444
 5760SOL    HW218180   1.690   5.384   2.365
 5761SOL     OW18181   4.833   0.058   4.900
 5761SOL    HW118182   4.855   0.014   4.987
 5761SOL    HW218183   4.917   0.079   4.851
 5762SOL     OW18184   5.659   5.928   1.534
 5762SOL    HW118185   5.756   5.923   1.559
 5762SOL    HW218186   5.609   5.854   1.579
 5763SOL     OW18187   1.066   1.224   1.699
 5763SOL    HW118188   1.137   1.182   1.643
 5763SOL    HW218189   0.985   1.242   1.643
 5764SOL     OW18190   4.282   3.759   5.261
 5764SOL    HW118191   4.293   3.852   5.296
 5764SOL    HW218192   4.195   3.751   5.212
 5765SOL     OW18193   5.756   5.088   0.121
 5765SOL    HW118194   5.796   5.109   0.032
 5765SOL    HW218195   5.802   5.141   0.192
 5766SOL     OW18196   3.428   1.365   3.271
 5766SOL    HW118197   3.406   1.430   3.344
 5766SOL    HW218198   3.459   1.279   3.311
 5767SOL     OW18199   0.199   6.670   1.688
 5767SOL    HW118200   0.218   6.627   1.600
 5767SOL    HW218201   0.217   6.605   1.762
 5768SOL     OW18202   6.763   1.584   2.830
 5768SOL    HW118203   6.747   1.487   2.810
 5768SOL    HW218204   6.858   1.607   2.811
 5769SOL     OW18205   2.342   5.524   3.526
 5769SOL    HW118206   2.269   5.542   3.460
 5769SOL    HW218207   2.314   5.450   3.588
 5770SOL     OW18208   6.250   0.511   1.832
 5770SOL    HW118209   6.345   0.493   1.806
 5770SOL    HW218210   6.228   0.460   1.916
 5771SOL     OW18211   0.831   1.550   1.868
 5771SOL    HW118212   0.773   1.616   1.915
 5771SOL    HW218213   0.899   1.598   1.812
 5772SOL     OW18214   6.979   3.914   6.920
 5772SOL    HW118215   6.984   4.001   6.871
 5772SOL    HW218216   6.994   3.930   7.018
 5773SOL     OW18217   5.521   5.937   4.071
 5773SOL    HW118218   5.608   5.914   4.028
 5773SOL    HW218219   5.537   6.000   4.147
 5774SOL     OW18220   2.248   5.164   3.475
 5774SOL    HW118221   2.209   5.180   3.566
 5774SOL    HW218222   2.284   5.070   3.471
 5775SOL     OW18223   0.230   0.345   0.081
 5775SOL    HW118224   0.153   0.402   0.051
 5775SOL    HW218225   0.254   0.369   0.175
 5776SOL     OW18226   5.576   0.924   5.718
 5776SOL    HW118227   5.649   0.987   5.693
 5776SOL    HW218228   5.562   0.859   5.643
 5777SOL     OW18229   6.682   0.760   5.261
 5777SOL    HW118230   6.710   0.822   5.188
 5777SOL    HW218231   6.587   0.733   5.248
 5778SOL     OW18232   2.480   6.683   3.996
 5778SOL    HW118233   2.527   6.728   4.072
 5778SOL    HW218234   2.490   6.584   4.005
 5779SOL     OW18235   4.444   1.431   2.764
 5779SOL    HW118236   4.481   1.511   2.811
 5779SOL    HW218237   4.470   1.435   2.667
 5780SOL     OW18238   5.999   3.893   1.445
 5780SOL    HW118239   6.083   3.906   1.497
 5780SOL    HW218240   5.924   3.874   1.507
 5781SOL     OW18241   2.160   5.474   4.508
 5781SOL    HW118242   2.195   5.481   4.601
 5781SOL    HW218243   2.076   5.419   4.508
 5782SOL     OW18244   2.668   1.646   2.724
 5782SOL    HW118245   2.569   1.645   2.713
 5782SOL    HW218246   2.698   1.739   2.744
 5783SOL     OW18247   1.952   6.779   0.651
 5783SOL    HW118248   1.951   6.865   0.701
 5783SOL    HW218249   1.862   6.736   0.657
 5784SOL     OW18250   1.670   5.615   0.057
 5784SOL    HW118251   1.716   5.625   0.145
 5784SOL    HW218252   1.678   5.520   0.026
 5785SOL     OW18253   1.814   2.140   6.965
 5785SOL    HW118254   1.864   2.227   6.970
 5785SOL    HW218255   1.797   2.106   0.040
 5786SOL     OW18256   1.014   3.117   1.271
 5786SOL    HW118257   1.063   3.043   1.225
 5786SOL    HW218258   0.939   3.148   1.213
 5787SOL     OW18259   0.160   3.115   5.520
 5787SOL    HW118260   0.080   3.149   5.571
 5787SOL    HW218261   0.230   3.186   5.519
 5788SOL     OW18262   1.828   2.650   1.901
 5788SOL    HW118263   1.826   2.711   1.980
 5788SOL    HW218264   1.920   2.614   1.888
 5789SOL     OW18265   3.089   5.168   6.967
 5789SOL    HW118266   3.092   5.154   6.868
 5789SOL    HW218267   3.053   5.086   7.011
 5790SOL     OW18268   6.235   6.212   3.501
 5790SOL    HW118269   6.295   6.203   3.581
 5790SOL    HW218270   6.156   6.268   3.526
 5791SOL     OW18271   3.699   1.354   2.383
 5791SOL    HW118272   3.758   1.391   2.455
 5791SOL    HW218273   3.641   1.426   2.346
 5792SOL     OW18274   4.958   3.276   2.904
 5792SOL    HW118275   5.051   3.313   2.902
 5792SOL    HW218276   4.948   3.207   2.832
 5793SOL     OW18277   4.272   2.494   6.574
 5793SOL    HW118278   4.253   2.512   6.477
 5793SOL    HW218279   4.300   2.399   6.586
 5794SOL     OW18280   3.917   6.631   6.885
 5794SOL    HW118281   3.914   6.543   6.932
 5794SOL    HW218282   3.913   6.617   6.786
 5795SOL     OW18283   2.336   5.837   1.934
 5795SOL    HW118284   2.245   5.865   1.905
 5795SOL    HW218285   2.397   5.917   1.934
 5796SOL     OW18286   5.097   1.227   6.850
 5796SOL    HW118287   5.021   1.163   6.855
 5796SOL    HW218288   5.063   1.320   6.835
 5797SOL     OW18289   5.994   2.532   1.191
 5797SOL    HW118290   5.954   2.440   1.202
 5797SOL    HW218291   6.042   2.557   1.275
 5798SOL     OW18292   1.622   3.586   4.978
 5798SOL    HW118293   1.572   3.603   4.894
 5798SOL    HW218294   1.680   3.665   4.999
 5799SOL     OW18295   2.088   6.573   3.739
 5799SOL    HW118296   2.153   6.637   3.698
 5799SOL    HW218297   2.049   6.515   3.668
 5800SOL     OW18298   1.677   0.172   1.414
 5800SOL    HW118299   1.585   0.157   1.376
 5800SOL    HW218300   1.694   0.104   1.485
 5801SOL     OW18301   2.130   1.520   2.009
 5801SOL    HW118302   2.175   1.433   2.028
 5801SOL    HW218303   2.152   1.585   2.081
 5802SOL     OW18304   0.555   0.705   1.578
 5802SOL    HW118305   0.481   0.650   1.615
 5802SOL    HW218306   0.606   0.748   1.653
 5803SOL     OW18307   0.320   5.518   4.079
 5803SOL    HW118308   0.240   5.553   4.129
 5803SOL    HW218309   0.353   5.588   4.016
 5804SOL     OW18310   5.926   2.012   3.058
 5804SOL    HW118311   6.011   1.978   3.017
 5804SOL    HW218312   5.946   2.095   3.111
 5805SOL     OW18313   1.304   2.630   1.718
 5805SOL    HW118314   1.244   2.561   1.758
 5805SOL    HW218315   1.393   2.626   1.764
 5806SOL     OW18316   6.847   4.391   2.104
 5806SOL    HW118317   6.931   4.435   2.135
 5806SOL    HW218318   6.796   4.356   2.183
 5807SOL     OW18319   1.747   0.446   0.986
 5807SOL    HW118320   1.720   0.447   1.082
 5807SOL    HW218321   1.711   0.363   0.942
 5808SOL     OW18322   6.649   0.292   5.869
 5808SOL    HW118323   6.706   0.317   5.790
 5808SOL    HW218324   6.668   0.355   5.944
 5809SOL     OW18325   0.381   2.257   5.355
 5809SOL    HW118326   0.480   2.261   5.369
 5809SOL    HW218327   0.342   2.349   5.363
 5810SOL     OW18328   2.746   6.575   5.341
 5810SOL    HW118329   2.813   6.640   5.306
 5810SOL    HW218330   2.761   6.486   5.298
 5811SOL     OW18331   3.460   4.297   6.707
 5811SOL    HW118332   3.483   4.250   6.792
 5811SOL    HW218333   3.538   4.354   6.679
 5812SOL     OW18334   5.649   2.601   6.547
 5812SOL    HW118335   5.713   2.629   6.618
 5812SOL    HW218336   5.574   2.550   6.589
 5813SOL     OW18337   4.758   5.892   0.205
 5813SOL    HW118338   4.771   5.795   0.223
 5813SOL    HW218339   4.744   5.940   0.291
 5814SOL     OW18340   5.225   1.447   1.789
 5814SOL    HW118341   5.305   1.468   1.845
 5814SOL    HW218342   5.142   1.458   1.843
 5815SOL     OW18343   6.643   2.339   3.918
 5815SOL    HW118344   6.549   2.345   3.884
 5815SOL    HW218345   6.693   2.273   3.862
 5816SOL     OW18346   6.985   3.350   2.523
 5816SOL    HW118347   6.892   3.342   2.558
 5816SOL    HW218348   6.993   3.296   2.439
 5817SOL     OW18349   5.934   3.747   3.279
 5817SOL    HW118350   6.030   3.720   3.282
 5817SOL    HW218351   5.909   3.790   3.365
 5818SOL     OW18352   2.312   0.407   4.902
 5818SOL    HW118353   2.254   0.439   4.828
 5818SOL    HW218354   2.257   0.392   4.984
 5819SOL     OW18355   4.517   5.046   0.305
 5819SOL    HW118356   4.514   4.949   0.281
 5819SOL    HW218357   4.580   5.059   0.382
 5820SOL     OW18358   5.601   6.225   2.282
 5820SOL    HW118359   5.534   6.189   2.216
 5820SOL    HW218360   5.613   6.160   2.357
 5821SOL     OW18361   0.112   0.371   0.915
 5821SOL    HW118362   0.073   0.323   0.837
 5821SOL    HW218363   0.212   0.372   0.907
 5822SOL     OW18364   1.746   3.412   3.225
 5822SOL    HW118365   1.732   3.400   3.127
 5822SOL    HW218366   1.671   3.368   3.275
 5823SOL     OW18367   1.762   5.268   3.070
 5823SOL    HW118368   1.745   5.197   3.002
 5823SOL    HW218369   1.827   5.335   3.033
 5824SOL     OW18370   1.164   0.420   2.961
 5824SOL    HW118371   1.140   0.474   3.041
 5824SOL    HW218372   1.191   0.482   2.887
 5825SOL     OW18373   5.373   1.156   4.389
 5825SOL    HW118374   5.347   1.131   4.482
 5825SOL    HW218375   5.411   1.076   4.343
 5826SOL     OW18376   0.964   6.861   5.320
 5826SOL    HW118377   1.048   6.884   5.369
 5826SOL    HW218378   0.888   6.913   5.358
 5827SOL     OW18379   2.192   3.940   3.639
 5827SOL    HW118380   2.119   3.871   3.635
 5827SOL    HW218381   2.204   3.981   3.549
 5828SOL     OW18382   3.862   0.504   5.121
 5828SOL    HW118383   3.810   0.427   5.085
 5828SOL    HW218384   3.828   0.589   5.079
 5829SOL     OW18385   2.321   0.723   3.717
 5829SOL    HW118386   2.351   0.774   3.636
 5829SOL    HW218387   2.401   0.685   3.764
 5830SOL     OW18388   4.107   4.757   4.349
 5830SOL    HW118389   4.118   4.850   4.384
 5830SOL    HW218390   4.019   4.750   4.301
 5831SOL     OW18391   1.565   2.061   5.516
 5831SOL    HW118392   1.471   2.033   5.495
 5831SOL    HW218393   1.626   1.981   5.508
 5832SOL     OW18394   2.803   5.059   1.825
 5832SOL    HW118395   2.781   4.962   1.816
 5832SOL    HW218396   2.858   5.073   1.908
 5833SOL     OW18397   3.621   5.007   0.038
 5833SOL    HW118398   3.688   4.942   0.003
 5833SOL    HW218399   3.613   5.085   6.994
 5834SOL     OW18400   6.011   2.821   6.632
 5834SOL    HW118401   5.973   2.896   6.579
 5834SOL    HW218402   5.975   2.734   6.598
 5835SOL     OW18403   5.118   2.397   2.890
 5835SOL    HW118404   5.159   2.314   2.927
 5835SOL    HW218405   5.162   2.420   2.803
 5836SOL     OW18406   4.655   6.031   3.084
 5836SOL    HW118407   4.682   6.048   2.989
 5836SOL    HW218408   4.628   5.935   3.094
 5837SOL     OW18409   2.522   5.428   6.743
 5837SOL    HW118410   2.484   5.362   6.678
 5837SOL    HW218411   2.620   5.413   6.752
 5838SOL     OW18412   3.798   2.333   0.617
 5838SOL    HW118413   3.843   2.337   0.706
 5838SOL    HW218414   3.867   2.335   0.544
 5839SOL     OW18415   2.090   2.428   0.308
 5839SOL    HW118416   2.188   2.417   0.290
 5839SOL    HW218417   2.058   2.512   0.265
 5840SOL     OW18418   0.254   3.329   3.193
 5840SOL    HW118419   0.174   3.387   3.177
 5840SOL    HW218420   0.225   3.237   3.218
 5841SOL     OW18421   4.782   1.092   0.700
 5841SOL    HW118422   4.682   1.086   0.697
 5841SOL    HW218423   4.811   1.184   0.672
 5842SOL     OW18424   2.170   2.584   1.124
 5842SOL    HW118425   2.254   2.626   1.160
 5842SOL    HW218426   2.100   2.582   1.196
 5843SOL     OW18427   2.834   3.796   1.113
 5843SOL    HW118428   2.819   3.860   1.038
 5843SOL    HW218429   2.893   3.722   1.083
 5844SOL     OW18430   0.726   6.289   4.865
 5844SOL    HW118431   0.797   6.326   4.925
 5844SOL    HW218432   0.721   6.345   4.782
 5845SOL     OW18433   1.138   0.288   2.324
 5845SOL    HW118434   1.175   0.346   2.396
 5845SOL    HW218435   1.040   0.274   2.340
 5846SOL     OW18436   0.050   3.867   5.311
 5846SOL    HW118437   0.021   3.779   5.275
 5846SOL    HW218438   0.002   3.940   5.262
 5847SOL     OW18439   2.148   3.968   6.411
 5847SOL    HW118440   2.096   3.973   6.496
 5847SOL    HW218441   2.245   3.985   6.430
 5848SOL     OW18442   1.941   5.183   2.266
 5848SOL    HW118443   1.903   5.263   2.313
 5848SOL    HW218444   2.038   5.175   2.287
 5849SOL     OW18445   3.542   6.070   5.596
 5849SOL    HW118446   3.485   6.041   5.520
 5849SOL    HW218447   3.523   6.166   5.617
 5850SOL     OW18448   1.049   1.476   2.409
 5850SOL    HW118449   0.972   1.503   2.352
 5850SOL    HW218450   1.035   1.383   2.443
 5851SOL     OW18451   6.511   3.812   4.116
 5851SOL    HW118452   6.537   3.887   4.056
 5851SOL    HW218453   6.584   3.796   4.183
 5852SOL     OW18454   4.933   4.244   2.103
 5852SOL    HW118455   4.940   4.341   2.127
 5852SOL    HW218456   5.024   4.204   2.096
 5853SOL     OW18457   4.678   4.977   6.430
 5853SOL    HW118458   4.677   5.030   6.345
 5853SOL    HW218459   4.731   5.026   6.499
 5854SOL     OW18460   2.905   4.737   5.377
 5854SOL    HW118461   2.892   4.682   5.294
 5854SOL    HW218462   2.932   4.830   5.350
 5855SOL     OW18463   2.239   2.896   3.058
 5855SOL    HW118464   2.204   2.977   3.011
 5855SOL    HW218465   2.282   2.923   3.144
 5856SOL     OW18466   1.166   6.572   2.843
 5856SOL    HW118467   1.215   6.657   2.858
 5856SOL    HW218468   1.082   6.590   2.793
 5857SOL     OW18469   5.332   4.733   6.795
 5857SOL    HW118470   5.429   4.735   6.769
 5857SOL    HW218471   5.291   4.647   6.764
 5858SOL     OW18472   1.695   0.931   2.814
 5858SOL    HW118473   1.750   0.849   2.824
 5858SOL    HW218474   1.615   0.911   2.757
 5859SOL     OW18475   5.726   5.988   1.303
 5859SOL    HW118476   5.680   5.938   1.376
 5859SOL    HW218477   5.706   6.086   1.312
 5860SOL     OW18478   0.561   4.296   3.345
 5860SOL    HW118479   0.550   4.254   3.436
 5860SOL    HW218480   0.611   4.233   3.286
 5861SOL     OW18481   4.966   1.011   4.994
 5861SOL    HW118482   5.025   0.995   5.073
 5861SOL    HW218483   4.872   1.022   5.025
 5862SOL     OW18484   6.473   5.356   2.602
 5862SOL    HW118485   6.512   5.396   2.685
 5862SOL    HW218486   6.411   5.422   2.559
 5863SOL     OW18487   3.966   6.564   6.609
 5863SOL    HW118488   4.044   6.504   6.628
 5863SOL    HW218489   3.951   6.568   6.510
 5864SOL     OW18490   3.663   4.113   2.123
 5864SOL    HW118491   3.679   4.205   2.158
 5864SOL    HW218492   3.747   4.060   2.129
 5865SOL     OW18493   6.768   0.575   6.409
 5865SOL    HW118494   6.837   0.503   6.400
 5865SOL    HW218495   6.752   0.618   6.320
 5866SOL     OW18496   3.417   3.167   2.866
 5866SOL    HW118497   3.509   3.202   2.850
 5866SOL    HW218498   3.353   3.243   2.875
 5867SOL     OW18499   2.822   1.488   1.973
 5867SOL    HW118500   2.877   1.413   1.938
 5867SOL    HW218501   2.830   1.492   2.072
 5868SOL     OW18502   0.817   1.316   5.486
 5868SOL    HW118503   0.804   1.373   5.405
 5868SOL    HW218504   0.759   1.235   5.480
 5869SOL     OW18505   1.092   6.155   3.185
 5869SOL    HW118506   1.082   6.216   3.106
 5869SOL    HW218507   1.064   6.202   3.268
 5870SOL     OW18508   3.403   5.719   4.822
 5870SOL    HW118509   3.345   5.698   4.744
 5870SOL    HW218510   3.430   5.815   4.820
 5871SOL     OW18511   3.000   3.199   3.726
 5871SOL    HW118512   3.071   3.140   3.766
 5871SOL    HW218513   2.947   3.242   3.799
 5872SOL     OW18514   5.005   5.325   1.545
 5872SOL    HW118515   5.026   5.338   1.448
 5872SOL    HW218516   5.084   5.354   1.600
 5873SOL     OW18517   4.402   6.057   2.460
 5873SOL    HW118518   4.303   6.064   2.477
 5873SOL    HW218519   4.417   6.007   2.375
 5874SOL     OW18520   1.563   4.075   4.980
 5874SOL    HW118521   1.497   4.112   5.045
 5874SOL    HW218522   1.644   4.041   5.029
 5875SOL     OW18523   3.175   1.326   0.816
 5875SOL    HW118524   3.183   1.375   0.903
 5875SOL    HW218525   3.225   1.240   0.821
 5876SOL     OW18526   3.405   2.946   1.536
 5876SOL    HW118527   3.413   2.992   1.624
 5876SOL    HW218528   3.483   2.971   1.478
 5877SOL     OW18529   5.942   4.473   1.092
 5877SOL    HW118530   5.888   4.399   1.051
 5877SOL    HW218531   5.889   4.558   1.090
 5878SOL     OW18532   2.136   4.528   2.652
 5878SOL    HW118533   2.168   4.617   2.621
 5878SOL    HW218534   2.140   4.463   2.577
 5879SOL     OW18535   0.536   4.639   4.679
 5879SOL    HW118536   0.469   4.692   4.629
 5879SOL    HW218537   0.532   4.543   4.650
 5880SOL     OW18538   2.943   5.850   0.927
 5880SOL    HW118539   2.898   5.874   1.013
 5880SOL    HW218540   2.972   5.754   0.930
 5881SOL     OW18541   1.820   5.969   4.530
 5881SOL    HW118542   1.829   5.960   4.629
 5881SOL    HW218543   1.723   5.960   4.504
 5882SOL     OW18544   4.795   0.973   2.001
 5882SOL    HW118545   4.714   0.997   2.054
 5882SOL    HW218546   4.778   0.993   1.904
 5883SOL     OW18547   0.166   3.447   5.281
 5883SOL    HW118548   0.092   3.413   5.339
 5883SOL    HW218549   0.178   3.386   5.203
 5884SOL     OW18550   1.130   1.473   3.269
 5884SOL    HW118551   1.040   1.459   3.310
 5884SOL    HW218552   1.128   1.445   3.173
 5885SOL     OW18553   5.866   6.783   1.045
 5885SOL    HW118554   5.864   6.787   0.945
 5885SOL    HW218555   5.859   6.875   1.083
 5886SOL     OW18556   1.111   1.180   5.861
 5886SOL    HW118557   1.063   1.176   5.948
 5886SOL    HW218558   1.070   1.250   5.803
 5887SOL     OW18559   4.316   6.670   3.356
 5887SOL    HW118560   4.299   6.573   3.372
 5887SOL    HW218561   4.393   6.700   3.413
 5888SOL     OW18562   1.879   0.216   3.446
 5888SOL    HW118563   1.838   0.247   3.531
 5888SOL    HW218564   1.828   0.253   3.368
 5889SOL     OW18565   2.710   0.971   0.766
 5889SOL    HW118566   2.632   1.021   0.804
 5889SOL    HW218567   2.683   0.930   0.679
 5890SOL     OW18568   3.270   4.835   6.363
 5890SOL    HW118569   3.286   4.835   6.264
 5890SOL    HW218570   3.229   4.748   6.390
 5891SOL     OW18571   2.304   3.644   0.442
 5891SOL    HW118572   2.292   3.734   0.401
 5891SOL    HW218573   2.214   3.601   0.455
 5892SOL     OW18574   0.891   0.116   1.717
 5892SOL    HW118575   0.918   0.020   1.717
 5892SOL    HW218576   0.910   0.156   1.628
 5893SOL     OW18577   1.786   0.695   3.392
 5893SOL    HW118578   1.749   0.788   3.383
 5893SOL    HW218579   1.717   0.636   3.433
 5894SOL     OW18580   0.683   2.905   3.261
 5894SOL    HW118581   0.711   2.809   3.261
 5894SOL    HW218582   0.746   2.959   3.316
 5895SOL     OW18583   5.100   3.629   3.787
 5895SOL    HW118584   5.190   3.647   3.747
 5895SOL    HW218585   5.086   3.531   3.793
 5896SOL     OW18586   3.549   1.999   5.916
 5896SOL    HW118587   3.533   2.078   5.976
 5896SOL    HW218588   3.606   2.027   5.839
 5897SOL     OW18589   4.145   0.537   1.761
 5897SOL    HW118590   4.082   0.499   1.829
 5897SOL    HW218591   4.099   0.544   1.673
 5898SOL     OW18592   1.580   0.245   2.220
 5898SOL    HW118593   1.587   0.146   2.214
 5898SOL    HW218594   1.625   0.287   2.141
 5899SOL     OW18595   4.831   0.048   4.182
 5899SOL    HW118596   4.925   0.048   4.148
 5899SOL    HW218597   4.780   6.993   4.138
 5900SOL     OW18598   4.636   5.111   2.796
 5900SOL    HW118599   4.668   5.025   2.837
 5900SOL    HW218600   4.561   5.148   2.852
 5901SOL     OW18601   3.817   6.894   5.018
 5901SOL    HW118602   3.804   6.828   5.092
 5901SOL    HW218603   3.737   6.892   4.957
 5902SOL     OW18604   6.510   1.221   6.479
 5902SOL    HW118605   6.528   1.317   6.499
 5902SOL    HW218606   6.520   1.167   6.563
 5903SOL     OW18607   6.716   2.931   6.484
 5903SOL    HW118608   6.729   2.933   6.385
 5903SOL    HW218609   6.718   2.837   6.516
 5904SOL     OW18610   0.255   4.283   2.519
 5904SOL    HW118611   0.272   4.185   2.511
 5904SOL    HW218612   0.328   4.325   2.573
 5905SOL     OW18613   7.012   5.394   2.657
 5905SOL    HW118614   0.092   5.377   2.666
 5905SOL    HW218615   6.989   5.404   2.560
 5906SOL     OW18616   6.660   1.586   3.961
 5906SOL    HW118617   6.605   1.600   3.878
 5906SOL    HW218618   6.612   1.522   4.021
 5907SOL     OW18619   1.724   6.790   1.881
 5907SOL    HW118620   1.628   6.770   1.902
 5907SOL    HW218621   1.742   6.773   1.784
 5908SOL     OW18622   0.422   2.750   6.091
 5908SOL    HW118623   0.381   2.798   6.168
 5908SOL    HW218624   0.350   2.711   6.034
 5909SOL     OW18625   6.870   4.444   0.839
 5909SOL    HW118626   6.896   4.497   0.919
 5909SOL    HW218627   6.776   4.467   0.813
 5910SOL     OW18628   2.261   1.848   3.677
 5910SOL    HW118629   2.332   1.825   3.744
 5910SOL    HW218630   2.191   1.777   3.677
 5911SOL     OW18631   6.997   5.629   6.222
 5911SOL    HW118632   6.969   5.685   6.143
 5911SOL    HW218633   0.007   5.690   6.296
 5912SOL     OW18634   0.643   0.912   4.092
 5912SOL    HW118635   0.585   0.963   4.027
 5912SOL    HW218636   0.619   0.939   4.185
 5913SOL     OW18637   5.347   1.595   6.906
 5913SOL    HW118638   5.276   1.594   6.836
 5913SOL    HW218639   5.312   1.553   6.990
 5914SOL     OW18640   0.463   6.155   0.520
 5914SOL    HW118641   0.507   6.068   0.540
 5914SOL    HW218642   0.458   6.167   0.421
 5915SOL     OW18643   3.619   1.373   6.052
 5915SOL    HW118644   3.690   1.388   6.120
 5915SOL    HW218645   3.529   1.390   6.094
 5916SOL     OW18646   0.893   6.245   2.741
 5916SOL    HW118647   0.893   6.277   2.836
 5916SOL    HW218648   0.943   6.309   2.684
 5917SOL     OW18649   3.863   4.321   0.191
 5917SOL    HW118650   3.891   4.392   0.126
 5917SOL    HW218651   3.926   4.243   0.185
 5918SOL     OW18652   2.995   6.328   5.559
 5918SOL    HW118653   2.986   6.284   5.649
 5918SOL    HW218654   2.964   6.423   5.565
 5919SOL     OW18655   3.832   2.974   3.980
 5919SOL    HW118656   3.753   2.916   3.958
 5919SOL    HW218657   3.872   3.008   3.895
 5920SOL     OW18658   6.236   0.203   5.163
 5920SOL    HW118659   6.332   0.223   5.182
 5920SOL    HW218660   6.221   0.199   5.065
 5921SOL     OW18661   2.366   4.749   6.549
 5921SOL    HW118662   2.434   4.758   6.476
 5921SOL    HW218663   2.320   4.661   6.542
 5922SOL     OW18664   4.827   3.963   3.018
 5922SOL    HW118665   4.836   4.032   2.946
 5922SOL    HW218666   4.835   3.872   2.978
 5923SOL     OW18667   6.893   0.528   2.865
 5923SOL    HW118668   6.912   0.487   2.776
 5923SOL    HW218669   6.877   0.626   2.854
 5924SOL     OW18670   5.805   0.256   3.940
 5924SOL    HW118671   5.805   0.354   3.962
 5924SOL    HW218672   5.711   0.222   3.936
 5925SOL     OW18673   4.381   0.280   1.476
 5925SOL    HW118674   4.393   0.379   1.485
 5925SOL    HW218675   4.431   0.248   1.395
 5926SOL     OW18676   4.791   4.995   3.930
 5926SOL    HW118677   4.701   4.974   3.969
 5926SOL    HW218678   4.781   5.066   3.859
 5927SOL     OW18679   1.052   4.490   2.088
 5927SOL    HW118680   1.071   4.519   2.182
 5927SOL    HW218681   1.062   4.567   2.026
 5928SOL     OW18682   3.606   0.501   0.616
 5928SOL    HW118683   3.535   0.481   0.682
 5928SOL    HW218684   3.623   0.420   0.559
 5929SOL     OW18685   1.959   0.509   6.467
 5929SOL    HW118686   1.950   0.591   6.523
 5929SOL    HW218687   1.906   0.435   6.509
 5930SOL     OW18688   0.869   3.201   2.354
 5930SOL    HW118689   0.968   3.194   2.359
 5930SOL    HW218690   0.838   3.185   2.260
 5931SOL     OW18691   4.691   6.094   3.351
 5931SOL    HW118692   4.667   6.190   3.364
 5931SOL    HW218693   4.677   6.069   3.255
 5932SOL     OW18694   2.876   1.007   6.887
 5932SOL    HW118695   2.817   0.930   6.862
 5932SOL    HW218696   2.848   1.089   6.837
 5933SOL     OW18697   6.216   6.262   3.824
 5933SOL    HW118698   6.190   6.182   3.878
 5933SOL    HW218699   6.186   6.345   3.871
 5934SOL     OW18700   3.281   3.668   5.906
 5934SOL    HW118701   3.200   3.616   5.934
 5934SOL    HW218702   3.351   3.662   5.978
 5935SOL     OW18703   0.535   5.815   5.445
 5935SOL    HW118704   0.491   5.893   5.400
 5935SOL    HW218705   0.634   5.830   5.447
 5936SOL     OW18706   3.694   3.179   1.553
 5936SOL    HW118707   3.727   3.093   1.590
 5936SOL    HW218708   3.634   3.161   1.475
 5937SOL     OW18709   6.805   3.064   1.922
 5937SOL    HW118710   6.731   3.005   1.891
 5937SOL    HW218711   6.858   3.015   1.992
 5938SOL     OW18712   0.261   4.691   4.909
 5938SOL    HW118713   0.263   4.682   4.809
 5938SOL    HW218714   0.239   4.603   4.950
 5939SOL     OW18715   3.698   0.887   5.105
 5939SOL    HW118716   3.640   0.966   5.119
 5939SOL    HW218717   3.749   0.868   5.188
 5940SOL     OW18718   5.102   5.998   2.689
 5940SOL    HW118719   5.064   6.021   2.778
 5940SOL    HW218720   5.040   5.935   2.641
 5941SOL     OW18721   6.703   2.233   2.231
 5941SOL    HW118722   6.689   2.330   2.209
 5941SOL    HW218723   6.745   2.226   2.322
 5942SOL     OW18724   5.105   3.285   6.064
 5942SOL    HW118725   5.125   3.187   6.077
 5942SOL    HW218726   5.032   3.312   6.127
 5943SOL     OW18727   2.953   4.266   1.644
 5943SOL    HW118728   3.010   4.186   1.663
 5943SOL    HW218729   2.953   4.326   1.723
 5944SOL     OW18730   0.640   3.627   6.491
 5944SOL    HW118731   0.643   3.689   6.569
 5944SOL    HW218732   0.730   3.625   6.447
 5945SOL     OW18733   0.217   5.777   5.340
 5945SOL    HW118734   0.249   5.822   5.423
 5945SOL    HW218735   0.262   5.817   5.260
 5946SOL     OW18736   3.450   4.373   0.608
 5946SOL    HW118737   3.373   4.336   0.557
 5946SOL    HW218738   3.425   4.461   0.648
 5947SOL     OW18739   3.663   3.264   4.622
 5947SOL    HW118740   3.741   3.326   4.614
 5947SOL    HW218741   3.696   3.173   4.650
 5948SOL     OW18742   5.268   3.833   1.684
 5948SOL    HW118743   5.211   3.859   1.763
 5948SOL    HW218744   5.214   3.779   1.620
 5949SOL     OW18745   6.751   4.055   1.856
 5949SOL    HW118746   6.705   4.140   1.884
 5949SOL    HW218747   6.718   3.979   1.912
 5950SOL     OW18748   4.469   0.698   5.008
 5950SOL    HW118749   4.535   0.723   5.078
 5950SOL    HW218750   4.499   0.614   4.962
 5951SOL     OW18751   1.148   3.854   6.646
 5951SOL    HW118752   1.104   3.910   6.717
 5951SOL    HW218753   1.247   3.865   6.652
 5952SOL     OW18754   3.895   4.910   1.116
 5952SOL    HW118755   3.956   4.872   1.185
 5952SOL    HW218756   3.867   4.838   1.053
 5953SOL     OW18757   6.443   2.900   4.682
 5953SOL    HW118758   6.494   2.957   4.617
 5953SOL    HW218759   6.504   2.869   4.755
 5954SOL     OW18760   1.993   6.158   3.869
 5954SOL    HW118761   1.942   6.240   3.894
 5954SOL    HW218762   2.083   6.184   3.833
 5955SOL     OW18763   6.495   3.669   0.753
 5955SOL    HW118764   6.505   3.651   0.656
 5955SOL    HW218765   6.416   3.618   0.789
 5956SOL     OW18766   4.954   2.987   5.171
 5956SOL    HW118767   4.888   2.915   5.151
 5956SOL    HW218768   4.956   3.053   5.095
 5957SOL     OW18769   0.589   1.497   2.599
 5957SOL    HW118770   0.590   1.446   2.513
 5957SOL    HW218771   0.569   1.593   2.581
 5958SOL     OW18772   3.875   6.836   2.794
 5958SOL    HW118773   3.801   6.795   2.740
 5958SOL    HW218774   3.852   6.932   2.813
 5959SOL     OW18775   5.475   2.506   4.500
 5959SOL    HW118776   5.470   2.593   4.451
 5959SOL    HW218777   5.417   2.439   4.456
 5960SOL     OW18778   4.435   0.202   6.510
 5960SOL    HW118779   4.414   0.211   6.412
 5960SOL    HW218780   4.488   0.119   6.526
 5961SOL     OW18781   2.634   1.917   3.151
 5961SOL    HW118782   2.719   1.948   3.109
 5961SOL    HW218783   2.629   1.818   3.148
 5962SOL     OW18784   5.095   6.536   0.535
 5962SOL    HW118785   5.005   6.515   0.496
 5962SOL    HW218786   5.159   6.556   0.461
 5963SOL     OW18787   3.366   4.541   6.866
 5963SOL    HW118788   3.419   4.469   6.821
 5963SOL    HW218789   3.420   4.583   6.938
 5964SOL     OW18790   1.905   6.801   2.842
 5964SOL    HW118791   1.810   6.777   2.862
 5964SOL    HW218792   1.909   6.855   2.758
 5965SOL     OW18793   2.204   0.402   0.319
 5965SOL    HW118794   2.194   0.318   0.265
 5965SOL    HW218795   2.164   0.389   0.409
 5966SOL     OW18796   2.968   1.111   5.023
 5966SOL    HW118797   3.066   1.124   5.008
 5966SOL    HW218798   2.923   1.094   4.936
 5967SOL     OW18799   2.972   1.665   3.881
 5967SOL    HW118800   2.947   1.706   3.969
 5967SOL    HW218801   3.060   1.701   3.852
 5968SOL     OW18802   5.287   2.008   1.486
 5968SOL    HW118803   5.212   2.073   1.501
 5968SOL    HW218804   5.277   1.966   1.396
 5969SOL     OW18805   4.873   1.079   6.812
 5969SOL    HW118806   4.781   1.108   6.838
 5969SOL    HW218807   4.870   0.987   6.775
 5970SOL     OW18808   0.601   3.343   0.519
 5970SOL    HW118809   0.631   3.379   0.431
 5970SOL    HW218810   0.639   3.252   0.533
 5971SOL     OW18811   0.806   6.768   4.246
 5971SOL    HW118812   0.866   6.689   4.260
 5971SOL    HW218813   0.854   6.837   4.192
 5972SOL     OW18814   5.057   5.136   1.040
 5972SOL    HW118815   5.070   5.193   1.121
 5972SOL    HW218816   5.135   5.074   1.030
 5973SOL     OW18817   1.632   2.482   2.400
 5973SOL    HW118818   1.715   2.440   2.436
 5973SOL    HW218819   1.553   2.423   2.420
 5974SOL     OW18820   5.194   2.115   5.908
 5974SOL    HW118821   5.186   2.206   5.868
 5974SOL    HW218822   5.271   2.066   5.865
 5975SOL     OW18823   4.600   4.773   0.669
 5975SOL    HW118824   4.515   4.723   0.688
 5975SOL    HW218825   4.645   4.797   0.755
 5976SOL     OW18826   2.260   3.428   5.864
 5976SOL    HW118827   2.286   3.487   5.940
 5976SOL    HW218828   2.329   3.357   5.852
 5977SOL     OW18829   6.864   4.537   0.336
 5977SOL    HW118830   6.924   4.482   0.395
 5977SOL    HW218831   6.838   4.484   0.256
 5978SOL     OW18832   3.225   5.044   0.648
 5978SOL    HW118833   3.199   4.951   0.673
 5978SOL    HW218834   3.236   5.050   0.549
 5979SOL     OW18835   5.442   0.292   1.311
 5979SOL    HW118836   5.512   0.249   1.254
 5979SOL    HW218837   5.485   0.328   1.394
 5980SOL     OW18838   3.231   2.755   1.431
 5980SOL    HW118839   3.304   2.811   1.471
 5980SOL    HW218840   3.226   2.668   1.480
 5981SOL     OW18841   2.764   2.402   0.382
 5981SOL    HW118842   2.667   2.413   0.406
 5981SOL    HW218843   2.814   2.367   0.461
 5982SOL     OW18844   5.827   2.692   1.347
 5982SOL    HW118845   5.912   2.721   1.391
 5982SOL    HW218846   5.846   2.662   1.254
 5983SOL     OW18847   6.908   0.434   3.622
 5983SOL    HW118848   6.990   0.490   3.612
 5983SOL    HW218849   6.894   0.410   3.718
 5984SOL     OW18850   6.706   6.591   3.593
 5984SOL    HW118851   6.661   6.640   3.668
 5984SOL    HW218852   6.703   6.647   3.510
 5985SOL     OW18853   5.649   2.484   2.847
 5985SOL    HW118854   5.576   2.552   2.847
 5985SOL    HW218855   5.728   2.519   2.896
 5986SOL     OW18856   4.041   3.491   5.210
 5986SOL    HW118857   4.052   3.550   5.130
 5986SOL    HW218858   4.127   3.487   5.260
 5987SOL     OW18859   7.008   0.088   5.418
 5987SOL    HW118860   0.073   0.032   5.415
 5987SOL    HW218861   6.950   0.057   5.494
 5988SOL     OW18862   1.329   2.167   5.976
 5988SOL    HW118863   1.306   2.217   5.892
 5988SOL    HW218864   1.263   2.093   5.989
 5989SOL     OW18865   0.317   5.640   6.386
 5989SOL    HW118866   0.378   5.660   6.309
 5989SOL    HW218867   0.324   5.543   6.410
 5990SOL     OW18868   3.688   5.096   1.987
 5990SOL    HW118869   3.666   4.999   1.983
 5990SOL    HW218870   3.605   5.150   1.972
 5991SOL     OW18871   5.160   6.924   0.533
 5991SOL    HW118872   5.231   6.854   0.536
 5991SOL    HW218873   5.172   6.987   0.609
 5992SOL     OW18874   3.610   6.990   1.910
 5992SOL    HW118875   3.686   0.036   1.899
 5992SOL    HW218876   3.630   6.928   1.986
 5993SOL     OW18877   6.343   2.104   0.457
 5993SOL    HW118878   6.355   2.141   0.364
 5993SOL    HW218879   6.418   2.042   0.478
 5994SOL     OW18880   0.826   3.564   0.361
 5994SOL    HW118881   0.915   3.606   0.383
 5994SOL    HW218882   0.773   3.628   0.305
 5995SOL     OW18883   4.431   3.744   1.300
 5995SOL    HW118884   4.444   3.727   1.202
 5995SOL    HW218885   4.510   3.794   1.335
 5996SOL     OW18886   3.035   5.406   1.206
 5996SOL    HW118887   3.097   5.328   1.215
 5996SOL    HW218888   3.035   5.459   1.290
 5997SOL     OW18889   6.957   0.143   3.734
 5997SOL    HW118890   6.938   0.227   3.785
 5997SOL    HW218891   6.972   0.165   3.638
 5998SOL     OW18892   6.675   6.862   1.513
 5998SOL    HW118893   6.663   6.936   1.447
 5998SOL    HW218894   6.589   6.847   1.562
 5999SOL     OW18895   4.813   3.006   0.787
 5999SOL    HW118896   4.860   3.045   0.866
 5999SOL    HW218897   4.736   3.065   0.762
 6000SOL     OW18898   6.956   4.227   1.302
 6000SOL    HW118899   6.859   4.208   1.286
 6000SOL    HW218900   6.997   4.151   1.352
 6001SOL     OW18901   6.455   5.485   5.297
 6001SOL    HW118902   6.355   5.485   5.308
 6001SOL    HW218903   6.486   5.579   5.282
 6002SOL     OW18904   6.092   5.652   4.092
 6002SOL    HW118905   6.187   5.681   4.097
 6002SOL    HW218906   6.082   5.563   4.136
 6003SOL     OW18907   0.368   3.109   4.754
 6003SOL    HW118908   0.294   3.055   4.795
 6003SOL    HW218909   0.418   3.052   4.689
 6004SOL     OW18910   5.145   2.902   4.159
 6004SOL    HW118911   5.167   2.887   4.062
 6004SOL    HW218912   5.213   2.963   4.199
 6005SOL     OW18913   3.477   5.127   6.359
 6005SOL    HW118914   3.440   5.089   6.443
 6005SOL    HW218915   3.434   5.215   6.340
 6006SOL     OW18916   3.476   6.360   5.548
 6006SOL    HW118917   3.388   6.368   5.502
 6006SOL    HW218918   3.479   6.421   5.627
 6007SOL     OW18919   2.069   5.562   6.560
 6007SOL    HW118920   2.053   5.532   6.466
 6007SOL    HW218921   2.068   5.483   6.621
 6008SOL     OW18922   3.078   4.150   6.091
 6008SOL    HW118923   3.077   4.234   6.146
 6008SOL    HW218924   3.170   4.136   6.054
 6009SOL     OW18925   3.566   5.381   2.919
 6009SOL    HW118926   3.514   5.302   2.890
 6009SOL    HW218927   3.505   5.451   2.957
 6010SOL     OW18928   0.814   5.620   5.030
 6010SOL    HW118929   0.733   5.625   4.971
 6010SOL    HW218930   0.896   5.612   4.974
 6011SOL     OW18931   6.233   2.143   1.867
 6011SOL    HW118932   6.195   2.079   1.800
 6011SOL    HW218933   6.305   2.098   1.920
 6012SOL     OW18934   6.758   0.089   6.305
 6012SOL    HW118935   6.766   0.119   6.400
 6012SOL    HW218936   6.665   0.059   6.286
 6013SOL     OW18937   6.172   1.429   2.459
 6013SOL    HW118938   6.265   1.393   2.456
 6013SOL    HW218939   6.151   1.460   2.552
 6014SOL     OW18940   4.054   3.281   4.225
 6014SOL    HW118941   4.023   3.196   4.182
 6014SOL    HW218942   3.975   3.331   4.261
 6015SOL     OW18943   6.153   1.308   4.485
 6015SOL    HW118944   6.186   1.218   4.515
 6015SOL    HW218945   6.054   1.307   4.478
 6016SOL     OW18946   5.223   1.296   4.947
 6016SOL    HW118947   5.153   1.291   4.876
 6016SOL    HW218948   5.190   1.250   5.030
 6017SOL     OW18949   6.545   2.067   5.286
 6017SOL    HW118950   6.627   2.089   5.340
 6017SOL    HW218951   6.523   2.145   5.227
 6018SOL     OW18952   2.846   1.172   5.447
 6018SOL    HW118953   2.915   1.100   5.455
 6018SOL    HW218954   2.851   1.213   5.356
 6019SOL     OW18955   6.736   3.444   6.455
 6019SOL    HW118956   6.641   3.467   6.433
 6019SOL    HW218957   6.797   3.495   6.395
 6020SOL     OW18958   0.583   4.612   6.815
 6020SOL    HW118959   0.600   4.650   6.905
 6020SOL    HW218960   0.547   4.683   6.754
 6021SOL     OW18961   5.065   0.280   3.209
 6021SOL    HW118962   5.153   0.256   3.251
 6021SOL    HW218963   5.079   0.354   3.143
 6022SOL     OW18964   6.073   1.822   2.016
 6022SOL    HW118965   6.074   1.724   1.993
 6022SOL    HW218966   6.135   1.871   1.954
 6023SOL     OW18967   4.339   0.936   2.132
 6023SOL    HW118968   4.402   1.013   2.126
 6023SOL    HW218969   4.346   0.881   2.049
 6024SOL     OW18970   0.589   5.501   0.214
 6024SOL    HW118971   0.518   5.434   0.197
 6024SOL    HW218972   0.632   5.526   0.128
 6025SOL     OW18973   2.618   1.007   4.321
 6025SOL    HW118974   2.656   0.921   4.287
 6025SOL    HW218975   2.629   1.011   4.420
 6026SOL     OW18976   6.337   4.462   4.581
 6026SOL    HW118977   6.348   4.387   4.647
 6026SOL    HW218978   6.374   4.435   4.493
 6027SOL     OW18979   5.640   3.987   6.609
 6027SOL    HW118980   5.566   4.054   6.599
 6027SOL    HW218981   5.603   3.895   6.598
 6028SOL     OW18982   5.790   4.777   6.377
 6028SOL    HW118983   5.745   4.855   6.334
 6028SOL    HW218984   5.884   4.801   6.400
 6029SOL     OW18985   2.253   0.600   3.201
 6029SOL    HW118986   2.318   0.652   3.146
 6029SOL    HW218987   2.160   0.624   3.175
 6030SOL     OW18988   5.483   3.778   4.540
 6030SOL    HW118989   5.544   3.833   4.483
 6030SOL    HW218990   5.513   3.682   4.537
 6031SOL     OW18991   0.927   5.762   5.677
 6031SOL    HW118992   0.911   5.678   5.627
 6031SOL    HW218993   1.024   5.768   5.703
 6032SOL     OW18994   3.303   6.152   3.808
 6032SOL    HW118995   3.387   6.104   3.785
 6032SOL    HW218996   3.229   6.123   3.747
 6033SOL     OW18997   2.188   1.881   2.411
 6033SOL    HW118998   2.135   1.942   2.353
 6033SOL    HW218999   2.161   1.893   2.507
 6034SOL     OW19000   0.524   0.920   0.328
 6034SOL    HW119001   0.560   0.998   0.379
 6034SOL    HW219002   0.558   0.835   0.370
 6035SOL     OW19003   1.669   0.487   2.572
 6035SOL    HW119004   1.660   0.577   2.530
 6035SOL    HW219005   1.629   0.489   2.664
 6036SOL     OW19006   6.421   2.170   0.822
 6036SOL    HW119007   6.425   2.189   0.921
 6036SOL    HW219008   6.334   2.126   0.801
 6037SOL     OW19009   5.143   2.260   0.371
 6037SOL    HW119010   5.090   2.176   0.386
 6037SOL    HW219011   5.082   2.333   0.340
 6038SOL     OW19012   0.250   2.005   6.045
 6038SOL    HW119013   0.333   2.037   6.091
 6038SOL    HW219014   0.274   1.949   5.966
 6039SOL     OW19015   3.622   3.592   3.366
 6039SOL    HW119016   3.568   3.519   3.408
 6039SOL    HW219017   3.562   3.669   3.346
 6040SOL     OW19018   0.567   1.825   0.307
 6040SOL    HW119019   0.584   1.913   0.351
 6040SOL    HW219020   0.597   1.751   0.369
 6041SOL     OW19021   2.551   3.073   5.578
 6041SOL    HW119022   2.473   3.011   5.585
 6041SOL    HW219023   2.635   3.020   5.565
 6042SOL     OW19024   3.559   6.032   3.209
 6042SOL    HW119025   3.607   6.114   3.241
 6042SOL    HW219026   3.541   5.971   3.287
 6043SOL     OW19027   2.519   0.531   3.811
 6043SOL    HW119028   2.601   0.541   3.868
 6043SOL    HW219029   2.545   0.493   3.722
 6044SOL     OW19030   0.433   2.787   1.458
 6044SOL    HW119031   0.426   2.815   1.363
 6044SOL    HW219032   0.519   2.821   1.497
 6045SOL     OW19033   5.048   1.809   3.554
 6045SOL    HW119034   5.038   1.721   3.507
 6045SOL    HW219035   5.144   1.823   3.578
 6046SOL     OW19036   3.246   3.025   2.557
 6046SOL    HW119037   3.209   2.995   2.469
 6046SOL    HW219038   3.278   2.946   2.609
 6047SOL     OW19039   6.146   1.532   0.766
 6047SOL    HW119040   6.083   1.509   0.692
 6047SOL    HW219041   6.239   1.541   0.730
 6048SOL     OW19042   6.013   5.849   4.326
 6048SOL    HW119043   6.020   5.824   4.230
 6048SOL    HW219044   6.031   5.947   4.337
 6049SOL     OW19045   4.306   4.721   5.445
 6049SOL    HW119046   4.324   4.789   5.517
 6049SOL    HW219047   4.217   4.679   5.462
 6050SOL     OW19048   3.908   6.581   1.551
 6050SOL    HW119049   3.975   6.555   1.481
 6050SOL    HW219050   3.901   6.509   1.619
 6051SOL     OW19051   1.232   1.218   3.412
 6051SOL    HW119052   1.209   1.302   3.363
 6051SOL    HW219053   1.320   1.230   3.458
 6052SOL     OW19054   5.632   6.588   0.493
 6052SOL    HW119055   5.631   6.500   0.446
 6052SOL    HW219056   5.718   6.634   0.476
 6053SOL     OW19057   4.187   2.820   6.289
 6053SOL    HW119058   4.188   2.920   6.299
 6053SOL    HW219059   4.268   2.781   6.333
 6054SOL     OW19060   4.095   4.271   0.975
 6054SOL    HW119061   4.026   4.201   0.959
 6054SOL    HW219062   4.063   4.358   0.939
 6055SOL     OW19063   3.274   4.703   0.865
 6055SOL    HW119064   3.229   4.681   0.778
 6055SOL    HW219065   3.265   4.627   0.928
 6056SOL     OW19066   5.539   5.467   5.221
 6056SOL    HW119067   5.536   5.418   5.308
 6056SOL    HW219068   5.456   5.523   5.211
 6057SOL     OW19069   5.156   0.014   4.193
 6057SOL    HW119070   5.132   0.019   4.290
 6057SOL    HW219071   5.231   0.078   4.175
 6058SOL     OW19072   5.352   2.274   6.200
 6058SOL    HW119073   5.374   2.193   6.255
 6058SOL    HW219074   5.255   2.274   6.179
 6059SOL     OW19075   3.829   4.085   6.876
 6059SOL    HW119076   3.776   4.001   6.879
 6059SOL    HW219077   3.871   4.095   6.786
 6060SOL     OW19078   2.430   3.284   6.564
 6060SOL    HW119079   2.342   3.288   6.612
 6060SOL    HW219080   2.504   3.298   6.630
 6061SOL     OW19081   3.627   5.316   0.233
 6061SOL    HW119082   3.597   5.230   0.274
 6061SOL    HW219083   3.547   5.377   0.222
 6062SOL     OW19084   1.929   2.553   0.051
 6062SOL    HW119085   1.864   2.496   0.102
 6062SOL    HW219086   1.896   2.565   6.976
 6063SOL     OW19087   3.901   5.057   6.043
 6063SOL    HW119088   3.914   4.984   5.976
 6063SOL    HW219089   3.805   5.061   6.070
 6064SOL     OW19090   6.835   5.837   0.806
 6064SOL    HW119091   6.905   5.852   0.876
 6064SOL    HW219092   6.757   5.898   0.823
 6065SOL     OW19093   0.826   6.012   2.189
 6065SOL    HW119094   0.848   5.945   2.260
 6065SOL    HW219095   0.911   6.039   2.142
 6066SOL     OW19096   5.219   6.614   3.143
 6066SOL    HW119097   5.235   6.696   3.197
 6066SOL    HW219098   5.295   6.550   3.156
 6067SOL     OW19099   5.582   0.513   6.322
 6067SOL    HW119100   5.580   0.545   6.417
 6067SOL    HW219101   5.540   0.582   6.263
 6068SOL     OW19102   4.589   1.870   5.557
 6068SOL    HW119103   4.628   1.780   5.576
 6068SOL    HW219104   4.489   1.863   5.555
 6069SOL     OW19105   0.166   3.386   6.664
 6069SOL    HW119106   0.223   3.322   6.612
 6069SOL    HW219107   0.222   3.432   6.733
 6070SOL     OW19108   2.904   1.593   0.767
 6070SOL    HW119109   2.843   1.613   0.844
 6070SOL    HW219110   2.902   1.496   0.747
 6071SOL     OW19111   5.972   0.011   5.457
 6071SOL    HW119112   6.026   0.080   5.506
 6071SOL    HW219113   5.970   0.034   5.360
 6072SOL     OW19114   0.275   2.798   0.549
 6072SOL    HW119115   0.246   2.703   0.539
 6072SOL    HW219116   0.354   2.815   0.491
 6073SOL     OW19117   4.484   2.926   0.301
 6073SOL    HW119118   4.581   2.950   0.307
 6073SOL    HW219119   4.451   2.895   0.390
 6074SOL     OW19120   0.607   6.236   2.733
 6074SOL    HW119121   0.563   6.321   2.704
 6074SOL    HW219122   0.705   6.242   2.718
 6075SOL     OW19123   4.932   6.831   6.582
 6075SOL    HW119124   4.960   6.860   6.674
 6075SOL    HW219125   4.905   6.911   6.529
 6076SOL     OW19126   1.353   4.858   3.779
 6076SOL    HW119127   1.436   4.846   3.833
 6076SOL    HW219128   1.375   4.907   3.695
 6077SOL     OW19129   5.461   6.697   1.696
 6077SOL    HW119130   5.498   6.639   1.624
 6077SOL    HW219131   5.387   6.649   1.742
 6078SOL     OW19132   3.941   3.269   0.240
 6078SOL    HW119133   3.934   3.304   0.334
 6078SOL    HW219134   3.980   3.177   0.242
 6079SOL     OW19135   3.080   4.188   6.756
 6079SOL    HW119136   3.053   4.099   6.791
 6079SOL    HW219137   3.142   4.176   6.678
 6080SOL     OW19138   0.077   4.421   6.803
 6080SOL    HW119139   0.020   4.478   6.863
 6080SOL    HW219140   0.173   4.444   6.817
 6081SOL     OW19141   1.760   3.395   4.771
 6081SOL    HW119142   1.815   3.414   4.852
 6081SOL    HW219143   1.682   3.458   4.768
 6082SOL     OW19144   4.716   1.140   0.967
 6082SOL    HW119145   4.679   1.168   0.879
 6082SOL    HW219146   4.685   1.047   0.989
 6083SOL     OW19147   4.928   0.089   6.518
 6083SOL    HW119148   4.898   0.151   6.447
 6083SOL    HW219149   4.899   0.123   6.608
 6084SOL     OW19150   0.453   6.630   2.992
 6084SOL    HW119151   0.444   6.599   3.087
 6084SOL    HW219152   0.363   6.631   2.949
 6085SOL     OW19153   0.669   6.159   0.969
 6085SOL    HW119154   0.590   6.114   1.010
 6085SOL    HW219155   0.697   6.236   1.025
 6086SOL     OW19156   3.483   3.724   6.091
 6086SOL    HW119157   3.476   3.651   6.159
 6086SOL    HW219158   3.501   3.811   6.138
 6087SOL     OW19159   5.153   6.764   0.960
 6087SOL    HW119160   5.085   6.766   0.887
 6087SOL    HW219161   5.107   6.764   1.049
 6088SOL     OW19162   5.527   6.796   3.241
 6088SOL    HW119163   5.436   6.760   3.218
 6088SOL    HW219164   5.594   6.761   3.176
 6089SOL     OW19165   6.448   3.624   3.497
 6089SOL    HW119166   6.415   3.665   3.582
 6089SOL    HW219167   6.547   3.636   3.490
 6090SOL     OW19168   4.230   6.621   4.273
 6090SOL    HW119169   4.321   6.588   4.250
 6090SOL    HW219170   4.164   6.546   4.263
 6091SOL     OW19171   2.100   1.000   1.841
 6091SOL    HW119172   2.008   0.964   1.857
 6091SOL    HW219173   2.103   1.045   1.751
 6092SOL     OW19174   4.325   6.360   1.241
 6092SOL    HW119175   4.250   6.379   1.178
 6092SOL    HW219176   4.363   6.270   1.223
 6093SOL     OW19177   2.194   1.634   2.268
 6093SOL    HW119178   2.197   1.724   2.312
 6093SOL    HW219179   2.271   1.579   2.299
 6094SOL     OW19180   0.911   6.052   4.836
 6094SOL    HW119181   0.824   6.099   4.847
 6094SOL    HW219182   0.983   6.104   4.883
 6095SOL     OW19183   4.677   6.043   0.446
 6095SOL    HW119184   4.688   6.105   0.524
 6095SOL    HW219185   4.604   6.078   0.387
 6096SOL     OW19186   5.990   6.519   2.725
 6096SOL    HW119187   6.058   6.463   2.677
 6096SOL    HW219188   5.996   6.613   2.694
 6097SOL     OW19189   1.951   6.466   2.587
 6097SOL    HW119190   2.023   6.408   2.548
 6097SOL    HW219191   1.962   6.560   2.555
 6098SOL     OW19192   6.547   0.800   4.690
 6098SOL    HW119193   6.448   0.780   4.692
 6098SOL    HW219194   6.561   0.898   4.704
 6099SOL     OW19195   4.475   0.274   5.861
 6099SOL    HW119196   4.570   0.305   5.868
 6099SOL    HW219197   4.414   0.353   5.860
 6100SOL     OW19198   7.003   5.932   4.575
 6100SOL    HW119199   0.007   5.846   4.622
 6100SOL    HW219200   0.063   5.962   4.522
 6101SOL     OW19201   6.291   2.880   1.357
 6101SOL    HW119202   6.362   2.810   1.353
 6101SOL    HW219203   6.255   2.896   1.265
 6102SOL     OW19204   4.478   0.040   2.780
 6102SOL    HW119205   4.485   0.138   2.760
 6102SOL    HW219206   4.382   0.017   2.799
 6103SOL     OW19207   0.222   1.677   1.628
 6103SOL    HW119208   0.176   1.688   1.540
 6103SOL    HW219209   0.268   1.588   1.631
 6104SOL     OW19210   6.707   0.800   4.477
 6104SOL    HW119211   6.638   0.792   4.549
 6104SOL    HW219212   6.718   0.897   4.453
 6105SOL     OW19213   2.737   4.732   5.586
 6105SOL    HW119214   2.709   4.827   5.600
 6105SOL    HW219215   2.777   4.722   5.495
 6106SOL     OW19216   6.324   4.826   6.988
 6106SOL    HW119217   6.386   4.904   6.991
 6106SOL    HW219218   6.357   4.760   6.921
 6107SOL     OW19219   5.025   4.911   5.569
 6107SOL    HW119220   5.059   4.929   5.661
 6107SOL    HW219221   5.066   4.976   5.505
 6108SOL     OW19222   2.157   1.550   1.030
 6108SOL    HW119223   2.169   1.496   0.947
 6108SOL    HW219224   2.073   1.522   1.076
 6109SOL     OW19225   6.217   0.030   3.353
 6109SOL    HW119226   6.313   0.055   3.346
 6109SOL    HW219227   6.187   7.004   3.269
 6110SOL     OW19228   1.740   1.593   5.040
 6110SOL    HW119229   1.721   1.689   5.059
 6110SOL    HW219230   1.822   1.585   4.983
 6111SOL     OW19231   1.930   4.292   1.244
 6111SOL    HW119232   1.950   4.204   1.286
 6111SOL    HW219233   2.015   4.343   1.230
 6112SOL     OW19234   4.686   0.268   2.806
 6112SOL    HW119235   4.708   0.265   2.903
 6112SOL    HW219236   4.674   0.362   2.776
 6113SOL     OW19237   2.186   5.671   0.304
 6113SOL    HW119238   2.282   5.673   0.277
 6113SOL    HW219239   2.144   5.760   0.285
 6114SOL     OW19240   4.874   1.401   0.606
 6114SOL    HW119241   4.900   1.496   0.590
 6114SOL    HW219242   4.956   1.348   0.631
 6115SOL     OW19243   0.577   0.255   5.395
 6115SOL    HW119244   0.502   0.217   5.449
 6115SOL    HW219245   0.555   0.348   5.367
 6116SOL     OW19246   4.972   1.813   5.283
 6116SOL    HW119247   5.015   1.789   5.370
 6116SOL    HW219248   4.988   1.740   5.217
 6117SOL     OW19249   1.669   1.908   1.473
 6117SOL    HW119250   1.764   1.933   1.451
 6117SOL    HW219251   1.612   1.919   1.391
 6118SOL     OW19252   6.220   0.467   6.854
 6118SOL    HW119253   6.172   0.550   6.881
 6118SOL    HW219254   6.188   0.438   6.763
 6119SOL     OW19255   6.409   1.815   0.816
 6119SOL    HW119256   6.374   1.738   0.763
 6119SOL    HW219257   6.378   1.901   0.774
 6120SOL     OW19258   2.217   0.996   5.468
 6120SOL    HW119259   2.168   0.999   5.555
 6120SOL    HW219260   2.161   0.951   5.399
 6121SOL     OW19261   0.528   3.003   5.288
 6121SOL    HW119262   0.489   2.976   5.200
 6121SOL    HW219263   0.535   3.103   5.292
 6122SOL     OW19264   5.087   5.616   5.724
 6122SOL    HW119265   5.101   5.708   5.761
 6122SOL    HW219266   5.153   5.553   5.767
 6123SOL     OW19267   5.845   1.988   5.111
 6123SOL    HW119268   5.904   2.069   5.112
 6123SOL    HW219269   5.764   2.005   5.168
 6124SOL     OW19270   2.234   0.044   4.220
 6124SOL    HW119271   2.321   0.094   4.215
 6124SOL    HW219272   2.250   6.972   4.260
 6125SOL     OW19273   1.978   2.189   6.599
 6125SOL    HW119274   2.014   2.098   6.620
 6125SOL    HW219275   2.050   2.257   6.614
 6126SOL     OW19276   6.379   2.945   5.447
 6126SOL    HW119277   6.367   2.864   5.390
 6126SOL    HW219278   6.466   2.988   5.426
 6127SOL     OW19279   3.904   1.974   1.636
 6127SOL    HW119280   3.829   1.971   1.570
 6127SOL    HW219281   3.976   1.911   1.609
 6128SOL     OW19282   5.681   6.028   0.166
 6128SOL    HW119283   5.659   6.101   0.101
 6128SOL    HW219284   5.764   6.053   0.216
 6129SOL     OW19285   1.863   5.472   2.638
 6129SOL    HW119286   1.932   5.537   2.671
 6129SOL    HW219287   1.900   5.380   2.639
 6130SOL     OW19288   5.090   2.691   1.164
 6130SOL    HW119289   5.135   2.609   1.201
 6130SOL    HW219290   5.117   2.703   1.069
 6131SOL     OW19291   0.063   1.896   2.578
 6131SOL    HW119292   0.016   1.906   2.490
 6131SOL    HW219293   0.003   1.928   2.652
 6132SOL     OW19294   3.636   1.209   6.620
 6132SOL    HW119295   3.633   1.109   6.624
 6132SOL    HW219296   3.599   1.246   6.705
 6133SOL     OW19297   1.972   1.706   3.923
 6133SOL    HW119298   2.048   1.701   3.987
 6133SOL    HW219299   1.945   1.801   3.911
 6134SOL     OW19300   4.986   6.755   6.189
 6134SOL    HW119301   4.940   6.733   6.103
 6134SOL    HW219302   4.986   6.854   6.203
 6135SOL     OW19303   6.367   0.215   6.707
 6135SOL    HW119304   6.306   0.276   6.657
 6135SOL    HW219305   6.313   0.148   6.758
 6136SOL     OW19306   1.407   2.789   2.272
 6136SOL    HW119307   1.346   2.711   2.261
 6136SOL    HW219308   1.496   2.769   2.230
 6137SOL     OW19309   6.981   4.066   2.622
 6137SOL    HW119310   6.953   4.096   2.531
 6137SOL    HW219311   6.930   3.985   2.648
 6138SOL     OW19312   2.952   0.318   2.155
 6138SOL    HW119313   2.997   0.302   2.067
 6138SOL    HW219314   3.012   0.290   2.230
 6139SOL     OW19315   2.000   0.572   5.968
 6139SOL    HW119316   1.949   0.543   6.049
 6139SOL    HW219317   1.998   0.499   5.900
 6140SOL     OW19318   1.658   6.856   3.636
 6140SOL    HW119319   1.677   6.772   3.685
 6140SOL    HW219320   1.704   6.854   3.547
 6141SOL     OW19321   0.543   0.083   5.827
 6141SOL    HW119322   0.469   0.149   5.821
 6141SOL    HW219323   0.630   0.130   5.838
 6142SOL     OW19324   0.828   0.204   0.891
 6142SOL    HW119325   0.858   0.249   0.807
 6142SOL    HW219326   0.802   0.110   0.871
 6143SOL     OW19327   6.304   4.007   6.101
 6143SOL    HW119328   6.284   3.918   6.142
 6143SOL    HW219329   6.313   4.076   6.173
 6144SOL     OW19330   4.118   4.743   2.509
 6144SOL    HW119331   4.113   4.793   2.422
 6144SOL    HW219332   4.035   4.760   2.562
 6145SOL     OW19333   5.194   3.323   4.906
 6145SOL    HW119334   5.168   3.406   4.955
 6145SOL    HW219335   5.228   3.347   4.815
 6146SOL     OW19336   5.307   0.520   5.544
 6146SOL    HW119337   5.342   0.433   5.579
 6146SOL    HW219338   5.285   0.510   5.447
 6147SOL     OW19339   1.814   2.234   3.887
 6147SOL    HW119340   1.816   2.255   3.789
 6147SOL    HW219341   1.891   2.279   3.932
 6148SOL     OW19342   2.996   5.899   0.631
 6148SOL    HW119343   2.981   5.835   0.706
 6148SOL    HW219344   3.087   5.886   0.593
 6149SOL     OW19345   3.086   0.194   2.366
 6149SOL    HW119346   3.163   0.131   2.362
 6149SOL    HW219347   3.055   0.203   2.461
 6150SOL     OW19348   6.203   4.260   6.462
 6150SOL    HW119349   6.108   4.281   6.440
 6150SOL    HW219350   6.207   4.173   6.512
 6151SOL     OW19351   4.544   4.569   4.583
 6151SOL    HW119352   4.618   4.628   4.550
 6151SOL    HW219353   4.483   4.547   4.508
 6152SOL     OW19354   0.681   4.684   4.102
 6152SOL    HW119355   0.626   4.626   4.042
 6152SOL    HW219356   0.690   4.642   4.192
 6153SOL     OW19357   4.951   5.038   0.737
 6153SOL    HW119358   4.950   5.136   0.715
 6153SOL    HW219359   4.939   5.026   0.835
 6154SOL     OW19360   5.974   3.271   2.225
 6154SOL    HW119361   5.952   3.354   2.174
 6154SOL    HW219362   5.991   3.295   2.321
 6155SOL     OW19363   2.135   1.329   3.196
 6155SOL    HW119364   2.188   1.355   3.277
 6155SOL    HW219365   2.186   1.352   3.114
 6156SOL     OW19366   4.953   4.946   1.379
 6156SOL    HW119367   4.907   4.880   1.438
 6156SOL    HW219368   5.023   4.900   1.325
 6157SOL     OW19369   1.661   1.965   2.611
 6157SOL    HW119370   1.609   2.021   2.547
 6157SOL    HW219371   1.697   1.885   2.563
 6158SOL     OW19372   2.840   2.578   5.647
 6158SOL    HW119373   2.871   2.602   5.555
 6158SOL    HW219374   2.866   2.649   5.712
 6159SOL     OW19375   5.472   2.644   6.813
 6159SOL    HW119376   5.433   2.555   6.833
 6159SOL    HW219377   5.539   2.668   6.884
 6160SOL     OW19378   1.047   0.194   6.609
 6160SOL    HW119379   1.066   0.280   6.561
 6160SOL    HW219380   0.979   0.142   6.558
 6161SOL     OW19381   4.762   2.246   6.611
 6161SOL    HW119382   4.755   2.340   6.578
 6161SOL    HW219383   4.693   2.230   6.681
 6162SOL     OW19384   6.281   5.485   2.437
 6162SOL    HW119385   6.281   5.514   2.342
 6162SOL    HW219386   6.187   5.485   2.472
 6163SOL     OW19387   5.814   5.801   3.022
 6163SOL    HW119388   5.764   5.763   3.099
 6163SOL    HW219389   5.826   5.731   2.951
 6164SOL     OW19390   3.761   3.926   4.816
 6164SOL    HW119391   3.763   4.012   4.764
 6164SOL    HW219392   3.788   3.850   4.756
 6165SOL     OW19393   4.011   1.895   0.632
 6165SOL    HW119394   3.917   1.862   0.642
 6165SOL    HW219395   4.010   1.987   0.594
 6166SOL     OW19396   0.441   2.306   0.364
 6166SOL    HW119397   0.510   2.335   0.298
 6166SOL    HW219398   0.350   2.319   0.325
 6167SOL     OW19399   1.156   3.540   3.286
 6167SOL    HW119400   1.251   3.567   3.270
 6167SOL    HW219401   1.120   3.493   3.206
 6168SOL     OW19402   1.135   3.662   4.215
 6168SOL    HW119403   1.176   3.572   4.231
 6168SOL    HW219404   1.054   3.652   4.157
 6169SOL     OW19405   2.378   0.142   0.444
 6169SOL    HW119406   2.366   0.126   0.346
 6169SOL    HW219407   2.325   0.074   0.495
 6170SOL     OW19408   3.792   4.442   6.842
 6170SOL    HW119409   3.762   4.469   6.934
 6170SOL    HW219410   3.892   4.445   6.838
 6171SOL     OW19411   1.907   4.678   2.408
 6171SOL    HW119412   1.898   4.703   2.505
 6171SOL    HW219413   1.911   4.761   2.352
 6172SOL     OW19414   1.080   6.330   2.987
 6172SOL    HW119415   1.121   6.394   2.923
 6172SOL    HW219416   0.984   6.354   3.003
 6173SOL     OW19417   1.078   5.019   2.831
 6173SOL    HW119418   1.086   5.118   2.821
 6173SOL    HW219419   1.169   4.980   2.849
 6174SOL     OW19420   5.498   5.522   3.251
 6174SOL    HW119421   5.540   5.610   3.276
 6174SOL    HW219422   5.570   5.454   3.240
 6175SOL     OW19423   4.531   0.678   3.518
 6175SOL    HW119424   4.491   0.610   3.579
 6175SOL    HW219425   4.495   0.769   3.540
 6176SOL     OW19426   6.091   3.105   6.208
 6176SOL    HW119427   6.125   3.040   6.139
 6176SOL    HW219428   6.144   3.190   6.203
 6177SOL     OW19429   5.303   2.197   1.222
 6177SOL    HW119430   5.298   2.109   1.271
 6177SOL    HW219431   5.272   2.184   1.128
 6178SOL     OW19432   5.572   3.654   0.831
 6178SOL    HW119433   5.665   3.618   0.824
 6178SOL    HW219434   5.576   3.752   0.853
 6179SOL     OW19435   0.381   2.559   5.343
 6179SOL    HW119436   0.290   2.579   5.307
 6179SOL    HW219437   0.448   2.620   5.301
 6180SOL     OW19438   3.937   6.902   1.293
 6180SOL    HW119439   3.997   6.977   1.321
 6180SOL    HW219440   3.850   6.939   1.262
 6181SOL     OW19441   4.842   6.374   6.533
 6181SOL    HW119442   4.746   6.364   6.560
 6181SOL    HW219443   4.883   6.283   6.525
 6182SOL     OW19444   4.762   5.932   6.228
 6182SOL    HW119445   4.726   5.845   6.193
 6182SOL    HW219446   4.823   5.972   6.160
 6183SOL     OW19447   2.556   6.916   3.176
 6183SOL    HW119448   2.562   6.993   3.112
 6183SOL    HW219449   2.461   6.888   3.186
 6184SOL     OW19450   0.683   0.402   6.317
 6184SOL    HW119451   0.643   0.311   6.304
 6184SOL    HW219452   0.612   0.472   6.307
 6185SOL     OW19453   0.002   3.352   6.317
 6185SOL    HW119454   6.986   3.288   6.387
 6185SOL    HW219455   0.102   3.347   6.314
 6186SOL     OW19456   5.199   0.315   4.263
 6186SOL    HW119457   5.175   0.357   4.176
 6186SOL    HW219458   5.122   0.322   4.327
 6187SOL     OW19459   4.259   4.680   3.970
 6187SOL    HW119460   4.264   4.588   4.009
 6187SOL    HW219461   4.291   4.678   3.876
 6188SOL     OW19462   2.943   6.694   1.448
 6188SOL    HW119463   2.910   6.627   1.381
 6188SOL    HW219464   2.896   6.680   1.535
 6189SOL     OW19465   5.753   5.136   3.367
 6189SOL    HW119466   5.781   5.199   3.439
 6189SOL    HW219467   5.697   5.063   3.408
 6190SOL     OW19468   5.307   2.398   6.852
 6190SOL    HW119469   5.291   2.315   6.800
 6190SOL    HW219470   5.250   2.397   6.935
 6191SOL     OW19471   5.680   1.823   6.975
 6191SOL    HW119472   5.771   1.807   7.013
 6191SOL    HW219473   5.614   1.833   0.031
 6192SOL     OW19474   2.575   3.029   6.883
 6192SOL    HW119475   2.509   2.954   6.874
 6192SOL    HW219476   2.536   3.099   6.945
 6193SOL     OW19477   5.782   0.064   2.063
 6193SOL    HW119478   5.750   0.010   1.986
 6193SOL    HW219479   5.718   0.139   2.082
 6194SOL     OW19480   2.653   0.603   0.831
 6194SOL    HW119481   2.593   0.631   0.756
 6194SOL    HW219482   2.623   0.644   0.916
 6195SOL     OW19483   3.420   6.779   6.480
 6195SOL    HW119484   3.490   6.845   6.505
 6195SOL    HW219485   3.398   6.790   6.383
 6196SOL     OW19486   0.734   2.024   6.056
 6196SOL    HW119487   0.824   1.993   6.026
 6196SOL    HW219488   0.670   2.019   5.979
 6197SOL     OW19489   2.640   3.713   0.740
 6197SOL    HW119490   2.727   3.763   0.746
 6197SOL    HW219491   2.572   3.770   0.692
 6198SOL     OW19492   3.658   4.923   2.532
 6198SOL    HW119493   3.675   4.892   2.439
 6198SOL    HW219494   3.745   4.950   2.574
 6199SOL     OW19495   1.731   6.934   0.303
 6199SOL    HW119496   1.814   6.972   0.342
 6199SOL    HW219497   1.754   6.873   0.227
 6200SOL     OW19498   3.671   0.674   6.235
 6200SOL    HW119499   3.749   0.698   6.178
 6200SOL    HW219500   3.703   0.643   6.325
 6201SOL     OW19501   2.126   3.696   5.446
 6201SOL    HW119502   2.151   3.779   5.395
 6201SOL    HW219503   2.029   3.678   5.434
 6202SOL     OW19504   2.844   1.928   1.075
 6202SOL    HW119505   2.884   1.973   1.155
 6202SOL    HW219506   2.874   1.976   0.992
 6203SOL     OW19507   4.925   1.010   4.571
 6203SOL    HW119508   4.852   1.062   4.527
 6203SOL    HW219509   4.884   0.943   4.634
 6204SOL     OW19510   2.191   5.950   5.283
 6204SOL    HW119511   2.106   5.961   5.232
 6204SOL    HW219512   2.259   5.906   5.225
 6205SOL     OW19513   5.111   5.599   6.739
 6205SOL    HW119514   5.187   5.541   6.768
 6205SOL    HW219515   5.106   5.599   6.639
 6206SOL     OW19516   5.778   0.229   2.661
 6206SOL    HW119517   5.787   0.217   2.563
 6206SOL    HW219518   5.831   0.309   2.690
 6207SOL     OW19519   1.325   3.887   4.792
 6207SOL    HW119520   1.272   3.868   4.709
 6207SOL    HW219521   1.409   3.936   4.767
 6208SOL     OW19522   6.022   0.152   6.395
 6208SOL    HW119523   6.029   0.127   6.492
 6208SOL    HW219524   5.947   0.217   6.382
 6209SOL     OW19525   4.327   6.766   0.003
 6209SOL    HW119526   4.396   6.734   0.067
 6209SOL    HW219527   4.295   6.689   6.965
 6210SOL     OW19528   5.421   4.405   3.463
 6210SOL    HW119529   5.461   4.448   3.382
 6210SOL    HW219530   5.425   4.306   3.454
 6211SOL     OW19531   2.630   0.436   4.848
 6211SOL    HW119532   2.645   0.412   4.943
 6211SOL    HW219533   2.532   0.448   4.832
 6212SOL     OW19534   6.461   6.043   3.626
 6212SOL    HW119535   6.529   5.970   3.621
 6212SOL    HW219536   6.506   6.131   3.633
 6213SOL     OW19537   6.226   0.730   6.787
 6213SOL    HW119538   6.280   0.689   6.714
 6213SOL    HW219539   6.150   0.782   6.748
 6214SOL     OW19540   6.452   4.989   2.463
 6214SOL    HW119541   6.439   5.076   2.415
 6214SOL    HW219542   6.469   5.006   2.560
 6215SOL     OW19543   2.897   2.796   1.167
 6215SOL    HW119544   2.844   2.808   1.083
 6215SOL    HW219545   2.993   2.780   1.144
 6216SOL     OW19546   5.827   2.047   2.083
 6216SOL    HW119547   5.891   1.988   2.131
 6216SOL    HW219548   5.760   1.991   2.033
 6217SOL     OW19549   4.593   2.089   0.862
 6217SOL    HW119550   4.652   2.011   0.879
 6217SOL    HW219551   4.636   2.150   0.795
 6218SOL     OW19552   2.684   4.867   4.629
 6218SOL    HW119553   2.587   4.858   4.606
 6218SOL    HW219554   2.739   4.850   4.547
 6219SOL     OW19555   0.852   2.333   5.023
 6219SOL    HW119556   0.760   2.294   5.017
 6219SOL    HW219557   0.854   2.404   5.094
 6220SOL     OW19558   2.289   4.761   4.819
 6220SOL    HW119559   2.368   4.727   4.869
 6220SOL    HW219560   2.214   4.779   4.883
 6221SOL     OW19561   4.108   5.039   4.431
 6221SOL    HW119562   4.022   5.083   4.408
 6221SOL    HW219563   4.177   5.109   4.452
 6222SOL     OW19564   6.834   0.088   1.985
 6222SOL    HW119565   6.740   0.083   2.018
 6222SOL    HW219566   6.837   0.060   1.889
 6223SOL     OW19567   5.486   3.241   4.421
 6223SOL    HW119568   5.450   3.148   4.417
 6223SOL    HW219569   5.487   3.280   4.328
 6224SOL     OW19570   2.228   1.350   5.171
 6224SOL    HW119571   2.301   1.292   5.204
 6224SOL    HW219572   2.161   1.295   5.121
 6225SOL     OW19573   3.279   3.263   0.736
 6225SOL    HW119574   3.212   3.223   0.797
 6225SOL    HW219575   3.272   3.220   0.646
 6226SOL     OW19576   5.456   0.889   4.337
 6226SOL    HW119577   5.455   0.810   4.398
 6226SOL    HW219578   5.524   0.875   4.265
 6227SOL     OW19579   3.404   4.630   5.704
 6227SOL    HW119580   3.483   4.568   5.700
 6227SOL    HW219581   3.342   4.601   5.777
 6228SOL     OW19582   6.916   1.355   3.245
 6228SOL    HW119583   6.992   1.306   3.203
 6228SOL    HW219584   6.928   1.357   3.344
 6229SOL     OW19585   2.465   2.205   2.807
 6229SOL    HW119586   2.518   2.290   2.811
 6229SOL    HW219587   2.395   2.213   2.736
 6230SOL     OW19588   2.267   1.997   4.232
 6230SOL    HW119589   2.310   1.928   4.290
 6230SOL    HW219590   2.180   2.026   4.271
 6231SOL     OW19591   0.260   5.203   1.316
 6231SOL    HW119592   0.330   5.205   1.244
 6231SOL    HW219593   0.273   5.281   1.378
 6232SOL     OW19594   0.339   0.427   0.340
 6232SOL    HW119595   0.261   0.482   0.371
 6232SOL    HW219596   0.421   0.484   0.339
 6233SOL     OW19597   4.965   1.847   6.377
 6233SOL    HW119598   4.946   1.755   6.413
 6233SOL    HW219599   4.955   1.914   6.451
 6234SOL     OW19600   1.630   2.091   4.764
 6234SOL    HW119601   1.627   2.188   4.790
 6234SOL    HW219602   1.551   2.069   4.707
 6235SOL     OW19603   1.598   0.249   2.486
 6235SOL    HW119604   1.585   0.254   2.387
 6235SOL    HW219605   1.612   0.340   2.523
 6236SOL     OW19606   6.984   4.764   0.710
 6236SOL    HW119607   0.017   4.680   0.693
 6236SOL    HW219608   0.006   4.813   0.788
 6237SOL     OW19609   4.886   6.443   0.764
 6237SOL    HW119610   4.954   6.446   0.837
 6237SOL    HW219611   4.925   6.480   0.680
 6238SOL     OW19612   4.882   5.428   2.006
 6238SOL    HW119613   4.803   5.418   1.946
 6238SOL    HW219614   4.966   5.419   1.953
 6239SOL     OW19615   2.443   6.706   2.846
 6239SOL    HW119616   2.427   6.796   2.807
 6239SOL    HW219617   2.462   6.640   2.773
 6240SOL     OW19618   1.522   3.032   0.598
 6240SOL    HW119619   1.464   3.113   0.593
 6240SOL    HW219620   1.499   2.970   0.522
 6241SOL     OW19621   2.662   0.411   1.809
 6241SOL    HW119622   2.677   0.329   1.755
 6241SOL    HW219623   2.746   0.465   1.812
 6242SOL     OW19624   5.302   2.396   3.521
 6242SOL    HW119625   5.296   2.478   3.577
 6242SOL    HW219626   5.381   2.403   3.460
 6243SOL     OW19627   5.678   6.554   4.353
 6243SOL    HW119628   5.596   6.604   4.326
 6243SOL    HW219629   5.659   6.503   4.437
 6244SOL     OW19630   2.732   1.875   2.353
 6244SOL    HW119631   2.830   1.866   2.334
 6244SOL    HW219632   2.715   1.858   2.450
 6245SOL     OW19633   2.807   4.686   1.325
 6245SOL    HW119634   2.788   4.700   1.422
 6245SOL    HW219635   2.826   4.773   1.282
 6246SOL     OW19636   2.873   1.972   5.684
 6246SOL    HW119637   2.807   1.897   5.687
 6246SOL    HW219638   2.930   1.964   5.602
 6247SOL     OW19639   0.395   6.841   3.345
 6247SOL    HW119640   0.321   6.908   3.342
 6247SOL    HW219641   0.424   6.828   3.439
 6248SOL     OW19642   0.616   4.366   1.243
 6248SOL    HW119643   0.522   4.394   1.222
 6248SOL    HW219644   0.622   4.338   1.339
 6249SOL     OW19645   0.041   4.013   0.141
 6249SOL    HW119646   6.980   4.004   0.201
 6249SOL    HW219647   0.069   4.108   0.136
 6250SOL     OW19648   6.192   6.439   0.015
 6250SOL    HW119649   6.291   6.428   0.013
 6250SOL    HW219650   6.167   6.524   6.986
 6251SOL     OW19651   4.205   1.046   1.133
 6251SOL    HW119652   4.105   1.051   1.128
 6251SOL    HW219653   4.240   1.128   1.178
 6252SOL     OW19654   3.123   5.258   5.021
 6252SOL    HW119655   3.189   5.238   4.948
 6252SOL    HW219656   3.109   5.356   5.028
 6253SOL     OW19657   2.435   4.153   1.842
 6253SOL    HW119658   2.436   4.158   1.942
 6253SOL    HW219659   2.381   4.229   1.806
 6254SOL     OW19660   5.768   0.228   0.377
 6254SOL    HW119661   5.672   0.227   0.406
 6254SOL    HW219662   5.805   0.135   0.382
 6255SOL     OW19663   0.819   1.021   2.503
 6255SOL    HW119664   0.909   1.062   2.520
 6255SOL    HW219665   0.776   1.067   2.425
 6256SOL     OW19666   4.272   5.062   2.441
 6256SOL    HW119667   4.365   5.037   2.467
 6256SOL    HW219668   4.235   4.992   2.380
 6257SOL     OW19669   5.447   2.593   0.339
 6257SOL    HW119670   5.493   2.512   0.303
 6257SOL    HW219671   5.492   2.676   0.305
 6258SOL     OW19672   4.582   1.788   2.132
 6258SOL    HW119673   4.506   1.823   2.187
 6258SOL    HW219674   4.665   1.839   2.155
 6259SOL     OW19675   3.272   2.155   1.855
 6259SOL    HW119676   3.342   2.106   1.908
 6259SOL    HW219677   3.184   2.110   1.868
 6260SOL     OW19678   3.296   4.189   0.197
 6260SOL    HW119679   3.265   4.229   0.283
 6260SOL    HW219680   3.349   4.256   0.146
 6261SOL     OW19681   3.768   0.914   0.619
 6261SOL    HW119682   3.694   0.847   0.610
 6261SOL    HW219683   3.812   0.927   0.531
 6262SOL     OW19684   1.200   4.595   0.116
 6262SOL    HW119685   1.229   4.587   0.020
 6262SOL    HW219686   1.130   4.667   0.124
 6263SOL     OW19687   0.020   0.023   0.518
 6263SOL    HW119688   6.964   6.986   0.480
 6263SOL    HW219689   0.058   0.082   0.447
 6264SOL     OW19690   2.642   2.244   0.860
 6264SOL    HW119691   2.654   2.235   0.958
 6264SOL    HW219692   2.708   2.186   0.812
 6265SOL     OW19693   4.237   4.032   1.017
 6265SOL    HW119694   4.199   3.955   0.965
 6265SOL    HW219695   4.173   4.108   1.016
 6266SOL     OW19696   3.339   0.543   3.190
 6266SOL    HW119697   3.245   0.549   3.225
 6266SOL    HW219698   3.342   0.476   3.115
 6267SOL     OW19699   3.162   0.225   0.041
 6267SOL    HW119700   3.137   0.149   0.099
 6267SOL    HW219701   3.099   0.302   0.056
 6268SOL     OW19702   2.961   4.901   2.765
 6268SOL    HW119703   2.973   4.869   2.859
 6268SOL    HW219704   2.907   4.833   2.715
 6269SOL     OW19705   5.648   6.184   1.593
 6269SOL    HW119706   5.648   6.084   1.584
 6269SOL    HW219707   5.742   6.218   1.586
 6270SOL     OW19708   1.596   0.743   4.970
 6270SOL    HW119709   1.591   0.764   5.067
 6270SOL    HW219710   1.613   0.826   4.918
 6271SOL     OW19711   0.226   1.477   0.292
 6271SOL    HW119712   0.212   1.438   0.201
 6271SOL    HW219713   0.280   1.560   0.284
 6272SOL     OW19714   2.195   2.481   3.925
 6272SOL    HW119715   2.262   2.409   3.940
 6272SOL    HW219716   2.136   2.456   3.848
 6273SOL     OW19717   2.380   1.354   1.154
 6273SOL    HW119718   2.311   1.424   1.138
 6273SOL    HW219719   2.374   1.284   1.083
 6274SOL     OW19720   3.604   5.808   6.449
 6274SOL    HW119721   3.524   5.813   6.389
 6274SOL    HW219722   3.607   5.718   6.493
 6275SOL     OW19723   1.831   0.200   4.669
 6275SOL    HW119724   1.862   0.209   4.763
 6275SOL    HW219725   1.906   0.224   4.607
 6276SOL     OW19726   1.365   5.711   3.791
 6276SOL    HW119727   1.462   5.694   3.805
 6276SOL    HW219728   1.315   5.624   3.791
 6277SOL     OW19729   5.272   2.524   2.431
 6277SOL    HW119730   5.212   2.513   2.352
 6277SOL    HW219731   5.221   2.566   2.507
 6278SOL     OW19732   4.741   0.443   4.398
 6278SOL    HW119733   4.732   0.431   4.299
 6278SOL    HW219734   4.664   0.397   4.444
 6279SOL     OW19735   3.851   1.707   1.159
 6279SOL    HW119736   3.799   1.699   1.244
 6279SOL    HW219737   3.943   1.671   1.172
 6280SOL     OW19738   0.281   4.058   5.647
 6280SOL    HW119739   0.358   4.118   5.670
 6280SOL    HW219740   0.197   4.111   5.644
 6281SOL     OW19741   2.297   0.469   5.388
 6281SOL    HW119742   2.388   0.439   5.362
 6281SOL    HW219743   2.293   0.483   5.487
 6282SOL     OW19744   1.959   0.150   4.242
 6282SOL    HW119745   2.019   0.074   4.217
 6282SOL    HW219746   2.004   0.205   4.313
 6283SOL     OW19747   0.129   2.638   5.234
 6283SOL    HW119748   0.102   2.731   5.261
 6283SOL    HW219749   0.048   2.585   5.211
 6284SOL     OW19750   1.255   4.727   5.507
 6284SOL    HW119751   1.348   4.762   5.517
 6284SOL    HW219752   1.229   4.728   5.410
 6285SOL     OW19753   1.484   2.924   3.624
 6285SOL    HW119754   1.552   2.974   3.570
 6285SOL    HW219755   1.529   2.876   3.699
 6286SOL     OW19756   5.374   1.189   3.551
 6286SOL    HW119757   5.417   1.266   3.504
 6286SOL    HW219758   5.320   1.136   3.486
 6287SOL     OW19759   5.001   3.815   1.657
 6287SOL    HW119760   4.941   3.771   1.590
 6287SOL    HW219761   4.947   3.879   1.713
 6288SOL     OW19762   5.268   3.743   0.398
 6288SOL    HW119763   5.310   3.726   0.487
 6288SOL    HW219764   5.294   3.835   0.367
 6289SOL     OW19765   1.525   1.859   4.045
 6289SOL    HW119766   1.608   1.847   4.099
 6289SOL    HW219767   1.527   1.949   4.000
 6290SOL     OW19768   4.767   4.133   3.693
 6290SOL    HW119769   4.819   4.206   3.738
 6290SOL    HW219770   4.742   4.163   3.601
 6291SOL     OW19771   3.754   4.070   3.439
 6291SOL    HW119772   3.682   4.098   3.502
 6291SOL    HW219773   3.831   4.032   3.491
 6292SOL     OW19774   0.967   1.694   2.144
 6292SOL    HW119775   0.985   1.790   2.164
 6292SOL    HW219776   0.998   1.672   2.052
 6293SOL     OW19777   5.111   0.039   0.068
 6293SOL    HW119778   5.181   6.998   0.107
 6293SOL    HW219779   5.069   0.094   0.141
 6294SOL     OW19780   3.906   5.174   2.741
 6294SOL    HW119781   3.980   5.115   2.709
 6294SOL    HW219782   3.937   5.269   2.745
 6295SOL     OW19783   5.802   5.848   6.119
 6295SOL    HW119784   5.752   5.765   6.093
 6295SOL    HW219785   5.856   5.829   6.201
 6296SOL     OW19786   6.480   0.686   3.173
 6296SOL    HW119787   6.423   0.646   3.245
 6296SOL    HW219788   6.494   0.617   3.101
 6297SOL     OW19789   5.420   5.964   5.947
 6297SOL    HW119790   5.451   5.979   6.041
 6297SOL    HW219791   5.344   6.026   5.927
 6298SOL     OW19792   0.415   3.248   5.370
 6298SOL    HW119793   0.377   3.323   5.317
 6298SOL    HW219794   0.405   3.267   5.468
 6299SOL     OW19795   6.370   2.624   6.357
 6299SOL    HW119796   6.400   2.715   6.327
 6299SOL    HW219797   6.403   2.607   6.450
 6300SOL     OW19798   4.616   0.864   4.111
 6300SOL    HW119799   4.704   0.885   4.068
 6300SOL    HW219800   4.628   0.857   4.210
 6301SOL     OW19801   3.164   0.069   1.161
 6301SOL    HW119802   3.248   0.059   1.215
 6301SOL    HW219803   3.105   7.008   1.177
 6302SOL     OW19804   1.884   0.775   3.664
 6302SOL    HW119805   1.944   0.717   3.608
 6302SOL    HW219806   1.791   0.770   3.628
 6303SOL     OW19807   1.785   6.421   4.997
 6303SOL    HW119808   1.780   6.332   5.044
 6303SOL    HW219809   1.763   6.409   4.900
 6304SOL     OW19810   2.479   1.612   0.128
 6304SOL    HW119811   2.524   1.677   0.066
 6304SOL    HW219812   2.407   1.659   0.179
 6305SOL     OW19813   6.602   6.996   1.283
 6305SOL    HW119814   6.689   0.024   1.268
 6305SOL    HW219815   6.590   6.924   1.215
 6306SOL     OW19816   6.872   2.913   3.749
 6306SOL    HW119817   6.877   2.844   3.821
 6306SOL    HW219818   6.856   2.867   3.661
 6307SOL     OW19819   2.152   4.951   6.601
 6307SOL    HW119820   2.080   4.885   6.623
 6307SOL    HW219821   2.232   4.902   6.566
 6308SOL     OW19822   2.509   1.704   4.653
 6308SOL    HW119823   2.428   1.742   4.696
 6308SOL    HW219824   2.589   1.759   4.676
 6309SOL     OW19825   5.150   2.565   4.122
 6309SOL    HW119826   5.127   2.644   4.066
 6309SOL    HW219827   5.091   2.488   4.097
 6310SOL     OW19828   1.365   5.157   4.894
 6310SOL    HW119829   1.278   5.108   4.902
 6310SOL    HW219830   1.411   5.159   4.983
 6311SOL     OW19831   6.092   0.141   4.746
 6311SOL    HW119832   6.131   0.059   4.703
 6311SOL    HW219833   6.002   0.159   4.708
 6312SOL     OW19834   4.636   5.275   6.129
 6312SOL    HW119835   4.582   5.192   6.117
 6312SOL    HW219836   4.663   5.284   6.225
 6313SOL     OW19837   2.062   5.809   3.322
 6313SOL    HW119838   2.050   5.771   3.414
 6313SOL    HW219839   2.126   5.753   3.270
 6314SOL     OW19840   2.885   6.089   2.858
 6314SOL    HW119841   2.918   6.064   2.767
 6314SOL    HW219842   2.957   6.139   2.907
 6315SOL     OW19843   3.215   3.611   0.384
 6315SOL    HW119844   3.211   3.711   0.386
 6315SOL    HW219845   3.309   3.581   0.398
 6316SOL     OW19846   4.770   2.465   5.458
 6316SOL    HW119847   4.853   2.436   5.506
 6316SOL    HW219848   4.758   2.563   5.470
 6317SOL     OW19849   5.155   6.976   3.718
 6317SOL    HW119850   5.221   6.926   3.662
 6317SOL    HW219851   5.140   0.048   3.679
 6318SOL     OW19852   2.344   2.450   5.164
 6318SOL    HW119853   2.345   2.350   5.160
 6318SOL    HW219854   2.401   2.481   5.240
 6319SOL     OW19855   1.202   1.780   3.178
 6319SOL    HW119856   1.281   1.779   3.117
 6319SOL    HW219857   1.204   1.699   3.236
 6320SOL     OW19858   6.115   3.608   2.898
 6320SOL    HW119859   6.048   3.681   2.909
 6320SOL    HW219860   6.074   3.521   2.925
 6321SOL     OW19861   2.601   5.245   0.882
 6321SOL    HW119862   2.516   5.262   0.932
 6321SOL    HW219863   2.580   5.195   0.798
 6322SOL     OW19864   1.485   1.456   6.803
 6322SOL    HW119865   1.477   1.549   6.769
 6322SOL    HW219866   1.488   1.457   6.903
 6323SOL     OW19867   4.164   2.831   0.811
 6323SOL    HW119868   4.155   2.766   0.887
 6323SOL    HW219869   4.116   2.796   0.731
 6324SOL     OW19870   4.286   1.270   5.694
 6324SOL    HW119871   4.319   1.318   5.776
 6324SOL    HW219872   4.188   1.252   5.704
 6325SOL     OW19873   0.723   2.420   2.239
 6325SOL    HW119874   0.793   2.481   2.200
 6325SOL    HW219875   0.704   2.448   2.333
 6326SOL     OW19876   5.210   5.470   1.667
 6326SOL    HW119877   5.170   5.562   1.664
 6326SOL    HW219878   5.309   5.477   1.648
 6327SOL     OW19879   5.832   5.744   5.686
 6327SOL    HW119880   5.831   5.823   5.625
 6327SOL    HW219881   5.756   5.683   5.662
 6328SOL     OW19882   2.203   4.073   6.819
 6328SOL    HW119883   2.272   4.034   6.759
 6328SOL    HW219884   2.114   4.031   6.798
 6329SOL     OW19885   1.408   1.234   3.637
 6329SOL    HW119886   1.469   1.195   3.705
 6329SOL    HW219887   1.415   1.334   3.639
 6330SOL     OW19888   4.134   0.623   0.761
 6330SOL    HW119889   4.037   0.640   0.778
 6330SOL    HW219890   4.178   0.706   0.726
 6331SOL     OW19891   6.369   1.910   1.435
 6331SOL    HW119892   6.427   1.902   1.516
 6331SOL    HW219893   6.413   1.971   1.369
 6332SOL     OW19894   5.953   5.715   1.076
 6332SOL    HW119895   5.980   5.803   1.038
 6332SOL    HW219896   5.881   5.728   1.145
 6333SOL     OW19897   3.455   4.893   3.200
 6333SOL    HW119898   3.551   4.902   3.172
 6333SOL    HW219899   3.397   4.898   3.119
 6334SOL     OW19900   1.864   0.742   2.385
 6334SOL    HW119901   1.931   0.789   2.327
 6334SOL    HW219902   1.829   0.806   2.453
 6335SOL     OW19903   6.586   0.996   6.664
 6335SOL    HW119904   6.488   1.017   6.667
 6335SOL    HW219905   6.602   0.922   6.599
 6336SOL     OW19906   6.830   2.632   4.555
 6336SOL    HW119907   6.822   2.654   4.458
 6336SOL    HW219908   6.888   2.701   4.600
 6337SOL     OW19909   5.665   4.023   5.895
 6337SOL    HW119910   5.709   3.959   5.958
 6337SOL    HW219911   5.593   3.976   5.843
 6338SOL     OW19912   3.678   1.613   2.691
 6338SOL    HW119913   3.693   1.620   2.790
 6338SOL    HW219914   3.764   1.590   2.646
 6339SOL     OW19915   0.387   2.033   3.799
 6339SOL    HW119916   0.409   2.059   3.705
 6339SOL    HW219917   0.327   2.101   3.839
 6340SOL     OW19918   2.969   5.716   3.840
 6340SOL    HW119919   2.953   5.781   3.765
 6340SOL    HW219920   2.881   5.684   3.875
 6341SOL     OW19921   0.274   4.273   3.313
 6341SOL    HW119922   0.372   4.285   3.327
 6341SOL    HW219923   0.240   4.346   3.253
 6342SOL     OW19924   1.562   2.582   1.551
 6342SOL    HW119925   1.641   2.527   1.526
 6342SOL    HW219926   1.482   2.523   1.562
 6343SOL     OW19927   3.881   1.314   6.538
 6343SOL    HW119928   3.904   1.386   6.603
 6343SOL    HW219929   3.793   1.273   6.561
 6344SOL     OW19930   0.571   4.051   4.844
 6344SOL    HW119931   0.521   4.069   4.930
 6344SOL    HW219932   0.561   3.955   4.820
 6345SOL     OW19933   3.472   1.458   2.108
 6345SOL    HW119934   3.372   1.464   2.109
 6345SOL    HW219935   3.504   1.459   2.014
 6346SOL     OW19936   0.569   3.968   3.361
 6346SOL    HW119937   0.483   3.975   3.412
 6346SOL    HW219938   0.553   3.921   3.275
 6347SOL     OW19939   3.208   0.074   0.874
 6347SOL    HW119940   3.224   0.031   0.963
 6347SOL    HW219941   3.125   0.129   0.878
 6348SOL     OW19942   1.091   3.158   4.194
 6348SOL    HW119943   1.123   3.083   4.252
 6348SOL    HW219944   1.169   3.198   4.146
 6349SOL     OW19945   2.910   0.817   0.922
 6349SOL    HW119946   2.876   0.747   0.984
 6349SOL    HW219947   2.834   0.848   0.863
 6350SOL     OW19948   1.554   5.896   2.455
 6350SOL    HW119949   1.620   5.950   2.508
 6350SOL    HW219950   1.595   5.869   2.368
 6351SOL     OW19951   6.922   1.327   1.974
 6351SOL    HW119952   6.890   1.398   2.037
 6351SOL    HW219953   6.974   1.259   2.025
 6352SOL     OW19954   1.222   5.528   2.408
 6352SOL    HW119955   1.212   5.513   2.507
 6352SOL    HW219956   1.250   5.623   2.392
 6353SOL     OW19957   0.639   0.094   0.418
 6353SOL    HW119958   0.680   0.163   0.478
 6353SOL    HW219959   0.555   0.059   0.460
 6354SOL     OW19960   0.728   0.355   2.571
 6354SOL    HW119961   0.825   0.367   2.592
 6354SOL    HW219962   0.689   0.441   2.540
 6355SOL     OW19963   1.544   3.100   3.016
 6355SOL    HW119964   1.642   3.093   3.002
 6355SOL    HW219965   1.501   3.013   2.991
 6356SOL     OW19966   3.585   4.624   0.941
 6356SOL    HW119967   3.580   4.562   1.019
 6356SOL    HW219968   3.495   4.635   0.901
 6357SOL     OW19969   3.925   2.214   0.115
 6357SOL    HW119970   3.827   2.197   0.102
 6357SOL    HW219971   3.952   2.186   0.208
 6358SOL     OW19972   6.912   2.332   3.693
 6358SOL    HW119973   6.815   2.308   3.703
 6358SOL    HW219974   6.958   2.261   3.640
 6359SOL     OW19975   0.041   0.573   6.162
 6359SOL    HW119976   0.025   0.508   6.236
 6359SOL    HW219977   0.104   0.534   6.095
 6360SOL     OW19978   2.676   5.053   3.959
 6360SOL    HW119979   2.763   5.095   3.934
 6360SOL    HW219980   2.649   4.988   3.887
 6361SOL     OW19981   4.147   5.845   5.852
 6361SOL    HW119982   4.233   5.885   5.884
 6361SOL    HW219983   4.164   5.792   5.769
 6362SOL     OW19984   6.191   5.016   6.766
 6362SOL    HW119985   6.245   5.100   6.776
 6362SOL    HW219986   6.115   5.032   6.703
 6363SOL     OW19987   1.689   5.765   4.120
 6363SOL    HW119988   1.752   5.839   4.096
 6363SOL    HW219989   1.739   5.693   4.168
 6364SOL     OW19990   2.138   2.549   6.019
 6364SOL    HW119991   2.226   2.502   6.020
 6364SOL    HW219992   2.081   2.511   5.946
 6365SOL     OW19993   4.868   6.772   3.133
 6365SOL    HW119994   4.899   6.759   3.039
 6365SOL    HW219995   4.861   6.870   3.152
 6366SOL     OW19996   0.543   5.594   5.312
 6366SOL    HW119997   0.593   5.523   5.362
 6366SOL    HW219998   0.530   5.673   5.372
 6367SOL     OW19999   5.085   6.909   3.976
 6367SOL    HW120000   5.125   6.954   3.896
 6367SOL    HW220001   5.098   6.967   4.057
 6368SOL     OW20002   3.394   6.415   4.385
 6368SOL    HW120003   3.484   6.437   4.347
 6368SOL    HW220004   3.380   6.468   4.469
 6369SOL     OW20005   2.304   4.969   3.755
 6369SOL    HW120006   2.324   4.957   3.853
 6369SOL    HW220007   2.241   5.046   3.744
 6370SOL     OW20008   5.665   2.269   0.958
 6370SOL    HW120009   5.685   2.176   0.986
 6370SOL    HW220010   5.602   2.311   1.024
 6371SOL     OW20011   4.796   2.779   2.667
 6371SOL    HW120012   4.810   2.793   2.569
 6371SOL    HW220013   4.702   2.751   2.684
 6372SOL     OW20014   3.516   6.341   2.417
 6372SOL    HW120015   3.458   6.418   2.442
 6372SOL    HW220016   3.597   6.375   2.368
 6373SOL     OW20017   4.248   4.222   6.025
 6373SOL    HW120018   4.282   4.251   5.936
 6373SOL    HW220019   4.321   4.178   6.076
 6374SOL     OW20020   3.040   3.160   2.821
 6374SOL    HW120021   3.017   3.206   2.907
 6374SOL    HW220022   3.100   3.082   2.841
 6375SOL     OW20023   1.269   6.859   2.874
 6375SOL    HW120024   1.291   6.915   2.953
 6375SOL    HW220025   1.176   6.880   2.843
 6376SOL     OW20026   6.306   2.084   4.578
 6376SOL    HW120027   6.219   2.057   4.536
 6376SOL    HW220028   6.380   2.069   4.512
 6377SOL     OW20029   0.371   1.057   4.664
 6377SOL    HW120030   0.436   1.103   4.603
 6377SOL    HW220031   0.365   0.960   4.640
 6378SOL     OW20032   4.888   4.339   4.161
 6378SOL    HW120033   4.914   4.245   4.185
 6378SOL    HW220034   4.922   4.360   4.070
 6379SOL     OW20035   2.261   4.012   3.891
 6379SOL    HW120036   2.299   4.104   3.890
 6379SOL    HW220037   2.250   3.979   3.797
 6380SOL     OW20038   0.819   1.032   6.407
 6380SOL    HW120039   0.762   1.068   6.481
 6380SOL    HW220040   0.789   0.939   6.384
 6381SOL     OW20041   3.013   3.711   2.938
 6381SOL    HW120042   2.984   3.750   2.851
 6381SOL    HW220043   3.111   3.726   2.950
 6382SOL     OW20044   1.186   3.297   6.043
 6382SOL    HW120045   1.281   3.324   6.032
 6382SOL    HW220046   1.157   3.245   5.962
 6383SOL     OW20047   2.336   2.349   4.189
 6383SOL    HW120048   2.375   2.289   4.119
 6383SOL    HW220049   2.396   2.427   4.204
 6384SOL     OW20050   6.789   5.080   2.601
 6384SOL    HW120051   6.730   5.133   2.661
 6384SOL    HW220052   6.780   5.113   2.507
 6385SOL     OW20053   0.699   5.523   4.538
 6385SOL    HW120054   0.610   5.526   4.491
 6385SOL    HW220055   0.752   5.445   4.504
 6386SOL     OW20056   2.667   5.526   0.956
 6386SOL    HW120057   2.681   5.559   0.863
 6386SOL    HW220058   2.646   5.428   0.953
 6387SOL     OW20059   6.791   0.981   5.119
 6387SOL    HW120060   6.872   1.002   5.173
 6387SOL    HW220061   6.819   0.940   5.032
 6388SOL     OW20062   3.217   4.975   1.939
 6388SOL    HW120063   3.227   4.954   1.841
 6388SOL    HW220064   3.170   4.900   1.984
 6389SOL     OW20065   1.452   6.094   3.198
 6389SOL    HW120066   1.493   6.005   3.179
 6389SOL    HW220067   1.371   6.081   3.257
 6390SOL     OW20068   0.805   2.574   3.607
 6390SOL    HW120069   0.709   2.547   3.612
 6390SOL    HW220070   0.836   2.605   3.697
 6391SOL     OW20071   2.425   2.202   0.413
 6391SOL    HW120072   2.507   2.152   0.442
 6391SOL    HW220073   2.391   2.256   0.490
 6392SOL     OW20074   1.377   6.346   3.542
 6392SOL    HW120075   1.364   6.276   3.611
 6392SOL    HW220076   1.288   6.382   3.514
 6393SOL     OW20077   6.083   6.453   0.664
 6393SOL    HW120078   6.114   6.386   0.596
 6393SOL    HW220079   6.105   6.545   0.632
 6394SOL     OW20080   2.148   4.999   0.633
 6394SOL    HW120081   2.233   4.961   0.597
 6394SOL    HW220082   2.162   5.029   0.728
 6395SOL     OW20083   6.207   1.278   0.945
 6395SOL    HW120084   6.184   1.329   0.862
 6395SOL    HW220085   6.277   1.210   0.923
 6396SOL     OW20086   4.986   3.789   5.746
 6396SOL    HW120087   4.996   3.883   5.778
 6396SOL    HW220088   4.924   3.739   5.806
 6397SOL     OW20089   0.268   1.286   0.468
 6397SOL    HW120090   0.248   1.206   0.411
 6397SOL    HW220091   0.269   1.368   0.411
 6398SOL     OW20092   3.121   1.393   1.454
 6398SOL    HW120093   3.062   1.325   1.409
 6398SOL    HW220094   3.204   1.406   1.400
 6399SOL     OW20095   1.889   5.750   6.641
 6399SOL    HW120096   1.907   5.771   6.737
 6399SOL    HW220097   1.967   5.700   6.603
 6400SOL     OW20098   2.849   5.937   3.329
 6400SOL    HW120099   2.804   5.873   3.392
 6400SOL    HW220100   2.781   6.000   3.292
 6401SOL     OW20101   0.462   4.626   3.556
 6401SOL    HW120102   0.544   4.568   3.548
 6401SOL    HW220103   0.482   4.704   3.615
 6402SOL     OW20104   2.350   1.059   3.104
 6402SOL    HW120105   2.328   1.131   3.170
 6402SOL    HW220106   2.372   1.100   3.016
 6403SOL     OW20107   0.861   4.972   6.768
 6403SOL    HW120108   0.896   4.893   6.819
 6403SOL    HW220109   0.907   4.978   6.680
 6404SOL     OW20110   4.762   1.330   3.228
 6404SOL    HW120111   4.852   1.374   3.231
 6404SOL    HW220112   4.755   1.273   3.146
 6405SOL     OW20113   2.466   1.368   2.249
 6405SOL    HW120114   2.481   1.389   2.152
 6405SOL    HW220115   2.425   1.447   2.294
 6406SOL     OW20116   2.252   1.488   4.074
 6406SOL    HW120117   2.173   1.428   4.056
 6406SOL    HW220118   2.224   1.583   4.068
 6407SOL     OW20119   3.365   5.824   5.595
 6407SOL    HW120120   3.278   5.774   5.592
 6407SOL    HW220121   3.365   5.894   5.524
 6408SOL     OW20122   5.338   1.874   6.548
 6408SOL    HW120123   5.347   1.801   6.480
 6408SOL    HW220124   5.261   1.855   6.609
 6409SOL     OW20125   0.185   3.525   2.875
 6409SOL    HW120126   0.111   3.458   2.886
 6409SOL    HW220127   0.231   3.510   2.787
 6410SOL     OW20128   2.059   1.707   0.635
 6410SOL    HW120129   2.044   1.757   0.720
 6410SOL    HW220130   2.024   1.761   0.558
 6411SOL     OW20131   0.803   1.177   3.586
 6411SOL    HW120132   0.891   1.140   3.613
 6411SOL    HW220133   0.800   1.275   3.605
 6412SOL     OW20134   0.086   2.551   5.738
 6412SOL    HW120135   0.128   2.611   5.806
 6412SOL    HW220136   7.018   2.515   5.773
 6413SOL     OW20137   6.694   4.856   1.090
 6413SOL    HW120138   6.595   4.842   1.087
 6413SOL    HW220139   6.736   4.787   1.149
 6414SOL     OW20140   6.350   6.806   2.148
 6414SOL    HW120141   6.268   6.811   2.205
 6414SOL    HW220142   6.327   6.764   2.060
 6415SOL     OW20143   1.698   1.623   1.215
 6415SOL    HW120144   1.622   1.688   1.226
 6415SOL    HW220145   1.700   1.561   1.294
 6416SOL     OW20146   1.553   0.742   6.603
 6416SOL    HW120147   1.641   0.789   6.596
 6416SOL    HW220148   1.485   0.791   6.548
 6417SOL     OW20149   0.685   0.004   3.351
 6417SOL    HW120150   0.599   0.054   3.350
 6417SOL    HW220151   0.688   6.958   3.275
 6418SOL     OW20152   0.190   5.966   2.031
 6418SOL    HW120153   0.113   5.926   1.982
 6418SOL    HW220154   0.270   5.906   2.021
 6419SOL     OW20155   3.868   5.033   1.787
 6419SOL    HW120156   3.825   5.058   1.874
 6419SOL    HW220157   3.934   5.103   1.761
 6420SOL     OW20158   2.330   4.061   6.051
 6420SOL    HW120159   2.263   4.122   6.008
 6420SOL    HW220160   2.422   4.095   6.033
 6421SOL     OW20161   5.502   0.938   1.337
 6421SOL    HW120162   5.518   0.844   1.305
 6421SOL    HW220163   5.442   0.985   1.273
 6422SOL     OW20164   6.664   1.422   3.504
 6422SOL    HW120165   6.736   1.471   3.456
 6422SOL    HW220166   6.579   1.425   3.451
 6423SOL     OW20167   5.340   3.705   0.989
 6423SOL    HW120168   5.346   3.804   0.980
 6423SOL    HW220169   5.427   3.664   0.963
 6424SOL     OW20170   6.931   3.422   5.861
 6424SOL    HW120171   6.898   3.496   5.919
 6424SOL    HW220172   0.013   3.424   5.859
 6425SOL     OW20173   0.626   4.230   2.334
 6425SOL    HW120174   0.618   4.159   2.264
 6425SOL    HW220175   0.702   4.291   2.311
 6426SOL     OW20176   1.229   2.092   3.204
 6426SOL    HW120177   1.172   2.025   3.156
 6426SOL    HW220178   1.180   2.179   3.210
 6427SOL     OW20179   1.490   3.462   5.609
 6427SOL    HW120180   1.459   3.468   5.514
 6427SOL    HW220181   1.536   3.374   5.623
 6428SOL     OW20182   6.579   3.606   2.016
 6428SOL    HW120183   6.668   3.596   1.971
 6428SOL    HW220184   6.555   3.519   2.061
 6429SOL     OW20185   1.266   6.923   4.399
 6429SOL    HW120186   1.273   6.838   4.346
 6429SOL    HW220187   1.223   6.994   4.343
 6430SOL     OW20188   5.960   1.753   1.235
 6430SOL    HW120189   5.991   1.675   1.289
 6430SOL    HW220190   5.983   1.838   1.283
 6431SOL     OW20191   5.471   6.749   2.747
 6431SOL    HW120192   5.385   6.747   2.696
 6431SOL    HW220193   5.506   6.656   2.758
 6432SOL     OW20194   4.763   3.418   0.685
 6432SOL    HW120195   4.695   3.475   0.732
 6432SOL    HW220196   4.772   3.448   0.590
 6433SOL     OW20197   2.944   4.133   1.128
 6433SOL    HW120198   2.935   4.158   1.225
 6433SOL    HW220199   3.007   4.055   1.119
 6434SOL     OW20200   1.022   3.665   0.814
 6434SOL    HW120201   1.101   3.618   0.776
 6434SOL    HW220202   0.939   3.629   0.772
 6435SOL     OW20203   4.211   4.655   6.450
 6435SOL    HW120204   4.281   4.713   6.407
 6435SOL    HW220205   4.151   4.712   6.506
 6436SOL     OW20206   1.705   3.303   3.673
 6436SOL    HW120207   1.668   3.390   3.640
 6436SOL    HW220208   1.654   3.273   3.753
 6437SOL     OW20209   1.498   6.765   0.007
 6437SOL    HW120210   1.502   6.665   0.007
 6437SOL    HW220211   1.423   6.794   6.966
 6438SOL     OW20212   1.217   3.840   3.808
 6438SOL    HW120213   1.212   3.852   3.908
 6438SOL    HW220214   1.213   3.929   3.764
 6439SOL     OW20215   1.483   6.835   1.124
 6439SOL    HW120216   1.436   6.914   1.086
 6439SOL    HW220217   1.582   6.847   1.115
 6440SOL     OW20218   1.199   1.634   2.613
 6440SOL    HW120219   1.157   1.586   2.536
 6440SOL    HW220220   1.173   1.731   2.610
 6441SOL     OW20221   2.215   1.139   3.641
 6441SOL    HW120222   2.165   1.084   3.575
 6441SOL    HW220223   2.232   1.085   3.724
 6442SOL     OW20224   2.306   2.374   4.602
 6442SOL    HW120225   2.269   2.319   4.677
 6442SOL    HW220226   2.257   2.352   4.518
 6443SOL     OW20227   2.852   2.664   0.184
 6443SOL    HW120228   2.870   2.632   0.277
 6443SOL    HW220229   2.911   2.615   0.120
 6444SOL     OW20230   0.845   1.281   3.060
 6444SOL    HW120231   0.792   1.344   3.117
 6444SOL    HW220232   0.927   1.327   3.027
 6445SOL     OW20233   3.838   2.823   5.164
 6445SOL    HW120234   3.842   2.878   5.081
 6445SOL    HW220235   3.787   2.872   5.234
 6446SOL     OW20236   6.656   1.205   7.007
 6446SOL    HW120237   6.575   1.215   6.949
 6446SOL    HW220238   6.711   1.288   7.002
 6447SOL     OW20239   1.532   0.135   1.949
 6447SOL    HW120240   1.579   0.087   1.874
 6447SOL    HW220241   1.449   0.084   1.973
 6448SOL     OW20242   6.100   2.730   3.518
 6448SOL    HW120243   6.044   2.813   3.521
 6448SOL    HW220244   6.091   2.687   3.428
 6449SOL     OW20245   3.116   3.145   0.948
 6449SOL    HW120246   3.134   3.122   1.043
 6449SOL    HW220247   3.032   3.200   0.942
 6450SOL     OW20248   6.098   4.119   1.830
 6450SOL    HW120249   6.122   4.040   1.886
 6450SOL    HW220250   6.128   4.202   1.875
 6451SOL     OW20251   2.553   5.838   5.334
 6451SOL    HW120252   2.481   5.871   5.394
 6451SOL    HW220253   2.582   5.747   5.364
 6452SOL     OW20254   3.498   6.878   4.188
 6452SOL    HW120255   3.565   6.804   4.192
 6452SOL    HW220256   3.540   6.959   4.147
 6453SOL     OW20257   1.247   6.220   6.670
 6453SOL    HW120258   1.223   6.143   6.729
 6453SOL    HW220259   1.254   6.303   6.725
 6454SOL     OW20260   3.109   1.719   4.643
 6454SOL    HW120261   3.025   1.749   4.598
 6454SOL    HW220262   3.114   1.756   4.735
 6455SOL     OW20263   6.637   2.776   4.851
 6455SOL    HW120264   6.718   2.730   4.887
 6455SOL    HW220265   6.563   2.769   4.918
 6456SOL     OW20266   0.825   0.529   3.025
 6456SOL    HW120267   0.733   0.521   3.063
 6456SOL    HW220268   0.875   0.602   3.071
 6457SOL     OW20269   6.155   2.196   1.402
 6457SOL    HW120270   6.252   2.180   1.421
 6457SOL    HW220271   6.135   2.294   1.409
 6458SOL     OW20272   1.408   5.703   3.498
 6458SOL    HW120273   1.431   5.651   3.580
 6458SOL    HW220274   1.473   5.682   3.425
 6459SOL     OW20275   6.061   4.254   6.945
 6459SOL    HW120276   6.024   4.339   6.907
 6459SOL    HW220277   6.083   4.267   0.023
 6460SOL     OW20278   3.519   4.820   6.478
 6460SOL    HW120279   3.429   4.837   6.439
 6460SOL    HW220280   3.587   4.878   6.432
 6461SOL     OW20281   3.551   5.120   5.531
 6461SOL    HW120282   3.615   5.178   5.581
 6461SOL    HW220283   3.565   5.024   5.557
 6462SOL     OW20284   2.123   3.501   5.155
 6462SOL    HW120285   2.198   3.562   5.128
 6462SOL    HW220286   2.154   3.441   5.229
 6463SOL     OW20287   2.391   4.236   6.277
 6463SOL    HW120288   2.311   4.296   6.289
 6463SOL    HW220289   2.371   4.168   6.206
 6464SOL     OW20290   0.441   5.422   3.336
 6464SOL    HW120291   0.447   5.466   3.247
 6464SOL    HW220292   0.454   5.490   3.408
 6465SOL     OW20293   6.367   1.769   3.579
 6465SOL    HW120294   6.269   1.768   3.598
 6465SOL    HW220295   6.398   1.864   3.570
 6466SOL     OW20296   0.562   2.603   5.100
 6466SOL    HW120297   0.565   2.507   5.130
 6466SOL    HW220298   0.592   2.662   5.174
 6467SOL     OW20299   2.793   1.494   6.581
 6467SOL    HW120300   2.749   1.525   6.497
 6467SOL    HW220301   2.885   1.461   6.561
 6468SOL     OW20302   4.784   6.252   1.499
 6468SOL    HW120303   4.869   6.245   1.446
 6468SOL    HW220304   4.716   6.305   1.447
 6469SOL     OW20305   6.436   0.494   5.815
 6469SOL    HW120306   6.498   0.566   5.783
 6469SOL    HW220307   6.489   0.416   5.847
 6470SOL     OW20308   5.834   0.063   5.895
 6470SOL    HW120309   5.928   0.039   5.870
 6470SOL    HW220310   5.772   0.038   5.821
 6471SOL     OW20311   6.355   4.593   6.837
 6471SOL    HW120312   6.307   4.606   6.751
 6471SOL    HW220313   6.429   4.528   6.825
 6472SOL     OW20314   1.015   6.601   2.022
 6472SOL    HW120315   0.983   6.668   1.955
 6472SOL    HW220316   0.987   6.630   2.114
 6473SOL     OW20317   2.183   1.375   6.456
 6473SOL    HW120318   2.204   1.465   6.495
 6473SOL    HW220319   2.100   1.382   6.401
 6474SOL     OW20320   1.243   3.544   5.742
 6474SOL    HW120321   1.179   3.467   5.744
 6474SOL    HW220322   1.337   3.508   5.743
 6475SOL     OW20323   4.823   6.121   4.040
 6475SOL    HW120324   4.872   6.100   3.956
 6475SOL    HW220325   4.844   6.052   4.109
 6476SOL     OW20326   4.805   4.645   2.673
 6476SOL    HW120327   4.867   4.583   2.625
 6476SOL    HW220328   4.724   4.661   2.617
 6477SOL     OW20329   6.587   5.432   0.162
 6477SOL    HW120330   6.620   5.523   0.187
 6477SOL    HW220331   6.620   5.365   0.229
 6478SOL     OW20332   4.734   6.559   1.797
 6478SOL    HW120333   4.787   6.536   1.716
 6478SOL    HW220334   4.792   6.552   1.878
 6479SOL     OW20335   4.228   5.282   2.096
 6479SOL    HW120336   4.271   5.370   2.078
 6479SOL    HW220337   4.214   5.271   2.194
 6480SOL     OW20338   2.850   2.878   0.020
 6480SOL    HW120339   2.808   2.957   0.064
 6480SOL    HW220340   2.840   2.797   0.079
 6481SOL     OW20341   3.767   0.982   1.636
 6481SOL    HW120342   3.787   0.890   1.603
 6481SOL    HW220343   3.851   1.037   1.638
 6482SOL     OW20344   0.102   0.508   6.600
 6482SOL    HW120345   0.045   0.486   6.520
 6482SOL    HW220346   0.134   0.423   6.642
 6483SOL     OW20347   1.194   6.935   2.294
 6483SOL    HW120348   1.176   6.847   2.338
 6483SOL    HW220349   1.108   6.981   2.273
 6484SOL     OW20350   4.870   0.665   3.164
 6484SOL    HW120351   4.917   0.730   3.224
 6484SOL    HW220352   4.804   0.612   3.216
 6485SOL     OW20353   1.832   2.294   3.608
 6485SOL    HW120354   1.778   2.373   3.578
 6485SOL    HW220355   1.847   2.234   3.530
 6486SOL     OW20356   1.353   3.680   3.636
 6486SOL    HW120357   1.293   3.731   3.697
 6486SOL    HW220358   1.309   3.594   3.611
 6487SOL     OW20359   6.193   6.486   4.456
 6487SOL    HW120360   6.214   6.490   4.554
 6487SOL    HW220361   6.275   6.508   4.404
 6488SOL     OW20362   2.950   5.008   5.926
 6488SOL    HW120363   2.890   4.929   5.934
 6488SOL    HW220364   2.897   5.087   5.897
 6489SOL     OW20365   1.411   1.905   6.203
 6489SOL    HW120366   1.392   1.807   6.207
 6489SOL    HW220367   1.498   1.920   6.156
 6490SOL     OW20368   3.441   1.640   0.371
 6490SOL    HW120369   3.417   1.610   0.279
 6490SOL    HW220370   3.382   1.716   0.397
 6491SOL     OW20371   4.693   1.441   6.239
 6491SOL    HW120372   4.748   1.358   6.226
 6491SOL    HW220373   4.690   1.492   6.154
 6492SOL     OW20374   6.093   6.263   0.439
 6492SOL    HW120375   6.103   6.165   0.457
 6492SOL    HW220376   6.147   6.288   0.358
 6493SOL     OW20377   1.647   6.718   6.064
 6493SOL    HW120378   1.630   6.717   5.965
 6493SOL    HW220379   1.592   6.647   6.108
 6494SOL     OW20380   0.885   0.369   3.695
 6494SOL    HW120381   0.789   0.357   3.672
 6494SOL    HW220382   0.897   0.363   3.794
 6495SOL     OW20383   5.687   4.932   2.909
 6495SOL    HW120384   5.665   5.029   2.926
 6495SOL    HW220385   5.619   4.874   2.955
 6496SOL     OW20386   0.929   6.338   2.350
 6496SOL    HW120387   0.834   6.307   2.339
 6496SOL    HW220388   0.933   6.437   2.338
 6497SOL     OW20389   1.579   3.730   0.517
 6497SOL    HW120390   1.565   3.827   0.536
 6497SOL    HW220391   1.627   3.719   0.430
 6498SOL     OW20392   2.149   4.162   4.108
 6498SOL    HW120393   2.142   4.090   4.039
 6498SOL    HW220394   2.147   4.121   4.199
 6499SOL     OW20395   5.257   1.205   3.794
 6499SOL    HW120396   5.306   1.210   3.707
 6499SOL    HW220397   5.243   1.297   3.830
 6500SOL     OW20398   4.902   4.492   3.479
 6500SOL    HW120399   4.853   4.547   3.412
 6500SOL    HW220400   4.995   4.528   3.490
 6501SOL     OW20401   6.256   3.679   1.110
 6501SOL    HW120402   6.337   3.705   1.058
 6501SOL    HW220403   6.284   3.635   1.195
 6502SOL     OW20404   0.982   4.780   3.021
 6502SOL    HW120405   0.933   4.709   2.970
 6502SOL    HW220406   1.005   4.856   2.960
 6503SOL     OW20407   5.053   6.863   4.842
 6503SOL    HW120408   4.979   6.878   4.907
 6503SOL    HW220409   5.048   6.769   4.807
 6504SOL     OW20410   3.536   0.872   0.831
 6504SOL    HW120411   3.500   0.961   0.802
 6504SOL    HW220412   3.548   0.813   0.751
 6505SOL     OW20413   5.974   4.907   0.885
 6505SOL    HW120414   5.916   4.936   0.809
 6505SOL    HW220415   6.058   4.867   0.849
 6506SOL     OW20416   1.486   2.898   1.056
 6506SOL    HW120417   1.522   2.896   0.963
 6506SOL    HW220418   1.532   2.970   1.108
 6507SOL     OW20419   2.389   6.724   1.348
 6507SOL    HW120420   2.318   6.744   1.280
 6507SOL    HW220421   2.347   6.722   1.439
 6508SOL     OW20422   2.291   2.104   3.182
 6508SOL    HW120423   2.278   2.011   3.148
 6508SOL    HW220424   2.376   2.110   3.234
 6509SOL     OW20425   1.001   2.981   4.428
 6509SOL    HW120426   0.999   2.930   4.342
 6509SOL    HW220427   0.968   2.923   4.502
 6510SOL     OW20428   6.083   4.763   6.727
 6510SOL    HW120429   6.060   4.779   6.631
 6510SOL    HW220430   6.152   4.828   6.756
 6511SOL     OW20431   6.392   6.331   6.107
 6511SOL    HW120432   6.392   6.283   6.195
 6511SOL    HW220433   6.434   6.421   6.118
 6512SOL     OW20434   5.376   0.075   3.178
 6512SOL    HW120435   5.456   0.090   3.119
 6512SOL    HW220436   5.306   0.026   3.127
 6513SOL     OW20437   3.985   6.733   3.032
 6513SOL    HW120438   4.082   6.752   3.051
 6513SOL    HW220439   3.968   6.744   2.934
 6514SOL     OW20440   4.101   0.489   4.184
 6514SOL    HW120441   4.153   0.457   4.105
 6514SOL    HW220442   4.004   0.495   4.160
 6515SOL     OW20443   0.637   6.639   4.893
 6515SOL    HW120444   0.732   6.651   4.923
 6515SOL    HW220445   0.615   6.542   4.892
 6516SOL     OW20446   0.764   1.914   5.735
 6516SOL    HW120447   0.803   1.990   5.683
 6516SOL    HW220448   0.672   1.938   5.766
 6517SOL     OW20449   0.627   1.120   0.479
 6517SOL    HW120450   0.716   1.165   0.488
 6517SOL    HW220451   0.571   1.142   0.560
 6518SOL     OW20452   0.019   6.553   1.025
 6518SOL    HW120453   6.968   6.485   1.003
 6518SOL    HW220454   0.024   6.620   0.950
 6519SOL     OW20455   2.031   1.900   4.724
 6519SOL    HW120456   1.950   1.851   4.692
 6519SOL    HW220457   2.005   1.992   4.752
 6520SOL     OW20458   5.955   6.064   1.660
 6520SOL    HW120459   6.045   6.046   1.621
 6520SOL    HW220460   5.943   6.162   1.673
 6521SOL     OW20461   7.007   1.904   4.966
 6521SOL    HW120462   7.016   1.937   5.060
 6521SOL    HW220463   6.943   1.963   4.916
 6522SOL     OW20464   2.355   5.242   6.576
 6522SOL    HW120465   2.416   5.163   6.568
 6522SOL    HW220466   2.334   5.278   6.486
 6523SOL     OW20467   2.079   1.662   6.485
 6523SOL    HW120468   2.136   1.694   6.409
 6523SOL    HW220469   1.991   1.631   6.449
 6524SOL     OW20470   4.131   3.556   3.262
 6524SOL    HW120471   4.035   3.535   3.279
 6524SOL    HW220472   4.174   3.479   3.214
 6525SOL     OW20473   0.362   2.779   3.342
 6525SOL    HW120474   0.372   2.879   3.339
 6525SOL    HW220475   0.290   2.750   3.279
 6526SOL     OW20476   1.687   5.860   4.992
 6526SOL    HW120477   1.762   5.881   4.930
 6526SOL    HW220478   1.724   5.830   5.080
 6527SOL     OW20479   1.465   6.785   4.777
 6527SOL    HW120480   1.504   6.857   4.719
 6527SOL    HW220481   1.468   6.813   4.873
 6528SOL     OW20482   0.174   1.809   4.351
 6528SOL    HW120483   0.254   1.788   4.295
 6528SOL    HW220484   0.183   1.764   4.440
 6529SOL     OW20485   6.456   1.200   1.528
 6529SOL    HW120486   6.421   1.211   1.435
 6529SOL    HW220487   6.385   1.227   1.593
 6530SOL     OW20488   6.700   2.051   0.728
 6530SOL    HW120489   6.628   2.052   0.797
 6530SOL    HW220490   6.674   2.113   0.653
 6531SOL     OW20491   5.579   3.307   4.143
 6531SOL    HW120492   5.505   3.303   4.076
 6531SOL    HW220493   5.604   3.402   4.160
 6532SOL     OW20494   6.752   1.244   6.198
 6532SOL    HW120495   6.793   1.230   6.288
 6532SOL    HW220496   6.820   1.282   6.135
 6533SOL     OW20497   4.989   0.133   1.271
 6533SOL    HW120498   5.085   0.105   1.266
 6533SOL    HW220499   4.932   0.054   1.294
 6534SOL     OW20500   2.435   4.267   1.104
 6534SOL    HW120501   2.424   4.262   1.203
 6534SOL    HW220502   2.532   4.270   1.081
 6535SOL     OW20503   0.237   3.710   5.867
 6535SOL    HW120504   0.251   3.762   5.783
 6535SOL    HW220505   0.274   3.761   5.944
 6536SOL     OW20506   5.929   1.808   0.085
 6536SOL    HW120507   6.020   1.769   0.098
 6536SOL    HW220508   5.930   1.905   0.110
 6537SOL     OW20509   0.669   6.579   0.095
 6537SOL    HW120510   0.637   6.563   0.002
 6537SOL    HW220511   0.754   6.631   0.094
 6538SOL     OW20512   3.237   3.890   0.014
 6538SOL    HW120513   3.295   3.911   6.953
 6538SOL    HW220514   3.281   3.819   0.069
 6539SOL     OW20515   2.498   1.961   6.971
 6539SOL    HW120516   2.544   2.027   6.912
 6539SOL    HW220517   2.543   1.872   6.963
 6540SOL     OW20518   2.821   1.216   4.368
 6540SOL    HW120519   2.749   1.263   4.419
 6540SOL    HW220520   2.909   1.257   4.389
 6541SOL     OW20521   2.674   2.241   5.663
 6541SOL    HW120522   2.767   2.241   5.627
 6541SOL    HW220523   2.670   2.183   5.744
 6542SOL     OW20524   6.508   4.491   3.570
 6542SOL    HW120525   6.553   4.571   3.608
 6542SOL    HW220526   6.474   4.512   3.478
 6543SOL     OW20527   6.264   5.924   6.942
 6543SOL    HW120528   6.318   5.842   6.962
 6543SOL    HW220529   6.301   5.969   6.861
 6544SOL     OW20530   6.679   6.259   3.662
 6544SOL    HW120531   6.742   6.283   3.589
 6544SOL    HW220532   6.725   6.199   3.728
 6545SOL     OW20533   5.024   1.804   5.565
 6545SOL    HW120534   5.035   1.707   5.589
 6545SOL    HW220535   5.001   1.856   5.647
 6546SOL     OW20536   3.033   4.403   6.243
 6546SOL    HW120537   2.984   4.401   6.330
 6546SOL    HW220538   2.974   4.443   6.173
 6547SOL     OW20539   4.847   2.305   6.979
 6547SOL    HW120540   4.892   2.393   6.963
 6547SOL    HW220541   4.762   2.301   6.926
 6548SOL     OW20542   6.745   4.142   6.005
 6548SOL    HW120543   6.788   4.161   5.917
 6548SOL    HW220544   6.808   4.165   6.079
 6549SOL     OW20545   3.372   2.458   0.563
 6549SOL    HW120546   3.358   2.437   0.660
 6549SOL    HW220547   3.460   2.503   0.551
 6550SOL     OW20548   0.519   5.341   3.689
 6550SOL    HW120549   0.492   5.278   3.762
 6550SOL    HW220550   0.448   5.409   3.675
 6551SOL     OW20551   1.748   4.556   1.975
 6551SOL    HW120552   1.649   4.570   1.982
 6551SOL    HW220553   1.766   4.469   1.928
 6552SOL     OW20554   2.512   4.602   5.654
 6552SOL    HW120555   2.557   4.690   5.646
 6552SOL    HW220556   2.581   4.530   5.664
 6553SOL     OW20557   0.670   2.988   2.627
 6553SOL    HW120558   0.611   2.911   2.654
 6553SOL    HW220559   0.743   2.999   2.696
 6554SOL     OW20560   6.221   2.340   5.257
 6554SOL    HW120561   6.321   2.332   5.267
 6554SOL    HW220562   6.190   2.422   5.304
 6555SOL     OW20563   1.368   1.388   1.523
 6555SOL    HW120564   1.348   1.441   1.441
 6555SOL    HW220565   1.392   1.295   1.498
 6556SOL     OW20566   3.609   5.831   4.360
 6556SOL    HW120567   3.613   5.810   4.457
 6556SOL    HW220568   3.546   5.908   4.345
 6557SOL     OW20569   5.972   5.454   1.118
 6557SOL    HW120570   6.070   5.441   1.100
 6557SOL    HW220571   5.946   5.547   1.095
 6558SOL     OW20572   6.275   5.809   6.493
 6558SOL    HW120573   6.340   5.752   6.543
 6558SOL    HW220574   6.299   5.809   6.396
 6559SOL     OW20575   4.414   4.098   1.209
 6559SOL    HW120576   4.469   4.024   1.248
 6559SOL    HW220577   4.359   4.062   1.133
 6560SOL     OW20578   3.686   2.310   0.311
 6560SOL    HW120579   3.720   2.388   0.363
 6560SOL    HW220580   3.633   2.250   0.371
 6561SOL     OW20581   4.101   3.511   2.874
 6561SOL    HW120582   4.071   3.517   2.779
 6561SOL    HW220583   4.126   3.602   2.907
 6562SOL     OW20584   6.259   4.731   5.995
 6562SOL    HW120585   6.220   4.665   5.931
 6562SOL    HW220586   6.309   4.801   5.945
 6563SOL     OW20587   0.818   5.610   1.541
 6563SOL    HW120588   0.838   5.561   1.456
 6563SOL    HW220589   0.835   5.549   1.618
 6564SOL     OW20590   1.418   4.251   1.834
 6564SOL    HW120591   1.390   4.238   1.930
 6564SOL    HW220592   1.403   4.167   1.784
 6565SOL     OW20593   6.660   3.013   5.401
 6565SOL    HW120594   6.651   3.109   5.371
 6565SOL    HW220595   6.679   2.956   5.321
 6566SOL     OW20596   3.246   6.578   0.888
 6566SOL    HW120597   3.198   6.614   0.808
 6566SOL    HW220598   3.219   6.483   0.903
 6567SOL     OW20599   5.203   2.776   0.906
 6567SOL    HW120600   5.282   2.825   0.867
 6567SOL    HW220601   5.146   2.740   0.832
 6568SOL     OW20602   4.544   4.415   1.709
 6568SOL    HW120603   4.499   4.348   1.768
 6568SOL    HW220604   4.609   4.368   1.649
 6569SOL     OW20605   1.684   4.459   0.183
 6569SOL    HW120606   1.757   4.504   0.235
 6569SOL    HW220607   1.596   4.498   0.210
 6570SOL     OW20608   5.622   1.912   1.919
 6570SOL    HW120609   5.616   1.827   1.866
 6570SOL    HW220610   5.562   1.980   1.877
 6571SOL     OW20611   2.835   6.522   3.598
 6571SOL    HW120612   2.811   6.426   3.581
 6571SOL    HW220613   2.775   6.559   3.669
 6572SOL     OW20614   0.098   4.210   5.944
 6572SOL    HW120615   0.098   4.216   5.844
 6572SOL    HW220616   0.090   4.114   5.972
 6573SOL     OW20617   2.520   1.260   2.477
 6573SOL    HW120618   2.463   1.182   2.504
 6573SOL    HW220619   2.494   1.290   2.386
 6574SOL     OW20620   2.680   5.063   2.996
 6574SOL    HW120621   2.761   5.103   3.039
 6574SOL    HW220622   2.683   5.080   2.897
 6575SOL     OW20623   1.414   1.621   2.176
 6575SOL    HW120624   1.400   1.720   2.170
 6575SOL    HW220625   1.325   1.575   2.173
 6576SOL     OW20626   1.604   6.009   6.392
 6576SOL    HW120627   1.606   5.919   6.349
 6576SOL    HW220628   1.510   6.041   6.398
 6577SOL     OW20629   0.185   1.853   3.901
 6577SOL    HW120630   0.138   1.822   3.818
 6577SOL    HW220631   0.224   1.943   3.886
 6578SOL     OW20632   6.449   5.503   3.971
 6578SOL    HW120633   6.416   5.564   4.042
 6578SOL    HW220634   6.431   5.543   3.881
 6579SOL     OW20635   6.599   4.151   3.178
 6579SOL    HW120636   6.619   4.159   3.080
 6579SOL    HW220637   6.505   4.119   3.190
 6580SOL     OW20638   5.836   1.598   2.160
 6580SOL    HW120639   5.889   1.592   2.076
 6580SOL    HW220640   5.882   1.547   2.232
 6581SOL     OW20641   3.623   1.694   6.450
 6581SOL    HW120642   3.603   1.787   6.483
 6581SOL    HW220643   3.655   1.638   6.527
 6582SOL     OW20644   6.189   7.012   2.605
 6582SOL    HW120645   6.274   6.967   2.578
 6582SOL    HW220646   6.175   7.000   2.703
 6583SOL     OW20647   5.376   1.459   5.882
 6583SOL    HW120648   5.329   1.547   5.890
 6583SOL    HW220649   5.338   1.395   5.949
 6584SOL     OW20650   6.116   1.461   6.851
 6584SOL    HW120651   6.105   1.380   6.909
 6584SOL    HW220652   6.210   1.494   6.857
 6585SOL     OW20653   0.958   1.881   6.516
 6585SOL    HW120654   1.027   1.808   6.520
 6585SOL    HW220655   0.889   1.856   6.448
 6586SOL     OW20656   6.211   1.950   6.064
 6586SOL    HW120657   6.275   1.896   6.010
 6586SOL    HW220658   6.118   1.917   6.049
 6587SOL     OW20659   2.326   6.303   3.105
 6587SOL    HW120660   2.296   6.398   3.105
 6587SOL    HW220661   2.248   6.244   3.082
 6588SOL     OW20662   2.000   2.907   6.747
 6588SOL    HW120663   2.031   2.984   6.691
 6588SOL    HW220664   2.013   2.822   6.697
 6589SOL     OW20665   4.586   1.557   5.689
 6589SOL    HW120666   4.614   1.468   5.654
 6589SOL    HW220667   4.487   1.567   5.680
 6590SOL     OW20668   7.011   1.071   5.262
 6590SOL    HW120669   0.073   1.057   5.320
 6590SOL    HW220670   6.968   1.159   5.284
 6591SOL     OW20671   6.100   0.634   3.194
 6591SOL    HW120672   6.055   0.715   3.158
 6591SOL    HW220673   6.181   0.661   3.246
 6592SOL     OW20674   4.836   5.918   4.213
 6592SOL    HW120675   4.826   5.834   4.159
 6592SOL    HW220676   4.912   5.906   4.277
 6593SOL     OW20677   3.394   1.674   3.120
 6593SOL    HW120678   3.311   1.683   3.064
 6593SOL    HW220679   3.374   1.705   3.214
 6594SOL     OW20680   4.879   0.828   6.714
 6594SOL    HW120681   4.978   0.820   6.707
 6594SOL    HW220682   4.842   0.746   6.757
 6595SOL     OW20683   1.864   3.756   0.975
 6595SOL    HW120684   1.900   3.667   0.948
 6595SOL    HW220685   1.765   3.756   0.965
 6596SOL     OW20686   4.507   0.100   5.089
 6596SOL    HW120687   4.479   0.005   5.101
 6596SOL    HW220688   4.557   0.109   5.003
 6597SOL     OW20689   0.364   5.932   4.738
 6597SOL    HW120690   0.316   6.015   4.710
 6597SOL    HW220691   0.344   5.859   4.673
 6598SOL     OW20692   1.982   5.945   5.111
 6598SOL    HW120693   1.925   5.874   5.152
 6598SOL    HW220694   2.028   5.909   5.030
 6599SOL     OW20695   4.630   4.749   6.064
 6599SOL    HW120696   4.557   4.683   6.043
 6599SOL    HW220697   4.594   4.822   6.122
 6600SOL     OW20698   4.608   5.629   3.945
 6600SOL    HW120699   4.560   5.717   3.956
 6600SOL    HW220700   4.681   5.622   4.013
 6601SOL     OW20701   0.573   0.541   0.141
 6601SOL    HW120702   0.533   0.619   0.092
 6601SOL    HW220703   0.596   0.569   0.234
 6602SOL     OW20704   6.675   1.367   1.456
 6602SOL    HW120705   6.749   1.356   1.522
 6602SOL    HW220706   6.593   1.319   1.491
 6603SOL     OW20707   2.111   3.619   2.934
 6603SOL    HW120708   2.051   3.687   2.977
 6603SOL    HW220709   2.124   3.642   2.838
 6604SOL     OW20710   3.000   5.252   2.916
 6604SOL    HW120711   2.937   5.285   2.846
 6604SOL    HW220712   3.088   5.300   2.907
 6605SOL     OW20713   6.112   5.568   6.928
 6605SOL    HW120714   6.058   5.651   6.915
 6605SOL    HW220715   6.181   5.583   6.999
 6606SOL     OW20716   5.388   1.050   2.387
 6606SOL    HW120717   5.475   1.071   2.430
 6606SOL    HW220718   5.318   1.113   2.421
 6607SOL     OW20719   1.653   1.231   2.182
 6607SOL    HW120720   1.564   1.229   2.228
 6607SOL    HW220721   1.645   1.283   2.097
 6608SOL     OW20722   5.929   4.044   3.735
 6608SOL    HW120723   5.830   4.045   3.728
 6608SOL    HW220724   5.962   4.138   3.748
 6609SOL     OW20725   5.289   1.266   6.080
 6609SOL    HW120726   5.223   1.191   6.075
 6609SOL    HW220727   5.352   1.249   6.156
 6610SOL     OW20728   2.592   0.546   0.133
 6610SOL    HW120729   2.530   0.560   0.210
 6610SOL    HW220730   2.577   0.455   0.095
 6611SOL     OW20731   5.967   2.277   2.909
 6611SOL    HW120732   5.886   2.218   2.912
 6611SOL    HW220733   5.973   2.320   2.819
 6612SOL     OW20734   1.151   6.261   6.974
 6612SOL    HW120735   1.198   6.349   6.963
 6612SOL    HW220736   1.204   6.202   0.017
 6613SOL     OW20737   4.614   5.058   1.876
 6613SOL    HW120738   4.587   4.987   1.940
 6613SOL    HW220739   4.710   5.082   1.891
 6614SOL     OW20740   5.172   6.005   6.213
 6614SOL    HW120741   5.269   5.988   6.198
 6614SOL    HW220742   5.160   6.066   6.291
 6615SOL     OW20743   0.789   3.565   5.174
 6615SOL    HW120744   0.835   3.520   5.250
 6615SOL    HW220745   0.837   3.651   5.153
 6616SOL     OW20746   5.315   1.079   4.655
 6616SOL    HW120747   5.250   1.154   4.672
 6616SOL    HW220748   5.272   0.992   4.678
 6617SOL     OW20749   3.588   6.865   4.823
 6617SOL    HW120750   3.583   6.771   4.857
 6617SOL    HW220751   3.497   6.896   4.797
 6618SOL     OW20752   1.346   4.416   2.077
 6618SOL    HW120753   1.247   4.404   2.083
 6618SOL    HW220754   1.388   4.389   2.164
 6619SOL     OW20755   4.651   5.624   2.639
 6619SOL    HW120756   4.569   5.584   2.598
 6619SOL    HW220757   4.650   5.606   2.738
 6620SOL     OW20758   1.077   2.782   5.624
 6620SOL    HW120759   1.124   2.705   5.667
 6620SOL    HW220760   0.995   2.804   5.677
 6621SOL     OW20761   2.636   4.168   6.700
 6621SOL    HW120762   2.559   4.227   6.680
 6621SOL    HW220763   2.604   4.076   6.721
 6622SOL     OW20764   6.488   5.818   0.438
 6622SOL    HW120765   6.410   5.877   0.418
 6622SOL    HW220766   6.550   5.865   0.500
 6623SOL     OW20767   3.393   3.253   2.208
 6623SOL    HW120768   3.465   3.214   2.150
 6623SOL    HW220769   3.305   3.246   2.161
 6624SOL     OW20770   4.273   5.268   4.449
 6624SOL    HW120771   4.363   5.279   4.492
 6624SOL    HW220772   4.251   5.349   4.396
 6625SOL     OW20773   6.639   0.698   6.896
 6625SOL    HW120774   6.585   0.708   6.980
 6625SOL    HW220775   6.692   0.614   6.900
 6626SOL     OW20776   3.475   5.322   3.243
 6626SOL    HW120777   3.561   5.273   3.252
 6626SOL    HW220778   3.409   5.266   3.193
 6627SOL     OW20779   2.138   0.623   0.087
 6627SOL    HW120780   2.129   0.616   0.186
 6627SOL    HW220781   2.047   0.617   0.045
 6628SOL     OW20782   4.104   5.609   2.875
 6628SOL    HW120783   4.075   5.576   2.965
 6628SOL    HW220784   4.032   5.593   2.809
 6629SOL     OW20785   3.801   5.623   0.862
 6629SOL    HW120786   3.879   5.679   0.835
 6629SOL    HW220787   3.828   5.558   0.933
 6630SOL     OW20788   3.075   2.007   0.665
 6630SOL    HW120789   3.099   1.911   0.681
 6630SOL    HW220790   3.127   2.042   0.588
 6631SOL     OW20791   5.133   0.985   2.693
 6631SOL    HW120792   5.106   1.018   2.783
 6631SOL    HW220793   5.102   0.891   2.681
 6632SOL     OW20794   6.845   0.477   0.885
 6632SOL    HW120795   6.841   0.571   0.851
 6632SOL    HW220796   6.940   0.453   0.907
 6633SOL     OW20797   1.849   6.242   1.195
 6633SOL    HW120798   1.908   6.323   1.187
 6633SOL    HW220799   1.764   6.257   1.144
 6634SOL     OW20800   6.539   2.632   6.032
 6634SOL    HW120801   6.554   2.710   5.971
 6634SOL    HW220802   6.480   2.660   6.108
 6635SOL     OW20803   4.597   4.675   3.620
 6635SOL    HW120804   4.602   4.647   3.524
 6635SOL    HW220805   4.653   4.757   3.633
 6636SOL     OW20806   1.972   2.399   4.043
 6636SOL    HW120807   1.889   2.451   4.068
 6636SOL    HW220808   2.047   2.463   4.026
 6637SOL     OW20809   0.622   6.999   0.852
 6637SOL    HW120810   0.533   6.955   0.839
 6637SOL    HW220811   0.673   6.951   0.924
 6638SOL     OW20812   2.497   5.661   5.971
 6638SOL    HW120813   2.398   5.667   5.962
 6638SOL    HW220814   2.523   5.566   5.993
 6639SOL     OW20815   5.829   5.061   6.878
 6639SOL    HW120816   5.903   5.127   6.864
 6639SOL    HW220817   5.759   5.073   6.807
 6640SOL     OW20818   6.658   2.230   3.632
 6640SOL    HW120819   6.582   2.192   3.685
 6640SOL    HW220820   6.621   2.293   3.563
 6641SOL     OW20821   1.890   4.104   6.055
 6641SOL    HW120822   1.820   4.118   5.986
 6641SOL    HW220823   1.980   4.128   6.017
 6642SOL     OW20824   0.689   5.730   6.521
 6642SOL    HW120825   0.752   5.671   6.572
 6642SOL    HW220826   0.710   5.725   6.424
 6643SOL     OW20827   5.236   4.510   6.661
 6643SOL    HW120828   5.263   4.465   6.575
 6643SOL    HW220829   5.151   4.470   6.695
 6644SOL     OW20830   3.036   4.836   2.085
 6644SOL    HW120831   3.009   4.752   2.037
 6644SOL    HW220832   3.079   4.811   2.173
 6645SOL     OW20833   0.156   4.715   5.782
 6645SOL    HW120834   0.134   4.625   5.744
 6645SOL    HW220835   0.093   4.783   5.745
 6646SOL     OW20836   2.464   5.640   3.755
 6646SOL    HW120837   2.408   5.598   3.684
 6646SOL    HW220838   2.477   5.737   3.735
 6647SOL     OW20839   2.984   1.294   1.884
 6647SOL    HW120840   3.039   1.285   1.967
 6647SOL    HW220841   2.984   1.207   1.834
 6648SOL     OW20842   5.067   5.623   2.587
 6648SOL    HW120843   4.988   5.650   2.643
 6648SOL    HW220844   5.124   5.704   2.570
 6649SOL     OW20845   4.512   2.184   6.302
 6649SOL    HW120846   4.520   2.090   6.337
 6649SOL    HW220847   4.584   2.200   6.235
 6650SOL     OW20848   3.982   1.853   3.849
 6650SOL    HW120849   3.976   1.754   3.831
 6650SOL    HW220850   3.967   1.903   3.764
 6651SOL     OW20851   0.630   2.623   6.870
 6651SOL    HW120852   0.544   2.673   6.862
 6651SOL    HW220853   0.703   2.687   6.895
 6652SOL     OW20854   0.089   5.533   2.213
 6652SOL    HW120855   0.127   5.559   2.124
 6652SOL    HW220856   0.132   5.589   2.284
 6653SOL     OW20857   3.900   3.988   4.023
 6653SOL    HW120858   3.847   3.961   4.103
 6653SOL    HW220859   3.972   3.921   4.006
 6654SOL     OW20860   2.165   3.239   1.800
 6654SOL    HW120861   2.081   3.292   1.813
 6654SOL    HW220862   2.242   3.288   1.838
 6655SOL     OW20863   2.833   6.603   1.970
 6655SOL    HW120864   2.832   6.544   1.889
 6655SOL    HW220865   2.863   6.551   2.050
 6656SOL     OW20866   6.177   1.736   1.516
 6656SOL    HW120867   6.245   1.796   1.474
 6656SOL    HW220868   6.173   1.650   1.465
 6657SOL     OW20869   3.032   6.520   6.502
 6657SOL    HW120870   3.125   6.528   6.538
 6657SOL    HW220871   2.969   6.569   6.561
 6658SOL     OW20872   5.982   1.408   5.132
 6658SOL    HW120873   5.980   1.353   5.048
 6658SOL    HW220874   5.890   1.412   5.171
 6659SOL     OW20875   2.046   3.302   0.320
 6659SOL    HW120876   2.093   3.288   0.233
 6659SOL    HW220877   1.968   3.241   0.327
 6660SOL     OW20878   6.583   6.720   2.898
 6660SOL    HW120879   6.675   6.724   2.935
 6660SOL    HW220880   6.520   6.771   2.958
 6661SOL     OW20881   0.557   5.873   3.880
 6661SOL    HW120882   0.646   5.860   3.922
 6661SOL    HW220883   0.510   5.949   3.925
 6662SOL     OW20884   1.755   1.713   7.004
 6662SOL    HW120885   1.843   1.679   6.970
 6662SOL    HW220886   1.698   1.636   0.013
 6663SOL     OW20887   0.396   5.789   2.470
 6663SOL    HW120888   0.441   5.768   2.383
 6663SOL    HW220889   0.416   5.883   2.497
 6664SOL     OW20890   1.409   0.587   2.302
 6664SOL    HW120891   1.459   0.511   2.260
 6664SOL    HW220892   1.334   0.615   2.242
 6665SOL     OW20893   2.039   6.436   3.087
 6665SOL    HW120894   2.032   6.395   2.996
 6665SOL    HW220895   1.984   6.384   3.152
 6666SOL     OW20896   6.149   0.478   5.902
 6666SOL    HW120897   6.137   0.499   5.999
 6666SOL    HW220898   6.246   0.473   5.881
 6667SOL     OW20899   6.930   4.952   5.269
 6667SOL    HW120900   6.975   4.871   5.308
 6667SOL    HW220901   6.974   4.976   5.183
 6668SOL     OW20902   1.116   4.260   1.777
 6668SOL    HW120903   1.155   4.247   1.686
 6668SOL    HW220904   1.117   4.358   1.800
 6669SOL     OW20905   2.255   5.786   2.918
 6669SOL    HW120906   2.310   5.757   2.996
 6669SOL    HW220907   2.159   5.765   2.936
 6670SOL     OW20908   3.249   5.068   0.371
 6670SOL    HW120909   3.248   5.126   0.289
 6670SOL    HW220910   3.227   4.974   0.345
 6671SOL     OW20911   6.737   3.285   5.727
 6671SOL    HW120912   6.781   3.243   5.648
 6671SOL    HW220913   6.806   3.331   5.783
 6672SOL     OW20914   0.992   0.766   5.887
 6672SOL    HW120915   1.076   0.794   5.933
 6672SOL    HW220916   0.957   0.842   5.832
 6673SOL     OW20917   4.497   5.059   1.497
 6673SOL    HW120918   4.465   5.124   1.567
 6673SOL    HW220919   4.464   4.968   1.519
 6674SOL     OW20920   0.944   6.295   5.101
 6674SOL    HW120921   1.037   6.281   5.136
 6674SOL    HW220922   0.878   6.279   5.174
 6675SOL     OW20923   5.918   5.222   0.272
 6675SOL    HW120924   5.985   5.189   0.206
 6675SOL    HW220925   5.964   5.277   0.342
 6676SOL     OW20926   0.709   2.284   5.940
 6676SOL    HW120927   0.723   2.196   5.985
 6676SOL    HW220928   0.631   2.277   5.877
 6677SOL     OW20929   0.935   2.897   0.178
 6677SOL    HW120930   1.019   2.879   0.230
 6677SOL    HW220931   0.946   2.980   0.124
 6678SOL     OW20932   0.854   2.822   5.827
 6678SOL    HW120933   0.764   2.791   5.858
 6678SOL    HW220934   0.924   2.759   5.860
 6679SOL     OW20935   1.438   2.734   4.811
 6679SOL    HW120936   1.465   2.645   4.846
 6679SOL    HW220937   1.493   2.758   4.731
 6680SOL     OW20938   3.311   6.535   6.499
 6680SOL    HW120939   3.372   6.614   6.509
 6680SOL    HW220940   3.365   6.453   6.484
 6681SOL     OW20941   5.268   5.536   0.672
 6681SOL    HW120942   5.226   5.619   0.708
 6681SOL    HW220943   5.257   5.533   0.573
 6682SOL     OW20944   0.434   5.372   2.460
 6682SOL    HW120945   0.519   5.364   2.512
 6682SOL    HW220946   0.374   5.295   2.483
 6683SOL     OW20947   5.283   1.729   5.303
 6683SOL    HW120948   5.338   1.812   5.311
 6683SOL    HW220949   5.224   1.736   5.222
 6684SOL     OW20950   0.879   0.253   2.349
 6684SOL    HW120951   0.807   0.289   2.409
 6684SOL    HW220952   0.882   0.153   2.356
 6685SOL     OW20953   5.239   3.156   6.428
 6685SOL    HW120954   5.216   3.091   6.501
 6685SOL    HW220955   5.201   3.123   6.341
 6686SOL     OW20956   6.206   3.725   3.177
 6686SOL    HW120957   6.186   3.759   3.086
 6686SOL    HW220958   6.272   3.650   3.171
 6687SOL     OW20959   1.323   1.668   1.081
 6687SOL    HW120960   1.238   1.627   1.047
 6687SOL    HW220961   1.397   1.651   1.016
 6688SOL     OW20962   0.841   4.011   2.695
 6688SOL    HW120963   0.921   4.011   2.636
 6688SOL    HW220964   0.763   4.049   2.645
 6689SOL     OW20965   5.221   4.450   0.206
 6689SOL    HW120966   5.223   4.545   0.235
 6689SOL    HW220967   5.313   4.411   0.214
 6690SOL     OW20968   2.065   3.119   0.871
 6690SOL    HW120969   2.152   3.073   0.855
 6690SOL    HW220970   2.076   3.185   0.946
 6691SOL     OW20971   2.298   4.813   1.545
 6691SOL    HW120972   2.280   4.905   1.510
 6691SOL    HW220973   2.388   4.812   1.588
 6692SOL     OW20974   3.326   4.151   5.053
 6692SOL    HW120975   3.339   4.250   5.062
 6692SOL    HW220976   3.399   4.114   4.996
 6693SOL     OW20977   4.357   3.496   5.270
 6693SOL    HW120978   4.320   3.589   5.263
 6693SOL    HW220979   4.454   3.500   5.293
 6694SOL     OW20980   4.242   6.338   0.931
 6694SOL    HW120981   4.290   6.423   0.906
 6694SOL    HW220982   4.145   6.347   0.909
 6695SOL     OW20983   1.130   1.664   6.591
 6695SOL    HW120984   1.194   1.720   6.537
 6695SOL    HW220985   1.153   1.671   6.688
 6696SOL     OW20986   2.049   3.022   1.893
 6696SOL    HW120987   1.955   3.056   1.886
 6696SOL    HW220988   2.113   3.095   1.868
 6697SOL     OW20989   4.561   1.518   3.164
 6697SOL    HW120990   4.614   1.437   3.189
 6697SOL    HW220991   4.473   1.490   3.125
 6698SOL     OW20992   3.959   3.379   6.995
 6698SOL    HW120993   4.005   3.467   7.010
 6698SOL    HW220994   3.931   3.340   0.064
 6699SOL     OW20995   1.923   4.807   0.587
 6699SOL    HW120996   2.008   4.856   0.567
 6699SOL    HW220997   1.893   4.758   0.505
 6700SOL     OW20998   0.212   6.053   0.983
 6700SOL    HW120999   0.231   6.115   0.906
 6700SOL    HW221000   0.253   5.964   0.965
 6701SOL     OW21001   0.498   1.556   0.686
 6701SOL    HW121002   0.414   1.610   0.691
 6701SOL    HW221003   0.556   1.592   0.613
 6702SOL     OW21004   2.226   1.507   1.415
 6702SOL    HW121005   2.224   1.601   1.382
 6702SOL    HW221006   2.153   1.454   1.371
 6703SOL     OW21007   6.783   1.427   6.756
 6703SOL    HW121008   6.878   1.421   6.725
 6703SOL    HW221009   6.746   1.517   6.736
 6704SOL     OW21010   4.667   2.347   2.593
 6704SOL    HW121011   4.717   2.347   2.680
 6704SOL    HW221012   4.733   2.355   2.518
 6705SOL     OW21013   5.637   2.264   0.412
 6705SOL    HW121014   5.698   2.281   0.334
 6705SOL    HW221015   5.657   2.328   0.485
 6706SOL     OW21016   0.789   4.442   6.381
 6706SOL    HW121017   0.828   4.365   6.331
 6706SOL    HW221018   0.858   4.514   6.391
 6707SOL     OW21019   1.243   5.511   3.025
 6707SOL    HW121020   1.216   5.596   3.071
 6707SOL    HW221021   1.207   5.433   3.075
 6708SOL     OW21022   2.461   6.326   2.141
 6708SOL    HW121023   2.497   6.361   2.228
 6708SOL    HW221024   2.411   6.241   2.158
 6709SOL     OW21025   4.138   1.360   2.386
 6709SOL    HW121026   4.095   1.300   2.319
 6709SOL    HW221027   4.069   1.417   2.430
 6710SOL     OW21028   3.177   2.559   0.086
 6710SOL    HW121029   3.199   2.654   0.063
 6710SOL    HW221030   3.189   2.544   0.184
 6711SOL     OW21031   3.965   4.065   0.134
 6711SOL    HW121032   3.940   4.090   0.041
 6711SOL    HW221033   3.935   3.971   0.152
 6712SOL     OW21034   3.894   6.236   6.873
 6712SOL    HW121035   3.966   6.208   6.810
 6712SOL    HW221036   3.830   6.297   6.826
 6713SOL     OW21037   1.897   2.356   1.679
 6713SOL    HW121038   1.934   2.448   1.667
 6713SOL    HW221039   1.971   2.293   1.701
 6714SOL     OW21040   5.697   0.462   4.615
 6714SOL    HW121041   5.707   0.547   4.666
 6714SOL    HW221042   5.600   0.438   4.609
 6715SOL     OW21043   0.449   0.680   0.773
 6715SOL    HW121044   0.359   0.708   0.740
 6715SOL    HW221045   0.455   0.700   0.871
 6716SOL     OW21046   2.110   5.467   1.471
 6716SOL    HW121047   2.075   5.420   1.390
 6716SOL    HW221048   2.036   5.481   1.537
 6717SOL     OW21049   4.179   1.938   6.818
 6717SOL    HW121050   4.097   1.978   6.778
 6717SOL    HW221051   4.260   1.973   6.770
 6718SOL     OW21052   2.822   0.410   0.919
 6718SOL    HW121053   2.757   0.459   0.862
 6718SOL    HW221054   2.845   0.465   0.999
 6719SOL     OW21055   6.571   6.455   5.176
 6719SOL    HW121056   6.623   6.397   5.237
 6719SOL    HW221057   6.545   6.404   5.094
 6720SOL     OW21058   1.738   5.292   1.388
 6720SOL    HW121059   1.676   5.313   1.465
 6720SOL    HW221060   1.755   5.194   1.385
 6721SOL     OW21061   5.489   6.626   3.734
 6721SOL    HW121062   5.490   6.582   3.644
 6721SOL    HW221063   5.460   6.560   3.803
 6722SOL     OW21064   4.684   2.880   6.446
 6722SOL    HW121065   4.740   2.876   6.529
 6722SOL    HW221066   4.671   2.975   6.418
 6723SOL     OW21067   4.001   6.478   3.230
 6723SOL    HW121068   4.053   6.473   3.145
 6723SOL    HW221069   3.903   6.478   3.209
 6724SOL     OW21070   3.536   4.855   5.206
 6724SOL    HW121071   3.499   4.947   5.208
 6724SOL    HW221072   3.461   4.789   5.205
 6725SOL     OW21073   0.312   5.134   2.562
 6725SOL    HW121074   0.231   5.154   2.617
 6725SOL    HW221075   0.284   5.108   2.469
 6726SOL     OW21076   2.445   2.191   3.563
 6726SOL    HW121077   2.424   2.288   3.576
 6726SOL    HW221078   2.461   2.173   3.466
 6727SOL     OW21079   3.684   3.366   6.324
 6727SOL    HW121080   3.728   3.382   6.413
 6727SOL    HW221081   3.636   3.449   6.296
 6728SOL     OW21082   3.748   1.503   3.733
 6728SOL    HW121083   3.782   1.585   3.687
 6728SOL    HW221084   3.649   1.496   3.720
 6729SOL     OW21085   5.699   0.900   2.660
 6729SOL    HW121086   5.785   0.868   2.620
 6729SOL    HW221087   5.676   0.990   2.624
 6730SOL     OW21088   2.360   1.138   6.839
 6730SOL    HW121089   2.279   1.191   6.815
 6730SOL    HW221090   2.442   1.195   6.832
 6731SOL     OW21091   2.838   4.829   1.611
 6731SOL    HW121092   2.908   4.759   1.600
 6731SOL    HW221093   2.786   4.810   1.695
 6732SOL     OW21094   2.568   5.808   0.930
 6732SOL    HW121095   2.581   5.742   1.003
 6732SOL    HW221096   2.595   5.767   0.843
 6733SOL     OW21097   5.237   5.895   5.385
 6733SOL    HW121098   5.335   5.875   5.389
 6733SOL    HW221099   5.222   5.979   5.333
 6734SOL     OW21100   2.436   3.531   5.391
 6734SOL    HW121101   2.412   3.435   5.406
 6734SOL    HW221102   2.441   3.548   5.292
 6735SOL     OW21103   6.701   5.542   5.595
 6735SOL    HW121104   6.757   5.459   5.604
 6735SOL    HW221105   6.606   5.516   5.578
 6736SOL     OW21106   2.067   3.348   2.176
 6736SOL    HW121107   2.084   3.250   2.189
 6736SOL    HW221108   2.110   3.378   2.091
 6737SOL     OW21109   2.280   0.756   1.719
 6737SOL    HW121110   2.331   0.670   1.719
 6737SOL    HW221111   2.271   0.790   1.813
 6738SOL     OW21112   3.300   0.830   2.484
 6738SOL    HW121113   3.309   0.908   2.546
 6738SOL    HW221114   3.228   0.850   2.417
 6739SOL     OW21115   3.883   6.674   4.771
 6739SOL    HW121116   3.859   6.750   4.710
 6739SOL    HW221117   3.835   6.591   4.742
 6740SOL     OW21118   0.659   1.781   4.123
 6740SOL    HW121119   0.605   1.865   4.119
 6740SOL    HW221120   0.599   1.702   4.115
 6741SOL     OW21121   6.296   0.150   6.203
 6741SOL    HW121122   6.339   0.191   6.122
 6741SOL    HW221123   6.211   0.105   6.176
 6742SOL     OW21124   6.191   5.369   6.159
 6742SOL    HW121125   6.160   5.352   6.065
 6742SOL    HW221126   6.166   5.291   6.217
 6743SOL     OW21127   4.640   3.287   0.997
 6743SOL    HW121128   4.649   3.269   0.899
 6743SOL    HW221129   4.561   3.238   1.033
 6744SOL     OW21130   4.765   4.534   5.458
 6744SOL    HW121131   4.691   4.599   5.477
 6744SOL    HW221132   4.851   4.585   5.448
 6745SOL     OW21133   0.864   4.246   3.788
 6745SOL    HW121134   0.927   4.179   3.827
 6745SOL    HW221135   0.823   4.299   3.862
 6746SOL     OW21136   0.216   1.471   0.810
 6746SOL    HW121137   0.118   1.488   0.824
 6746SOL    HW221138   0.242   1.506   0.720
 6747SOL     OW21139   5.510   6.018   5.663
 6747SOL    HW121140   5.544   5.958   5.736
 6747SOL    HW221141   5.416   6.045   5.683
 6748SOL     OW21142   0.792   0.210   1.933
 6748SOL    HW121143   0.823   0.190   1.840
 6748SOL    HW221144   0.749   0.128   1.972
 6749SOL     OW21145   4.272   6.305   0.521
 6749SOL    HW121146   4.179   6.268   0.527
 6749SOL    HW221147   4.289   6.339   0.429
 6750SOL     OW21148   2.766   3.088   5.291
 6750SOL    HW121149   2.757   3.132   5.380
 6750SOL    HW221150   2.676   3.077   5.249
 6751SOL     OW21151   2.990   1.601   5.360
 6751SOL    HW121152   3.036   1.651   5.433
 6751SOL    HW221153   2.974   1.662   5.283
 6752SOL     OW21154   6.106   1.897   0.340
 6752SOL    HW121155   6.157   1.881   0.424
 6752SOL    HW221156   6.125   1.823   0.275
 6753SOL     OW21157   4.838   1.925   6.737
 6753SOL    HW121158   4.842   2.023   6.715
 6753SOL    HW221159   4.768   1.910   6.806
 6754SOL     OW21160   5.851   1.032   6.838
 6754SOL    HW121161   5.804   1.116   6.867
 6754SOL    HW221162   5.866   0.973   6.917
 6755SOL     OW21163   4.884   2.131   3.671
 6755SOL    HW121164   4.850   2.148   3.578
 6755SOL    HW221165   4.829   2.060   3.714
 6756SOL     OW21166   5.283   4.913   4.355
 6756SOL    HW121167   5.185   4.898   4.341
 6756SOL    HW221168   5.335   4.851   4.298
 6757SOL     OW21169   6.053   5.622   1.869
 6757SOL    HW121170   5.994   5.702   1.878
 6757SOL    HW221171   6.096   5.622   1.779
 6758SOL     OW21172   4.703   2.287   2.267
 6758SOL    HW121173   4.763   2.367   2.276
 6758SOL    HW221174   4.757   2.210   2.234
 6759SOL     OW21175   0.174   4.489   3.168
 6759SOL    HW121176   0.234   4.565   3.191
 6759SOL    HW221177   0.080   4.522   3.158
 6760SOL     OW21178   6.566   4.051   4.674
 6760SOL    HW121179   6.523   3.967   4.640
 6760SOL    HW221180   6.510   4.089   4.748
 6761SOL     OW21181   4.904   3.312   6.240
 6761SOL    HW121182   4.845   3.371   6.294
 6761SOL    HW221183   4.899   3.218   6.274
 6762SOL     OW21184   6.054   4.719   4.307
 6762SOL    HW121185   6.043   4.621   4.327
 6762SOL    HW221186   6.013   4.773   4.380
 6763SOL     OW21187   5.715   6.513   6.052
 6763SOL    HW121188   5.752   6.420   6.043
 6763SOL    HW221189   5.723   6.560   5.964
 6764SOL     OW21190   1.630   3.867   6.403
 6764SOL    HW121191   1.718   3.915   6.416
 6764SOL    HW221192   1.597   3.883   6.310
 6765SOL     OW21193   5.952   4.820   3.039
 6765SOL    HW121194   5.979   4.917   3.040
 6765SOL    HW221195   5.920   4.795   2.948
 6766SOL     OW21196   1.453   0.809   5.567
 6766SOL    HW121197   1.426   0.839   5.659
 6766SOL    HW221198   1.382   0.749   5.530
 6767SOL     OW21199   0.335   2.677   6.725
 6767SOL    HW121200   0.383   2.754   6.768
 6767SOL    HW221201   0.291   2.709   6.641
 6768SOL     OW21202   0.118   0.268   5.067
 6768SOL    HW121203   0.030   0.308   5.044
 6768SOL    HW221204   0.115   0.169   5.049
 6769SOL     OW21205   2.003   3.322   5.927
 6769SOL    HW121206   2.064   3.277   5.862
 6769SOL    HW221207   2.045   3.406   5.960
 6770SOL     OW21208   0.743   1.790   3.146
 6770SOL    HW121209   0.648   1.764   3.134
 6770SOL    HW221210   0.764   1.795   3.244
 6771SOL     OW21211   4.098   1.679   3.239
 6771SOL    HW121212   4.060   1.595   3.279
 6771SOL    HW221213   4.198   1.673   3.240
 6772SOL     OW21214   6.958   0.884   1.562
 6772SOL    HW121215   6.949   0.892   1.661
 6772SOL    HW221216   6.881   0.834   1.525
 6773SOL     OW21217   1.283   6.580   1.312
 6773SOL    HW121218   1.213   6.596   1.242
 6773SOL    HW221219   1.357   6.525   1.273
 6774SOL     OW21220   2.533   2.490   5.648
 6774SOL    HW121221   2.586   2.571   5.670
 6774SOL    HW221222   2.581   2.408   5.680
 6775SOL     OW21223   0.606   2.761   4.461
 6775SOL    HW121224   0.682   2.717   4.510
 6775SOL    HW221225   0.566   2.695   4.396
 6776SOL     OW21226   3.780   3.599   2.861
 6776SOL    HW121227   3.849   3.588   2.789
 6776SOL    HW221228   3.810   3.670   2.925
 6777SOL     OW21229   6.443   6.022   6.549
 6777SOL    HW121230   6.371   5.953   6.539
 6777SOL    HW221231   6.532   5.981   6.531
 6778SOL     OW21232   5.827   5.854   2.074
 6778SOL    HW121233   5.844   5.842   1.976
 6778SOL    HW221234   5.901   5.907   2.114
 6779SOL     OW21235   4.980   3.817   6.086
 6779SOL    HW121236   4.912   3.883   6.118
 6779SOL    HW221237   4.937   3.755   6.019
 6780SOL     OW21238   3.478   1.839   2.690
 6780SOL    HW121239   3.577   1.849   2.682
 6780SOL    HW221240   3.454   1.742   2.685
 6781SOL     OW21241   6.494   1.937   3.262
 6781SOL    HW121242   6.576   1.941   3.206
 6781SOL    HW221243   6.516   1.899   3.352
 6782SOL     OW21244   6.779   1.586   3.103
 6782SOL    HW121245   6.752   1.579   3.007
 6782SOL    HW221246   6.828   1.503   3.129
 6783SOL     OW21247   0.640   5.392   5.836
 6783SOL    HW121248   0.563   5.383   5.772
 6783SOL    HW221249   0.700   5.312   5.827
 6784SOL     OW21250   2.345   3.906   1.779
 6784SOL    HW121251   2.393   3.990   1.805
 6784SOL    HW221252   2.316   3.913   1.684
 6785SOL     OW21253   5.604   5.157   4.378
 6785SOL    HW121254   5.689   5.207   4.394
 6785SOL    HW221255   5.626   5.063   4.352
 6786SOL     OW21256   5.704   1.925   5.915
 6786SOL    HW121257   5.678   1.837   5.877
 6786SOL    HW221258   5.626   1.964   5.966
 6787SOL     OW21259   2.862   2.084   0.342
 6787SOL    HW121260   2.785   2.061   0.401
 6787SOL    HW221261   2.927   2.007   0.338
 6788SOL     OW21262   0.246   3.997   2.462
 6788SOL    HW121263   0.231   3.968   2.368
 6788SOL    HW221264   0.220   3.924   2.525
 6789SOL     OW21265   5.285   4.629   3.142
 6789SOL    HW121266   5.232   4.545   3.133
 6789SOL    HW221267   5.231   4.698   3.190
 6790SOL     OW21268   0.622   5.276   6.497
 6790SOL    HW121269   0.695   5.277   6.565
 6790SOL    HW221270   0.661   5.270   6.405
 6791SOL     OW21271   2.376   0.206   3.097
 6791SOL    HW121272   2.443   0.148   3.052
 6791SOL    HW221273   2.392   0.205   3.196
 6792SOL     OW21274   4.023   0.334   5.497
 6792SOL    HW121275   3.936   0.305   5.538
 6792SOL    HW221276   4.099   0.296   5.549
 6793SOL     OW21277   1.894   3.827   6.154
 6793SOL    HW121278   1.964   3.816   6.224
 6793SOL    HW221279   1.892   3.922   6.124
 6794SOL     OW21280   6.001   2.240   5.135
 6794SOL    HW121281   6.094   2.254   5.171
 6794SOL    HW221282   5.942   2.315   5.166
 6795SOL     OW21283   1.288   0.655   1.419
 6795SOL    HW121284   1.294   0.713   1.500
 6795SOL    HW221285   1.363   0.590   1.419
 6796SOL     OW21286   6.180   1.998   2.974
 6796SOL    HW121287   6.215   2.091   2.962
 6796SOL    HW221288   6.255   1.933   2.963
 6797SOL     OW21289   0.382   3.315   1.259
 6797SOL    HW121290   0.357   3.228   1.301
 6797SOL    HW221291   0.459   3.302   1.196
 6798SOL     OW21292   5.268   0.458   1.977
 6798SOL    HW121293   5.184   0.463   2.032
 6798SOL    HW221294   5.255   0.392   1.903
 6799SOL     OW21295   6.585   0.261   3.594
 6799SOL    HW121296   6.645   0.328   3.550
 6799SOL    HW221297   6.579   0.280   3.692
 6800SOL     OW21298   6.115   3.128   1.362
 6800SOL    HW121299   6.171   3.045   1.364
 6800SOL    HW221300   6.096   3.157   1.456
 6801SOL     OW21301   0.654   6.858   6.439
 6801SOL    HW121302   0.702   6.840   6.353
 6801SOL    HW221303   0.637   6.772   6.487
 6802SOL     OW21304   3.204   5.232   1.899
 6802SOL    HW121305   3.224   5.135   1.916
 6802SOL    HW221306   3.118   5.239   1.847
 6803SOL     OW21307   5.335   5.249   6.350
 6803SOL    HW121308   5.322   5.154   6.378
 6803SOL    HW221309   5.247   5.289   6.327
 6804SOL     OW21310   3.460   4.900   2.711
 6804SOL    HW121311   3.514   4.917   2.629
 6804SOL    HW221312   3.521   4.901   2.791
 6805SOL     OW21313   0.210   4.594   4.658
 6805SOL    HW121314   0.114   4.620   4.646
 6805SOL    HW221315   0.218   4.494   4.650
 6806SOL     OW21316   6.356   2.727   1.645
 6806SOL    HW121317   6.334   2.790   1.571
 6806SOL    HW221318   6.307   2.755   1.728
 6807SOL     OW21319   3.030   4.023   1.928
 6807SOL    HW121320   3.038   3.933   1.971
 6807SOL    HW221321   3.015   4.092   1.999
 6808SOL     OW21322   3.301   1.163   3.976
 6808SOL    HW121323   3.287   1.077   3.927
 6808SOL    HW221324   3.255   1.237   3.927
 6809SOL     OW21325   6.024   3.202   6.560
 6809SOL    HW121326   5.934   3.245   6.566
 6809SOL    HW221327   6.015   3.113   6.516
 6810SOL     OW21328   2.865   0.935   4.803
 6810SOL    HW121329   2.909   0.850   4.832
 6810SOL    HW221330   2.893   0.957   4.710
 6811SOL     OW21331   6.161   1.474   0.288
 6811SOL    HW121332   6.256   1.447   0.303
 6811SOL    HW221333   6.118   1.411   0.224
 6812SOL     OW21334   3.600   4.173   5.569
 6812SOL    HW121335   3.682   4.126   5.602
 6812SOL    HW221336   3.627   4.255   5.519
 6813SOL     OW21337   6.717   3.252   2.095
 6813SOL    HW121338   6.732   3.179   2.028
 6813SOL    HW221339   6.805   3.280   2.134
 6814SOL     OW21340   5.559   0.930   6.936
 6814SOL    HW121341   5.649   0.938   6.980
 6814SOL    HW221342   5.566   0.956   6.840
 6815SOL     OW21343   0.857   5.232   6.029
 6815SOL    HW121344   0.865   5.141   5.990
 6815SOL    HW221345   0.900   5.299   5.968
 6816SOL     OW21346   6.936   0.227   3.240
 6816SOL    HW121347   6.950   0.167   3.319
 6816SOL    HW221348   7.006   0.298   3.239
 6817SOL     OW21349   4.257   2.320   1.425
 6817SOL    HW121350   4.232   2.325   1.521
 6817SOL    HW221351   4.279   2.226   1.401
 6818SOL     OW21352   1.206   6.501   5.339
 6818SOL    HW121353   1.181   6.596   5.358
 6818SOL    HW221354   1.141   6.440   5.384
 6819SOL     OW21355   4.772   4.358   1.900
 6819SOL    HW121356   4.807   4.305   1.977
 6819SOL    HW221357   4.684   4.320   1.871
 6820SOL     OW21358   3.033   5.273   1.498
 6820SOL    HW121359   3.068   5.234   1.413
 6820SOL    HW221360   2.934   5.282   1.492
 6821SOL     OW21361   3.778   2.564   5.295
 6821SOL    HW121362   3.841   2.487   5.295
 6821SOL    HW221363   3.805   2.629   5.224
 6822SOL     OW21364   6.297   3.233   5.799
 6822SOL    HW121365   6.199   3.250   5.812
 6822SOL    HW221366   6.345   3.320   5.789
 6823SOL     OW21367   6.943   2.489   5.163
 6823SOL    HW121368   6.993   2.419   5.113
 6823SOL    HW221369   6.872   2.446   5.218
 6824SOL     OW21370   1.268   6.827   5.358
 6824SOL    HW121371   1.364   6.840   5.383
 6824SOL    HW221372   1.256   6.850   5.261
 6825SOL     OW21373   4.366   4.626   0.673
 6825SOL    HW121374   4.277   4.664   0.647
 6825SOL    HW221375   4.355   4.530   0.700
 6826SOL     OW21376   6.428   6.387   3.663
 6826SOL    HW121377   6.384   6.359   3.749
 6826SOL    HW221378   6.518   6.344   3.656
 6827SOL     OW21379   4.759   5.811   4.696
 6827SOL    HW121380   4.718   5.736   4.748
 6827SOL    HW221381   4.756   5.895   4.751
 6828SOL     OW21382   3.100   2.086   2.324
 6828SOL    HW121383   3.011   2.132   2.328
 6828SOL    HW221384   3.153   2.109   2.406
 6829SOL     OW21385   3.822   0.111   3.168
 6829SOL    HW121386   3.854   0.021   3.194
 6829SOL    HW221387   3.897   0.177   3.175
 6830SOL     OW21388   4.888   4.844   2.845
 6830SOL    HW121389   4.845   4.820   2.932
 6830SOL    HW221390   4.844   4.793   2.771
 6831SOL     OW21391   1.771   2.335   5.871
 6831SOL    HW121392   1.751   2.297   5.961
 6831SOL    HW221393   1.709   2.295   5.804
 6832SOL     OW21394   2.863   2.244   6.278
 6832SOL    HW121395   2.808   2.317   6.235
 6832SOL    HW221396   2.913   2.282   6.356
 6833SOL     OW21397   3.676   5.299   5.936
 6833SOL    HW121398   3.731   5.352   6.001
 6833SOL    HW221399   3.658   5.209   5.975
 6834SOL     OW21400   6.465   6.400   6.958
 6834SOL    HW121401   6.547   6.385   6.903
 6834SOL    HW221402   6.491   6.434   0.030
 6835SOL     OW21403   2.658   1.110   4.824
 6835SOL    HW121404   2.646   1.144   4.917
 6835SOL    HW221405   2.715   1.028   4.825
 6836SOL     OW21406   2.025   4.499   6.691
 6836SOL    HW121407   2.054   4.511   6.786
 6836SOL    HW221408   1.950   4.434   6.686
 6837SOL     OW21409   6.791   1.110   2.258
 6837SOL    HW121410   6.719   1.173   2.228
 6837SOL    HW221411   6.766   1.070   2.346
 6838SOL     OW21412   3.171   3.968   4.868
 6838SOL    HW121413   3.185   3.874   4.897
 6838SOL    HW221414   3.225   4.030   4.925
 6839SOL     OW21415   6.359   3.390   4.713
 6839SOL    HW121416   6.280   3.356   4.764
 6839SOL    HW221417   6.353   3.361   4.618
 6840SOL     OW21418   2.751   6.666   4.960
 6840SOL    HW121419   2.680   6.667   5.031
 6840SOL    HW221420   2.841   6.676   5.003
 6841SOL     OW21421   5.199   6.014   1.283
 6841SOL    HW121422   5.283   6.063   1.262
 6841SOL    HW221423   5.128   6.079   1.311
 6842SOL     OW21424   0.594   3.559   4.532
 6842SOL    HW121425   0.543   3.563   4.446
 6842SOL    HW221426   0.644   3.472   4.537
 6843SOL     OW21427   3.884   2.289   1.632
 6843SOL    HW121428   3.870   2.198   1.593
 6843SOL    HW221429   3.804   2.315   1.685
 6844SOL     OW21430   4.213   5.677   4.152
 6844SOL    HW121431   4.157   5.759   4.140
 6844SOL    HW221432   4.206   5.619   4.071
 6845SOL     OW21433   4.119   4.536   0.954
 6845SOL    HW121434   4.176   4.533   1.036
 6845SOL    HW221435   4.143   4.616   0.900
 6846SOL     OW21436   3.303   2.937   2.906
 6846SOL    HW121437   3.330   2.878   2.829
 6846SOL    HW221438   3.345   3.027   2.895
 6847SOL     OW21439   5.728   3.092   2.275
 6847SOL    HW121440   5.740   3.002   2.232
 6847SOL    HW221441   5.797   3.155   2.240
 6848SOL     OW21442   6.762   6.760   3.341
 6848SOL    HW121443   6.678   6.715   3.310
 6848SOL    HW221444   6.742   6.856   3.363
 6849SOL     OW21445   3.613   6.643   3.933
 6849SOL    HW121446   3.564   6.573   3.986
 6849SOL    HW221447   3.548   6.705   3.890
 6850SOL     OW21448   5.408   3.107   1.758
 6850SOL    HW121449   5.436   3.025   1.807
 6850SOL    HW221450   5.309   3.118   1.766
 6851SOL     OW21451   2.074   5.779   5.582
 6851SOL    HW121452   2.026   5.849   5.531
 6851SOL    HW221453   2.023   5.756   5.665
 6852SOL     OW21454   0.152   4.731   2.277
 6852SOL    HW121455   0.213   4.679   2.337
 6852SOL    HW221456   0.110   4.805   2.330
 6853SOL     OW21457   6.636   3.492   5.609
 6853SOL    HW121458   6.678   3.423   5.668
 6853SOL    HW221459   6.700   3.517   5.537
 6854SOL     OW21460   0.215   1.786   6.296
 6854SOL    HW121461   0.211   1.688   6.280
 6854SOL    HW221462   0.310   1.814   6.312
 6855SOL     OW21463   3.611   6.111   1.159
 6855SOL    HW121464   3.660   6.033   1.118
 6855SOL    HW221465   3.665   6.148   1.234
 6856SOL     OW21466   6.934   3.926   5.636
 6856SOL    HW121467   6.870   3.974   5.576
 6856SOL    HW221468   7.012   3.894   5.581
 6857SOL     OW21469   4.510   1.875   6.060
 6857SOL    HW121470   4.593   1.841   6.104
 6857SOL    HW221471   4.535   1.922   5.975
 6858SOL     OW21472   3.628   3.085   5.093
 6858SOL    HW121473   3.645   3.022   5.169
 6858SOL    HW221474   3.700   3.074   5.024
 6859SOL     OW21475   3.727   6.996   1.145
 6859SOL    HW121476   3.665   0.055   1.162
 6859SOL    HW221477   3.674   6.911   1.146
 6860SOL     OW21478   4.665   4.496   0.432
 6860SOL    HW121479   4.722   4.578   0.427
 6860SOL    HW221480   4.655   4.469   0.528
 6861SOL     OW21481   6.182   4.923   0.432
 6861SOL    HW121482   6.232   4.886   0.354
 6861SOL    HW221483   6.151   4.848   0.490
 6862SOL     OW21484   3.792   5.937   4.187
 6862SOL    HW121485   3.723   5.901   4.250
 6862SOL    HW221486   3.752   5.947   4.096
 6863SOL     OW21487   0.177   3.083   4.356
 6863SOL    HW121488   0.078   3.071   4.366
 6863SOL    HW221489   0.200   3.179   4.373
 6864SOL     OW21490   4.286   5.721   5.148
 6864SOL    HW121491   4.302   5.819   5.134
 6864SOL    HW221492   4.372   5.671   5.138
 6865SOL     OW21493   6.678   4.254   4.212
 6865SOL    HW121494   6.767   4.213   4.190
 6865SOL    HW221495   6.653   4.319   4.141
 6866SOL     OW21496   0.276   3.483   2.127
 6866SOL    HW121497   0.329   3.479   2.212
 6866SOL    HW221498   0.183   3.514   2.147
 6867SOL     OW21499   2.274   4.347   2.470
 6867SOL    HW121500   2.204   4.303   2.527
 6867SOL    HW221501   2.275   4.303   2.380
 6868SOL     OW21502   1.997   5.541   5.216
 6868SOL    HW121503   2.063   5.541   5.290
 6868SOL    HW221504   1.967   5.448   5.197
 6869SOL     OW21505   5.873   3.318   5.422
 6869SOL    HW121506   5.911   3.272   5.502
 6869SOL    HW221507   5.796   3.376   5.450
 6870SOL     OW21508   4.911   4.144   2.821
 6870SOL    HW121509   4.855   4.164   2.741
 6870SOL    HW221510   4.987   4.084   2.795
 6871SOL     OW21511   5.342   6.599   2.257
 6871SOL    HW121512   5.371   6.520   2.312
 6871SOL    HW221513   5.388   6.681   2.290
 6872SOL     OW21514   2.769   3.245   6.205
 6872SOL    HW121515   2.802   3.215   6.294
 6872SOL    HW221516   2.687   3.300   6.217
 6873SOL     OW21517   5.080   4.468   6.168
 6873SOL    HW121518   5.011   4.397   6.174
 6873SOL    HW221519   5.112   4.476   6.073
 6874SOL     OW21520   0.861   2.455   5.583
 6874SOL    HW121521   0.932   2.441   5.513
 6874SOL    HW221522   0.808   2.537   5.561
 6875SOL     OW21523   3.081   1.993   3.714
 6875SOL    HW121524   3.071   2.053   3.794
 6875SOL    HW221525   2.999   1.936   3.704
 6876SOL     OW21526   3.333   6.048   6.436
 6876SOL    HW121527   3.350   6.125   6.374
 6876SOL    HW221528   3.366   5.963   6.393
 6877SOL     OW21529   2.398   4.029   6.480
 6877SOL    HW121530   2.407   4.122   6.445
 6877SOL    HW221531   2.488   3.985   6.482
 6878SOL     OW21532   1.309   1.890   5.018
 6878SOL    HW121533   1.325   1.807   5.071
 6878SOL    HW221534   1.381   1.957   5.038
 6879SOL     OW21535   1.131   1.827   5.796
 6879SOL    HW121536   1.214   1.772   5.783
 6879SOL    HW221537   1.116   1.882   5.714
 6880SOL     OW21538   2.048   4.541   4.903
 6880SOL    HW121539   2.065   4.499   4.814
 6880SOL    HW221540   1.993   4.624   4.891
 6881SOL     OW21541   6.728   4.048   1.299
 6881SOL    HW121542   6.740   3.979   1.370
 6881SOL    HW221543   6.647   4.102   1.319
 6882SOL     OW21544   1.953   6.880   5.473
 6882SOL    HW121545   1.966   6.849   5.379
 6882SOL    HW221546   2.023   6.838   5.532
 6883SOL     OW21547   3.687   6.046   1.760
 6883SOL    HW121548   3.692   6.007   1.668
 6883SOL    HW221549   3.592   6.057   1.787
 6884SOL     OW21550   2.796   4.717   3.054
 6884SOL    HW121551   2.726   4.653   3.086
 6884SOL    HW221552   2.794   4.722   2.954
 6885SOL     OW21553   2.916   5.253   4.400
 6885SOL    HW121554   2.922   5.219   4.306
 6885SOL    HW221555   2.865   5.187   4.455
 6886SOL     OW21556   5.694   1.952   2.901
 6886SOL    HW121557   5.789   1.944   2.933
 6886SOL    HW221558   5.680   2.042   2.861
 6887SOL     OW21559   6.116   0.546   5.046
 6887SOL    HW121560   6.215   0.538   5.029
 6887SOL    HW221561   6.069   0.469   5.002
 6888SOL     OW21562   5.721   6.320   4.169
 6888SOL    HW121563   5.773   6.405   4.168
 6888SOL    HW221564   5.776   6.247   4.127
 6889SOL     OW21565   1.473   4.602   6.001
 6889SOL    HW121566   1.544   4.586   5.933
 6889SOL    HW221567   1.469   4.524   6.064
 6890SOL     OW21568   2.448   0.556   0.357
 6890SOL    HW121569   2.358   0.513   0.345
 6890SOL    HW221570   2.472   0.555   0.453
 6891SOL     OW21571   3.249   4.986   3.954
 6891SOL    HW121572   3.296   4.985   4.042
 6891SOL    HW221573   3.313   4.962   3.881
 6892SOL     OW21574   4.085   0.799   4.241
 6892SOL    HW121575   4.156   0.729   4.244
 6892SOL    HW221576   4.070   0.827   4.146
 6893SOL     OW21577   5.012   6.385   2.246
 6893SOL    HW121578   5.081   6.345   2.186
 6893SOL    HW221579   4.969   6.314   2.302
 6894SOL     OW21580   6.250   4.738   6.253
 6894SOL    HW121581   6.246   4.639   6.272
 6894SOL    HW221582   6.258   4.752   6.154
 6895SOL     OW21583   3.906   5.670   6.493
 6895SOL    HW121584   3.938   5.593   6.548
 6895SOL    HW221585   3.849   5.730   6.548
 6896SOL     OW21586   4.373   0.319   2.814
 6896SOL    HW121587   4.372   0.381   2.736
 6896SOL    HW221588   4.352   0.370   2.898
 6897SOL     OW21589   3.215   2.173   0.484
 6897SOL    HW121590   3.177   2.187   0.393
 6897SOL    HW221591   3.284   2.243   0.502
 6898SOL     OW21592   3.819   2.105   2.324
 6898SOL    HW121593   3.888   2.137   2.260
 6898SOL    HW221594   3.732   2.092   2.277
 6899SOL     OW21595   5.301   6.146   6.803
 6899SOL    HW121596   5.284   6.085   6.726
 6899SOL    HW221597   5.366   6.104   6.866
 6900SOL     OW21598   4.026   1.017   5.499
 6900SOL    HW121599   4.012   1.098   5.556
 6900SOL    HW221600   4.124   1.005   5.482
 6901SOL     OW21601   1.520   0.972   0.035
 6901SOL    HW121602   1.531   0.875   0.015
 6901SOL    HW221603   1.453   0.984   0.109
 6902SOL     OW21604   6.651   5.627   0.803
 6902SOL    HW121605   6.720   5.696   0.825
 6902SOL    HW221606   6.642   5.618   0.704
 6903SOL     OW21607   4.830   3.582   1.140
 6903SOL    HW121608   4.864   3.579   1.046
 6903SOL    HW221609   4.906   3.566   1.203
 6904SOL     OW21610   0.445   1.245   3.312
 6904SOL    HW121611   0.450   1.193   3.227
 6904SOL    HW221612   0.349   1.265   3.334
 6905SOL     OW21613   5.231   6.178   0.476
 6905SOL    HW121614   5.141   6.136   0.473
 6905SOL    HW221615   5.296   6.122   0.425
 6906SOL     OW21616   4.601   0.070   3.883
 6906SOL    HW121617   4.587   0.151   3.940
 6906SOL    HW221618   4.513   0.039   3.846
 6907SOL     OW21619   3.680   1.978   1.479
 6907SOL    HW121620   3.654   1.884   1.458
 6907SOL    HW221621   3.629   2.011   1.558
 6908SOL     OW21622   0.741   6.903   6.172
 6908SOL    HW121623   0.692   6.860   6.097
 6908SOL    HW221624   0.835   6.922   6.143
 6909SOL     OW21625   4.059   3.601   6.729
 6909SOL    HW121626   4.117   3.520   6.723
 6909SOL    HW221627   4.115   3.683   6.722
 6910SOL     OW21628   6.869   1.526   2.374
 6910SOL    HW121629   6.869   1.598   2.443
 6910SOL    HW221630   6.958   1.479   2.375
 6911SOL     OW21631   4.234   1.263   4.797
 6911SOL    HW121632   4.207   1.169   4.776
 6911SOL    HW221633   4.238   1.276   4.896
 6912SOL     OW21634   4.975   5.576   0.873
 6912SOL    HW121635   4.911   5.580   0.797
 6912SOL    HW221636   5.036   5.498   0.861
 6913SOL     OW21637   5.472   5.207   5.370
 6913SOL    HW121638   5.479   5.144   5.293
 6913SOL    HW221639   5.525   5.172   5.447
 6914SOL     OW21640   5.611   5.391   0.845
 6914SOL    HW121641   5.697   5.426   0.807
 6914SOL    HW221642   5.551   5.363   0.770
 6915SOL     OW21643   0.891   5.419   1.304
 6915SOL    HW121644   0.967   5.483   1.294
 6915SOL    HW221645   0.863   5.387   1.213
 6916SOL     OW21646   6.766   1.476   0.006
 6916SOL    HW121647   6.719   1.564   0.002
 6916SOL    HW221648   6.780   1.442   6.931
 6917SOL     OW21649   4.441   6.097   6.127
 6917SOL    HW121650   4.368   6.067   6.188
 6917SOL    HW221651   4.514   6.140   6.180
 6918SOL     OW21652   1.786   2.885   3.609
 6918SOL    HW121653   1.755   2.947   3.537
 6918SOL    HW221654   1.822   2.939   3.686
 6919SOL     OW21655   1.939   6.281   3.297
 6919SOL    HW121656   1.985   6.205   3.343
 6919SOL    HW221657   1.844   6.256   3.278
 6920SOL     OW21658   5.302   5.878   4.922
 6920SOL    HW121659   5.298   5.930   4.837
 6920SOL    HW221660   5.310   5.940   5.000
 6921SOL     OW21661   0.620   0.046   2.752
 6921SOL    HW121662   0.563   0.053   2.833
 6921SOL    HW221663   0.694   0.114   2.757
 6922SOL     OW21664   2.114   6.352   0.530
 6922SOL    HW121665   2.083   6.447   0.526
 6922SOL    HW221666   2.037   6.293   0.558
 6923SOL     OW21667   4.820   6.956   4.432
 6923SOL    HW121668   4.852   7.006   4.351
 6923SOL    HW221669   4.732   6.913   4.413
 6924SOL     OW21670   0.289   5.754   1.136
 6924SOL    HW121671   0.269   5.793   1.227
 6924SOL    HW221672   0.385   5.769   1.113
 6925SOL     OW21673   5.386   6.384   2.404
 6925SOL    HW121674   5.320   6.380   2.479
 6925SOL    HW221675   5.425   6.293   2.388
 6926SOL     OW21676   2.883   3.393   4.798
 6926SOL    HW121677   2.790   3.397   4.763
 6926SOL    HW221678   2.916   3.299   4.795
 6927SOL     OW21679   4.443   3.926   5.866
 6927SOL    HW121680   4.517   3.869   5.829
 6927SOL    HW221681   4.479   3.982   5.940
 6928SOL     OW21682   5.550   0.543   6.588
 6928SOL    HW121683   5.593   0.468   6.637
 6928SOL    HW221684   5.490   0.594   6.649
 6929SOL     OW21685   3.524   5.115   0.402
 6929SOL    HW121686   3.429   5.084   0.391
 6929SOL    HW221687   3.574   5.050   0.459
 6930SOL     OW21688   0.660   6.429   3.468
 6930SOL    HW121689   0.563   6.417   3.486
 6930SOL    HW221690   0.676   6.520   3.428
 6931SOL     OW21691   1.730   1.070   1.194
 6931SOL    HW121692   1.829   1.069   1.181
 6931SOL    HW221693   1.709   1.094   1.289
 6932SOL     OW21694   2.531   2.894   0.941
 6932SOL    HW121695   2.439   2.863   0.917
 6932SOL    HW221696   2.534   2.912   1.040
 6933SOL     OW21697   3.745   6.731   6.503
 6933SOL    HW121698   3.663   6.744   6.558
 6933SOL    HW221699   3.814   6.683   6.558
 6934SOL     OW21700   5.314   3.559   6.613
 6934SOL    HW121701   5.378   3.592   6.683
 6934SOL    HW221702   5.256   3.488   6.652
 6935SOL     OW21703   4.451   4.991   3.560
 6935SOL    HW121704   4.417   5.051   3.633
 6935SOL    HW221705   4.376   4.933   3.527
 6936SOL     OW21706   1.488   4.410   0.923
 6936SOL    HW121707   1.466   4.386   1.018
 6936SOL    HW221708   1.523   4.329   0.876
 6937SOL     OW21709   4.286   0.088   5.416
 6937SOL    HW121710   4.261   0.147   5.492
 6937SOL    HW221711   4.340   0.010   5.450
 6938SOL     OW21712   4.665   2.316   5.229
 6938SOL    HW121713   4.667   2.219   5.253
 6938SOL    HW221714   4.711   2.369   5.299
 6939SOL     OW21715   1.299   4.012   2.817
 6939SOL    HW121716   1.261   3.922   2.795
 6939SOL    HW221717   1.244   4.055   2.888
 6940SOL     OW21718   4.768   0.866   4.754
 6940SOL    HW121719   4.695   0.923   4.790
 6940SOL    HW221720   4.730   0.782   4.716
 6941SOL     OW21721   3.997   3.132   2.947
 6941SOL    HW121722   3.907   3.170   2.966
 6941SOL    HW221723   3.988   3.054   2.885
 6942SOL     OW21724   6.814   1.880   0.320
 6942SOL    HW121725   6.884   1.850   0.386
 6942SOL    HW221726   6.859   1.917   0.239
 6943SOL     OW21727   4.834   6.376   6.182
 6943SOL    HW121728   4.760   6.311   6.201
 6943SOL    HW221729   4.795   6.464   6.156
 6944SOL     OW21730   1.846   5.975   5.930
 6944SOL    HW121731   1.804   6.004   6.016
 6944SOL    HW221732   1.943   6.002   5.930
 6945SOL     OW21733   5.567   3.075   5.826
 6945SOL    HW121734   5.609   2.990   5.796
 6945SOL    HW221735   5.509   3.111   5.753
 6946SOL     OW21736   5.518   4.494   2.930
 6946SOL    HW121737   5.614   4.472   2.911
 6946SOL    HW221738   5.510   4.590   2.955
 6947SOL     OW21739   3.921   6.486   2.698
 6947SOL    HW121740   3.838   6.541   2.693
 6947SOL    HW221741   3.965   6.483   2.608
 6948SOL     OW21742   4.351   1.752   5.488
 6948SOL    HW121743   4.382   1.711   5.403
 6948SOL    HW221744   4.269   1.807   5.471
 6949SOL     OW21745   5.111   0.387   2.545
 6949SOL    HW121746   5.134   0.293   2.571
 6949SOL    HW221747   5.078   0.436   2.626
 6950SOL     OW21748   1.711   0.294   3.193
 6950SOL    HW121749   1.802   0.334   3.185
 6950SOL    HW221750   1.655   0.324   3.116
 6951SOL     OW21751   6.402   5.206   6.012
 6951SOL    HW121752   6.491   5.249   6.027
 6951SOL    HW221753   6.364   5.176   6.100
 6952SOL     OW21754   0.367   4.838   4.560
 6952SOL    HW121755   0.342   4.928   4.597
 6952SOL    HW221756   0.284   4.788   4.537
 6953SOL     OW21757   5.131   1.195   5.185
 6953SOL    HW121758   5.149   1.284   5.227
 6953SOL    HW221759   5.159   1.122   5.248
 6954SOL     OW21760   1.015   3.996   3.173
 6954SOL    HW121761   1.044   4.005   3.268
 6954SOL    HW221762   1.025   3.901   3.144
 6955SOL     OW21763   6.879   5.648   1.972
 6955SOL    HW121764   6.970   5.609   1.960
 6955SOL    HW221765   6.886   5.747   1.984
 6956SOL     OW21766   3.571   4.913   1.695
 6956SOL    HW121767   3.524   4.843   1.749
 6956SOL    HW221768   3.515   4.995   1.692
 6957SOL     OW21769   0.574   4.612   0.660
 6957SOL    HW121770   0.513   4.643   0.732
 6957SOL    HW221771   0.522   4.600   0.575
 6958SOL     OW21772   2.617   3.868   6.536
 6958SOL    HW121773   2.569   3.780   6.531
 6958SOL    HW221774   2.679   3.867   6.614
 6959SOL     OW21775   2.505   1.101   4.105
 6959SOL    HW121776   2.418   1.137   4.136
 6959SOL    HW221777   2.557   1.066   4.184
 6960SOL     OW21778   0.107   5.060   6.940
 6960SOL    HW121779   0.040   5.118   6.893
 6960SOL    HW221780   0.175   5.117   6.986
 6961SOL     OW21781   0.301   1.138   2.594
 6961SOL    HW121782   0.279   1.226   2.635
 6961SOL    HW221783   0.231   1.115   2.526
 6962SOL     OW21784   4.444   4.238   0.964
 6962SOL    HW121785   4.393   4.158   0.934
 6962SOL    HW221786   4.472   4.225   1.059
 6963SOL     OW21787   6.822   5.268   1.444
 6963SOL    HW121788   6.909   5.238   1.404
 6963SOL    HW221789   6.838   5.346   1.504
 6964SOL     OW21790   3.933   5.872   5.179
 6964SOL    HW121791   3.844   5.904   5.213
 6964SOL    HW221792   3.996   5.861   5.256
 6965SOL     OW21793   6.864   2.412   5.899
 6965SOL    HW121794   6.910   2.432   5.985
 6965SOL    HW221795   6.838   2.315   5.897
 6966SOL     OW21796   4.691   2.685   4.107
 6966SOL    HW121797   4.739   2.741   4.174
 6966SOL    HW221798   4.633   2.619   4.154
 6967SOL     OW21799   2.424   0.580   5.983
 6967SOL    HW121800   2.412   0.660   6.043
 6967SOL    HW221801   2.484   0.605   5.906
 6968SOL     OW21802   5.056   6.647   2.317
 6968SOL    HW121803   5.154   6.631   2.307
 6968SOL    HW221804   5.009   6.559   2.329
 6969SOL     OW21805   3.218   2.060   1.152
 6969SOL    HW121806   3.194   2.070   1.056
 6969SOL    HW221807   3.305   2.106   1.170
 6970SOL     OW21808   5.228   4.713   0.318
 6970SOL    HW121809   5.219   4.813   0.309
 6970SOL    HW221810   5.216   4.687   0.414
 6971SOL     OW21811   4.987   0.569   1.548
 6971SOL    HW121812   4.888   0.578   1.539
 6971SOL    HW221813   5.013   0.474   1.531
 6972SOL     OW21814   5.840   5.031   4.522
 6972SOL    HW121815   5.897   5.113   4.531
 6972SOL    HW221816   5.787   5.019   4.606
 6973SOL     OW21817   1.923   4.941   2.904
 6973SOL    HW121818   1.925   4.905   2.998
 6973SOL    HW221819   1.929   4.865   2.839
 6974SOL     OW21820   3.369   4.000   4.284
 6974SOL    HW121821   3.368   3.974   4.187
 6974SOL    HW221822   3.297   3.951   4.333
 6975SOL     OW21823   3.661   1.035   5.592
 6975SOL    HW121824   3.677   1.133   5.581
 6975SOL    HW221825   3.668   1.010   5.688
 6976SOL     OW21826   2.069   4.860   5.957
 6976SOL    HW121827   2.038   4.950   5.990
 6976SOL    HW221828   2.156   4.870   5.909
 6977SOL     OW21829   3.692   2.011   2.594
 6977SOL    HW121830   3.691   1.990   2.496
 6977SOL    HW221831   3.764   2.077   2.613
 6978SOL     OW21832   6.220   0.568   2.404
 6978SOL    HW121833   6.235   0.621   2.488
 6978SOL    HW221834   6.236   0.471   2.422
 6979SOL     OW21835   0.347   4.875   2.882
 6979SOL    HW121836   0.384   4.888   2.974
 6979SOL    HW221837   0.248   4.886   2.884
 6980SOL     OW21838   3.335   0.917   4.473
 6980SOL    HW121839   3.391   0.853   4.419
 6980SOL    HW221840   3.297   0.987   4.413
 6981SOL     OW21841   2.431   5.526   0.334
 6981SOL    HW121842   2.347   5.471   0.335
 6981SOL    HW221843   2.485   5.501   0.254
 6982SOL     OW21844   0.524   0.114   4.825
 6982SOL    HW121845   0.473   0.177   4.883
 6982SOL    HW221846   0.621   0.120   4.846
 6983SOL     OW21847   6.721   0.595   4.277
 6983SOL    HW121848   6.659   0.648   4.218
 6983SOL    HW221849   6.749   0.651   4.355
 6984SOL     OW21850   1.472   1.125   6.352
 6984SOL    HW121851   1.396   1.112   6.287
 6984SOL    HW221852   1.444   1.093   6.442
 6985SOL     OW21853   5.195   5.874   1.891
 6985SOL    HW121854   5.229   5.966   1.871
 6985SOL    HW221855   5.104   5.881   1.932
 6986SOL     OW21856   2.237   6.860   5.300
 6986SOL    HW121857   2.250   6.949   5.255
 6986SOL    HW221858   2.157   6.815   5.262
 6987SOL     OW21859   0.446   3.518   6.327
 6987SOL    HW121860   0.427   3.594   6.265
 6987SOL    HW221861   0.518   3.545   6.391
 6988SOL     OW21862   5.287   0.826   4.132
 6988SOL    HW121863   5.201   0.847   4.086
 6988SOL    HW221864   5.315   0.904   4.188
 6989SOL     OW21865   1.557   2.344   4.009
 6989SOL    HW121866   1.598   2.302   3.928
 6989SOL    HW221867   1.610   2.425   4.035
 6990SOL     OW21868   3.588   3.294   0.201
 6990SOL    HW121869   3.592   3.214   0.260
 6990SOL    HW221870   3.634   3.274   0.114
 6991SOL     OW21871   3.562   4.478   5.266
 6991SOL    HW121872   3.618   4.396   5.276
 6991SOL    HW221873   3.490   4.477   5.336
 6992SOL     OW21874   5.420   6.469   4.491
 6992SOL    HW121875   5.433   6.395   4.557
 6992SOL    HW221876   5.375   6.546   4.535
 6993SOL     OW21877   0.365   0.311   3.142
 6993SOL    HW121878   0.412   0.259   3.212
 6993SOL    HW221879   0.274   0.338   3.175
 6994SOL     OW21880   1.340   2.818   6.070
 6994SOL    HW121881   1.398   2.737   6.076
 6994SOL    HW221882   1.333   2.847   5.974
 6995SOL     OW21883   6.881   5.486   3.307
 6995SOL    HW121884   6.798   5.458   3.258
 6995SOL    HW221885   6.961   5.444   3.263
 6996SOL     OW21886   2.281   0.142   5.606
 6996SOL    HW121887   2.258   0.066   5.666
 6996SOL    HW221888   2.364   0.120   5.554
 6997SOL     OW21889   5.063   0.567   5.305
 6997SOL    HW121890   5.053   0.620   5.389
 6997SOL    HW221891   4.993   0.496   5.301
 6998SOL     OW21892   0.793   2.636   3.223
 6998SOL    HW121893   0.699   2.603   3.211
 6998SOL    HW221894   0.838   2.581   3.294
 6999SOL     OW21895   3.209   1.521   5.666
 6999SOL    HW121896   3.199   1.543   5.763
 6999SOL    HW221897   3.171   1.595   5.611
 7000SOL     OW21898   0.176   6.182   2.656
 7000SOL    HW121899   0.101   6.220   2.709
 7000SOL    HW221900   0.189   6.235   2.573
 7001SOL     OW21901   2.298   2.659   5.615
 7001SOL    HW121902   2.367   2.604   5.662
 7001SOL    HW221903   2.252   2.603   5.546
 7002SOL     OW21904   1.777   4.953   3.222
 7002SOL    HW121905   1.772   5.022   3.151
 7002SOL    HW221906   1.692   4.900   3.224
 7003SOL     OW21907   2.406   6.042   0.980
 7003SOL    HW121908   2.471   5.968   0.998
 7003SOL    HW221909   2.313   6.006   0.982
 7004SOL     OW21910   1.532   4.107   0.852
 7004SOL    HW121911   1.560   4.050   0.774
 7004SOL    HW221912   1.598   4.096   0.926
 7005SOL     OW21913   5.245   6.107   5.703
 7005SOL    HW121914   5.236   6.144   5.610
 7005SOL    HW221915   5.224   6.179   5.769
 7006SOL     OW21916   4.395   4.706   4.803
 7006SOL    HW121917   4.425   4.666   4.717
 7006SOL    HW221918   4.351   4.636   4.859
 7007SOL     OW21919   4.994   5.084   2.731
 7007SOL    HW121920   4.930   5.159   2.745
 7007SOL    HW221921   4.950   4.997   2.756
 7008SOL     OW21922   0.983   5.347   3.839
 7008SOL    HW121923   1.000   5.279   3.911
 7008SOL    HW221924   0.950   5.301   3.757
 7009SOL     OW21925   0.835   4.355   2.151
 7009SOL    HW121926   0.913   4.418   2.151
 7009SOL    HW221927   0.781   4.368   2.068
 7010SOL     OW21928   3.651   5.078   6.128
 7010SOL    HW121929   3.615   4.987   6.106
 7010SOL    HW221930   3.604   5.115   6.207
 7011SOL     OW21931   2.942   0.852   5.173
 7011SOL    HW121932   2.855   0.820   5.136
 7011SOL    HW221933   2.962   0.943   5.136
 7012SOL     OW21934   1.060   0.868   2.194
 7012SOL    HW121935   1.089   0.957   2.160
 7012SOL    HW221936   1.128   0.799   2.169
 7013SOL     OW21937   0.726   0.811   2.329
 7013SOL    HW121938   0.760   0.754   2.404
 7013SOL    HW221939   0.781   0.894   2.321
 7014SOL     OW21940   2.239   4.348   1.752
 7014SOL    HW121941   2.259   4.342   1.654
 7014SOL    HW221942   2.232   4.444   1.779
 7015SOL     OW21943   5.479   2.710   2.722
 7015SOL    HW121944   5.575   2.724   2.697
 7015SOL    HW221945   5.420   2.755   2.655
 7016SOL     OW21946   3.872   5.174   1.315
 7016SOL    HW121947   3.851   5.243   1.383
 7016SOL    HW221948   3.971   5.157   1.314
 7017SOL     OW21949   3.333   1.235   3.576
 7017SOL    HW121950   3.430   1.215   3.589
 7017SOL    HW221951   3.280   1.151   3.581
 7018SOL     OW21952   0.558   4.943   4.385
 7018SOL    HW121953   0.503   4.921   4.465
 7018SOL    HW221954   0.647   4.898   4.393
 7019SOL     OW21955   2.157   5.965   0.190
 7019SOL    HW121956   2.252   5.939   0.179
 7019SOL    HW221957   2.131   6.030   0.118
 7020SOL     OW21958   6.416   6.255   6.384
 7020SOL    HW121959   6.412   6.171   6.438
 7020SOL    HW221960   6.331   6.306   6.395
 7021SOL     OW21961   2.553   1.327   6.166
 7021SOL    HW121962   2.638   1.377   6.182
 7021SOL    HW221963   2.482   1.391   6.136
 7022SOL     OW21964   5.490   4.772   0.284
 7022SOL    HW121965   5.547   4.782   0.202
 7022SOL    HW221966   5.402   4.732   0.259
 7023SOL     OW21967   6.561   3.763   2.740
 7023SOL    HW121968   6.504   3.724   2.813
 7023SOL    HW221969   6.539   3.719   2.653
 7024SOL     OW21970   0.914   6.184   0.823
 7024SOL    HW121971   0.838   6.147   0.876
 7024SOL    HW221972   0.941   6.273   0.861
 7025SOL     OW21973   2.622   1.818   6.279
 7025SOL    HW121974   2.571   1.874   6.344
 7025SOL    HW221975   2.596   1.722   6.290
 7026SOL     OW21976   4.198   1.811   0.861
 7026SOL    HW121977   4.120   1.834   0.803
 7026SOL    HW221978   4.188   1.717   0.894
 7027SOL     OW21979   4.593   6.813   4.277
 7027SOL    HW121980   4.518   6.868   4.315
 7027SOL    HW221981   4.596   6.826   4.178
 7028SOL     OW21982   3.837   0.754   4.618
 7028SOL    HW121983   3.930   0.717   4.620
 7028SOL    HW221984   3.772   0.678   4.626
 7029SOL     OW21985   4.023   0.560   5.760
 7029SOL    HW121986   4.023   0.545   5.661
 7029SOL    HW221987   4.117   0.564   5.794
 7030SOL     OW21988   1.534   3.387   4.384
 7030SOL    HW121989   1.573   3.451   4.318
 7030SOL    HW221990   1.606   3.352   4.443
 7031SOL     OW21991   2.553   6.025   4.116
 7031SOL    HW121992   2.642   6.070   4.121
 7031SOL    HW221993   2.555   5.955   4.045
 7032SOL     OW21994   6.039   1.764   2.308
 7032SOL    HW121995   6.025   1.665   2.305
 7032SOL    HW221996   6.017   1.803   2.219
 7033SOL     OW21997   6.781   0.711   3.955
 7033SOL    HW121998   6.710   0.730   3.888
 7033SOL    HW221999   6.770   0.772   4.034
 7034SOL     OW22000   6.187   6.338   2.646
 7034SOL    HW122001   6.246   6.344   2.726
 7034SOL    HW222002   6.178   6.242   2.619
 7035SOL     OW22003   6.391   5.791   1.506
 7035SOL    HW122004   6.472   5.816   1.558
 7035SOL    HW222005   6.412   5.796   1.408
 7036SOL     OW22006   0.111   4.741   1.799
 7036SOL    HW122007   0.035   4.677   1.797
 7036SOL    HW222008   0.113   4.793   1.713
 7037SOL     OW22009   1.197   6.443   6.500
 7037SOL    HW122010   1.254   6.516   6.538
 7037SOL    HW222011   1.214   6.359   6.551
 7038SOL     OW22012   0.818   4.167   4.213
 7038SOL    HW122013   0.783   4.080   4.181
 7038SOL    HW222014   0.848   4.158   4.308
 7039SOL     OW22015   3.753   1.012   0.340
 7039SOL    HW122016   3.710   1.101   0.349
 7039SOL    HW222017   3.801   1.007   0.253
 7040SOL     OW22018   4.952   2.557   6.364
 7040SOL    HW122019   4.881   2.523   6.425
 7040SOL    HW222020   4.933   2.525   6.271
 7041SOL     OW22021   2.140   2.370   2.222
 7041SOL    HW122022   2.178   2.311   2.151
 7041SOL    HW222023   2.056   2.412   2.187
 7042SOL     OW22024   2.672   6.587   6.913
 7042SOL    HW122025   2.703   6.579   6.819
 7042SOL    HW222026   2.751   6.601   6.974
 7043SOL     OW22027   2.275   1.735   2.962
 7043SOL    HW122028   2.245   1.709   3.054
 7043SOL    HW222029   2.312   1.828   2.964
 7044SOL     OW22030   4.845   5.314   2.699
 7044SOL    HW122031   4.758   5.305   2.748
 7044SOL    HW222032   4.827   5.336   2.603
 7045SOL     OW22033   5.467   5.823   1.148
 7045SOL    HW122034   5.461   5.750   1.080
 7045SOL    HW222035   5.377   5.864   1.161
 7046SOL     OW22036   3.806   0.701   4.933
 7046SOL    HW122037   3.746   0.774   4.965
 7046SOL    HW222038   3.804   0.698   4.833
 7047SOL     OW22039   1.672   1.009   4.828
 7047SOL    HW122040   1.682   1.108   4.826
 7047SOL    HW222041   1.682   0.972   4.736
 7048SOL     OW22042   6.622   6.087   0.221
 7048SOL    HW122043   6.525   6.081   0.241
 7048SOL    HW222044   6.650   6.008   0.167
 7049SOL     OW22045   2.380   1.324   0.310
 7049SOL    HW122046   2.347   1.236   0.344
 7049SOL    HW222047   2.408   1.314   0.214
 7050SOL     OW22048   3.806   3.714   4.636
 7050SOL    HW122049   3.740   3.704   4.561
 7050SOL    HW222050   3.888   3.660   4.616
 7051SOL     OW22051   6.894   6.374   2.277
 7051SOL    HW122052   6.944   6.336   2.199
 7051SOL    HW222053   6.934   6.462   2.302
 7052SOL     OW22054   6.957   1.998   3.393
 7052SOL    HW122055   6.950   2.089   3.352
 7052SOL    HW222056   6.953   1.928   3.322
 7053SOL     OW22057   0.539   4.868   6.649
 7053SOL    HW122058   0.479   4.878   6.569
 7053SOL    HW222059   0.536   4.952   6.703
 7054SOL     OW22060   6.987   6.737   1.874
 7054SOL    HW122061   7.011   6.721   1.970
 7054SOL    HW222062   0.042   6.791   1.831
 7055SOL     OW22063   3.525   0.233   4.702
 7055SOL    HW122064   3.504   0.328   4.724
 7055SOL    HW222065   3.588   0.196   4.770
 7056SOL     OW22066   5.422   5.045   4.134
 7056SOL    HW122067   5.376   5.035   4.222
 7056SOL    HW222068   5.370   4.999   4.063
 7057SOL     OW22069   0.408   5.670   3.444
 7057SOL    HW122070   0.336   5.671   3.374
 7057SOL    HW222071   0.496   5.684   3.401
 7058SOL     OW22072   1.058   5.331   5.498
 7058SOL    HW122073   1.076   5.264   5.426
 7058SOL    HW222074   1.014   5.411   5.458
 7059SOL     OW22075   1.282   0.166   2.127
 7059SOL    HW122076   1.222   0.195   2.202
 7059SOL    HW222077   1.377   0.173   2.155
 7060SOL     OW22078   3.377   6.278   1.192
 7060SOL    HW122079   3.333   6.300   1.105
 7060SOL    HW222080   3.455   6.218   1.176
 7061SOL     OW22081   0.704   0.880   2.840
 7061SOL    HW122082   0.755   0.793   2.837
 7061SOL    HW222083   0.683   0.909   2.747
 7062SOL     OW22084   5.576   2.200   4.624
 7062SOL    HW122085   5.643   2.226   4.554
 7062SOL    HW222086   5.488   2.183   4.580
 7063SOL     OW22087   3.879   6.647   1.012
 7063SOL    HW122088   3.957   6.652   1.074
 7063SOL    HW222089   3.797   6.621   1.064
 7064SOL     OW22090   3.876   2.528   0.805
 7064SOL    HW122091   3.906   2.568   0.719
 7064SOL    HW222092   3.803   2.584   0.844
 7065SOL     OW22093   4.460   3.794   1.021
 7065SOL    HW122094   4.432   3.859   0.950
 7065SOL    HW222095   4.534   3.833   1.075
 7066SOL     OW22096   3.434   6.780   0.850
 7066SOL    HW122097   3.370   6.707   0.875
 7066SOL    HW222098   3.413   6.813   0.758
 7067SOL     OW22099   0.231   3.817   5.504
 7067SOL    HW122100   0.263   3.906   5.536
 7067SOL    HW222101   0.169   3.830   5.426
 7068SOL     OW22102   1.913   1.118   3.922
 7068SOL    HW122103   1.864   1.100   4.008
 7068SOL    HW222104   1.940   1.031   3.880
 7069SOL     OW22105   1.323   4.702   4.683
 7069SOL    HW122106   1.404   4.667   4.635
 7069SOL    HW222107   1.348   4.725   4.777
 7070SOL     OW22108   5.854   5.491   4.813
 7070SOL    HW122109   5.854   5.581   4.855
 7070SOL    HW222110   5.900   5.495   4.724
 7071SOL     OW22111   1.596   6.147   5.789
 7071SOL    HW122112   1.681   6.155   5.738
 7071SOL    HW222113   1.519   6.147   5.725
 7072SOL     OW22114   0.599   6.630   6.569
 7072SOL    HW122115   0.633   6.535   6.565
 7072SOL    HW222116   0.591   6.658   6.664
 7073SOL     OW22117   0.858   0.429   5.868
 7073SOL    HW122118   0.937   0.491   5.858
 7073SOL    HW222119   0.794   0.445   5.794
 7074SOL     OW22120   3.372   1.945   1.577
 7074SOL    HW122121   3.389   1.965   1.481
 7074SOL    HW222122   3.291   1.887   1.585
 7075SOL     OW22123   1.830   6.115   3.022
 7075SOL    HW122124   1.796   6.129   3.115
 7075SOL    HW222125   1.789   6.032   2.984
 7076SOL     OW22126   2.823   2.529   6.688
 7076SOL    HW122127   2.907   2.489   6.724
 7076SOL    HW222128   2.840   2.566   6.597
 7077SOL     OW22129   2.739   5.461   5.598
 7077SOL    HW122130   2.813   5.415   5.549
 7077SOL    HW222131   2.775   5.503   5.681
 7078SOL     OW22132   5.974   0.811   3.455
 7078SOL    HW122133   6.000   0.726   3.502
 7078SOL    HW222134   5.920   0.867   3.517
 7079SOL     OW22135   6.068   6.130   5.819
 7079SOL    HW122136   6.038   6.199   5.753
 7079SOL    HW222137   5.990   6.072   5.843
 7080SOL     OW22138   4.605   1.389   3.940
 7080SOL    HW122139   4.596   1.372   4.038
 7080SOL    HW222140   4.551   1.469   3.915
 7081SOL     OW22141   3.614   1.527   4.824
 7081SOL    HW122142   3.567   1.458   4.769
 7081SOL    HW222143   3.685   1.484   4.879
 7082SOL     OW22144   5.161   0.770   6.191
 7082SOL    HW122145   5.088   0.714   6.230
 7082SOL    HW222146   5.225   0.796   6.263
 7083SOL     OW22147   3.208   6.825   6.868
 7083SOL    HW122148   3.198   6.850   6.772
 7083SOL    HW222149   3.235   6.729   6.875
 7084SOL     OW22150   6.575   6.507   5.826
 7084SOL    HW122151   6.570   6.529   5.923
 7084SOL    HW222152   6.531   6.418   5.810
 7085SOL     OW22153   2.533   2.308   1.561
 7085SOL    HW122154   2.608   2.326   1.625
 7085SOL    HW222155   2.469   2.243   1.603
 7086SOL     OW22156   5.969   0.095   6.705
 7086SOL    HW122157   5.888   0.145   6.737
 7086SOL    HW222158   6.041   0.103   6.773
 7087SOL     OW22159   1.407   3.319   3.711
 7087SOL    HW122160   1.461   3.393   3.671
 7087SOL    HW222161   1.348   3.280   3.641
 7088SOL     OW22162   6.169   3.021   5.265
 7088SOL    HW122163   6.253   3.014   5.318
 7088SOL    HW222164   6.177   2.967   5.182
 7089SOL     OW22165   2.755   1.528   0.277
 7089SOL    HW122166   2.729   1.458   0.210
 7089SOL    HW222167   2.678   1.589   0.293
 7090SOL     OW22168   2.633   2.137   5.142
 7090SOL    HW122169   2.663   2.183   5.225
 7090SOL    HW222170   2.708   2.082   5.105
 7091SOL     OW22171   6.918   6.410   7.000
 7091SOL    HW122172   7.002   6.462   0.000
 7091SOL    HW222173   6.862   6.408   0.065
 7092SOL     OW22174   3.450   3.782   1.054
 7092SOL    HW122175   3.389   3.833   1.115
 7092SOL    HW222176   3.456   3.687   1.086
 7093SOL     OW22177   3.379   4.181   4.540
 7093SOL    HW122178   3.291   4.159   4.583
 7093SOL    HW222179   3.373   4.163   4.442
 7094SOL     OW22180   0.697   0.454   5.631
 7094SOL    HW122181   0.611   0.428   5.674
 7094SOL    HW222182   0.716   0.394   5.554
 7095SOL     OW22183   0.583   3.076   6.683
 7095SOL    HW122184   0.659   3.132   6.649
 7095SOL    HW222185   0.552   3.014   6.610
 7096SOL     OW22186   4.632   2.226   3.308
 7096SOL    HW122187   4.696   2.275   3.367
 7096SOL    HW222188   4.669   2.136   3.286
 7097SOL     OW22189   0.136   0.856   1.360
 7097SOL    HW122190   0.161   0.760   1.362
 7097SOL    HW222191   0.065   0.874   1.429
 7098SOL     OW22192   1.697   6.407   6.009
 7098SOL    HW122193   1.752   6.448   6.081
 7098SOL    HW222194   1.710   6.307   6.011
 7099SOL     OW22195   1.075   1.112   6.345
 7099SOL    HW122196   1.078   1.014   6.329
 7099SOL    HW222197   0.985   1.137   6.382
 7100SOL     OW22198   5.825   3.607   1.022
 7100SOL    HW122199   5.910   3.633   1.067
 7100SOL    HW222200   5.752   3.670   1.049
 7101SOL     OW22201   3.030   0.752   5.419
 7101SOL    HW122202   3.126   0.722   5.426
 7101SOL    HW222203   3.013   0.786   5.327
 7102SOL     OW22204   4.255   1.567   0.908
 7102SOL    HW122205   4.257   1.495   0.838
 7102SOL    HW222206   4.320   1.545   0.980
 7103SOL     OW22207   3.220   6.535   6.832
 7103SOL    HW122208   3.151   6.469   6.802
 7103SOL    HW222209   3.279   6.493   6.901
 7104SOL     OW22210   0.747   2.151   2.846
 7104SOL    HW122211   0.715   2.175   2.938
 7104SOL    HW222212   0.825   2.208   2.822
 7105SOL     OW22213   3.447   3.444   4.909
 7105SOL    HW122214   3.380   3.379   4.944
 7105SOL    HW222215   3.461   3.428   4.811
 7106SOL     OW22216   3.124   2.886   5.202
 7106SOL    HW122217   3.165   2.945   5.132
 7106SOL    HW222218   3.189   2.813   5.225
 7107SOL     OW22219   2.746   2.302   0.127
 7107SOL    HW122220   2.789   2.243   0.195
 7107SOL    HW222221   2.679   2.361   0.172
 7108SOL     OW22222   5.517   6.941   1.606
 7108SOL    HW122223   5.478   7.009   1.667
 7108SOL    HW222224   5.506   6.850   1.645
 7109SOL     OW22225   3.613   6.982   6.543
 7109SOL    HW122226   3.700   6.991   6.592
 7109SOL    HW222227   3.614   0.023   6.463
 7110SOL     OW22228   4.757   5.145   3.691
 7110SOL    HW122229   4.668   5.190   3.694
 7110SOL    HW222230   4.769   5.101   3.602
 7111SOL     OW22231   2.348   2.693   4.047
 7111SOL    HW122232   2.297   2.613   4.016
 7111SOL    HW222233   2.343   2.764   3.977
 7112SOL     OW22234   0.743   6.717   3.465
 7112SOL    HW122235   0.783   6.785   3.403
 7112SOL    HW222236   0.807   6.698   3.539
 7113SOL     OW22237   4.117   3.364   4.503
 7113SOL    HW122238   4.123   3.459   4.532
 7113SOL    HW222239   4.135   3.357   4.405
 7114SOL     OW22240   4.056   0.920   1.456
 7114SOL    HW122241   3.979   0.934   1.394
 7114SOL    HW222242   4.118   0.998   1.452
 7115SOL     OW22243   4.874   1.685   1.361
 7115SOL    HW122244   4.842   1.634   1.441
 7115SOL    HW222245   4.894   1.779   1.387
 7116SOL     OW22246   5.370   4.156   3.011
 7116SOL    HW122247   5.321   4.211   2.944
 7116SOL    HW222248   5.314   4.146   3.093
 7117SOL     OW22249   6.310   6.695   1.863
 7117SOL    HW122250   6.245   6.623   1.887
 7117SOL    HW222251   6.400   6.655   1.846
 7118SOL     OW22252   6.315   3.241   1.141
 7118SOL    HW122253   6.402   3.235   1.189
 7118SOL    HW222254   6.245   3.192   1.191
 7119SOL     OW22255   6.843   1.642   3.380
 7119SOL    HW122256   6.938   1.618   3.399
 7119SOL    HW222257   6.825   1.633   3.282
 7120SOL     OW22258   4.675   1.228   3.469
 7120SOL    HW122259   4.696   1.289   3.392
 7120SOL    HW222260   4.759   1.189   3.504
 7121SOL     OW22261   3.252   6.628   3.412
 7121SOL    HW122262   3.317   6.570   3.462
 7121SOL    HW222263   3.241   6.592   3.319
 7122SOL     OW22264   6.382   0.780   7.016
 7122SOL    HW122265   6.375   0.879   7.013
 7122SOL    HW222266   6.325   0.740   6.945
 7123SOL     OW22267   2.788   5.173   1.112
 7123SOL    HW122268   2.700   5.193   1.068
 7123SOL    HW222269   2.827   5.258   1.148
 7124SOL     OW22270   0.326   5.032   0.732
 7124SOL    HW122271   0.424   5.018   0.748
 7124SOL    HW222272   0.297   5.117   0.774
 7125SOL     OW22273   6.140   6.238   2.326
 7125SOL    HW122274   6.050   6.281   2.315
 7125SOL    HW222275   6.211   6.300   2.294
 7126SOL     OW22276   1.149   4.577   0.580
 7126SOL    HW122277   1.097   4.523   0.515
 7126SOL    HW222278   1.161   4.526   0.665
 7127SOL     OW22279   3.875   6.279   4.454
 7127SOL    HW122280   3.818   6.285   4.372
 7127SOL    HW222281   3.858   6.191   4.499
 7128SOL     OW22282   3.343   3.963   1.318
 7128SOL    HW122283   3.261   3.906   1.326
 7128SOL    HW222284   3.396   3.957   1.403
 7129SOL     OW22285   2.212   6.922   1.914
 7129SOL    HW122286   2.286   6.854   1.916
 7129SOL    HW222287   2.251   7.013   1.934
 7130SOL     OW22288   2.101   4.217   3.708
 7130SOL    HW122289   2.148   4.157   3.644
 7130SOL    HW222290   2.162   4.291   3.737
 7131SOL     OW22291   2.523   0.808   3.258
 7131SOL    HW122292   2.451   0.877   3.269
 7131SOL    HW222293   2.536   0.788   3.161
 7132SOL     OW22294   3.673   3.951   3.176
 7132SOL    HW122295   3.737   3.940   3.100
 7132SOL    HW222296   3.717   4.005   3.249
 7133SOL     OW22297   5.172   5.220   3.193
 7133SOL    HW122298   5.238   5.229   3.267
 7133SOL    HW222299   5.101   5.290   3.202
 7134SOL     OW22300   5.706   4.601   4.481
 7134SOL    HW122301   5.631   4.538   4.464
 7134SOL    HW222302   5.791   4.550   4.493
 7135SOL     OW22303   0.917   2.052   4.796
 7135SOL    HW122304   0.951   1.970   4.843
 7135SOL    HW222305   0.989   2.122   4.795
 7136SOL     OW22306   2.009   1.133   0.375
 7136SOL    HW122307   1.944   1.071   0.331
 7136SOL    HW222308   2.075   1.164   0.307
 7137SOL     OW22309   4.662   0.639   4.654
 7137SOL    HW122310   4.731   0.566   4.654
 7137SOL    HW222311   4.582   0.609   4.602
 7138SOL     OW22312   2.190   4.016   1.241
 7138SOL    HW122313   2.173   4.092   1.179
 7138SOL    HW222314   2.286   4.017   1.270
 7139SOL     OW22315   4.239   2.810   1.365
 7139SOL    HW122316   4.218   2.760   1.449
 7139SOL    HW222317   4.321   2.772   1.323
 7140SOL     OW22318   6.078   4.152   5.278
 7140SOL    HW122319   6.094   4.084   5.349
 7140SOL    HW222320   6.050   4.239   5.321
 7141SOL     OW22321   2.708   6.680   0.630
 7141SOL    HW122322   2.682   6.586   0.651
 7141SOL    HW222323   2.758   6.682   0.544
 7142SOL     OW22324   4.129   6.231   4.151
 7142SOL    HW122325   4.222   6.193   4.142
 7142SOL    HW222326   4.115   6.263   4.245
 7143SOL     OW22327   1.362   4.237   5.598
 7143SOL    HW122328   1.361   4.148   5.553
 7143SOL    HW222329   1.450   4.282   5.584
 7144SOL     OW22330   0.900   2.194   3.406
 7144SOL    HW122331   0.987   2.229   3.440
 7144SOL    HW222332   0.825   2.239   3.454
 7145SOL     OW22333   4.578   6.978   6.720
 7145SOL    HW122334   4.664   6.961   6.768
 7145SOL    HW222335   4.559   6.901   6.658
 7146SOL     OW22336   3.310   5.478   0.696
 7146SOL    HW122337   3.407   5.461   0.681
 7146SOL    HW222338   3.298   5.533   0.779
 7147SOL     OW22339   0.540   0.533   3.071
 7147SOL    HW122340   0.458   0.481   3.048
 7147SOL    HW222341   0.532   0.568   3.165
 7148SOL     OW22342   1.031   0.913   1.716
 7148SOL    HW122343   1.019   0.982   1.786
 7148SOL    HW222344   1.105   0.940   1.654
 7149SOL     OW22345   6.365   1.487   3.466
 7149SOL    HW122346   6.355   1.580   3.502
 7149SOL    HW222347   6.394   1.491   3.371
 7150SOL     OW22348   6.572   2.823   7.014
 7150SOL    HW122349   6.622   2.883   0.059
 7150SOL    HW222350   6.561   2.870   6.926
 7151SOL     OW22351   2.981   5.897   1.901
 7151SOL    HW122352   2.932   5.832   1.959
 7151SOL    HW222353   2.988   5.985   1.948
 7152SOL     OW22354   1.450   2.617   3.734
 7152SOL    HW122355   1.527   2.555   3.751
 7152SOL    HW222356   1.466   2.703   3.783
 7153SOL     OW22357   3.558   1.466   3.991
 7153SOL    HW122358   3.621   1.391   3.973
 7153SOL    HW222359   3.585   1.514   4.074
 7154SOL     OW22360   4.369   5.119   3.926
 7154SOL    HW122361   4.449   5.074   3.967
 7154SOL    HW222362   4.302   5.140   3.998
 7155SOL     OW22363   1.970   0.341   1.202
 7155SOL    HW122364   1.997   0.436   1.186
 7155SOL    HW222365   2.053   0.285   1.212
 7156SOL     OW22366   6.922   5.640   4.857
 7156SOL    HW122367   6.896   5.573   4.787
 7156SOL    HW222368   7.011   5.679   4.833
 7157SOL     OW22369   5.009   4.738   0.933
 7157SOL    HW122370   4.941   4.714   0.864
 7157SOL    HW222371   5.099   4.742   0.892
 7158SOL     OW22372   6.377   6.831   3.049
 7158SOL    HW122373   6.305   6.780   3.002
 7158SOL    HW222374   6.409   6.779   3.128
 7159SOL     OW22375   0.863   5.477   0.713
 7159SOL    HW122376   0.877   5.381   0.689
 7159SOL    HW222377   0.794   5.517   0.652
 7160SOL     OW22378   6.023   0.159   2.124
 7160SOL    HW122379   5.929   0.125   2.116
 7160SOL    HW222380   6.069   0.112   2.199
 7161SOL     OW22381   3.668   3.186   4.084
 7161SOL    HW122382   3.692   3.278   4.055
 7161SOL    HW222383   3.691   3.121   4.011
 7162SOL     OW22384   3.476   4.971   3.482
 7162SOL    HW122385   3.436   5.061   3.497
 7162SOL    HW222386   3.477   4.950   3.384
 7163SOL     OW22387   2.625   0.043   3.383
 7163SOL    HW122388   2.608   7.002   3.305
 7163SOL    HW222389   2.708   0.096   3.369
 7164SOL     OW22390   2.126   0.930   3.201
 7164SOL    HW122391   2.195   0.969   3.140
 7164SOL    HW222392   2.058   1.000   3.223
 7165SOL     OW22393   5.100   1.255   0.911
 7165SOL    HW122394   5.036   1.259   0.988
 7165SOL    HW222395   5.189   1.290   0.939
 7166SOL     OW22396   5.325   5.029   1.028
 7166SOL    HW122397   5.333   4.953   1.093
 7166SOL    HW222398   5.405   5.088   1.035
 7167SOL     OW22399   4.901   3.378   5.220
 7167SOL    HW122400   4.827   3.423   5.170
 7167SOL    HW222401   4.976   3.358   5.158
 7168SOL     OW22402   1.344   0.349   3.879
 7168SOL    HW122403   1.358   0.253   3.852
 7168SOL    HW222404   1.301   0.352   3.969
 7169SOL     OW22405   1.324   2.423   5.203
 7169SOL    HW122406   1.261   2.500   5.189
 7169SOL    HW222407   1.413   2.458   5.232
 7170SOL     OW22408   6.171   4.956   4.172
 7170SOL    HW122409   6.124   5.033   4.215
 7170SOL    HW222410   6.128   4.871   4.200
 7171SOL     OW22411   4.275   3.243   5.352
 7171SOL    HW122412   4.308   3.338   5.355
 7171SOL    HW222413   4.189   3.240   5.301
 7172SOL     OW22414   1.396   6.953   0.190
 7172SOL    HW122415   1.456   6.914   0.120
 7172SOL    HW222416   1.358   6.879   0.246
 7173SOL     OW22417   6.946   6.310   5.714
 7173SOL    HW122418   0.011   6.278   5.759
 7173SOL    HW222419   6.967   6.390   5.658
 7174SOL     OW22420   1.392   5.408   0.379
 7174SOL    HW122421   1.375   5.351   0.299
 7174SOL    HW222422   1.490   5.430   0.384
 7175SOL     OW22423   6.302   3.780   6.250
 7175SOL    HW122424   6.249   3.741   6.325
 7175SOL    HW222425   6.393   3.804   6.282
 7176SOL     OW22426   6.070   4.350   0.730
 7176SOL    HW122427   6.087   4.348   0.632
 7176SOL    HW222428   5.991   4.292   0.751
 7177SOL     OW22429   0.920   5.345   2.157
 7177SOL    HW122430   0.999   5.285   2.163
 7177SOL    HW222431   0.908   5.393   2.244
 7178SOL     OW22432   0.878   2.519   5.199
 7178SOL    HW122433   0.976   2.539   5.192
 7178SOL    HW222434   0.829   2.602   5.225
 7179SOL     OW22435   2.809   3.748   5.752
 7179SOL    HW122436   2.874   3.681   5.787
 7179SOL    HW222437   2.845   3.790   5.669
 7180SOL     OW22438   0.654   5.769   2.353
 7180SOL    HW122439   0.742   5.773   2.400
 7180SOL    HW222440   0.667   5.731   2.261
 7181SOL     OW22441   5.180   0.465   1.320
 7181SOL    HW122442   5.185   0.365   1.325
 7181SOL    HW222443   5.119   0.491   1.245
 7182SOL     OW22444   2.737   4.093   5.688
 7182SOL    HW122445   2.656   4.055   5.734
 7182SOL    HW222446   2.819   4.051   5.726
 7183SOL     OW22447   1.368   5.116   2.682
 7183SOL    HW122448   1.465   5.128   2.702
 7183SOL    HW222449   1.314   5.178   2.740
 7184SOL     OW22450   2.501   6.627   4.268
 7184SOL    HW122451   2.421   6.601   4.214
 7184SOL    HW222452   2.580   6.575   4.237
 7185SOL     OW22453   4.696   2.570   0.011
 7185SOL    HW122454   4.779   2.567   0.065
 7185SOL    HW222455   4.616   2.573   0.071
 7186SOL     OW22456   0.130   6.069   5.276
 7186SOL    HW122457   0.131   6.161   5.238
 7186SOL    HW222458   0.037   6.046   5.305
 7187SOL     OW22459   2.029   4.188   1.842
 7187SOL    HW122460   2.116   4.237   1.834
 7187SOL    HW222461   2.046   4.095   1.874
 7188SOL     OW22462   5.106   1.801   2.277
 7188SOL    HW122463   5.170   1.735   2.238
 7188SOL    HW222464   5.157   1.879   2.313
 7189SOL     OW22465   6.839   1.073   5.530
 7189SOL    HW122466   6.814   1.135   5.456
 7189SOL    HW222467   6.871   0.986   5.491
 7190SOL     OW22468   5.531   4.525   3.243
 7190SOL    HW122469   5.559   4.621   3.251
 7190SOL    HW222470   5.447   4.519   3.190
 7191SOL     OW22471   1.670   3.537   1.949
 7191SOL    HW122472   1.700   3.456   1.998
 7191SOL    HW222473   1.707   3.619   1.993
 7192SOL     OW22474   2.585   4.082   6.025
 7192SOL    HW122475   2.597   4.006   5.961
 7192SOL    HW222476   2.665   4.088   6.085
 7193SOL     OW22477   4.007   2.209   3.503
 7193SOL    HW122478   3.960   2.234   3.419
 7193SOL    HW222479   3.974   2.120   3.534
 7194SOL     OW22480   2.560   1.424   1.993
 7194SOL    HW122481   2.655   1.451   1.976
 7194SOL    HW222482   2.509   1.504   2.025
 7195SOL     OW22483   1.111   5.589   1.088
 7195SOL    HW122484   1.067   5.641   1.015
 7195SOL    HW222485   1.105   5.640   1.173
 7196SOL     OW22486   3.137   3.584   2.414
 7196SOL    HW122487   3.043   3.553   2.405
 7196SOL    HW222488   3.149   3.668   2.361
 7197SOL     OW22489   6.865   1.827   5.866
 7197SOL    HW122490   6.937   1.847   5.800
 7197SOL    HW222491   6.808   1.752   5.833
 7198SOL     OW22492   0.883   6.429   6.775
 7198SOL    HW122493   0.883   6.332   6.799
 7198SOL    HW222494   0.897   6.439   6.677
 7199SOL     OW22495   6.286   6.664   2.698
 7199SOL    HW122496   6.355   6.735   2.683
 7199SOL    HW222497   6.296   6.592   2.629
 7200SOL     OW22498   1.997   1.056   1.094
 7200SOL    HW122499   2.035   1.023   1.180
 7200SOL    HW222500   2.066   1.048   1.022
 7201SOL     OW22501   1.850   4.209   3.660
 7201SOL    HW122502   1.945   4.202   3.691
 7201SOL    HW222503   1.792   4.150   3.716
 7202SOL     OW22504   3.846   0.936   6.647
 7202SOL    HW122505   3.750   0.919   6.625
 7202SOL    HW222506   3.879   0.865   6.709
 7203SOL     OW22507   5.384   1.214   0.297
 7203SOL    HW122508   5.309   1.148   0.289
 7203SOL    HW222509   5.413   1.221   0.392
 7204SOL     OW22510   6.034   1.382   3.587
 7204SOL    HW122511   6.128   1.373   3.620
 7204SOL    HW222512   5.979   1.430   3.655
 7205SOL     OW22513   2.420   4.893   2.425
 7205SOL    HW122514   2.510   4.920   2.457
 7205SOL    HW222515   2.398   4.943   2.341
 7206SOL     OW22516   6.161   0.832   1.479
 7206SOL    HW122517   6.071   0.853   1.516
 7206SOL    HW222518   6.188   0.904   1.414
 7207SOL     OW22519   3.727   0.304   1.906
 7207SOL    HW122520   3.734   0.257   1.818
 7207SOL    HW222521   3.799   0.373   1.913
 7208SOL     OW22522   3.192   6.988   5.790
 7208SOL    HW122523   3.156   6.994   5.697
 7208SOL    HW222524   3.184   0.059   5.835
 7209SOL     OW22525   3.903   3.499   4.278
 7209SOL    HW122526   3.970   3.565   4.244
 7209SOL    HW222527   3.812   3.525   4.247
 7210SOL     OW22528   4.957   1.567   4.206
 7210SOL    HW122529   5.043   1.607   4.235
 7210SOL    HW222530   4.906   1.632   4.149
 7211SOL     OW22531   1.784   5.220   3.392
 7211SOL    HW122532   1.695   5.212   3.348
 7211SOL    HW222533   1.793   5.310   3.434
 7212SOL     OW22534   6.151   6.552   3.903
 7212SOL    HW122535   6.068   6.603   3.926
 7212SOL    HW222536   6.181   6.578   3.811
 7213SOL     OW22537   6.003   0.889   5.758
 7213SOL    HW122538   5.968   0.800   5.787
 7213SOL    HW222539   6.101   0.882   5.739
 7214SOL     OW22540   2.010   5.088   4.578
 7214SOL    HW122541   1.987   5.177   4.541
 7214SOL    HW222542   2.104   5.089   4.613
 7215SOL     OW22543   0.959   3.639   3.747
 7215SOL    HW122544   1.033   3.602   3.691
 7215SOL    HW222545   0.983   3.731   3.778
 7216SOL     OW22546   2.582   0.340   0.568
 7216SOL    HW122547   2.652   0.404   0.539
 7216SOL    HW222548   2.550   0.288   0.489
 7217SOL     OW22549   1.116   2.926   2.201
 7217SOL    HW122550   1.091   2.944   2.297
 7217SOL    HW222551   1.209   2.959   2.184
 7218SOL     OW22552   5.058   3.082   5.655
 7218SOL    HW122553   5.092   3.170   5.688
 7218SOL    HW222554   4.984   3.050   5.714
 7219SOL     OW22555   3.761   0.956   2.695
 7219SOL    HW122556   3.696   0.922   2.627
 7219SOL    HW222557   3.780   1.053   2.677
 7220SOL     OW22558   6.491   1.080   2.811
 7220SOL    HW122559   6.487   1.015   2.887
 7220SOL    HW222560   6.475   1.032   2.725
 7221SOL     OW22561   5.262   4.986   6.409
 7221SOL    HW122562   5.196   4.971   6.483
 7221SOL    HW222563   5.333   4.915   6.413
 7222SOL     OW22564   0.256   5.910   1.566
 7222SOL    HW122565   0.198   5.965   1.506
 7222SOL    HW222566   0.315   5.850   1.511
 7223SOL     OW22567   3.393   1.057   5.524
 7223SOL    HW122568   3.490   1.056   5.549
 7223SOL    HW222569   3.340   1.098   5.597
 7224SOL     OW22570   5.313   6.843   4.954
 7224SOL    HW122571   5.321   6.926   5.009
 7224SOL    HW222572   5.231   6.848   4.898
 7225SOL     OW22573   2.081   6.515   6.911
 7225SOL    HW122574   2.125   6.433   6.875
 7225SOL    HW222575   2.009   6.489   6.976
 7226SOL     OW22576   0.144   6.540   0.694
 7226SOL    HW122577   0.074   6.469   0.701
 7226SOL    HW222578   0.229   6.500   0.662
 7227SOL     OW22579   0.135   2.549   6.937
 7227SOL    HW122580   0.059   2.492   6.904
 7227SOL    HW222581   0.199   2.565   6.862
 7228SOL     OW22582   0.976   0.640   2.387
 7228SOL    HW122583   0.937   0.587   2.312
 7228SOL    HW222584   1.004   0.730   2.354
 7229SOL     OW22585   0.640   0.384   4.070
 7229SOL    HW122586   0.609   0.346   3.983
 7229SOL    HW222587   0.587   0.342   4.145
 7230SOL     OW22588   5.201   4.147   3.243
 7230SOL    HW122589   5.132   4.082   3.212
 7230SOL    HW222590   5.210   4.142   3.342
 7231SOL     OW22591   5.952   1.102   6.457
 7231SOL    HW122592   5.972   1.188   6.505
 7231SOL    HW222593   5.870   1.115   6.400
 7232SOL     OW22594   4.279   4.648   1.771
 7232SOL    HW122595   4.340   4.627   1.847
 7232SOL    HW222596   4.328   4.702   1.703
 7233SOL     OW22597   6.764   2.267   6.585
 7233SOL    HW122598   6.727   2.303   6.671
 7233SOL    HW222599   6.836   2.327   6.552
 7234SOL     OW22600   6.365   1.678   1.978
 7234SOL    HW122601   6.329   1.681   1.885
 7234SOL    HW222602   6.317   1.608   2.030
 7235SOL     OW22603   5.556   3.624   5.271
 7235SOL    HW122604   5.582   3.554   5.338
 7235SOL    HW222605   5.478   3.591   5.218
 7236SOL     OW22606   3.293   0.363   2.954
 7236SOL    HW122607   3.267   0.428   2.882
 7236SOL    HW222608   3.392   0.352   2.954
 7237SOL     OW22609   6.034   5.545   5.728
 7237SOL    HW122610   6.099   5.515   5.798
 7237SOL    HW222611   5.993   5.632   5.757
 7238SOL     OW22612   1.923   1.738   1.085
 7238SOL    HW122613   1.857   1.735   1.160
 7238SOL    HW222614   1.924   1.651   1.037
 7239SOL     OW22615   3.684   1.702   1.458
 7239SOL    HW122616   3.593   1.660   1.465
 7239SOL    HW222617   3.729   1.698   1.547
 7240SOL     OW22618   2.508   4.485   0.604
 7240SOL    HW122619   2.510   4.388   0.580
 7240SOL    HW222620   2.413   4.516   0.606
 7241SOL     OW22621   3.942   0.063   5.180
 7241SOL    HW122622   3.894   7.010   5.129
 7241SOL    HW222623   4.041   0.053   5.165
 7242SOL     OW22624   5.313   4.825   0.014
 7242SOL    HW122625   5.406   4.857   0.032
 7242SOL    HW222626   5.312   4.771   6.947
 7243SOL     OW22627   0.305   5.614   0.582
 7243SOL    HW122628   0.238   5.680   0.616
 7243SOL    HW222629   0.364   5.658   0.514
 7244SOL     OW22630   5.991   1.111   1.672
 7244SOL    HW122631   5.925   1.050   1.629
 7244SOL    HW222632   6.071   1.058   1.701
 7245SOL     OW22633   7.007   2.069   3.644
 7245SOL    HW122634   0.030   1.991   3.690
 7245SOL    HW222635   6.959   2.037   3.562
 7246SOL     OW22636   0.186   6.298   5.856
 7246SOL    HW122637   0.227   6.362   5.791
 7246SOL    HW222638   0.234   6.304   5.943
 7247SOL     OW22639   3.257   5.339   2.876
 7247SOL    HW122640   3.306   5.294   2.801
 7247SOL    HW222641   3.322   5.388   2.934
 7248SOL     OW22642   3.560   0.588   4.651
 7248SOL    HW122643   3.534   0.543   4.566
 7248SOL    HW222644   3.505   0.670   4.664
 7249SOL     OW22645   6.463   5.669   6.675
 7249SOL    HW122646   6.492   5.720   6.756
 7249SOL    HW222647   6.539   5.613   6.642
 7250SOL     OW22648   2.922   4.459   6.504
 7250SOL    HW122649   2.871   4.375   6.521
 7250SOL    HW222650   2.949   4.500   6.591
 7251SOL     OW22651   5.768   7.014   5.114
 7251SOL    HW122652   5.734   0.006   5.021
 7251SOL    HW222653   5.827   0.073   5.137
 7252SOL     OW22654   3.733   3.554   4.852
 7252SOL    HW122655   3.717   3.461   4.819
 7252SOL    HW222656   3.766   3.611   4.777
 7253SOL     OW22657   5.308   6.206   1.518
 7253SOL    HW122658   5.345   6.203   1.425
 7253SOL    HW222659   5.283   6.300   1.541
 7254SOL     OW22660   4.562   6.025   5.181
 7254SOL    HW122661   4.524   6.017   5.273
 7254SOL    HW222662   4.627   5.951   5.165
 7255SOL     OW22663   3.667   3.970   2.366
 7255SOL    HW122664   3.643   4.000   2.274
 7255SOL    HW222665   3.728   3.891   2.361
 7256SOL     OW22666   4.589   4.931   4.357
 7256SOL    HW122667   4.617   4.836   4.367
 7256SOL    HW222668   4.498   4.943   4.396
 7257SOL     OW22669   5.818   4.062   3.155
 7257SOL    HW122670   5.748   3.994   3.178
 7257SOL    HW222671   5.806   4.091   3.060
 7258SOL     OW22672   3.774   6.891   4.636
 7258SOL    HW122673   3.833   6.971   4.645
 7258SOL    HW222674   3.696   6.900   4.698
 7259SOL     OW22675   2.355   5.238   6.139
 7259SOL    HW122676   2.452   5.229   6.120
 7259SOL    HW222677   2.342   5.284   6.227
 7260SOL     OW22678   3.752   1.796   1.993
 7260SOL    HW122679   3.775   1.890   1.969
 7260SOL    HW222680   3.760   1.784   2.092
 7261SOL     OW22681   1.392   3.744   2.051
 7261SOL    HW122682   1.344   3.782   1.973
 7261SOL    HW222683   1.447   3.665   2.022
 7262SOL     OW22684   6.452   1.896   5.122
 7262SOL    HW122685   6.496   1.970   5.173
 7262SOL    HW222686   6.354   1.913   5.116
 7263SOL     OW22687   3.713   6.391   1.705
 7263SOL    HW122688   3.686   6.470   1.650
 7263SOL    HW222689   3.636   6.328   1.712
 7264SOL     OW22690   0.715   6.825   5.637
 7264SOL    HW122691   0.627   6.836   5.590
 7264SOL    HW222692   0.763   6.913   5.639
 7265SOL     OW22693   4.378   4.682   5.848
 7265SOL    HW122694   4.311   4.746   5.887
 7265SOL    HW222695   4.388   4.603   5.908
 7266SOL     OW22696   5.774   1.223   2.364
 7266SOL    HW122697   5.707   1.240   2.292
 7266SOL    HW222698   5.847   1.163   2.329
 7267SOL     OW22699   6.962   4.209   4.100
 7267SOL    HW122700   6.983   4.186   4.005
 7267SOL    HW222701   6.967   4.308   4.113
 7268SOL     OW22702   3.099   6.903   1.523
 7268SOL    HW122703   3.035   6.835   1.486
 7268SOL    HW222704   3.193   6.869   1.513
 7269SOL     OW22705   1.226   6.634   1.563
 7269SOL    HW122706   1.247   6.637   1.465
 7269SOL    HW222707   1.145   6.578   1.577
 7270SOL     OW22708   3.324   1.021   2.684
 7270SOL    HW122709   3.241   1.037   2.737
 7270SOL    HW222710   3.404   1.028   2.743
 7271SOL     OW22711   6.821   3.990   3.444
 7271SOL    HW122712   6.739   3.949   3.407
 7271SOL    HW222713   6.901   3.956   3.395
 7272SOL     OW22714   5.501   2.361   1.173
 7272SOL    HW122715   5.561   2.367   1.253
 7272SOL    HW222716   5.425   2.299   1.192
 7273SOL     OW22717   5.604   4.684   6.734
 7273SOL    HW122718   5.617   4.595   6.777
 7273SOL    HW222719   5.678   4.745   6.761
 7274SOL     OW22720   0.041   4.731   5.373
 7274SOL    HW122721   0.113   4.747   5.441
 7274SOL    HW222722   0.044   4.636   5.343
 7275SOL     OW22723   6.045   0.028   1.094
 7275SOL    HW122724   6.014   0.086   1.019
 7275SOL    HW222725   6.113   6.982   1.060
 7276SOL     OW22726   2.900   1.887   3.552
 7276SOL    HW122727   2.832   1.957   3.574
 7276SOL    HW222728   2.853   1.801   3.532
 7277SOL     OW22729   5.639   1.443   4.719
 7277SOL    HW122730   5.638   1.468   4.816
 7277SOL    HW222731   5.616   1.522   4.663
 7278SOL     OW22732   2.291   1.443   3.001
 7278SOL    HW122733   2.279   1.539   2.976
 7278SOL    HW222734   2.382   1.431   3.041
 7279SOL     OW22735   4.836   4.372   0.999
 7279SOL    HW122736   4.863   4.288   1.047
 7279SOL    HW222737   4.912   4.405   0.944
 7280SOL     OW22738   6.154   2.202   5.512
 7280SOL    HW122739   6.202   2.269   5.454
 7280SOL    HW222740   6.123   2.126   5.456
 7281SOL     OW22741   4.421   5.430   1.827
 7281SOL    HW122742   4.434   5.517   1.779
 7281SOL    HW222743   4.425   5.446   1.926
 7282SOL     OW22744   6.515   4.026   2.631
 7282SOL    HW122745   6.541   3.938   2.672
 7282SOL    HW222746   6.442   4.068   2.685
 7283SOL     OW22747   4.160   4.887   2.886
 7283SOL    HW122748   4.163   4.830   2.968
 7283SOL    HW222749   4.230   4.855   2.821
 7284SOL     OW22750   0.032   1.876   3.044
 7284SOL    HW122751   7.002   1.917   2.966
 7284SOL    HW222752   0.029   1.776   3.036
 7285SOL     OW22753   5.021   3.062   1.867
 7285SOL    HW122754   4.925   3.080   1.890
 7285SOL    HW222755   5.068   3.149   1.851
 7286SOL     OW22756   0.286   1.418   3.023
 7286SOL    HW122757   0.359   1.386   2.963
 7286SOL    HW222758   0.209   1.353   3.020
 7287SOL     OW22759   1.958   2.184   3.306
 7287SOL    HW122760   1.861   2.206   3.321
 7287SOL    HW222761   1.982   2.202   3.210
 7288SOL     OW22762   2.694   1.909   2.742
 7288SOL    HW122763   2.756   1.986   2.755
 7288SOL    HW222764   2.605   1.930   2.783
 7289SOL     OW22765   6.409   1.618   1.253
 7289SOL    HW122766   6.424   1.587   1.158
 7289SOL    HW222767   6.322   1.667   1.258
 7290SOL     OW22768   3.529   1.269   5.365
 7290SOL    HW122769   3.565   1.337   5.429
 7290SOL    HW222770   3.451   1.222   5.407
 7291SOL     OW22771   3.460   1.427   0.697
 7291SOL    HW122772   3.509   1.346   0.731
 7291SOL    HW222773   3.367   1.427   0.732
 7292SOL     OW22774   2.677   0.547   2.628
 7292SOL    HW122775   2.746   0.617   2.611
 7292SOL    HW222776   2.689   0.473   2.562
 7293SOL     OW22777   0.373   1.766   4.076
 7293SOL    HW122778   0.334   1.771   3.984
 7293SOL    HW222779   0.380   1.858   4.114
 7294SOL     OW22780   3.478   6.572   2.587
 7294SOL    HW122781   3.436   6.663   2.587
 7294SOL    HW222782   3.428   6.512   2.650
 7295SOL     OW22783   6.355   5.345   1.832
 7295SOL    HW122784   6.344   5.371   1.735
 7295SOL    HW222785   6.360   5.428   1.888
 7296SOL     OW22786   4.909   4.795   2.162
 7296SOL    HW122787   4.829   4.844   2.196
 7296SOL    HW222788   4.982   4.860   2.141
 7297SOL     OW22789   4.201   6.907   1.522
 7297SOL    HW122790   4.232   6.812   1.512
 7297SOL    HW222791   4.262   6.955   1.586
 7298SOL     OW22792   3.992   5.139   6.594
 7298SOL    HW122793   4.014   5.084   6.675
 7298SOL    HW222794   4.017   5.089   6.511
 7299SOL     OW22795   1.279   2.463   5.998
 7299SOL    HW122796   1.199   2.520   5.978
 7299SOL    HW222797   1.254   2.393   6.065
 7300SOL     OW22798   0.510   4.907   2.309
 7300SOL    HW122799   0.502   4.811   2.282
 7300SOL    HW222800   0.423   4.953   2.293
 7301SOL     OW22801   4.703   2.018   5.790
 7301SOL    HW122802   4.664   2.109   5.772
 7301SOL    HW222803   4.687   1.959   5.712
 7302SOL     OW22804   5.529   1.976   6.135
 7302SOL    HW122805   5.556   1.882   6.158
 7302SOL    HW222806   5.542   2.034   6.215
 7303SOL     OW22807   2.692   1.551   1.723
 7303SOL    HW122808   2.742   1.592   1.647
 7303SOL    HW222809   2.754   1.535   1.799
 7304SOL     OW22810   2.685   5.517   1.400
 7304SOL    HW122811   2.674   5.615   1.417
 7304SOL    HW222812   2.616   5.487   1.334
 7305SOL     OW22813   6.383   1.283   0.650
 7305SOL    HW122814   6.297   1.231   0.653
 7305SOL    HW222815   6.460   1.220   0.657
 7306SOL     OW22816   0.276   2.580   1.177
 7306SOL    HW122817   0.294   2.537   1.266
 7306SOL    HW222818   0.180   2.605   1.171
 7307SOL     OW22819   2.512   0.157   1.045
 7307SOL    HW122820   2.473   0.097   1.114
 7307SOL    HW222821   2.610   0.138   1.036
 7308SOL     OW22822   4.755   1.202   2.968
 7308SOL    HW122823   4.789   1.296   2.964
 7308SOL    HW222824   4.756   1.163   2.876
 7309SOL     OW22825   2.596   5.111   3.427
 7309SOL    HW122826   2.513   5.061   3.449
 7309SOL    HW222827   2.652   5.058   3.363
 7310SOL     OW22828   2.189   2.868   5.968
 7310SOL    HW122829   2.286   2.844   5.960
 7310SOL    HW222830   2.138   2.792   6.007
 7311SOL     OW22831   0.082   6.237   6.864
 7311SOL    HW122832   0.141   6.262   6.788
 7311SOL    HW222833   7.013   6.287   6.857
 7312SOL     OW22834   6.517   1.955   4.020
 7312SOL    HW122835   6.555   2.043   4.049
 7312SOL    HW222836   6.563   1.925   3.936
 7313SOL     OW22837   2.545   0.822   2.712
 7313SOL    HW122838   2.562   0.729   2.681
 7313SOL    HW222839   2.618   0.882   2.679
 7314SOL     OW22840   0.239   4.114   6.276
 7314SOL    HW122841   0.306   4.079   6.211
 7314SOL    HW222842   0.162   4.050   6.282
 7315SOL     OW22843   1.821   4.959   2.222
 7315SOL    HW122844   1.868   5.047   2.224
 7315SOL    HW222845   1.839   4.914   2.135
 7316SOL     OW22846   3.077   2.337   1.131
 7316SOL    HW122847   3.091   2.431   1.099
 7316SOL    HW222848   3.157   2.307   1.183
 7317SOL     OW22849   3.716   1.651   0.396
 7317SOL    HW122850   3.737   1.610   0.484
 7317SOL    HW222851   3.617   1.656   0.384
 7318SOL     OW22852   4.873   6.118   1.054
 7318SOL    HW122853   4.936   6.043   1.073
 7318SOL    HW222854   4.815   6.094   0.976
 7319SOL     OW22855   5.710   5.448   6.590
 7319SOL    HW122856   5.762   5.374   6.546
 7319SOL    HW222857   5.773   5.508   6.639
 7320SOL     OW22858   0.030   2.219   1.408
 7320SOL    HW122859   0.031   2.120   1.395
 7320SOL    HW222860   0.047   2.264   1.320
 7321SOL     OW22861   1.325   0.899   0.208
 7321SOL    HW122862   1.344   0.943   0.295
 7321SOL    HW222863   1.359   0.805   0.210
 7322SOL     OW22864   0.986   2.704   2.758
 7322SOL    HW122865   1.072   2.747   2.730
 7322SOL    HW222866   0.990   2.680   2.855
 7323SOL     OW22867   0.766   2.729   1.142
 7323SOL    HW122868   0.774   2.683   1.231
 7323SOL    HW222869   0.816   2.816   1.145
 7324SOL     OW22870   5.803   4.424   3.231
 7324SOL    HW122871   5.780   4.344   3.286
 7324SOL    HW222872   5.721   4.480   3.216
 7325SOL     OW22873   4.581   0.919   5.959
 7325SOL    HW122874   4.570   1.016   5.981
 7325SOL    HW222875   4.648   0.909   5.886
 7326SOL     OW22876   3.428   0.333   0.183
 7326SOL    HW122877   3.430   0.235   0.164
 7326SOL    HW222878   3.335   0.368   0.169
 7327SOL     OW22879   1.439   4.392   3.251
 7327SOL    HW122880   1.362   4.456   3.256
 7327SOL    HW222881   1.446   4.340   3.336
 7328SOL     OW22882   4.485   5.349   4.601
 7328SOL    HW122883   4.549   5.275   4.619
 7328SOL    HW222884   4.536   5.432   4.576
 7329SOL     OW22885   3.407   3.488   1.112
 7329SOL    HW122886   3.341   3.453   1.178
 7329SOL    HW222887   3.403   3.433   1.028
 7330SOL     OW22888   2.752   3.288   1.654
 7330SOL    HW122889   2.665   3.333   1.638
 7330SOL    HW222890   2.827   3.349   1.627
 7331SOL     OW22891   5.576   2.462   2.368
 7331SOL    HW122892   5.490   2.440   2.413
 7331SOL    HW222893   5.639   2.504   2.433
 7332SOL     OW22894   3.554   6.131   5.874
 7332SOL    HW122895   3.472   6.167   5.831
 7332SOL    HW222896   3.612   6.089   5.804
 7333SOL     OW22897   0.867   0.945   0.589
 7333SOL    HW122898   0.956   0.984   0.564
 7333SOL    HW222899   0.807   1.017   0.624
 7334SOL     OW22900   2.885   6.619   4.275
 7334SOL    HW122901   2.969   6.671   4.288
 7334SOL    HW222902   2.868   6.561   4.355
 7335SOL     OW22903   6.189   3.478   1.731
 7335SOL    HW122904   6.226   3.524   1.651
 7335SOL    HW222905   6.197   3.537   1.811
 7336SOL     OW22906   2.018   6.626   1.802
 7336SOL    HW122907   1.976   6.678   1.876
 7336SOL    HW222908   1.948   6.572   1.755
 7337SOL     OW22909   2.407   1.762   3.262
 7337SOL    HW122910   2.482   1.711   3.219
 7337SOL    HW222911   2.429   1.778   3.358
 7338SOL     OW22912   5.153   3.284   1.540
 7338SOL    HW122913   5.133   3.276   1.442
 7338SOL    HW222914   5.087   3.345   1.583
 7339SOL     OW22915   6.765   5.724   4.484
 7339SOL    HW122916   6.732   5.818   4.477
 7339SOL    HW222917   6.852   5.715   4.437
 7340SOL     OW22918   2.504   6.823   1.053
 7340SOL    HW122919   2.467   6.873   1.132
 7340SOL    HW222920   2.589   6.777   1.080
 7341SOL     OW22921   6.363   5.354   4.439
 7341SOL    HW122922   6.455   5.389   4.418
 7341SOL    HW222923   6.303   5.372   4.361
 7342SOL     OW22924   1.225   5.358   1.495
 7342SOL    HW122925   1.295   5.396   1.436
 7342SOL    HW222926   1.191   5.272   1.456
 7343SOL     OW22927   5.188   3.104   2.821
 7343SOL    HW122928   5.107   3.054   2.852
 7343SOL    HW222929   5.270   3.051   2.842
 7344SOL     OW22930   2.180   1.173   0.152
 7344SOL    HW122931   2.217   1.104   0.090
 7344SOL    HW222932   2.150   1.253   0.099
 7345SOL     OW22933   3.767   5.560   0.296
 7345SOL    HW122934   3.715   5.632   0.250
 7345SOL    HW222935   3.729   5.471   0.274
 7346SOL     OW22936   3.985   4.697   1.840
 7346SOL    HW122937   3.970   4.607   1.800
 7346SOL    HW222938   4.083   4.717   1.841
 7347SOL     OW22939   5.804   2.433   3.132
 7347SOL    HW122940   5.890   2.447   3.083
 7347SOL    HW222941   5.771   2.340   3.115
 7348SOL     OW22942   0.722   2.382   4.150
 7348SOL    HW122943   0.800   2.404   4.208
 7348SOL    HW222944   0.644   2.355   4.207
 7349SOL     OW22945   3.916   1.440   0.522
 7349SOL    HW122946   3.983   1.494   0.471
 7349SOL    HW222947   3.938   1.444   0.620
 7350SOL     OW22948   2.427   0.740   3.015
 7350SOL    HW122949   2.416   0.652   2.970
 7350SOL    HW222950   2.450   0.809   2.946
 7351SOL     OW22951   3.810   4.799   6.917
 7351SOL    HW122952   3.805   4.760   6.825
 7351SOL    HW222953   3.812   4.725   6.984
 7352SOL     OW22954   6.529   1.213   3.181
 7352SOL    HW122955   6.605   1.148   3.186
 7352SOL    HW222956   6.444   1.163   3.162
 7353SOL     OW22957   5.060   2.577   4.691
 7353SOL    HW122958   5.160   2.571   4.691
 7353SOL    HW222959   5.024   2.537   4.608
 7354SOL     OW22960   6.110   4.117   5.644
 7354SOL    HW122961   6.137   4.135   5.738
 7354SOL    HW222962   6.192   4.116   5.586
 7355SOL     OW22963   1.490   4.608   1.981
 7355SOL    HW122964   1.432   4.675   1.934
 7355SOL    HW222965   1.434   4.530   2.010
 7356SOL     OW22966   6.004   1.832   5.685
 7356SOL    HW122967   6.103   1.838   5.670
 7356SOL    HW222968   5.985   1.844   5.782
 7357SOL     OW22969   6.679   1.673   0.192
 7357SOL    HW122970   6.731   1.747   0.235
 7357SOL    HW222971   6.706   1.586   0.232
 7358SOL     OW22972   3.171   0.689   4.382
 7358SOL    HW122973   3.167   0.751   4.304
 7358SOL    HW222974   3.079   0.654   4.402
 7359SOL     OW22975   3.873   3.489   3.296
 7359SOL    HW122976   3.915   3.431   3.366
 7359SOL    HW222977   3.793   3.535   3.335
 7360SOL     OW22978   0.267   2.334   5.968
 7360SOL    HW122979   0.245   2.387   6.050
 7360SOL    HW222980   0.196   2.349   5.899
 7361SOL     OW22981   5.318   0.002   2.740
 7361SOL    HW122982   5.415   0.020   2.728
 7361SOL    HW222983   5.294   0.010   2.837
 7362SOL     OW22984   1.457   6.356   5.875
 7362SOL    HW122985   1.488   6.266   5.844
 7362SOL    HW222986   1.523   6.394   5.939
 7363SOL     OW22987   5.037   2.818   6.387
 7363SOL    HW122988   5.009   2.724   6.364
 7363SOL    HW222989   5.115   2.844   6.330
 7364SOL     OW22990   5.292   0.339   1.725
 7364SOL    HW122991   5.324   0.398   1.652
 7364SOL    HW222992   5.207   0.294   1.697
 7365SOL     OW22993   3.535   0.616   2.045
 7365SOL    HW122994   3.481   0.534   2.024
 7365SOL    HW222995   3.478   0.697   2.031
 7366SOL     OW22996   0.622   5.904   0.589
 7366SOL    HW122997   0.573   5.837   0.644
 7366SOL    HW222998   0.655   5.861   0.505
 7367SOL     OW22999   4.878   3.707   0.152
 7367SOL    HW123000   4.897   3.622   0.202
 7367SOL    HW223001   4.789   3.701   0.107
 7368SOL     OW23002   3.463   3.795   3.598
 7368SOL    HW123003   3.443   3.885   3.560
 7368SOL    HW223004   3.559   3.772   3.579
 7369SOL     OW23005   4.172   2.127   6.998
 7369SOL    HW123006   4.201   2.047   6.945
 7369SOL    HW223007   4.113   2.097   0.055
 7370SOL     OW23008   1.936   5.725   1.431
 7370SOL    HW123009   2.001   5.797   1.454
 7370SOL    HW223010   1.931   5.659   1.506
 7371SOL     OW23011   2.633   5.251   4.855
 7371SOL    HW123012   2.606   5.166   4.900
 7371SOL    HW223013   2.579   5.263   4.772
 7372SOL     OW23014   3.339   6.770   6.204
 7372SOL    HW123015   3.335   6.796   6.108
 7372SOL    HW223016   3.274   6.695   6.221
 7373SOL     OW23017   3.530   0.675   1.301
 7373SOL    HW123018   3.511   0.694   1.205
 7373SOL    HW223019   3.518   0.758   1.355
 7374SOL     OW23020   1.416   3.076   5.941
 7374SOL    HW123021   1.318   3.081   5.923
 7374SOL    HW223022   1.444   3.156   5.996
 7375SOL     OW23023   0.806   0.235   3.371
 7375SOL    HW123024   0.791   0.148   3.323
 7375SOL    HW223025   0.894   0.232   3.417
 7376SOL     OW23026   2.969   4.059   5.859
 7376SOL    HW123027   3.034   4.003   5.807
 7376SOL    HW223028   3.006   4.076   5.951
 7377SOL     OW23029   4.416   4.536   1.189
 7377SOL    HW123030   4.450   4.616   1.239
 7377SOL    HW223031   4.393   4.463   1.253
 7378SOL     OW23032   6.744   1.207   5.290
 7378SOL    HW123033   6.724   1.144   5.214
 7378SOL    HW223034   6.674   1.277   5.295
 7379SOL     OW23035   3.135   1.458   1.717
 7379SOL    HW123036   3.123   1.440   1.619
 7379SOL    HW223037   3.081   1.392   1.769
 7380SOL     OW23038   6.993   3.344   5.422
 7380SOL    HW123039   6.954   3.261   5.463
 7380SOL    HW223040   6.920   3.411   5.408
 7381SOL     OW23041   5.643   2.488   0.591
 7381SOL    HW123042   5.718   2.496   0.657
 7381SOL    HW223043   5.563   2.447   0.636
 7382SOL     OW23044   0.318   6.042   3.429
 7382SOL    HW123045   0.409   6.022   3.392
 7382SOL    HW223046   0.308   6.000   3.519
 7383SOL     OW23047   0.083   6.170   3.506
 7383SOL    HW123048   0.168   6.129   3.470
 7383SOL    HW223049   0.048   6.235   3.439
 7384SOL     OW23050   6.030   1.081   2.617
 7384SOL    HW123051   6.002   0.995   2.576
 7384SOL    HW223052   5.949   1.132   2.646
 7385SOL     OW23053   5.189   6.760   1.596
 7385SOL    HW123054   5.120   6.832   1.601
 7385SOL    HW223055   5.242   6.771   1.511
 7386SOL     OW23056   0.352   2.505   5.623
 7386SOL    HW123057   0.341   2.512   5.524
 7386SOL    HW223058   0.264   2.526   5.667
 7387SOL     OW23059   4.049   5.759   3.512
 7387SOL    HW123060   3.984   5.748   3.588
 7387SOL    HW223061   4.031   5.846   3.465
 7388SOL     OW23062   6.716   4.942   3.864
 7388SOL    HW123063   6.651   5.001   3.817
 7388SOL    HW223064   6.737   4.980   3.954
 7389SOL     OW23065   1.068   3.947   6.159
 7389SOL    HW123066   0.977   3.910   6.179
 7389SOL    HW223067   1.131   3.872   6.139
 7390SOL     OW23068   2.343   6.491   5.359
 7390SOL    HW123069   2.293   6.437   5.427
 7390SOL    HW223070   2.398   6.561   5.406
 7391SOL     OW23071   6.409   3.057   6.761
 7391SOL    HW123072   6.495   3.004   6.757
 7391SOL    HW223073   6.430   3.154   6.766
 7392SOL     OW23074   2.452   4.480   3.744
 7392SOL    HW123075   2.382   4.501   3.675
 7392SOL    HW223076   2.543   4.494   3.704
 7393SOL     OW23077   0.267   3.885   1.776
 7393SOL    HW123078   0.356   3.893   1.822
 7393SOL    HW223079   0.276   3.916   1.682
 7394SOL     OW23080   3.175   3.646   6.258
 7394SOL    HW123081   3.084   3.604   6.253
 7394SOL    HW223082   3.167   3.745   6.240
 7395SOL     OW23083   1.714   6.370   0.405
 7395SOL    HW123084   1.771   6.442   0.366
 7395SOL    HW223085   1.621   6.376   0.368
 7396SOL     OW23086   1.103   0.196   6.918
 7396SOL    HW123087   1.054   0.111   6.937
 7396SOL    HW223088   1.061   0.241   6.838
 7397SOL     OW23089   6.189   5.330   4.850
 7397SOL    HW123090   6.263   5.262   4.853
 7397SOL    HW223091   6.208   5.397   4.779
 7398SOL     OW23092   4.002   5.188   3.367
 7398SOL    HW123093   4.020   5.192   3.268
 7398SOL    HW223094   4.027   5.276   3.409
 7399SOL     OW23095   4.778   4.057   5.218
 7399SOL    HW123096   4.833   4.137   5.195
 7399SOL    HW223097   4.681   4.081   5.218
 7400SOL     OW23098   2.064   5.126   6.248
 7400SOL    HW123099   2.008   5.162   6.322
 7400SOL    HW223100   2.109   5.042   6.277
 7401SOL     OW23101   6.334   1.794   4.357
 7401SOL    HW123102   6.424   1.825   4.324
 7401SOL    HW223103   6.339   1.698   4.382
 7402SOL     OW23104   2.601   0.204   3.704
 7402SOL    HW123105   2.648   0.243   3.783
 7402SOL    HW223106   2.597   0.272   3.631
 7403SOL     OW23107   1.773   3.078   1.893
 7403SOL    HW123108   1.789   2.997   1.949
 7403SOL    HW223109   1.696   3.062   1.831
 7404SOL     OW23110   1.174   1.110   2.083
 7404SOL    HW123111   1.107   1.138   2.015
 7404SOL    HW223112   1.265   1.110   2.041
 7405SOL     OW23113   2.574   4.698   6.367
 7405SOL    HW123114   2.659   4.750   6.359
 7405SOL    HW223115   2.568   4.632   6.292
 7406SOL     OW23116   0.301   5.051   1.533
 7406SOL    HW123117   0.268   5.100   1.453
 7406SOL    HW223118   0.232   4.985   1.563
 7407SOL     OW23119   2.076   6.777   6.338
 7407SOL    HW123120   2.021   6.860   6.339
 7407SOL    HW223121   2.061   6.726   6.423
 7408SOL     OW23122   0.830   3.943   5.608
 7408SOL    HW123123   0.756   3.956   5.542
 7408SOL    HW223124   0.914   3.917   5.560
 7409SOL     OW23125   3.165   4.858   5.905
 7409SOL    HW123126   3.094   4.928   5.901
 7409SOL    HW223127   3.147   4.787   5.838
 7410SOL     OW23128   6.188   4.783   0.804
 7410SOL    HW123129   6.277   4.808   0.767
 7410SOL    HW223130   6.187   4.686   0.827
 7411SOL     OW23131   4.708   5.781   5.148
 7411SOL    HW123132   4.781   5.749   5.208
 7411SOL    HW223133   4.651   5.704   5.120
 7412SOL     OW23134   1.102   1.854   0.190
 7412SOL    HW123135   1.004   1.853   0.207
 7412SOL    HW223136   1.120   1.897   0.101
 7413SOL     OW23137   6.779   3.093   4.990
 7413SOL    HW123138   6.827   3.074   4.904
 7413SOL    HW223139   6.840   3.143   5.051
 7414SOL     OW23140   6.641   5.419   3.196
 7414SOL    HW123141   6.599   5.390   3.110
 7414SOL    HW223142   6.570   5.443   3.262
 7415SOL     OW23143   1.982   2.311   2.705
 7415SOL    HW123144   2.000   2.373   2.781
 7415SOL    HW223145   2.043   2.231   2.712
 7416SOL     OW23146   4.692   6.594   4.369
 7416SOL    HW123147   4.634   6.668   4.335
 7416SOL    HW223148   4.771   6.583   4.310
 7417SOL     OW23149   0.936   6.507   0.647
 7417SOL    HW123150   0.903   6.598   0.672
 7417SOL    HW223151   0.900   6.482   0.557
 7418SOL     OW23152   1.539   3.289   0.800
 7418SOL    HW123153   1.475   3.241   0.740
 7418SOL    HW223154   1.576   3.369   0.752
 7419SOL     OW23155   6.537   1.191   5.067
 7419SOL    HW123156   6.618   1.209   5.010
 7419SOL    HW223157   6.512   1.095   5.060
 7420SOL     OW23158   0.099   5.531   1.920
 7420SOL    HW123159   0.121   5.597   1.849
 7420SOL    HW223160   0.154   5.448   1.907
 7421SOL     OW23161   3.998   3.234   0.903
 7421SOL    HW123162   3.981   3.255   0.999
 7421SOL    HW223163   4.084   3.275   0.874
 7422SOL     OW23164   0.872   3.176   0.649
 7422SOL    HW123165   0.869   3.272   0.678
 7422SOL    HW223166   0.952   3.132   0.690
 7423SOL     OW23167   2.087   6.119   7.001
 7423SOL    HW123168   2.135   6.177   6.935
 7423SOL    HW223169   2.045   6.177   0.053
 7424SOL     OW23170   5.634   1.460   4.130
 7424SOL    HW123171   5.626   1.367   4.165
 7424SOL    HW223172   5.638   1.458   4.030
 7425SOL     OW23173   3.588   5.779   6.011
 7425SOL    HW123174   3.526   5.725   5.955
 7425SOL    HW223175   3.682   5.752   5.993
 7426SOL     OW23176   1.023   1.193   6.797
 7426SOL    HW123177   1.059   1.280   6.832
 7426SOL    HW223178   1.003   1.132   6.874
 7427SOL     OW23179   4.248   5.166   4.195
 7427SOL    HW123180   4.269   5.205   4.285
 7427SOL    HW223181   4.256   5.066   4.200
 7428SOL     OW23182   3.243   1.928   5.688
 7428SOL    HW123183   3.242   2.026   5.670
 7428SOL    HW223184   3.337   1.895   5.685
 7429SOL     OW23185   6.077   6.917   3.539
 7429SOL    HW123186   6.089   6.958   3.629
 7429SOL    HW223187   6.133   6.965   3.472
 7430SOL     OW23188   6.497   3.952   5.082
 7430SOL    HW123189   6.596   3.962   5.068
 7430SOL    HW223190   6.480   3.907   5.169
 7431SOL     OW23191   1.178   4.108   1.992
 7431SOL    HW123192   1.108   4.108   2.062
 7431SOL    HW223193   1.144   4.156   1.911
 7432SOL     OW23194   0.660   6.109   5.127
 7432SOL    HW123195   0.631   6.180   5.062
 7432SOL    HW223196   0.648   6.019   5.085
 7433SOL     OW23197   6.103   5.912   0.988
 7433SOL    HW123198   6.192   5.898   1.031
 7433SOL    HW223199   6.115   5.930   0.891
 7434SOL     OW23200   4.386   1.049   6.299
 7434SOL    HW123201   4.322   1.042   6.223
 7434SOL    HW223202   4.424   1.141   6.302
 7435SOL     OW23203   2.448   6.072   0.399
 7435SOL    HW123204   2.507   6.139   0.445
 7435SOL    HW223205   2.445   5.989   0.454
 7436SOL     OW23206   5.104   2.729   0.662
 7436SOL    HW123207   5.132   2.801   0.600
 7436SOL    HW223208   5.151   2.644   0.638
 7437SOL     OW23209   0.471   5.694   6.172
 7437SOL    HW123210   0.489   5.647   6.086
 7437SOL    HW223211   0.500   5.789   6.164
 7438SOL     OW23212   6.570   4.694   1.600
 7438SOL    HW123213   6.481   4.671   1.639
 7438SOL    HW223214   6.639   4.692   1.673
 7439SOL     OW23215   1.156   6.710   3.381
 7439SOL    HW123216   1.173   6.637   3.314
 7439SOL    HW223217   1.214   6.788   3.360
 7440SOL     OW23218   1.564   2.089   3.838
 7440SOL    HW123219   1.574   2.082   3.739
 7440SOL    HW223220   1.643   2.137   3.876
 7441SOL     OW23221   5.556   0.216   4.026
 7441SOL    HW123222   5.615   0.169   4.091
 7441SOL    HW223223   5.544   0.311   4.054
 7442SOL     OW23224   1.751   1.409   6.983
 7442SOL    HW123225   1.713   1.414   6.891
 7442SOL    HW223226   1.838   1.362   6.981
 7443SOL     OW23227   0.141   0.673   0.469
 7443SOL    HW123228   0.046   0.640   0.473
 7443SOL    HW223229   0.156   0.741   0.541
 7444SOL     OW23230   0.264   2.541   6.219
 7444SOL    HW123231   0.322   2.584   6.150
 7444SOL    HW223232   0.193   2.606   6.248
 7445SOL     OW23233   5.403   2.578   1.924
 7445SOL    HW123234   5.459   2.551   1.846
 7445SOL    HW223235   5.394   2.502   1.987
 7446SOL     OW23236   6.539   3.209   1.284
 7446SOL    HW123237   6.551   3.171   1.376
 7446SOL    HW223238   6.628   3.221   1.240
 7447SOL     OW23239   0.829   4.575   5.730
 7447SOL    HW123240   0.747   4.558   5.785
 7447SOL    HW223241   0.838   4.503   5.661
 7448SOL     OW23242   0.008   6.720   5.876
 7448SOL    HW123243   0.043   6.730   5.783
 7448SOL    HW223244   0.082   6.691   5.937
 7449SOL     OW23245   5.252   2.003   2.357
 7449SOL    HW123246   5.281   2.071   2.289
 7449SOL    HW223247   5.332   1.958   2.395
 7450SOL     OW23248   3.604   0.977   3.129
 7450SOL    HW123249   3.657   0.998   3.047
 7450SOL    HW223250   3.506   0.991   3.110
 7451SOL     OW23251   2.090   0.673   4.374
 7451SOL    HW123252   2.100   0.770   4.394
 7451SOL    HW223253   1.994   0.653   4.354
 7452SOL     OW23254   1.855   6.481   5.474
 7452SOL    HW123255   1.847   6.382   5.476
 7452SOL    HW223256   1.913   6.508   5.397
 7453SOL     OW23257   6.178   6.100   5.168
 7453SOL    HW123258   6.265   6.083   5.123
 7453SOL    HW223259   6.106   6.043   5.126
 7454SOL     OW23260   0.522   3.520   0.911
 7454SOL    HW123261   0.620   3.512   0.927
 7454SOL    HW223262   0.504   3.519   0.812
 7455SOL     OW23263   4.908   2.410   0.229
 7455SOL    HW123264   4.879   2.354   0.151
 7455SOL    HW223265   4.834   2.412   0.297
 7456SOL     OW23266   2.067   3.775   4.620
 7456SOL    HW123267   2.121   3.822   4.689
 7456SOL    HW223268   2.095   3.805   4.528
 7457SOL     OW23269   5.812   0.834   6.008
 7457SOL    HW123270   5.818   0.873   6.100
 7457SOL    HW223271   5.810   0.908   5.941
 7458SOL     OW23272   2.675   1.391   0.059
 7458SOL    HW123273   2.630   1.302   0.054
 7458SOL    HW223274   2.610   1.463   0.037
 7459SOL     OW23275   4.677   0.856   4.383
 7459SOL    HW123276   4.723   0.936   4.421
 7459SOL    HW223277   4.589   0.843   4.429
 7460SOL     OW23278   0.617   4.731   0.040
 7460SOL    HW123279   0.704   4.692   0.070
 7460SOL    HW223280   0.551   4.727   0.115
 7461SOL     OW23281   5.133   0.773   4.407
 7461SOL    HW123282   5.041   0.745   4.380
 7461SOL    HW223283   5.155   0.861   4.366
 7462SOL     OW23284   2.436   1.686   2.033
 7462SOL    HW123285   2.457   1.779   2.064
 7462SOL    HW223286   2.413   1.688   1.936
 7463SOL     OW23287   3.498   3.483   2.744
 7463SOL    HW123288   3.570   3.545   2.715
 7463SOL    HW223289   3.501   3.474   2.844
 7464SOL     OW23290   5.480   6.122   0.672
 7464SOL    HW123291   5.417   6.155   0.602
 7464SOL    HW223292   5.429   6.098   0.755
 7465SOL     OW23293   2.866   0.598   2.020
 7465SOL    HW123294   2.772   0.632   2.033
 7465SOL    HW223295   2.873   0.506   2.057
 7466SOL     OW23296   0.837   0.520   6.545
 7466SOL    HW123297   0.788   0.460   6.482
 7466SOL    HW223298   0.775   0.552   6.616
 7467SOL     OW23299   6.668   1.365   1.121
 7467SOL    HW123300   6.689   1.400   1.212
 7467SOL    HW223301   6.750   1.324   1.081
 7468SOL     OW23302   6.507   2.894   2.908
 7468SOL    HW123303   6.461   2.806   2.893
 7468SOL    HW223304   6.468   2.939   2.988
 7469SOL     OW23305   0.537   1.501   1.779
 7469SOL    HW123306   0.611   1.541   1.725
 7469SOL    HW223307   0.519   1.558   1.859
 7470SOL     OW23308   6.799   2.654   2.254
 7470SOL    HW123309   6.771   2.740   2.297
 7470SOL    HW223310   6.893   2.662   2.221
 7471SOL     OW23311   5.997   6.323   5.646
 7471SOL    HW123312   6.057   6.272   5.584
 7471SOL    HW223313   5.903   6.319   5.612
 7472SOL     OW23314   3.435   0.017   3.024
 7472SOL    HW123315   3.473   0.054   2.939
 7472SOL    HW223316   3.489   6.956   3.053
 7473SOL     OW23317   6.813   3.734   4.568
 7473SOL    HW123318   6.808   3.814   4.628
 7473SOL    HW223319   6.873   3.666   4.609
 7474SOL     OW23320   3.891   1.061   3.333
 7474SOL    HW123321   3.815   1.057   3.268
 7474SOL    HW223322   3.958   1.127   3.300
 7475SOL     OW23323   3.903   1.284   1.017
 7475SOL    HW123324   3.807   1.303   1.036
 7475SOL    HW223325   3.929   1.197   1.059
 7476SOL     OW23326   4.212   6.957   4.858
 7476SOL    HW123327   4.170   6.870   4.882
 7476SOL    HW223328   4.205   0.003   4.935
 7477SOL     OW23329   4.471   2.026   3.900
 7477SOL    HW123330   4.427   2.082   3.971
 7477SOL    HW223331   4.536   2.083   3.849
 7478SOL     OW23332   1.179   4.736   1.046
 7478SOL    HW123333   1.205   4.731   1.143
 7478SOL    HW223334   1.258   4.713   0.989
 7479SOL     OW23335   4.578   0.570   6.703
 7479SOL    HW123336   4.485   0.606   6.693
 7479SOL    HW223337   4.633   0.635   6.756
 7480SOL     OW23338   6.909   5.375   1.087
 7480SOL    HW123339   6.822   5.336   1.058
 7480SOL    HW223340   6.908   5.474   1.073
 7481SOL     OW23341   5.795   5.260   1.074
 7481SOL    HW123342   5.863   5.326   1.106
 7481SOL    HW223343   5.774   5.277   0.978
 7482SOL     OW23344   5.035   0.316   3.852
 7482SOL    HW123345   5.020   0.340   3.756
 7482SOL    HW223346   5.094   0.385   3.894
 7483SOL     OW23347   3.562   0.722   5.997
 7483SOL    HW123348   3.592   0.683   6.084
 7483SOL    HW223349   3.639   0.725   5.934
 7484SOL     OW23350   1.711   6.920   2.287
 7484SOL    HW123351   1.710   6.911   2.387
 7484SOL    HW223352   1.621   6.899   2.251
 7485SOL     OW23353   1.648   6.374   6.499
 7485SOL    HW123354   1.612   6.461   6.467
 7485SOL    HW223355   1.747   6.377   6.502
 7486SOL     OW23356   2.413   6.715   5.471
 7486SOL    HW123357   2.350   6.760   5.407
 7486SOL    HW223358   2.363   6.689   5.554
 7487SOL     OW23359   3.687   5.984   3.917
 7487SOL    HW123360   3.643   5.897   3.895
 7487SOL    HW223361   3.753   6.007   3.846
 7488SOL     OW23362   4.020   0.889   5.810
 7488SOL    HW123363   3.929   0.847   5.811
 7488SOL    HW223364   4.011   0.987   5.794
 7489SOL     OW23365   5.550   3.783   3.488
 7489SOL    HW123366   5.604   3.847   3.434
 7489SOL    HW223367   5.480   3.741   3.431
 7490SOL     OW23368   5.501   1.330   1.720
 7490SOL    HW123369   5.436   1.296   1.653
 7490SOL    HW223370   5.480   1.292   1.810
 7491SOL     OW23371   7.005   5.417   6.635
 7491SOL    HW123372   0.055   5.351   6.602
 7491SOL    HW223373   0.033   5.503   6.659
 7492SOL     OW23374   1.639   2.752   4.297
 7492SOL    HW123375   1.705   2.800   4.354
 7492SOL    HW223376   1.547   2.762   4.337
 7493SOL     OW23377   4.865   3.509   6.674
 7493SOL    HW123378   4.962   3.527   6.693
 7493SOL    HW223379   4.814   3.595   6.681
 7494SOL     OW23380   5.395   0.952   1.867
 7494SOL    HW123381   5.429   0.971   1.775
 7494SOL    HW223382   5.407   1.033   1.925
 7495SOL     OW23383   1.175   1.771   1.343
 7495SOL    HW123384   1.215   1.684   1.372
 7495SOL    HW223385   1.077   1.771   1.365
 7496SOL     OW23386   0.865   4.903   5.963
 7496SOL    HW123387   0.766   4.897   5.975
 7496SOL    HW223388   0.910   4.871   6.047
 7497SOL     OW23389   1.820   4.334   1.840
 7497SOL    HW123390   1.908   4.288   1.848
 7497SOL    HW223391   1.764   4.285   1.772
 7498SOL     OW23392   3.711   1.815   4.213
 7498SOL    HW123393   3.614   1.813   4.235
 7498SOL    HW223394   3.764   1.786   4.293
 7499SOL     OW23395   5.122   6.402   4.356
 7499SOL    HW123396   5.053   6.388   4.285
 7499SOL    HW223397   5.170   6.317   4.374
 7500SOL     OW23398   5.262   4.882   1.315
 7500SOL    HW123399   5.261   4.913   1.410
 7500SOL    HW223400   5.319   4.800   1.307
 7501SOL     OW23401   0.307   4.223   4.166
 7501SOL    HW123402   0.317   4.144   4.105
 7501SOL    HW223403   0.266   4.299   4.115
 7502SOL     OW23404   1.893   1.607   4.786
 7502SOL    HW123405   1.981   1.644   4.818
 7502SOL    HW223406   1.908   1.554   4.703
 7503SOL     OW23407   2.658   2.056   6.754
 7503SOL    HW123408   2.703   2.129   6.805
 7503SOL    HW223409   2.671   2.071   6.656
 7504SOL     OW23410   4.129   6.170   3.189
 7504SOL    HW123411   4.077   6.229   3.127
 7504SOL    HW223412   4.225   6.198   3.190
 7505SOL     OW23413   1.656   2.273   5.154
 7505SOL    HW123414   1.646   2.371   5.171
 7505SOL    HW223415   1.719   2.234   5.221
 7506SOL     OW23416   3.409   1.439   2.925
 7506SOL    HW123417   3.427   1.520   2.981
 7506SOL    HW223418   3.353   1.374   2.976
 7507SOL     OW23419   1.066   6.077   5.784
 7507SOL    HW123420   1.029   6.024   5.861
 7507SOL    HW223421   1.011   6.061   5.702
 7508SOL     OW23422   5.328   0.302   3.366
 7508SOL    HW123423   5.340   0.275   3.461
 7508SOL    HW223424   5.366   0.232   3.306
 7509SOL     OW23425   4.676   4.124   5.872
 7509SOL    HW123426   4.690   4.081   5.783
 7509SOL    HW223427   4.751   4.188   5.891
 7510SOL     OW23428   3.486   4.039   4.865
 7510SOL    HW123429   3.513   4.090   4.783
 7510SOL    HW223430   3.466   3.944   4.840
 7511SOL     OW23431   0.837   0.806   2.010
 7511SOL    HW123432   0.860   0.903   2.001
 7511SOL    HW223433   0.898   0.763   2.076
 7512SOL     OW23434   1.786   2.816   1.700
 7512SOL    HW123435   1.793   2.760   1.783
 7512SOL    HW223436   1.696   2.802   1.659
 7513SOL     OW23437   1.347   2.430   6.808
 7513SOL    HW123438   1.405   2.485   6.867
 7513SOL    HW223439   1.399   2.398   6.728
 7514SOL     OW23440   2.517   5.856   2.851
 7514SOL    HW123441   2.425   5.858   2.891
 7514SOL    HW223442   2.578   5.913   2.906
 7515SOL     OW23443   6.198   5.562   2.158
 7515SOL    HW123444   6.264   5.593   2.090
 7515SOL    HW223445   6.157   5.476   2.127
 7516SOL     OW23446   0.255   1.065   3.634
 7516SOL    HW123447   0.247   0.976   3.679
 7516SOL    HW223448   0.350   1.096   3.638
 7517SOL     OW23449   0.682   3.793   1.693
 7517SOL    HW123450   0.615   3.822   1.625
 7517SOL    HW223451   0.643   3.802   1.785
 7518SOL     OW23452   4.940   5.570   3.839
 7518SOL    HW123453   4.899   5.517   3.765
 7518SOL    HW223454   5.024   5.613   3.807
 7519SOL     OW23455   2.554   6.129   3.573
 7519SOL    HW123456   2.493   6.207   3.591
 7519SOL    HW223457   2.648   6.162   3.571
 7520SOL     OW23458   1.778   6.330   3.898
 7520SOL    HW123459   1.730   6.287   3.822
 7520SOL    HW223460   1.772   6.429   3.889
 7521SOL     OW23461   4.694   4.245   5.590
 7521SOL    HW123462   4.769   4.287   5.538
 7521SOL    HW223463   4.616   4.307   5.592
 7522SOL     OW23464   2.133   0.926   1.317
 7522SOL    HW123465   2.222   0.972   1.318
 7522SOL    HW223466   2.128   0.861   1.393
 7523SOL     OW23467   5.569   0.313   6.759
 7523SOL    HW123468   5.518   0.233   6.791
 7523SOL    HW223469   5.657   0.318   6.807
 7524SOL     OW23470   0.032   1.215   4.976
 7524SOL    HW123471   0.118   1.243   5.017
 7524SOL    HW223472   0.048   1.180   4.884
 7525SOL     OW23473   1.262   0.141   0.656
 7525SOL    HW123474   1.277   0.157   0.558
 7525SOL    HW223475   1.277   0.226   0.706
 7526SOL     OW23476   3.438   2.852   4.813
 7526SOL    HW123477   3.363   2.786   4.811
 7526SOL    HW223478   3.516   2.813   4.861
 7527SOL     OW23479   5.613   4.930   3.500
 7527SOL    HW123480   5.688   4.895   3.557
 7527SOL    HW223481   5.548   4.981   3.558
 7528SOL     OW23482   6.249   3.318   6.471
 7528SOL    HW123483   6.229   3.338   6.375
 7528SOL    HW223484   6.171   3.272   6.513
 7529SOL     OW23485   3.003   1.350   6.458
 7529SOL    HW123486   3.005   1.292   6.540
 7529SOL    HW223487   2.963   1.299   6.383
 7530SOL     OW23488   0.788   3.774   2.500
 7530SOL    HW123489   0.853   3.850   2.495
 7530SOL    HW223490   0.722   3.782   2.425
 7531SOL     OW23491   3.911   2.124   3.264
 7531SOL    HW123492   3.845   2.084   3.327
 7531SOL    HW223493   3.867   2.136   3.174
 7532SOL     OW23494   5.369   5.468   2.340
 7532SOL    HW123495   5.275   5.435   2.345
 7532SOL    HW223496   5.394   5.511   2.427
 7533SOL     OW23497   3.784   1.015   4.170
 7533SOL    HW123498   3.803   1.036   4.266
 7533SOL    HW223499   3.701   1.063   4.141
 7534SOL     OW23500   4.896   6.116   4.501
 7534SOL    HW123501   4.924   6.173   4.578
 7534SOL    HW223502   4.796   6.112   4.497
 7535SOL     OW23503   3.060   3.008   6.048
 7535SOL    HW123504   3.104   3.093   6.076
 7535SOL    HW223505   3.122   2.956   5.989
 7536SOL     OW23506   4.657   6.454   4.005
 7536SOL    HW123507   4.728   6.516   4.037
 7536SOL    HW223508   4.689   6.403   3.925
 7537SOL     OW23509   1.508   4.809   5.499
 7537SOL    HW123510   1.541   4.725   5.542
 7537SOL    HW223511   1.584   4.858   5.457
 7538SOL     OW23512   2.878   3.419   2.411
 7538SOL    HW123513   2.863   3.483   2.487
 7538SOL    HW223514   2.874   3.326   2.445
 7539SOL     OW23515   2.181   3.129   4.572
 7539SOL    HW123516   2.091   3.097   4.602
 7539SOL    HW223517   2.252   3.078   4.621
 7540SOL     OW23518   2.239   1.568   0.320
 7540SOL    HW123519   2.314   1.502   0.307
 7540SOL    HW223520   2.169   1.527   0.377
 7541SOL     OW23521   6.651   2.441   5.680
 7541SOL    HW123522   6.689   2.456   5.771
 7541SOL    HW223523   6.618   2.347   5.672
 7542SOL     OW23524   1.248   6.561   5.913
 7542SOL    HW123525   1.155   6.546   5.880
 7542SOL    HW223526   1.309   6.493   5.871
 7543SOL     OW23527   3.889   2.886   0.002
 7543SOL    HW123528   3.963   2.930   6.970
 7543SOL    HW223529   3.896   2.787   7.011
 7544SOL     OW23530   1.917   2.410   2.444
 7544SOL    HW123531   1.976   2.398   2.364
 7544SOL    HW223532   1.968   2.387   2.526
 7545SOL     OW23533   5.467   6.356   4.215
 7545SOL    HW123534   5.566   6.359   4.201
 7545SOL    HW223535   5.445   6.390   4.306
 7546SOL     OW23536   4.649   1.119   6.947
 7546SOL    HW123537   4.580   1.114   6.874
 7546SOL    HW223538   4.612   1.078   0.012
 7547SOL     OW23539   3.598   0.223   0.482
 7547SOL    HW123540   3.669   0.174   0.432
 7547SOL    HW223541   3.518   0.235   0.422
 7548SOL     OW23542   1.817   2.206   1.444
 7548SOL    HW123543   1.840   2.299   1.472
 7548SOL    HW223544   1.739   2.208   1.382
 7549SOL     OW23545   5.514   2.216   2.269
 7549SOL    HW123546   5.535   2.310   2.294
 7549SOL    HW223547   5.581   2.155   2.312
 7550SOL     OW23548   1.646   5.543   2.086
 7550SOL    HW123549   1.569   5.533   2.023
 7550SOL    HW223550   1.620   5.508   2.176
 7551SOL     OW23551   4.915   3.248   6.719
 7551SOL    HW123552   4.859   3.194   6.656
 7551SOL    HW223553   4.873   3.337   6.733
 7552SOL     OW23554   3.345   5.276   3.986
 7552SOL    HW123555   3.361   5.338   3.909
 7552SOL    HW223556   3.341   5.182   3.953
 7553SOL     OW23557   4.011   5.530   6.017
 7553SOL    HW123558   4.041   5.595   6.088
 7553SOL    HW223559   4.068   5.448   6.021
 7554SOL     OW23560   6.535   1.069   0.660
 7554SOL    HW123561   6.597   1.061   0.739
 7554SOL    HW223562   6.586   1.050   0.576
 7555SOL     OW23563   0.913   6.052   5.543
 7555SOL    HW123564   0.961   6.064   5.455
 7555SOL    HW223565   0.879   5.958   5.549
 7556SOL     OW23566   0.897   2.822   5.130
 7556SOL    HW123567   0.810   2.817   5.081
 7556SOL    HW223568   0.972   2.830   5.064
 7557SOL     OW23569   4.674   4.100   0.330
 7557SOL    HW123570   4.658   4.131   0.424
 7557SOL    HW223571   4.771   4.075   0.320
 7558SOL     OW23572   1.470   3.280   3.246
 7558SOL    HW123573   1.384   3.236   3.271
 7558SOL    HW223574   1.504   3.241   3.161
 7559SOL     OW23575   0.413   4.106   0.837
 7559SOL    HW123576   0.506   4.105   0.876
 7559SOL    HW223577   0.360   4.031   0.875
 7560SOL     OW23578   5.250   6.826   0.172
 7560SOL    HW123579   5.217   6.794   0.083
 7560SOL    HW223580   5.341   6.787   0.189
 7561SOL     OW23581   0.388   3.226   0.668
 7561SOL    HW123582   0.451   3.287   0.620
 7561SOL    HW223583   0.339   3.170   0.601
 7562SOL     OW23584   5.612   6.066   4.828
 7562SOL    HW123585   5.689   6.125   4.853
 7562SOL    HW223586   5.642   5.998   4.761
 7563SOL     OW23587   2.502   0.870   2.398
 7563SOL    HW123588   2.554   0.788   2.374
 7563SOL    HW223589   2.500   0.932   2.319
 7564SOL     OW23590   5.258   6.513   3.539
 7564SOL    HW123591   5.250   6.443   3.610
 7564SOL    HW223592   5.169   6.555   3.524
 7565SOL     OW23593   4.890   4.529   0.698
 7565SOL    HW123594   4.967   4.495   0.752
 7565SOL    HW223595   4.876   4.469   0.619
 7566SOL     OW23596   1.404   5.759   4.069
 7566SOL    HW123597   1.387   5.795   3.977
 7566SOL    HW223598   1.503   5.750   4.083
 7567SOL     OW23599   2.928   4.385   0.573
 7567SOL    HW123600   2.921   4.453   0.500
 7567SOL    HW223601   2.973   4.303   0.537
 7568SOL     OW23602   4.570   5.123   3.358
 7568SOL    HW123603   4.540   5.074   3.440
 7568SOL    HW223604   4.669   5.139   3.362
 7569SOL     OW23605   4.287   6.948   0.867
 7569SOL    HW123606   4.317   6.920   0.959
 7569SOL    HW223607   4.192   6.976   0.870
 7570SOL     OW23608   6.045   5.284   3.893
 7570SOL    HW123609   5.953   5.314   3.867
 7570SOL    HW223610   6.044   5.252   3.987
 7571SOL     OW23611   5.398   4.359   2.123
 7571SOL    HW123612   5.463   4.295   2.082
 7571SOL    HW223613   5.422   4.452   2.096
 7572SOL     OW23614   2.743   1.385   4.704
 7572SOL    HW123615   2.813   1.424   4.764
 7572SOL    HW223616   2.722   1.292   4.734
 7573SOL     OW23617   2.419   5.727   4.217
 7573SOL    HW123618   2.391   5.754   4.309
 7573SOL    HW223619   2.347   5.751   4.152
 7574SOL     OW23620   4.915   6.033   2.899
 7574SOL    HW123621   4.850   6.091   2.850
 7574SOL    HW223622   4.952   6.083   2.977
 7575SOL     OW23623   3.649   1.977   5.132
 7575SOL    HW123624   3.721   2.043   5.153
 7575SOL    HW223625   3.662   1.941   5.039
 7576SOL     OW23626   6.636   2.646   0.501
 7576SOL    HW123627   6.642   2.575   0.431
 7576SOL    HW223628   6.565   2.621   0.568
 7577SOL     OW23629   5.999   0.331   4.934
 7577SOL    HW123630   6.004   0.260   4.863
 7577SOL    HW223631   5.903   0.349   4.956
 7578SOL     OW23632   2.254   4.894   4.358
 7578SOL    HW123633   2.280   4.990   4.352
 7578SOL    HW223634   2.321   4.843   4.411
 7579SOL     OW23635   3.967   1.826   2.755
 7579SOL    HW123636   4.046   1.879   2.784
 7579SOL    HW223637   3.963   1.824   2.655
 7580SOL     OW23638   1.749   3.577   2.337
 7580SOL    HW123639   1.775   3.621   2.251
 7580SOL    HW223640   1.701   3.643   2.395
 7581SOL     OW23641   6.129   0.944   0.917
 7581SOL    HW123642   6.224   0.929   0.946
 7581SOL    HW223643   6.070   0.874   0.956
 7582SOL     OW23644   3.158   0.877   0.965
 7582SOL    HW123645   3.200   0.787   0.957
 7582SOL    HW223646   3.059   0.869   0.950
 7583SOL     OW23647   6.174   3.430   2.698
 7583SOL    HW123648   6.158   3.517   2.744
 7583SOL    HW223649   6.255   3.386   2.736
 7584SOL     OW23650   2.642   0.173   1.656
 7584SOL    HW123651   2.621   0.185   1.559
 7584SOL    HW223652   2.741   0.174   1.669
 7585SOL     OW23653   1.815   4.842   5.905
 7585SOL    HW123654   1.914   4.829   5.915
 7585SOL    HW223655   1.798   4.915   5.839
 7586SOL     OW23656   2.737   0.948   2.536
 7586SOL    HW123657   2.657   0.938   2.476
 7586SOL    HW223658   2.797   1.019   2.499
 7587SOL     OW23659   0.712   1.428   5.707
 7587SOL    HW123660   0.734   1.400   5.613
 7587SOL    HW223661   0.661   1.355   5.752
 7588SOL     OW23662   0.286   4.258   2.219
 7588SOL    HW123663   0.319   4.293   2.306
 7588SOL    HW223664   0.186   4.263   2.217
 7589SOL     OW23665   5.812   5.699   0.826
 7589SOL    HW123666   5.866   5.665   0.903
 7589SOL    HW223667   5.800   5.798   0.836
 7590SOL     OW23668   1.859   0.850   6.274
 7590SOL    HW123669   1.813   0.763   6.291
 7590SOL    HW223670   1.825   0.919   6.338
 7591SOL     OW23671   6.550   4.377   0.386
 7591SOL    HW123672   6.566   4.430   0.469
 7591SOL    HW223673   6.510   4.436   0.315
 7592SOL     OW23674   5.401   5.934   6.969
 7592SOL    HW123675   5.326   5.900   6.913
 7592SOL    HW223676   5.392   5.898   0.044
 7593SOL     OW23677   6.050   2.242   6.521
 7593SOL    HW123678   6.111   2.316   6.495
 7593SOL    HW223679   5.971   2.240   6.460
 7594SOL     OW23680   1.285   6.169   3.716
 7594SOL    HW123681   1.258   6.074   3.698
 7594SOL    HW223682   1.295   6.183   3.814
 7595SOL     OW23683   6.472   2.585   6.929
 7595SOL    HW123684   6.502   2.675   6.961
 7595SOL    HW223685   6.460   2.587   6.830
 7596SOL     OW23686   5.503   4.085   1.977
 7596SOL    HW123687   5.475   4.124   1.889
 7596SOL    HW223688   5.523   3.988   1.965
 7597SOL     OW23689   3.740   5.226   1.592
 7597SOL    HW123690   3.760   5.147   1.650
 7597SOL    HW223691   3.663   5.277   1.630
 7598SOL     OW23692   6.926   1.053   3.788
 7598SOL    HW123693   6.994   0.987   3.756
 7598SOL    HW223694   6.970   1.141   3.805
 7599SOL     OW23695   6.418   1.887   2.513
 7599SOL    HW123696   6.347   1.955   2.528
 7599SOL    HW223697   6.391   1.826   2.438
 7600SOL     OW23698   1.969   1.555   1.534
 7600SOL    HW123699   2.057   1.508   1.523
 7600SOL    HW223700   1.917   1.512   1.608
 7601SOL     OW23701   2.129   6.531   4.513
 7601SOL    HW123702   2.206   6.492   4.564
 7601SOL    HW223703   2.153   6.624   4.484
 7602SOL     OW23704   0.542   3.954   4.451
 7602SOL    HW123705   0.620   3.892   4.447
 7602SOL    HW223706   0.565   4.032   4.509
 7603SOL     OW23707   1.071   6.613   1.100
 7603SOL    HW123708   1.051   6.533   1.043
 7603SOL    HW223709   1.068   6.696   1.045
 7604SOL     OW23710   4.747   5.909   5.468
 7604SOL    HW123711   4.792   5.830   5.426
 7604SOL    HW223712   4.795   5.993   5.443
 7605SOL     OW23713   6.665   4.344   6.974
 7605SOL    HW123714   6.727   4.276   7.012
 7605SOL    HW223715   6.581   4.347   0.011
 7606SOL     OW23716   5.703   2.043   2.347
 7606SOL    HW123717   5.724   2.033   2.250
 7606SOL    HW223718   5.748   2.126   2.382
 7607SOL     OW23719   4.433   0.164   6.864
 7607SOL    HW123720   4.379   0.098   6.916
 7607SOL    HW223721   4.482   0.117   6.790
 7608SOL     OW23722   3.543   3.183   3.737
 7608SOL    HW123723   3.517   3.205   3.643
 7608SOL    HW223724   3.518   3.259   3.797
 7609SOL     OW23725   1.306   3.458   4.214
 7609SOL    HW123726   1.343   3.400   4.287
 7609SOL    HW223727   1.361   3.445   4.131
 7610SOL     OW23728   5.471   0.359   1.026
 7610SOL    HW123729   5.486   0.363   0.928
 7610SOL    HW223730   5.403   0.289   1.047
 7611SOL     OW23731   1.261   2.120   0.347
 7611SOL    HW123732   1.339   2.182   0.345
 7611SOL    HW223733   1.197   2.145   0.274
 7612SOL     OW23734   3.481   1.937   3.160
 7612SOL    HW123735   3.436   1.849   3.147
 7612SOL    HW223736   3.528   1.963   3.076
 7613SOL     OW23737   4.909   1.248   1.927
 7613SOL    HW123738   4.848   1.279   1.854
 7613SOL    HW223739   4.915   1.148   1.925
 7614SOL     OW23740   4.264   2.062   0.558
 7614SOL    HW123741   4.192   2.073   0.489
 7614SOL    HW223742   4.245   1.981   0.614
 7615SOL     OW23743   3.638   4.794   6.124
 7615SOL    HW123744   3.542   4.766   6.121
 7615SOL    HW223745   3.695   4.721   6.087
 7616SOL     OW23746   6.450   3.356   3.559
 7616SOL    HW123747   6.476   3.350   3.656
 7616SOL    HW223748   6.438   3.452   3.534
 7617SOL     OW23749   3.272   4.914   2.990
 7617SOL    HW123750   3.179   4.886   3.013
 7617SOL    HW223751   3.290   4.894   2.894
 7618SOL     OW23752   1.916   2.725   6.509
 7618SOL    HW123753   1.925   2.652   6.441
 7618SOL    HW223754   1.922   2.814   6.464
 7619SOL     OW23755   5.570   3.842   5.676
 7619SOL    HW123756   5.655   3.850   5.624
 7619SOL    HW223757   5.565   3.752   5.718
 7620SOL     OW23758   3.322   6.548   1.772
 7620SOL    HW123759   3.353   6.461   1.811
 7620SOL    HW223760   3.310   6.615   1.846
 7621SOL     OW23761   2.112   0.706   1.491
 7621SOL    HW123762   2.181   0.735   1.558
 7621SOL    HW223763   2.074   0.617   1.519
 7622SOL     OW23764   3.888   2.489   0.385
 7622SOL    HW123765   3.877   2.531   0.295
 7622SOL    HW223766   3.926   2.556   0.448
 7623SOL     OW23767   4.685   0.729   5.594
 7623SOL    HW123768   4.768   0.738   5.540
 7623SOL    HW223769   4.614   0.789   5.556
 7624SOL     OW23770   0.438   0.747   3.585
 7624SOL    HW123771   0.462   0.709   3.496
 7624SOL    HW223772   0.513   0.804   3.620
 7625SOL     OW23773   4.854   0.748   1.284
 7625SOL    HW123774   4.923   0.790   1.343
 7625SOL    HW223775   4.792   0.692   1.338
 7626SOL     OW23776   1.944   6.001   4.784
 7626SOL    HW123777   2.025   5.945   4.803
 7626SOL    HW223778   1.972   6.094   4.762
 7627SOL     OW23779   6.548   2.234   1.077
 7627SOL    HW123780   6.631   2.275   1.115
 7627SOL    HW223781   6.517   2.160   1.137
 7628SOL     OW23782   3.128   1.709   0.677
 7628SOL    HW123783   3.051   1.667   0.724
 7628SOL    HW223784   3.204   1.720   0.741
 7629SOL     OW23785   0.164   5.641   3.250
 7629SOL    HW123786   0.178   5.554   3.203
 7629SOL    HW223787   0.066   5.659   3.259
 7630SOL     OW23788   6.019   0.720   2.768
 7630SOL    HW123789   5.980   0.809   2.792
 7630SOL    HW223790   6.119   0.727   2.766
 7631SOL     OW23791   0.545   2.373   3.398
 7631SOL    HW123792   0.556   2.437   3.321
 7631SOL    HW223793   0.593   2.408   3.478
 7632SOL     OW23794   4.758   1.718   0.313
 7632SOL    HW123795   4.719   1.674   0.232
 7632SOL    HW223796   4.763   1.816   0.298
 7633SOL     OW23797   5.278   3.765   6.978
 7633SOL    HW123798   5.310   3.822   6.902
 7633SOL    HW223799   5.357   3.733   0.012
 7634SOL     OW23800   1.694   1.213   1.864
 7634SOL    HW123801   1.670   1.292   1.807
 7634SOL    HW223802   1.789   1.220   1.894
 7635SOL     OW23803   2.892   4.317   5.880
 7635SOL    HW123804   2.902   4.219   5.862
 7635SOL    HW223805   2.967   4.367   5.835
 7636SOL     OW23806   1.108   0.105   4.283
 7636SOL    HW123807   1.042   0.037   4.254
 7636SOL    HW223808   1.064   0.195   4.289
 7637SOL     OW23809   2.156   5.889   4.194
 7637SOL    HW123810   2.066   5.899   4.236
 7637SOL    HW223811   2.221   5.950   4.240
 7638SOL     OW23812   5.091   5.001   2.053
 7638SOL    HW123813   5.044   5.084   2.026
 7638SOL    HW223814   5.189   5.010   2.032
 7639SOL     OW23815   0.595   1.930   5.240
 7639SOL    HW123816   0.544   1.895   5.319
 7639SOL    HW223817   0.629   2.022   5.260
 7640SOL     OW23818   2.389   1.849   0.280
 7640SOL    HW123819   2.446   1.889   0.209
 7640SOL    HW223820   2.444   1.832   0.362
 7641SOL     OW23821   5.853   3.942   2.132
 7641SOL    HW123822   5.810   4.026   2.099
 7641SOL    HW223823   5.937   3.925   2.081
 7642SOL     OW23824   2.455   2.005   2.266
 7642SOL    HW123825   2.520   1.930   2.254
 7642SOL    HW223826   2.368   1.969   2.300
 7643SOL     OW23827   4.897   2.987   3.686
 7643SOL    HW123828   4.851   3.034   3.611
 7643SOL    HW223829   4.834   2.924   3.731
 7644SOL     OW23830   6.947   3.049   2.605
 7644SOL    HW123831   6.850   3.042   2.626
 7644SOL    HW223832   6.992   3.107   2.673
 7645SOL     OW23833   4.159   4.269   0.001
 7645SOL    HW123834   4.172   4.295   0.096
 7645SOL    HW223835   4.156   4.351   6.962
 7646SOL     OW23836   2.315   2.188   1.651
 7646SOL    HW123837   2.316   2.112   1.716
 7646SOL    HW223838   2.221   2.222   1.640
 7647SOL     OW23839   2.624   4.146   1.627
 7647SOL    HW123840   2.550   4.116   1.688
 7647SOL    HW223841   2.710   4.105   1.657
 7648SOL     OW23842   4.223   0.910   3.916
 7648SOL    HW123843   4.266   0.819   3.920
 7648SOL    HW223844   4.124   0.900   3.925
 7649SOL     OW23845   2.925   0.546   1.724
 7649SOL    HW123846   2.912   0.607   1.802
 7649SOL    HW223847   2.968   0.597   1.649
 7650SOL     OW23848   6.473   4.508   1.826
 7650SOL    HW123849   6.518   4.546   1.907
 7650SOL    HW223850   6.376   4.534   1.826
 7651SOL     OW23851   3.528   1.222   6.370
 7651SOL    HW123852   3.549   1.226   6.468
 7651SOL    HW223853   3.505   1.313   6.337
 7652SOL     OW23854   0.791   3.604   2.278
 7652SOL    HW123855   0.808   3.606   2.376
 7652SOL    HW223856   0.720   3.535   2.258
 7653SOL     OW23857   2.587   1.982   1.568
 7653SOL    HW123858   2.632   2.053   1.623
 7653SOL    HW223859   2.630   1.978   1.478
 7654SOL     OW23860   4.816   3.863   3.460
 7654SOL    HW123861   4.819   3.785   3.523
 7654SOL    HW223862   4.738   3.922   3.484
 7655SOL     OW23863   4.144   6.521   5.182
 7655SOL    HW123864   4.135   6.464   5.100
 7655SOL    HW223865   4.224   6.580   5.172
 7656SOL     OW23866   0.400   6.385   5.577
 7656SOL    HW123867   0.427   6.343   5.663
 7656SOL    HW223868   0.447   6.339   5.501
 7657SOL     OW23869   3.301   1.543   4.039
 7657SOL    HW123870   3.380   1.483   4.023
 7657SOL    HW223871   3.240   1.540   3.960
 7658SOL     OW23872   3.989   0.711   5.509
 7658SOL    HW123873   3.959   0.780   5.574
 7658SOL    HW223874   3.924   0.707   5.433
 7659SOL     OW23875   5.805   6.775   0.789
 7659SOL    HW123876   5.855   6.833   0.725
 7659SOL    HW223877   5.753   6.706   0.739
 7660SOL     OW23878   5.787   5.247   4.087
 7660SOL    HW123879   5.786   5.150   4.062
 7660SOL    HW223880   5.781   5.303   4.004
 7661SOL     OW23881   6.452   2.952   3.699
 7661SOL    HW123882   6.362   2.995   3.695
 7661SOL    HW223883   6.443   2.859   3.736
 7662SOL     OW23884   0.506   5.176   1.861
 7662SOL    HW123885   0.489   5.222   1.774
 7662SOL    HW223886   0.535   5.082   1.845
 7663SOL     OW23887   0.160   4.892   6.282
 7663SOL    HW123888   0.147   4.991   6.277
 7663SOL    HW223889   0.073   4.846   6.265
 7664SOL     OW23890   2.691   5.354   3.521
 7664SOL    HW123891   2.634   5.274   3.501
 7664SOL    HW223892   2.639   5.438   3.504
 7665SOL     OW23893   3.310   6.691   4.968
 7665SOL    HW123894   3.324   6.607   4.916
 7665SOL    HW223895   3.284   6.765   4.906
 7666SOL     OW23896   1.276   0.860   1.229
 7666SOL    HW123897   1.211   0.853   1.153
 7666SOL    HW223898   1.306   0.768   1.256
 7667SOL     OW23899   4.223   6.478   6.662
 7667SOL    HW123900   4.208   6.484   6.761
 7667SOL    HW223901   4.253   6.567   6.629
 7668SOL     OW23902   3.583   3.995   1.494
 7668SOL    HW123903   3.646   4.063   1.455
 7668SOL    HW223904   3.609   3.904   1.462
 7669SOL     OW23905   5.070   0.053   4.458
 7669SOL    HW123906   5.001   7.001   4.477
 7669SOL    HW223907   5.024   0.137   4.428
 7670SOL     OW23908   1.506   5.454   0.822
 7670SOL    HW123909   1.424   5.503   0.851
 7670SOL    HW223910   1.483   5.393   0.747
 7671SOL     OW23911   6.249   2.910   4.364
 7671SOL    HW123912   6.210   3.002   4.375
 7671SOL    HW223913   6.318   2.894   4.434
 7672SOL     OW23914   5.540   0.691   3.189
 7672SOL    HW123915   5.492   0.630   3.252
 7672SOL    HW223916   5.482   0.712   3.111
 7673SOL     OW23917   0.902   4.344   1.174
 7673SOL    HW123918   0.887   4.427   1.121
 7673SOL    HW223919   0.815   4.315   1.215
 7674SOL     OW23920   6.102   1.649   5.020
 7674SOL    HW123921   6.088   1.639   4.921
 7674SOL    HW223922   6.077   1.564   5.066
 7675SOL     OW23923   4.516   6.726   3.012
 7675SOL    HW123924   4.539   6.784   3.090
 7675SOL    HW223925   4.417   6.714   3.007
 7676SOL     OW23926   1.542   0.935   0.606
 7676SOL    HW123927   1.493   0.980   0.531
 7676SOL    HW223928   1.483   0.929   0.685
 7677SOL     OW23929   1.341   2.884   2.521
 7677SOL    HW123930   1.372   2.832   2.442
 7677SOL    HW223931   1.304   2.972   2.490
 7678SOL     OW23932   6.399   6.694   0.782
 7678SOL    HW123933   6.437   6.776   0.740
 7678SOL    HW223934   6.463   6.618   0.773
 7679SOL     OW23935   1.120   5.152   5.260
 7679SOL    HW123936   1.119   5.140   5.160
 7679SOL    HW223937   1.040   5.107   5.299
 7680SOL     OW23938   3.656   2.792   0.353
 7680SOL    HW123939   3.689   2.767   0.444
 7680SOL    HW223940   3.595   2.721   0.319
 7681SOL     OW23941   2.692   1.759   0.009
 7681SOL    HW123942   2.758   1.790   0.078
 7681SOL    HW223943   2.739   1.707   6.956
 7682SOL     OW23944   2.698   0.236   2.074
 7682SOL    HW123945   2.680   0.277   1.984
 7682SOL    HW223946   2.794   0.250   2.098
 7683SOL     OW23947   4.957   1.990   3.360
 7683SOL    HW123948   4.984   1.933   3.437
 7683SOL    HW223949   4.857   1.994   3.355
 7684SOL     OW23950   4.124   2.236   6.114
 7684SOL    HW123951   4.163   2.326   6.093
 7684SOL    HW223952   4.074   2.201   6.035
 7685SOL     OW23953   3.141   2.816   0.591
 7685SOL    HW123954   3.076   2.759   0.540
 7685SOL    HW223955   3.094   2.898   0.624
 7686SOL     OW23956   4.360   6.147   3.922
 7686SOL    HW123957   4.362   6.219   3.853
 7686SOL    HW223958   4.451   6.138   3.963
 7687SOL     OW23959   5.626   5.148   5.837
 7687SOL    HW123960   5.600   5.122   5.744
 7687SOL    HW223961   5.587   5.237   5.860
 7688SOL     OW23962   0.647   6.190   4.423
 7688SOL    HW123963   0.710   6.141   4.484
 7688SOL    HW223964   0.682   6.282   4.407
 7689SOL     OW23965   4.428   6.377   5.042
 7689SOL    HW123966   4.526   6.393   5.055
 7689SOL    HW223967   4.413   6.282   5.015
 7690SOL     OW23968   6.516   4.870   3.507
 7690SOL    HW123969   6.559   4.819   3.581
 7690SOL    HW223970   6.584   4.888   3.435
 7691SOL     OW23971   5.226   3.092   4.619
 7691SOL    HW123972   5.150   3.029   4.601
 7691SOL    HW223973   5.198   3.185   4.595
 7692SOL     OW23974   1.822   6.703   2.124
 7692SOL    HW123975   1.786   6.739   2.037
 7692SOL    HW223976   1.845   6.780   2.184
 7693SOL     OW23977   4.442   1.349   6.347
 7693SOL    HW123978   4.508   1.390   6.284
 7693SOL    HW223979   4.458   1.385   6.439
 7694SOL     OW23980   0.204   5.519   4.490
 7694SOL    HW123981   0.138   5.457   4.446
 7694SOL    HW223982   0.257   5.468   4.558
 7695SOL     OW23983   4.110   6.717   1.186
 7695SOL    HW123984   4.045   6.778   1.231
 7695SOL    HW223985   4.185   6.770   1.148
 7696SOL     OW23986   0.008   2.953   5.731
 7696SOL    HW123987   6.977   2.911   5.807
 7696SOL    HW223988   0.106   2.958   5.752
 7697SOL     OW23989   2.985   1.384   2.633
 7697SOL    HW123990   3.020   1.395   2.540
 7697SOL    HW223991   2.885   1.387   2.631
 7698SOL     OW23992   6.584   2.369   5.998
 7698SOL    HW123993   6.612   2.332   6.086
 7698SOL    HW223994   6.576   2.469   6.004
 7699SOL     OW23995   2.555   5.024   6.553
 7699SOL    HW123996   2.613   5.014   6.634
 7699SOL    HW223997   2.469   4.975   6.569
 7700SOL     OW23998   4.970   6.623   4.769
 7700SOL    HW123999   4.872   6.636   4.756
 7700SOL    HW224000   5.003   6.553   4.707
 7701SOL     OW24001   6.904   1.914   4.456
 7701SOL    HW124002   6.957   1.850   4.400
 7701SOL    HW224003   6.958   1.996   4.473
 7702SOL     OW24004   3.293   6.159   5.732
 7702SOL    HW124005   3.250   6.076   5.767
 7702SOL    HW224006   3.261   6.177   5.640
 7703SOL     OW24007   0.889   0.987   5.769
 7703SOL    HW124008   0.803   1.034   5.749
 7703SOL    HW224009   0.962   1.055   5.778
 7704SOL     OW24010   4.047   4.510   6.870
 7704SOL    HW124011   4.061   4.538   6.965
 7704SOL    HW224012   4.131   4.526   6.819
 7705SOL     OW24013   3.444   5.103   5.256
 7705SOL    HW124014   3.488   5.148   5.178
 7705SOL    HW224015   3.496   5.123   5.339
 7706SOL     OW24016   6.853   0.787   5.471
 7706SOL    HW124017   6.935   0.756   5.423
 7706SOL    HW224018   6.780   0.803   5.405
 7707SOL     OW24019   6.999   5.111   6.126
 7707SOL    HW124020   6.993   5.209   6.143
 7707SOL    HW224021   6.926   5.064   6.175
 7708SOL     OW24022   4.725   6.848   4.712
 7708SOL    HW124023   4.634   6.890   4.710
 7708SOL    HW224024   4.790   6.907   4.663
 7709SOL     OW24025   3.982   2.186   2.144
 7709SOL    HW124026   3.956   2.147   2.055
 7709SOL    HW224027   4.073   2.225   2.138
 7710SOL     OW24028   2.160   0.900   0.349
 7710SOL    HW124029   2.108   0.975   0.391
 7710SOL    HW224030   2.120   0.876   0.261
 7711SOL     OW24031   5.250   6.705   5.489
 7711SOL    HW124032   5.347   6.694   5.466
 7711SOL    HW224033   5.197   6.633   5.445
 7712SOL     OW24034   5.790   5.397   1.377
 7712SOL    HW124035   5.810   5.486   1.337
 7712SOL    HW224036   5.849   5.328   1.334
 7713SOL     OW24037   1.539   4.265   6.467
 7713SOL    HW124038   1.532   4.204   6.388
 7713SOL    HW224039   1.470   4.337   6.459
 7714SOL     OW24040   5.926   4.218   4.025
 7714SOL    HW124041   5.826   4.212   4.016
 7714SOL    HW224042   5.960   4.136   4.070
 7715SOL     OW24043   5.023   0.297   1.582
 7715SOL    HW124044   4.953   0.274   1.649
 7715SOL    HW224045   5.025   0.227   1.510
 7716SOL     OW24046   4.354   2.044   3.625
 7716SOL    HW124047   4.351   2.133   3.579
 7716SOL    HW224048   4.373   2.057   3.723
 7717SOL     OW24049   2.775   1.347   5.754
 7717SOL    HW124050   2.794   1.390   5.665
 7717SOL    HW224051   2.814   1.403   5.827
 7718SOL     OW24052   2.925   6.832   3.880
 7718SOL    HW124053   3.005   6.802   3.828
 7718SOL    HW224054   2.842   6.794   3.837
 7719SOL     OW24055   6.637   2.139   4.474
 7719SOL    HW124056   6.679   2.203   4.411
 7719SOL    HW224057   6.639   2.047   4.435
 7720SOL     OW24058   5.922   5.854   1.808
 7720SOL    HW124059   5.939   5.924   1.738
 7720SOL    HW224060   5.846   5.795   1.778
 7721SOL     OW24061   2.068   4.497   2.281
 7721SOL    HW124062   2.140   4.480   2.348
 7721SOL    HW224063   2.003   4.565   2.318
 7722SOL     OW24064   6.655   5.313   3.930
 7722SOL    HW124065   6.605   5.397   3.951
 7722SOL    HW224066   6.607   5.263   3.858
 7723SOL     OW24067   6.635   3.183   0.884
 7723SOL    HW124068   6.618   3.179   0.785
 7723SOL    HW224069   6.653   3.278   0.911
 7724SOL     OW24070   1.202   4.274   1.489
 7724SOL    HW124071   1.194   4.279   1.389
 7724SOL    HW224072   1.292   4.309   1.516
 7725SOL     OW24073   5.797   3.158   4.128
 7725SOL    HW124074   5.717   3.213   4.149
 7725SOL    HW224075   5.821   3.102   4.208
 7726SOL     OW24076   0.288   4.642   2.729
 7726SOL    HW124077   0.298   4.727   2.782
 7726SOL    HW224078   0.297   4.564   2.790
 7727SOL     OW24079   6.391   2.220   2.495
 7727SOL    HW124080   6.309   2.163   2.499
 7727SOL    HW224081   6.415   2.238   2.399
 7728SOL     OW24082   2.100   2.662   3.071
 7728SOL    HW124083   2.151   2.643   3.155
 7728SOL    HW224084   2.128   2.751   3.035
 7729SOL     OW24085   4.783   2.530   0.562
 7729SOL    HW124086   4.873   2.499   0.591
 7729SOL    HW224087   4.771   2.626   0.585
 7730SOL     OW24088   5.332   0.783   3.001
 7730SOL    HW124089   5.274   0.776   3.082
 7730SOL    HW224090   5.325   0.874   2.962
 7731SOL     OW24091   5.997   1.318   0.124
 7731SOL    HW124092   5.923   1.379   0.094
 7731SOL    HW224093   5.962   1.225   0.129
 7732SOL     OW24094   4.125   5.720   0.962
 7732SOL    HW124095   4.176   5.671   0.891
 7732SOL    HW224096   4.188   5.766   1.023
 7733SOL     OW24097   3.717   0.179   2.190
 7733SOL    HW124098   3.739   0.095   2.141
 7733SOL    HW224099   3.729   0.257   2.129
 7734SOL     OW24100   1.928   2.391   2.991
 7734SOL    HW124101   1.971   2.301   2.986
 7734SOL    HW224102   1.997   2.462   2.981
 7735SOL     OW24103   4.950   4.394   0.222
 7735SOL    HW124104   5.049   4.409   0.215
 7735SOL    HW224105   4.919   4.422   0.313
 7736SOL     OW24106   6.152   4.776   0.181
 7736SOL    HW124107   6.060   4.759   0.145
 7736SOL    HW224108   6.216   4.791   0.105
 7737SOL     OW24109   4.424   1.442   0.498
 7737SOL    HW124110   4.483   1.522   0.485
 7737SOL    HW224111   4.334   1.472   0.528
 7738SOL     OW24112   3.218   5.245   0.164
 7738SOL    HW124113   3.187   5.222   0.071
 7738SOL    HW224114   3.291   5.313   0.159
 7739SOL     OW24115   6.144   2.123   1.002
 7739SOL    HW124116   6.159   2.053   1.071
 7739SOL    HW224117   6.153   2.082   0.911
 7740SOL     OW24118   0.433   0.065   2.989
 7740SOL    HW124119   0.424   0.156   3.029
 7740SOL    HW224120   0.485   0.006   3.051
 7741SOL     OW24121   2.348   5.802   4.469
 7741SOL    HW124122   2.393   5.816   4.557
 7741SOL    HW224123   2.267   5.859   4.463
 7742SOL     OW24124   6.650   1.896   3.802
 7742SOL    HW124125   6.734   1.942   3.774
 7742SOL    HW224126   6.652   1.801   3.769
 7743SOL     OW24127   4.510   2.519   4.240
 7743SOL    HW124128   4.452   2.525   4.322
 7743SOL    HW224129   4.476   2.445   4.181
 7744SOL     OW24130   6.585   0.319   4.269
 7744SOL    HW124131   6.616   0.343   4.361
 7744SOL    HW224132   6.544   0.399   4.226
 7745SOL     OW24133   4.126   3.366   6.195
 7745SOL    HW124134   4.060   3.306   6.149
 7745SOL    HW224135   4.165   3.430   6.128
 7746SOL     OW24136   1.109   1.066   0.529
 7746SOL    HW124137   1.157   1.059   0.617
 7746SOL    HW224138   1.131   1.153   0.485
 7747SOL     OW24139   5.070   6.479   0.963
 7747SOL    HW124140   5.117   6.567   0.971
 7747SOL    HW224141   5.128   6.407   0.999
 7748SOL     OW24142   2.859   4.336   6.767
 7748SOL    HW124143   2.945   4.287   6.757
 7748SOL    HW224144   2.784   4.270   6.774
 7749SOL     OW24145   5.355   2.760   5.705
 7749SOL    HW124146   5.330   2.814   5.625
 7749SOL    HW224147   5.289   2.777   5.778
 7750SOL     OW24148   6.937   5.427   2.394
 7750SOL    HW124149   6.880   5.483   2.456
 7750SOL    HW224150   6.965   5.483   2.316
 7751SOL     OW24151   0.930   2.581   2.197
 7751SOL    HW124152   0.953   2.581   2.295
 7751SOL    HW224153   0.956   2.669   2.157
 7752SOL     OW24154   4.365   1.790   3.970
 7752SOL    HW124155   4.279   1.793   4.022
 7752SOL    HW224156   4.394   1.883   3.949
 7753SOL     OW24157   3.020   1.467   4.915
 7753SOL    HW124158   2.939   1.512   4.953
 7753SOL    HW224159   3.096   1.477   4.979
 7754SOL     OW24160   4.777   6.135   1.747
 7754SOL    HW124161   4.833   6.191   1.809
 7754SOL    HW224162   4.823   6.128   1.659
 7755SOL     OW24163   0.388   4.625   6.088
 7755SOL    HW124164   0.335   4.701   6.051
 7755SOL    HW224165   0.330   4.543   6.092
 7756SOL     OW24166   2.689   5.698   1.795
 7756SOL    HW124167   2.682   5.727   1.699
 7756SOL    HW224168   2.599   5.668   1.827
 7757SOL     OW24169   6.766   4.293   2.334
 7757SOL    HW124170   6.737   4.197   2.340
 7757SOL    HW224171   6.847   4.307   2.391
 7758SOL     OW24172   1.498   1.462   4.968
 7758SOL    HW124173   1.548   1.545   4.994
 7758SOL    HW224174   1.505   1.448   4.869
 7759SOL     OW24175   2.696   2.720   6.843
 7759SOL    HW124176   2.765   2.663   6.800
 7759SOL    HW224177   2.732   2.758   6.928
 7760SOL     OW24178   3.942   2.561   0.119
 7760SOL    HW124179   3.858   2.544   0.067
 7760SOL    HW224180   4.009   2.490   0.097
 7761SOL     OW24181   4.736   5.346   4.076
 7761SOL    HW124182   4.814   5.362   4.136
 7761SOL    HW224183   4.765   5.353   3.981
 7762SOL     OW24184   6.267   1.704   2.731
 7762SOL    HW124185   6.328   1.728   2.806
 7762SOL    HW224186   6.254   1.784   2.672
 7763SOL     OW24187   2.484   0.117   4.275
 7763SOL    HW124188   2.514   0.026   4.303
 7763SOL    HW224189   2.551   0.156   4.211
 7764SOL     OW24190   2.320   3.889   5.656
 7764SOL    HW124191   2.356   3.912   5.565
 7764SOL    HW224192   2.254   3.958   5.684
 7765SOL     OW24193   6.594   3.141   5.890
 7765SOL    HW124194   6.500   3.165   5.864
 7765SOL    HW224195   6.657   3.191   5.831
 7766SOL     OW24196   5.801   4.015   6.247
 7766SOL    HW124197   5.791   4.112   6.272
 7766SOL    HW224198   5.896   3.987   6.259
 7767SOL     OW24199   3.492   0.360   4.097
 7767SOL    HW124200   3.430   0.390   4.168
 7767SOL    HW224201   3.578   0.329   4.138
 7768SOL     OW24202   4.265   4.773   3.121
 7768SOL    HW124203   4.310   4.692   3.158
 7768SOL    HW224204   4.329   4.850   3.121
 7769SOL     OW24205   3.620   2.933   5.327
 7769SOL    HW124206   3.561   2.984   5.389
 7769SOL    HW224207   3.606   2.835   5.340
 7770SOL     OW24208   2.046   3.299   4.401
 7770SOL    HW124209   2.125   3.355   4.377
 7770SOL    HW224210   2.072   3.232   4.471
 7771SOL     OW24211   2.455   2.806   6.056
 7771SOL    HW124212   2.545   2.810   6.100
 7771SOL    HW224213   2.387   2.780   6.124
 7772SOL     OW24214   5.236   6.481   1.552
 7772SOL    HW124215   5.218   6.447   1.644
 7772SOL    HW224216   5.200   6.574   1.543
 7773SOL     OW24217   3.104   6.212   6.901
 7773SOL    HW124218   3.030   6.278   6.893
 7773SOL    HW224219   3.172   6.228   6.829
 7774SOL     OW24220   4.489   1.401   2.302
 7774SOL    HW124221   4.471   1.498   2.323
 7774SOL    HW224222   4.573   1.394   2.248
 7775SOL     OW24223   2.521   1.174   0.061
 7775SOL    HW124224   2.548   1.136   0.149
 7775SOL    HW224225   2.459   1.111   0.015
 7776SOL     OW24226   1.493   1.413   4.686
 7776SOL    HW124227   1.446   1.353   4.622
 7776SOL    HW224228   1.570   1.364   4.727
 7777SOL     OW24229   6.335   5.269   3.973
 7777SOL    HW124230   6.281   5.260   3.889
 7777SOL    HW224231   6.372   5.362   3.979
 7778SOL     OW24232   6.985   4.690   2.872
 7778SOL    HW124233   0.052   4.638   2.883
 7778SOL    HW224234   6.945   4.671   2.783
 7779SOL     OW24235   4.358   6.085   2.876
 7779SOL    HW124236   4.457   6.089   2.867
 7779SOL    HW224237   4.332   6.114   2.969
 7780SOL     OW24238   6.356   6.571   4.758
 7780SOL    HW124239   6.427   6.605   4.696
 7780SOL    HW224240   6.291   6.644   4.777
 7781SOL     OW24241   1.204   2.585   0.932
 7781SOL    HW124242   1.239   2.524   0.861
 7781SOL    HW224243   1.268   2.587   1.008
 7782SOL     OW24244   5.691   2.819   4.405
 7782SOL    HW124245   5.772   2.764   4.426
 7782SOL    HW224246   5.693   2.846   4.309
 7783SOL     OW24247   1.636   6.611   5.161
 7783SOL    HW124248   1.686   6.661   5.231
 7783SOL    HW224249   1.698   6.552   5.110
 7784SOL     OW24250   2.041   2.129   1.720
 7784SOL    HW124251   2.073   2.054   1.662
 7784SOL    HW224252   1.954   2.105   1.761
 7785SOL     OW24253   0.227   6.965   2.850
 7785SOL    HW124254   0.292   7.000   2.918
 7785SOL    HW224255   0.277   6.930   2.771
 7786SOL     OW24256   3.763   1.328   5.635
 7786SOL    HW124257   3.769   1.362   5.729
 7786SOL    HW224258   3.790   1.401   5.571
 7787SOL     OW24259   2.431   2.593   1.554
 7787SOL    HW124260   2.334   2.585   1.532
 7787SOL    HW224261   2.469   2.502   1.569
 7788SOL     OW24262   6.715   4.805   1.386
 7788SOL    HW124263   6.649   4.775   1.454
 7788SOL    HW224264   6.707   4.904   1.373
 7789SOL     OW24265   2.851   1.569   5.905
 7789SOL    HW124266   2.945   1.585   5.936
 7789SOL    HW224267   2.818   1.648   5.855
 7790SOL     OW24268   4.431   4.580   1.988
 7790SOL    HW124269   4.408   4.483   1.996
 7790SOL    HW224270   4.530   4.591   1.992
 7791SOL     OW24271   2.656   4.942   2.147
 7791SOL    HW124272   2.694   4.850   2.157
 7791SOL    HW224273   2.730   5.008   2.135
 7792SOL     OW24274   0.459   1.771   2.706
 7792SOL    HW124275   0.406   1.852   2.731
 7792SOL    HW224276   0.542   1.766   2.762
 7793SOL     OW24277   4.502   0.788   6.348
 7793SOL    HW124278   4.601   0.802   6.346
 7793SOL    HW224279   4.456   0.872   6.320
 7794SOL     OW24280   0.554   6.887   3.121
 7794SOL    HW124281   0.581   6.806   3.068
 7794SOL    HW224282   0.493   6.859   3.195
 7795SOL     OW24283   3.019   5.656   0.317
 7795SOL    HW124284   2.945   5.590   0.301
 7795SOL    HW224285   3.093   5.610   0.367
 7796SOL     OW24286   3.667   3.865   6.970
 7796SOL    HW124287   3.641   3.792   6.907
 7796SOL    HW224288   3.746   3.836   0.006
 7797SOL     OW24289   0.729   5.910   2.997
 7797SOL    HW124290   0.644   5.962   3.011
 7797SOL    HW224291   0.732   5.874   2.904
 7798SOL     OW24292   1.087   3.371   0.848
 7798SOL    HW124293   1.081   3.287   0.793
 7798SOL    HW224294   1.138   3.352   0.932
 7799SOL     OW24295   2.442   5.972   3.266
 7799SOL    HW124296   2.433   5.879   3.300
 7799SOL    HW224297   2.370   5.990   3.199
 7800SOL     OW24298   0.496   6.048   2.377
 7800SOL    HW124299   0.553   6.117   2.332
 7800SOL    HW224300   0.548   5.963   2.386
 7801SOL     OW24301   1.487   1.946   1.678
 7801SOL    HW124302   1.545   1.937   1.596
 7801SOL    HW224303   1.471   2.043   1.697
 7802SOL     OW24304   6.854   4.002   4.699
 7802SOL    HW124305   6.763   4.034   4.672
 7802SOL    HW224306   6.915   4.006   4.620
 7803SOL     OW24307   3.893   2.698   5.519
 7803SOL    HW124308   3.857   2.655   5.437
 7803SOL    HW224309   3.827   2.765   5.554
 7804SOL     OW24310   3.288   1.809   5.203
 7804SOL    HW124311   3.299   1.779   5.109
 7804SOL    HW224312   3.353   1.761   5.261
 7805SOL     OW24313   5.123   3.189   0.618
 7805SOL    HW124314   5.035   3.180   0.666
 7805SOL    HW224315   5.166   3.275   0.643
 7806SOL     OW24316   6.355   1.451   5.876
 7806SOL    HW124317   6.298   1.441   5.794
 7806SOL    HW224318   6.380   1.360   5.910
 7807SOL     OW24319   1.718   4.556   5.876
 7807SOL    HW124320   1.756   4.646   5.856
 7807SOL    HW224321   1.728   4.536   5.974
 7808SOL     OW24322   5.931   3.823   2.994
 7808SOL    HW124323   5.903   3.798   3.086
 7808SOL    HW224324   5.939   3.923   2.987
 7809SOL     OW24325   4.741   5.354   2.451
 7809SOL    HW124326   4.643   5.364   2.463
 7809SOL    HW224327   4.759   5.283   2.383
 7810SOL     OW24328   3.902   6.369   5.601
 7810SOL    HW124329   3.837   6.295   5.585
 7810SOL    HW224330   3.978   6.361   5.537
 7811SOL     OW24331   1.708   6.417   3.010
 7811SOL    HW124332   1.714   6.338   3.070
 7811SOL    HW224333   1.777   6.409   2.938
 7812SOL     OW24334   3.102   1.830   6.161
 7812SOL    HW124335   3.036   1.786   6.223
 7812SOL    HW224336   3.055   1.859   6.078
 7813SOL     OW24337   5.787   0.485   0.652
 7813SOL    HW124338   5.793   0.565   0.592
 7813SOL    HW224339   5.691   0.468   0.674
 7814SOL     OW24340   6.667   2.712   1.670
 7814SOL    HW124341   6.711   2.673   1.590
 7814SOL    HW224342   6.587   2.765   1.642
 7815SOL     OW24343   5.803   3.901   5.515
 7815SOL    HW124344   5.755   3.989   5.519
 7815SOL    HW224345   5.861   3.891   5.596
 7816SOL     OW24346   0.692   0.706   5.507
 7816SOL    HW124347   0.709   0.621   5.557
 7816SOL    HW224348   0.614   0.754   5.548
 7817SOL     OW24349   2.995   2.886   6.795
 7817SOL    HW124350   2.910   2.871   6.746
 7817SOL    HW224351   2.979   2.875   6.894
 7818SOL     OW24352   5.586   0.453   4.200
 7818SOL    HW124353   5.572   0.422   4.294
 7818SOL    HW224354   5.684   0.455   4.179
 7819SOL     OW24355   1.558   3.666   3.853
 7819SOL    HW124356   1.483   3.601   3.866
 7819SOL    HW224357   1.645   3.621   3.869
 7820SOL     OW24358   1.483   0.002   5.784
 7820SOL    HW124359   1.511   6.942   5.839
 7820SOL    HW224360   1.539   0.005   5.701
 7821SOL     OW24361   4.974   6.370   6.935
 7821SOL    HW124362   4.934   6.286   6.897
 7821SOL    HW224363   4.901   6.434   6.958
 7822SOL     OW24364   0.488   1.362   4.936
 7822SOL    HW124365   0.585   1.375   4.916
 7822SOL    HW224366   0.462   1.267   4.919
 7823SOL     OW24367   2.192   3.341   5.384
 7823SOL    HW124368   2.181   3.403   5.462
 7823SOL    HW224369   2.265   3.276   5.404
 7824SOL     OW24370   5.523   2.945   3.370
 7824SOL    HW124371   5.441   2.933   3.314
 7824SOL    HW224372   5.522   3.035   3.413
 7825SOL     OW24373   3.642   3.589   2.488
 7825SOL    HW124374   3.583   3.556   2.414
 7825SOL    HW224375   3.699   3.664   2.454
 7826SOL     OW24376   6.111   0.097   1.346
 7826SOL    HW124377   6.057   0.181   1.352
 7826SOL    HW224378   6.069   0.035   1.279
 7827SOL     OW24379   4.914   3.666   0.749
 7827SOL    HW124380   4.815   3.654   0.761
 7827SOL    HW224381   4.938   3.646   0.654
 7828SOL     OW24382   0.920   5.852   0.702
 7828SOL    HW124383   0.820   5.855   0.706
 7828SOL    HW224384   0.954   5.926   0.645
 7829SOL     OW24385   4.016   3.336   2.355
 7829SOL    HW124386   4.022   3.271   2.279
 7829SOL    HW224387   4.040   3.289   2.440
 7830SOL     OW24388   5.993   2.934   6.906
 7830SOL    HW124389   6.016   2.859   6.843
 7830SOL    HW224390   6.028   3.020   6.870
 7831SOL     OW24391   1.683   2.507   6.504
 7831SOL    HW124392   1.616   2.578   6.482
 7831SOL    HW224393   1.736   2.536   6.584
 7832SOL     OW24394   2.775   2.565   5.257
 7832SOL    HW124395   2.713   2.516   5.318
 7832SOL    HW224396   2.768   2.527   5.165
 7833SOL     OW24397   1.420   6.944   0.558
 7833SOL    HW124398   1.457   0.013   0.523
 7833SOL    HW224399   1.391   6.956   0.653
 7834SOL     OW24400   0.061   0.364   1.185
 7834SOL    HW124401   0.073   0.352   1.086
 7834SOL    HW224402   6.991   0.323   1.212
 7835SOL     OW24403   2.107   2.606   5.000
 7835SOL    HW124404   2.084   2.572   4.908
 7835SOL    HW224405   2.175   2.545   5.042
 7836SOL     OW24406   2.440   6.992   0.148
 7836SOL    HW124407   2.516   6.928   0.134
 7836SOL    HW224408   2.363   6.944   0.189
 7837SOL     OW24409   5.997   0.332   3.754
 7837SOL    HW124410   5.982   0.271   3.675
 7837SOL    HW224411   5.930   0.312   3.825
 7838SOL     OW24412   3.860   7.004   3.767
 7838SOL    HW124413   3.831   0.038   3.847
 7838SOL    HW224414   3.779   6.979   3.713
 7839SOL     OW24415   6.628   5.170   4.345
 7839SOL    HW124416   6.668   5.242   4.288
 7839SOL    HW224417   6.558   5.121   4.293
 7840SOL     OW24418   5.104   3.333   5.780
 7840SOL    HW124419   5.014   3.376   5.776
 7840SOL    HW224420   5.139   3.339   5.874
 7841SOL     OW24421   1.095   1.813   6.236
 7841SOL    HW124422   1.076   1.716   6.249
 7841SOL    HW224423   1.192   1.831   6.251
 7842SOL     OW24424   3.059   1.118   2.760
 7842SOL    HW124425   3.078   1.209   2.722
 7842SOL    HW224426   2.965   1.114   2.793
 7843SOL     OW24427   5.673   3.822   1.199
 7843SOL    HW124428   5.754   3.799   1.253
 7843SOL    HW224429   5.646   3.916   1.218
 7844SOL     OW24430   4.624   1.398   4.229
 7844SOL    HW124431   4.607   1.497   4.233
 7844SOL    HW224432   4.722   1.381   4.234
 7845SOL     OW24433   0.620   1.011   4.351
 7845SOL    HW124434   0.648   0.928   4.399
 7845SOL    HW224435   0.628   1.089   4.413
 7846SOL     OW24436   3.991   0.427   1.967
 7846SOL    HW124437   3.950   0.500   2.022
 7846SOL    HW224438   4.028   0.357   2.027
 7847SOL     OW24439   0.149   0.643   0.163
 7847SOL    HW124440   0.228   0.687   0.118
 7847SOL    HW224441   0.167   0.636   0.261
 7848SOL     OW24442   4.684   4.140   0.640
 7848SOL    HW124443   4.684   4.229   0.686
 7848SOL    HW224444   4.770   4.093   0.658
 7849SOL     OW24445   5.517   3.911   5.234
 7849SOL    HW124446   5.569   3.827   5.244
 7849SOL    HW224447   5.550   3.962   5.155
 7850SOL     OW24448   0.742   0.965   4.683
 7850SOL    HW124449   0.834   0.934   4.661
 7850SOL    HW224450   0.675   0.900   4.646
 7851SOL     OW24451   5.367   6.754   6.913
 7851SOL    HW124452   5.282   6.702   6.906
 7851SOL    HW224453   5.360   6.837   6.858
 7852SOL     OW24454   2.628   6.047   6.455
 7852SOL    HW124455   2.625   5.949   6.476
 7852SOL    HW224456   2.542   6.075   6.413
 7853SOL     OW24457   2.269   3.008   0.644
 7853SOL    HW124458   2.334   3.001   0.720
 7853SOL    HW224459   2.314   2.979   0.559
 7854SOL     OW24460   3.458   4.027   2.806
 7854SOL    HW124461   3.541   4.081   2.789
 7854SOL    HW224462   3.405   4.070   2.880
 7855SOL     OW24463   3.766   6.780   5.755
 7855SOL    HW124464   3.691   6.790   5.821
 7855SOL    HW224465   3.798   6.686   5.755
 7856SOL     OW24466   4.941   3.052   6.321
 7856SOL    HW124467   4.986   2.973   6.363
 7856SOL    HW224468   4.896   3.023   6.237
 7857SOL     OW24469   0.776   1.395   4.818
 7857SOL    HW124470   0.743   1.489   4.832
 7857SOL    HW224471   0.873   1.398   4.793
 7858SOL     OW24472   6.372   3.807   3.706
 7858SOL    HW124473   6.295   3.750   3.734
 7858SOL    HW224474   6.338   3.894   3.671
 7859SOL     OW24475   1.211   5.746   6.552
 7859SOL    HW124476   1.200   5.649   6.531
 7859SOL    HW224477   1.149   5.771   6.627
 7860SOL     OW24478   3.320   0.023   2.408
 7860SOL    HW124479   3.357   0.109   2.374
 7860SOL    HW224480   3.371   6.965   2.368
 7861SOL     OW24481   5.710   4.042   0.504
 7861SOL    HW124482   5.702   4.060   0.406
 7861SOL    HW224483   5.728   4.128   0.553
 7862SOL     OW24484   3.029   4.632   1.630
 7862SOL    HW124485   3.066   4.586   1.550
 7862SOL    HW224486   2.993   4.565   1.694
 7863SOL     OW24487   6.772   5.992   2.133
 7863SOL    HW124488   6.829   5.912   2.151
 7863SOL    HW224489   6.773   6.053   2.212
 7864SOL     OW24490   0.798   5.272   4.471
 7864SOL    HW124491   0.794   5.205   4.545
 7864SOL    HW224492   0.884   5.261   4.421
 7865SOL     OW24493   3.012   0.330   2.636
 7865SOL    HW124494   3.043   0.396   2.568
 7865SOL    HW224495   3.091   0.283   2.675
 7866SOL     OW24496   2.658   2.362   4.135
 7866SOL    HW124497   2.600   2.282   4.149
 7866SOL    HW224498   2.697   2.359   4.043
 7867SOL     OW24499   5.542   4.772   2.392
 7867SOL    HW124500   5.483   4.828   2.335
 7867SOL    HW224501   5.549   4.812   2.483
 7868SOL     OW24502   5.705   0.138   0.681
 7868SOL    HW124503   5.803   0.127   0.698
 7868SOL    HW224504   5.682   0.097   0.593
 7869SOL     OW24505   0.413   3.166   1.595
 7869SOL    HW124506   0.508   3.157   1.564
 7869SOL    HW224507   0.352   3.154   1.516
 7870SOL     OW24508   0.122   6.250   3.782
 7870SOL    HW124509   0.150   6.170   3.835
 7870SOL    HW224510   0.116   6.227   3.685
 7871SOL     OW24511   5.289   3.382   3.475
 7871SOL    HW124512   5.335   3.433   3.547
 7871SOL    HW224513   5.260   3.445   3.402
 7872SOL     OW24514   6.557   3.023   3.459
 7872SOL    HW124515   6.526   2.975   3.541
 7872SOL    HW224516   6.529   3.119   3.464
 7873SOL     OW24517   0.449   4.972   4.955
 7873SOL    HW124518   0.408   4.889   4.915
 7873SOL    HW224519   0.530   4.946   5.008
 7874SOL     OW24520   5.430   0.684   0.323
 7874SOL    HW124521   5.410   0.720   0.232
 7874SOL    HW224522   5.347   0.687   0.379
 7875SOL     OW24523   4.275   3.061   6.414
 7875SOL    HW124524   4.299   3.151   6.378
 7875SOL    HW224525   4.359   3.011   6.435
 7876SOL     OW24526   6.889   0.371   3.879
 7876SOL    HW124527   6.850   0.327   3.959
 7876SOL    HW224528   6.961   0.435   3.908
 7877SOL     OW24529   6.710   2.012   1.971
 7877SOL    HW124530   6.689   2.030   1.874
 7877SOL    HW224531   6.714   2.098   2.020
 7878SOL     OW24532   4.860   3.741   1.434
 7878SOL    HW124533   4.881   3.649   1.400
 7878SOL    HW224534   4.772   3.741   1.480
 7879SOL     OW24535   5.779   0.667   4.794
 7879SOL    HW124536   5.722   0.729   4.846
 7879SOL    HW224537   5.872   0.703   4.789
 7880SOL     OW24538   0.624   0.135   6.274
 7880SOL    HW124539   0.608   0.067   6.202
 7880SOL    HW224540   0.567   0.112   6.354
 7881SOL     OW24541   0.027   4.998   3.946
 7881SOL    HW124542   0.100   5.022   4.009
 7881SOL    HW224543   6.959   4.989   3.996
 7882SOL     OW24544   0.536   3.867   2.332
 7882SOL    HW124545   0.473   3.875   2.410
 7882SOL    HW224546   0.514   3.937   2.264
 7883SOL     OW24547   3.831   1.359   4.238
 7883SOL    HW124548   3.809   1.282   4.178
 7883SOL    HW224549   3.830   1.444   4.186
 7884SOL     OW24550   0.752   3.781   4.418
 7884SOL    HW124551   0.767   3.699   4.363
 7884SOL    HW224552   0.741   3.755   4.514
 7885SOL     OW24553   6.192   5.324   3.378
 7885SOL    HW124554   6.255   5.320   3.457
 7885SOL    HW224555   6.241   5.359   3.299
 7886SOL     OW24556   4.859   3.390   3.526
 7886SOL    HW124557   4.886   3.391   3.429
 7886SOL    HW224558   4.857   3.295   3.558
 7887SOL     OW24559   2.293   3.501   0.683
 7887SOL    HW124560   2.344   3.569   0.629
 7887SOL    HW224561   2.286   3.416   0.630
 7888SOL     OW24562   6.374   2.445   4.322
 7888SOL    HW124563   6.281   2.481   4.317
 7888SOL    HW224564   6.405   2.447   4.417
 7889SOL     OW24565   5.536   5.419   0.268
 7889SOL    HW124566   5.528   5.467   0.355
 7889SOL    HW224567   5.464   5.350   0.261
 7890SOL     OW24568   1.624   3.577   4.203
 7890SOL    HW124569   1.630   3.542   4.109
 7890SOL    HW224570   1.711   3.619   4.228
 7891SOL     OW24571   0.009   1.730   4.101
 7891SOL    HW124572   0.049   1.791   4.033
 7891SOL    HW224573   0.082   1.678   4.146
 7892SOL     OW24574   0.303   1.840   5.832
 7892SOL    HW124575   0.344   1.756   5.869
 7892SOL    HW224576   0.257   1.819   5.746
 7893SOL     OW24577   6.196   0.284   0.137
 7893SOL    HW124578   6.130   0.329   0.197
 7893SOL    HW224579   6.262   0.352   0.105
 7894SOL     OW24580   3.130   1.605   5.912
 7894SOL    HW124581   3.112   1.701   5.934
 7894SOL    HW224582   3.206   1.572   5.968
 7895SOL     OW24583   4.466   6.297   3.345
 7895SOL    HW124584   4.526   6.341   3.411
 7895SOL    HW224585   4.375   6.339   3.349
 7896SOL     OW24586   2.711   2.519   0.979
 7896SOL    HW124587   2.727   2.603   0.927
 7896SOL    HW224588   2.615   2.492   0.972
 7897SOL     OW24589   3.291   3.206   0.430
 7897SOL    HW124590   3.259   3.148   0.355
 7897SOL    HW224591   3.389   3.224   0.417
 7898SOL     OW24592   5.805   6.929   3.556
 7898SOL    HW124593   5.779   6.876   3.637
 7898SOL    HW224594   5.904   6.920   3.541
 7899SOL     OW24595   6.262   4.882   3.400
 7899SOL    HW124596   6.196   4.947   3.364
 7899SOL    HW224597   6.343   4.931   3.433
 7900SOL     OW24598   0.700   4.297   1.511
 7900SOL    HW124599   0.613   4.256   1.540
 7900SOL    HW224600   0.768   4.283   1.583
 7901SOL     OW24601   6.605   1.550   6.253
 7901SOL    HW124602   6.621   1.543   6.154
 7901SOL    HW224603   6.513   1.586   6.269
 7902SOL     OW24604   0.980   6.786   2.758
 7902SOL    HW124605   0.889   6.778   2.717
 7902SOL    HW224606   0.988   6.873   2.806
 7903SOL     OW24607   2.869   2.030   5.064
 7903SOL    HW124608   2.925   2.104   5.101
 7903SOL    HW224609   2.875   2.030   4.965
 7904SOL     OW24610   5.066   1.289   2.143
 7904SOL    HW124611   5.021   1.274   2.055
 7904SOL    HW224612   5.131   1.214   2.160
 7905SOL     OW24613   5.796   0.947   1.263
 7905SOL    HW124614   5.697   0.956   1.269
 7905SOL    HW224615   5.822   0.937   1.167
 7906SOL     OW24616   1.674   5.437   0.414
 7906SOL    HW124617   1.737   5.501   0.457
 7906SOL    HW224618   1.726   5.361   0.375
 7907SOL     OW24619   6.190   0.274   2.826
 7907SOL    HW124620   6.263   0.207   2.836
 7907SOL    HW224621   6.170   0.315   2.914
 7908SOL     OW24622   1.123   0.482   6.583
 7908SOL    HW124623   1.152   0.499   6.677
 7908SOL    HW224624   1.031   0.519   6.568
 7909SOL     OW24625   5.764   4.825   1.820
 7909SOL    HW124626   5.821   4.839   1.739
 7909SOL    HW224627   5.811   4.764   1.883
 7910SOL     OW24628   1.313   3.878   0.243
 7910SOL    HW124629   1.262   3.916   0.165
 7910SOL    HW224630   1.409   3.904   0.235
 7911SOL     OW24631   0.971   4.264   0.094
 7911SOL    HW124632   0.884   4.312   0.105
 7911SOL    HW224633   0.966   4.176   0.141
 7912SOL     OW24634   5.927   5.655   0.592
 7912SOL    HW124635   5.885   5.721   0.530
 7912SOL    HW224636   5.883   5.660   0.682
 7913SOL     OW24637   0.824   4.058   0.952
 7913SOL    HW124638   0.751   3.991   0.934
 7913SOL    HW224639   0.912   4.011   0.959
 7914SOL     OW24640   5.956   5.889   4.723
 7914SOL    HW124641   6.055   5.903   4.721
 7914SOL    HW224642   5.911   5.968   4.681
 7915SOL     OW24643   3.639   5.982   2.712
 7915SOL    HW124644   3.633   5.941   2.803
 7915SOL    HW224645   3.657   5.911   2.644
 7916SOL     OW24646   1.707   0.523   4.817
 7916SOL    HW124647   1.651   0.440   4.823
 7916SOL    HW224648   1.658   0.599   4.859
 7917SOL     OW24649   4.456   3.967   0.766
 7917SOL    HW124650   4.533   3.996   0.709
 7917SOL    HW224651   4.370   3.992   0.723
 7918SOL     OW24652   1.799   1.932   5.018
 7918SOL    HW124653   1.781   1.939   5.116
 7918SOL    HW224654   1.792   2.022   4.975
 7919SOL     OW24655   2.263   6.217   3.794
 7919SOL    HW124656   2.335   6.215   3.863
 7919SOL    HW224657   2.296   6.266   3.713
 7920SOL     OW24658   5.077   0.816   1.421
 7920SOL    HW124659   5.166   0.855   1.448
 7920SOL    HW224660   5.077   0.718   1.439
 7921SOL     OW24661   5.241   2.252   1.811
 7921SOL    HW124662   5.195   2.341   1.820
 7921SOL    HW224663   5.173   2.180   1.800
 7922SOL     OW24664   1.378   5.514   1.113
 7922SOL    HW124665   1.395   5.473   1.202
 7922SOL    HW224666   1.281   5.538   1.104
 7923SOL     OW24667   4.672   1.277   0.288
 7923SOL    HW124668   4.627   1.363   0.265
 7923SOL    HW224669   4.607   1.217   0.335
 7924SOL     OW24670   6.287   6.488   0.986
 7924SOL    HW124671   6.195   6.519   0.963
 7924SOL    HW224672   6.354   6.542   0.936
 7925SOL     OW24673   1.784   6.420   7.014
 7925SOL    HW124674   1.846   6.424   0.074
 7925SOL    HW224675   1.807   6.342   6.956
 7926SOL     OW24676   4.330   5.272   6.963
 7926SOL    HW124677   4.416   5.285   6.913
 7926SOL    HW224678   4.255   5.313   6.911
 7927SOL     OW24679   4.745   0.296   3.095
 7927SOL    HW124680   4.837   0.280   3.061
 7927SOL    HW224681   4.744   0.380   3.149
 7928SOL     OW24682   6.691   1.907   3.474
 7928SOL    HW124683   6.761   1.953   3.419
 7928SOL    HW224684   6.698   1.808   3.459
 7929SOL     OW24685   4.010   4.442   5.980
 7929SOL    HW124686   4.044   4.365   6.033
 7929SOL    HW224687   4.060   4.448   5.894
 7930SOL     OW24688   4.492   5.914   5.626
 7930SOL    HW124689   4.539   5.841   5.677
 7930SOL    HW224690   4.538   5.928   5.538
 7931SOL     OW24691   3.650   2.113   0.955
 7931SOL    HW124692   3.638   2.210   0.932
 7931SOL    HW224693   3.652   2.103   1.055
 7932SOL     OW24694   1.354   4.922   2.451
 7932SOL    HW124695   1.358   4.978   2.368
 7932SOL    HW224696   1.326   4.979   2.528
 7933SOL     OW24697   0.860   1.328   6.611
 7933SOL    HW124698   0.899   1.247   6.656
 7933SOL    HW224699   0.931   1.372   6.555
 7934SOL     OW24700   0.894   4.564   1.579
 7934SOL    HW124701   0.796   4.546   1.564
 7934SOL    HW224702   0.905   4.657   1.612
 7935SOL     OW24703   4.964   3.174   3.887
 7935SOL    HW124704   4.960   3.143   3.981
 7935SOL    HW224705   4.952   3.096   3.825
 7936SOL     OW24706   3.891   6.077   3.701
 7936SOL    HW124707   3.988   6.064   3.722
 7936SOL    HW224708   3.876   6.073   3.603
 7937SOL     OW24709   3.501   0.592   6.869
 7937SOL    HW124710   3.523   0.502   6.831
 7937SOL    HW224711   3.403   0.609   6.861
 7938SOL     OW24712   4.287   6.754   4.558
 7938SOL    HW124713   4.191   6.777   4.541
 7938SOL    HW224714   4.306   6.662   4.525
 7939SOL     OW24715   0.729   1.857   3.469
 7939SOL    HW124716   0.757   1.939   3.519
 7939SOL    HW224717   0.630   1.857   3.458
 7940SOL     OW24718   5.345   1.328   2.754
 7940SOL    HW124719   5.351   1.316   2.655
 7940SOL    HW224720   5.260   1.376   2.777
 7941SOL     OW24721   3.345   6.815   1.510
 7941SOL    HW124722   3.335   6.719   1.534
 7941SOL    HW224723   3.423   6.854   1.560
 7942SOL     OW24724   1.030   4.510   1.349
 7942SOL    HW124725   0.974   4.517   1.432
 7942SOL    HW224726   0.994   4.437   1.291
 7943SOL     OW24727   1.321   5.606   6.033
 7943SOL    HW124728   1.398   5.583   5.973
 7943SOL    HW224729   1.338   5.568   6.125
 7944SOL     OW24730   1.791   2.620   0.842
 7944SOL    HW124731   1.854   2.558   0.795
 7944SOL    HW224732   1.839   2.666   0.917
 7945SOL     OW24733   6.086   4.281   3.065
 7945SOL    HW124734   6.077   4.336   3.148
 7945SOL    HW224735   6.021   4.205   3.068
 7946SOL     OW24736   3.534   1.288   5.807
 7946SOL    HW124737   3.584   1.309   5.892
 7946SOL    HW224738   3.583   1.327   5.729
 7947SOL     OW24739   0.859   3.599   6.286
 7947SOL    HW124740   0.857   3.698   6.274
 7947SOL    HW224741   0.840   3.555   6.198
 7948SOL     OW24742   1.483   4.295   2.354
 7948SOL    HW124743   1.460   4.341   2.440
 7948SOL    HW224744   1.579   4.268   2.354
 7949SOL     OW24745   3.837   5.980   6.433
 7949SOL    HW124746   3.761   5.921   6.406
 7949SOL    HW224747   3.881   5.942   6.514
 7950SOL     OW24748   5.502   4.811   5.578
 7950SOL    HW124749   5.459   4.814   5.488
 7950SOL    HW224750   5.437   4.839   5.648
 7951SOL     OW24751   3.131   6.233   2.978
 7951SOL    HW124752   3.226   6.237   3.009
 7951SOL    HW224753   3.114   6.309   2.914
 7952SOL     OW24754   5.557   3.712   6.594
 7952SOL    HW124755   5.471   3.706   6.542
 7952SOL    HW224756   5.630   3.667   6.543
 7953SOL     OW24757   2.570   0.673   1.073
 7953SOL    HW124758   2.514   0.754   1.090
 7953SOL    HW224759   2.538   0.598   1.131
 7954SOL     OW24760   3.975   3.804   6.427
 7954SOL    HW124761   3.893   3.796   6.483
 7954SOL    HW224762   4.013   3.713   6.410
 7955SOL     OW24763   1.750   1.431   0.231
 7955SOL    HW124764   1.761   1.412   0.134
 7955SOL    HW224765   1.658   1.465   0.249
 7956SOL     OW24766   5.835   6.214   0.331
 7956SOL    HW124767   5.929   6.247   0.342
 7956SOL    HW224768   5.791   6.211   0.421
 7957SOL     OW24769   4.499   1.128   5.536
 7957SOL    HW124770   4.516   1.215   5.490
 7957SOL    HW224771   4.417   1.136   5.593
 7958SOL     OW24772   5.821   2.869   0.107
 7958SOL    HW124773   5.862   2.912   0.187
 7958SOL    HW224774   5.875   2.892   0.026
 7959SOL     OW24775   5.747   1.713   6.416
 7959SOL    HW124776   5.830   1.752   6.456
 7959SOL    HW224777   5.673   1.714   6.485
 7960SOL     OW24778   0.308   0.643   5.765
 7960SOL    HW124779   0.299   0.732   5.721
 7960SOL    HW224780   0.311   0.654   5.864
 7961SOL     OW24781   6.538   6.215   0.583
 7961SOL    HW124782   6.606   6.288   0.595
 7961SOL    HW224783   6.583   6.134   0.547
 7962SOL     OW24784   5.090   0.013   5.859
 7962SOL    HW124785   5.074   6.941   5.820
 7962SOL    HW224786   5.188   0.027   5.871
 7963SOL     OW24787   0.313   5.748   4.305
 7963SOL    HW124788   0.396   5.743   4.250
 7963SOL    HW224789   0.300   5.662   4.355
 7964SOL     OW24790   6.721   4.706   2.037
 7964SOL    HW124791   6.725   4.802   2.067
 7964SOL    HW224792   6.665   4.654   2.101
 7965SOL     OW24793   3.338   2.287   6.421
 7965SOL    HW124794   3.343   2.337   6.507
 7965SOL    HW224795   3.428   2.247   6.400
 7966SOL     OW24796   4.909   3.838   4.845
 7966SOL    HW124797   5.005   3.847   4.872
 7966SOL    HW224798   4.869   3.758   4.891
 7967SOL     OW24799   1.709   4.471   2.341
 7967SOL    HW124800   1.772   4.546   2.363
 7967SOL    HW224801   1.619   4.509   2.320
 7968SOL     OW24802   0.012   2.157   4.497
 7968SOL    HW124803   0.046   2.235   4.444
 7968SOL    HW224804   0.087   2.117   4.549
 7969SOL     OW24805   4.687   4.821   0.074
 7969SOL    HW124806   4.618   4.882   0.034
 7969SOL    HW224807   4.733   4.869   0.149
 7970SOL     OW24808   5.725   2.791   2.560
 7970SOL    HW124809   5.692   2.885   2.547
 7970SOL    HW224810   5.825   2.792   2.568
 7971SOL     OW24811   3.151   0.772   0.523
 7971SOL    HW124812   3.105   0.720   0.595
 7971SOL    HW224813   3.116   0.745   0.434
 7972SOL     OW24814   3.868   3.855   2.967
 7972SOL    HW124815   3.910   3.886   2.882
 7972SOL    HW224816   3.939   3.847   3.038
 7973SOL     OW24817   6.436   3.839   2.304
 7973SOL    HW124818   6.369   3.771   2.275
 7973SOL    HW224819   6.517   3.793   2.342
 7974SOL     OW24820   6.611   2.290   6.259
 7974SOL    HW124821   6.657   2.209   6.296
 7974SOL    HW224822   6.521   2.298   6.300
 7975SOL     OW24823   5.543   0.778   1.041
 7975SOL    HW124824   5.467   0.723   1.077
 7975SOL    HW224825   5.608   0.718   0.995
 7976SOL     OW24826   0.957   6.973   6.983
 7976SOL    HW124827   0.879   6.971   6.920
 7976SOL    HW224828   0.950   6.898   0.030
 7977SOL     OW24829   5.708   5.335   3.179
 7977SOL    HW124830   5.802   5.359   3.157
 7977SOL    HW224831   5.707   5.253   3.236
 7978SOL     OW24832   0.319   4.473   1.727
 7978SOL    HW124833   0.286   4.398   1.784
 7978SOL    HW224834   0.372   4.537   1.783
 7979SOL     OW24835   1.773   3.306   4.500
 7979SOL    HW124836   1.871   3.299   4.480
 7979SOL    HW224837   1.760   3.359   4.584
 7980SOL     OW24838   4.115   5.360   6.839
 7980SOL    HW124839   4.095   5.297   6.764
 7980SOL    HW224840   4.132   5.452   6.802
 7981SOL     OW24841   1.306   4.878   2.947
 7981SOL    HW124842   1.289   4.850   3.041
 7981SOL    HW224843   1.373   4.817   2.905
 7982SOL     OW24844   6.602   2.353   5.260
 7982SOL    HW124845   6.656   2.429   5.295
 7982SOL    HW224846   6.602   2.354   5.160
 7983SOL     OW24847   5.131   1.535   1.550
 7983SOL    HW124848   5.151   1.496   1.460
 7983SOL    HW224849   5.172   1.478   1.621
 7984SOL     OW24850   1.103   1.892   2.593
 7984SOL    HW124851   1.005   1.909   2.583
 7984SOL    HW224852   1.147   1.973   2.632
 7985SOL     OW24853   2.737   2.278   5.372
 7985SOL    HW124854   2.652   2.254   5.420
 7985SOL    HW224855   2.805   2.308   5.438
 7986SOL     OW24856   2.802   1.112   3.879
 7986SOL    HW124857   2.714   1.160   3.882
 7986SOL    HW224858   2.874   1.175   3.850
 7987SOL     OW24859   1.266   3.354   0.141
 7987SOL    HW124860   1.366   3.360   0.149
 7987SOL    HW224861   1.225   3.432   0.188
 7988SOL     OW24862   6.736   1.607   0.864
 7988SOL    HW124863   6.799   1.558   0.805
 7988SOL    HW224864   6.777   1.617   0.955
 7989SOL     OW24865   0.400   4.652   0.434
 7989SOL    HW124866   0.403   4.708   0.352
 7989SOL    HW224867   0.347   4.699   0.505
 7990SOL     OW24868   3.902   5.184   5.619
 7990SOL    HW124869   3.976   5.245   5.647
 7990SOL    HW224870   3.815   5.218   5.654
 7991SOL     OW24871   6.423   1.306   4.861
 7991SOL    HW124872   6.463   1.297   4.952
 7991SOL    HW224873   6.455   1.232   4.802
 7992SOL     OW24874   2.732   0.079   0.296
 7992SOL    HW124875   2.640   0.082   0.259
 7992SOL    HW224876   2.742   7.015   0.353
 7993SOL     OW24877   6.763   6.089   1.416
 7993SOL    HW124878   6.785   6.016   1.480
 7993SOL    HW224879   6.793   6.177   1.455
 7994SOL     OW24880   5.348   0.167   3.607
 7994SOL    HW124881   5.419   0.100   3.584
 7994SOL    HW224882   5.337   0.171   3.706
 7995SOL     OW24883   0.337   4.415   1.471
 7995SOL    HW124884   0.352   4.490   1.406
 7995SOL    HW224885   0.320   4.453   1.562
 7996SOL     OW24886   3.308   0.930   3.019
 7996SOL    HW124887   3.242   0.961   3.088
 7996SOL    HW224888   3.260   0.880   2.947
 7997SOL     OW24889   1.201   1.724   6.871
 7997SOL    HW124890   1.240   1.809   6.908
 7997SOL    HW224891   1.190   1.657   6.945
 7998SOL     OW24892   2.745   1.286   0.497
 7998SOL    HW124893   2.824   1.296   0.558
 7998SOL    HW224894   2.753   1.352   0.422
 7999SOL     OW24895   0.893   0.703   4.764
 7999SOL    HW124896   0.863   0.779   4.820
 7999SOL    HW224897   0.814   0.647   4.738
 8000SOL     OW24898   4.530   5.355   6.802
 8000SOL    HW124899   4.615   5.303   6.813
 8000SOL    HW224900   4.510   5.366   6.704
 8001SOL     OW24901   4.236   6.650   1.751
 8001SOL    HW124902   4.322   6.676   1.795
 8001SOL    HW224903   4.256   6.599   1.667
 8002SOL     OW24904   0.775   0.057   4.964
 8002SOL    HW124905   0.824   6.990   4.943
 8002SOL    HW224906   0.733   0.050   5.055
 8003SOL     OW24907   2.070   6.310   2.277
 8003SOL    HW124908   2.109   6.400   2.257
 8003SOL    HW224909   1.979   6.321   2.316
 8004SOL     OW24910   1.270   3.210   3.509
 8004SOL    HW124911   1.246   3.209   3.412
 8004SOL    HW224912   1.232   3.129   3.554
 8005SOL     OW24913   2.610   0.429   3.545
 8005SOL    HW124914   2.516   0.406   3.521
 8005SOL    HW224915   2.659   0.461   3.464
 8006SOL     OW24916   3.514   4.808   5.536
 8006SOL    HW124917   3.485   4.738   5.601
 8006SOL    HW224918   3.589   4.773   5.480
 8007SOL     OW24919   6.356   0.624   6.498
 8007SOL    HW124920   6.424   0.672   6.554
 8007SOL    HW224921   6.344   0.673   6.412
 8008SOL     OW24922   5.280   6.722   6.475
 8008SOL    HW124923   5.332   6.758   6.397
 8008SOL    HW224924   5.204   6.667   6.441
 8009SOL     OW24925   4.756   1.829   6.182
 8009SOL    HW124926   4.762   1.748   6.124
 8009SOL    HW224927   4.836   1.833   6.242
 8010SOL     OW24928   2.741   1.701   5.672
 8010SOL    HW124929   2.779   1.640   5.603
 8010SOL    HW224930   2.660   1.660   5.713
 8011SOL     OW24931   4.064   1.474   1.744
 8011SOL    HW124932   4.036   1.391   1.695
 8011SOL    HW224933   4.079   1.452   1.841
 8012SOL     OW24934   6.889   1.394   5.471
 8012SOL    HW124935   6.898   1.374   5.373
 8012SOL    HW224936   6.795   1.380   5.499
 8013SOL     OW24937   3.195   2.156   2.591
 8013SOL    HW124938   3.216   2.211   2.672
 8013SOL    HW224939   3.269   2.091   2.574
 8014SOL     OW24940   2.002   1.282   2.260
 8014SOL    HW124941   1.983   1.360   2.319
 8014SOL    HW224942   1.950   1.291   2.175
 8015SOL     OW24943   2.943   6.956   5.606
 8015SOL    HW124944   2.935   6.938   5.704
 8015SOL    HW224945   2.854   6.944   5.563
 8016SOL     OW24946   3.687   1.796   4.887
 8016SOL    HW124947   3.658   1.716   4.941
 8016SOL    HW224948   3.780   1.782   4.853
 8017SOL     OW24949   6.249   6.308   1.192
 8017SOL    HW124950   6.251   6.388   1.132
 8017SOL    HW224951   6.154   6.276   1.201
 8018SOL     OW24952   3.866   1.783   7.000
 8018SOL    HW124953   3.782   1.733   0.001
 8018SOL    HW224954   3.921   1.731   6.934
 8019SOL     OW24955   2.434   3.914   1.264
 8019SOL    HW124956   2.445   3.887   1.168
 8019SOL    HW224957   2.483   3.848   1.322
 8020SOL     OW24958   0.254   0.853   5.601
 8020SOL    HW124959   0.174   0.804   5.634
 8020SOL    HW224960   0.229   0.947   5.578
 8021SOL     OW24961   1.136   2.188   1.288
 8021SOL    HW124962   1.101   2.197   1.194
 8021SOL    HW224963   1.202   2.261   1.306
 8022SOL     OW24964   4.973   1.667   1.972
 8022SOL    HW124965   4.890   1.628   2.012
 8022SOL    HW224966   4.948   1.741   1.909
 8023SOL     OW24967   5.034   5.426   2.901
 8023SOL    HW124968   5.117   5.371   2.892
 8023SOL    HW224969   4.967   5.396   2.833
 8024SOL     OW24970   2.366   0.845   6.637
 8024SOL    HW124971   2.289   0.786   6.659
 8024SOL    HW224972   2.342   0.940   6.655
 8025SOL     OW24973   1.396   5.786   0.995
 8025SOL    HW124974   1.299   5.807   0.984
 8025SOL    HW224975   1.411   5.688   0.988
 8026SOL     OW24976   0.837   5.516   6.639
 8026SOL    HW124977   0.749   5.471   6.658
 8026SOL    HW224978   0.911   5.460   6.675
 8027SOL     OW24979   3.342   6.823   0.113
 8027SOL    HW124980   3.310   6.733   0.144
 8027SOL    HW224981   3.329   6.831   0.014
 8028SOL     OW24982   3.120   5.599   5.262
 8028SOL    HW124983   3.157   5.609   5.170
 8028SOL    HW224984   3.189   5.559   5.322
 8029SOL     OW24985   6.744   6.969   0.163
 8029SOL    HW124986   6.738   0.050   0.177
 8029SOL    HW224987   6.682   6.942   0.089
 8030SOL     OW24988   1.082   3.944   0.761
 8030SOL    HW124989   1.069   3.845   0.770
 8030SOL    HW224990   1.084   3.969   0.665
 8031SOL     OW24991   0.070   0.804   3.182
 8031SOL    HW124992   0.129   0.724   3.189
 8031SOL    HW224993   0.022   0.818   3.269
 8032SOL     OW24994   5.899   3.077   1.228
 8032SOL    HW124995   5.890   3.159   1.170
 8032SOL    HW224996   5.975   3.090   1.292
 8033SOL     OW24997   5.191   3.622   0.769
 8033SOL    HW124998   5.091   3.630   0.772
 8033SOL    HW224999   5.230   3.664   0.851
 8034SOL     OW25000   6.085   0.222   5.586
 8034SOL    HW125001   6.103   0.190   5.679
 8034SOL    HW225002   6.165   0.272   5.552
 8035SOL     OW25003   5.799   1.806   3.186
 8035SOL    HW125004   5.825   1.894   3.148
 8035SOL    HW225005   5.800   1.812   3.286
 8036SOL     OW25006   6.198   2.615   3.760
 8036SOL    HW125007   6.188   2.515   3.761
 8036SOL    HW225008   6.171   2.650   3.670
 8037SOL     OW25009   1.066   2.274   6.094
 8037SOL    HW125010   1.058   2.210   6.170
 8037SOL    HW225011   1.028   2.233   6.011
 8038SOL     OW25012   0.154   4.852   2.567
 8038SOL    HW125013   0.085   4.906   2.616
 8038SOL    HW225014   0.241   4.901   2.566
 8039SOL     OW25015   1.086   2.463   5.430
 8039SOL    HW125016   1.173   2.421   5.457
 8039SOL    HW225017   1.104   2.537   5.364
 8040SOL     OW25018   2.278   5.360   6.356
 8040SOL    HW125019   2.184   5.350   6.323
 8040SOL    HW225020   2.314   5.449   6.328
 8041SOL     OW25021   3.950   1.337   3.596
 8041SOL    HW125022   3.922   1.430   3.618
 8041SOL    HW225023   4.021   1.339   3.526
 8042SOL     OW25024   4.244   4.144   5.677
 8042SOL    HW125025   4.198   4.056   5.683
 8042SOL    HW225026   4.333   4.132   5.632
 8043SOL     OW25027   5.476   5.286   6.586
 8043SOL    HW125028   5.438   5.277   6.494
 8043SOL    HW225029   5.565   5.331   6.581
 8044SOL     OW25030   2.774   3.714   1.729
 8044SOL    HW125031   2.677   3.735   1.731
 8044SOL    HW225032   2.787   3.615   1.732
 8045SOL     OW25033   0.588   1.548   2.982
 8045SOL    HW125034   0.505   1.582   2.938
 8045SOL    HW225035   0.651   1.513   2.912
 8046SOL     OW25036   0.083   4.982   1.898
 8046SOL    HW125037   0.080   4.970   1.997
 8046SOL    HW225038   0.117   4.899   1.855
 8047SOL     OW25039   3.706   6.420   6.792
 8047SOL    HW125040   3.664   6.370   6.717
 8047SOL    HW225041   3.695   6.519   6.777
 8048SOL     OW25042   3.602   2.702   6.767
 8048SOL    HW125043   3.568   2.608   6.764
 8048SOL    HW225044   3.699   2.704   6.746
 8049SOL     OW25045   1.506   1.470   0.336
 8049SOL    HW125046   1.557   1.530   0.398
 8049SOL    HW225047   1.409   1.471   0.362
 8050SOL     OW25048   0.257   4.432   5.623
 8050SOL    HW125049   0.157   4.434   5.613
 8050SOL    HW225050   0.300   4.470   5.541
 8051SOL     OW25051   4.131   5.998   3.841
 8051SOL    HW125052   4.196   6.070   3.864
 8051SOL    HW225053   4.179   5.910   3.835
 8052SOL     OW25054   2.279   2.647   2.505
 8052SOL    HW125055   2.297   2.566   2.560
 8052SOL    HW225056   2.306   2.630   2.410
 8053SOL     OW25057   2.254   2.754   6.240
 8053SOL    HW125058   2.192   2.676   6.234
 8053SOL    HW225059   2.321   2.737   6.313
 8054SOL     OW25060   4.604   3.435   5.428
 8054SOL    HW125061   4.661   3.502   5.379
 8054SOL    HW225062   4.649   3.346   5.427
 8055SOL     OW25063   6.168   0.387   6.601
 8055SOL    HW125064   6.089   0.346   6.556
 8055SOL    HW225065   6.198   0.468   6.550
 8056SOL     OW25066   1.940   1.445   4.563
 8056SOL    HW125067   1.853   1.482   4.532
 8056SOL    HW225068   2.013   1.476   4.501
 8057SOL     OW25069   2.817   2.100   2.030
 8057SOL    HW125070   2.912   2.077   2.009
 8057SOL    HW225071   2.811   2.197   2.056
 8058SOL     OW25072   3.523   6.219   2.657
 8058SOL    HW125073   3.533   6.269   2.571
 8058SOL    HW225074   3.583   6.139   2.656
 8059SOL     OW25075   2.504   3.147   6.341
 8059SOL    HW125076   2.590   3.102   6.365
 8059SOL    HW225077   2.480   3.212   6.413
 8060SOL     OW25078   5.975   0.139   5.216
 8060SOL    HW125079   6.069   0.161   5.188
 8060SOL    HW225080   5.935   0.219   5.262
 8061SOL     OW25081   0.093   0.673   2.245
 8061SOL    HW125082   0.161   0.623   2.192
 8061SOL    HW225083   0.086   0.632   2.337
 8062SOL     OW25084   4.416   5.604   5.984
 8062SOL    HW125085   4.377   5.676   5.927
 8062SOL    HW225086   4.403   5.515   5.940
 8063SOL     OW25087   3.786   5.566   3.310
 8063SOL    HW125088   3.845   5.634   3.267
 8063SOL    HW225089   3.736   5.608   3.385
 8064SOL     OW25090   6.059   1.503   1.097
 8064SOL    HW125091   6.107   1.440   1.037
 8064SOL    HW225092   5.973   1.532   1.054
 8065SOL     OW25093   3.705   5.476   6.210
 8065SOL    HW125094   3.626   5.439   6.258
 8065SOL    HW225095   3.697   5.576   6.204
 8066SOL     OW25096   0.473   6.791   5.103
 8066SOL    HW125097   0.448   6.888   5.114
 8066SOL    HW225098   0.529   6.781   5.021
 8067SOL     OW25099   5.395   3.244   3.927
 8067SOL    HW125100   5.357   3.159   3.892
 8067SOL    HW225101   5.368   3.320   3.868
 8068SOL     OW25102   6.375   4.098   0.883
 8068SOL    HW125103   6.379   4.168   0.955
 8068SOL    HW225104   6.407   4.011   0.919
 8069SOL     OW25105   2.647   5.026   2.506
 8069SOL    HW125106   2.730   5.004   2.455
 8069SOL    HW225107   2.671   5.055   2.599
 8070SOL     OW25108   4.814   4.970   0.286
 8070SOL    HW125109   4.884   4.957   0.357
 8070SOL    HW225110   4.826   5.060   0.244
 8071SOL     OW25111   2.935   6.631   5.584
 8071SOL    HW125112   2.916   6.642   5.681
 8071SOL    HW225113   2.850   6.635   5.532
 8072SOL     OW25114   1.315   2.344   5.593
 8072SOL    HW125115   1.294   2.281   5.518
 8072SOL    HW225116   1.295   2.300   5.681
 8073SOL     OW25117   3.915   0.364   6.859
 8073SOL    HW125118   3.837   0.395   6.913
 8073SOL    HW225119   3.922   0.419   6.776
 8074SOL     OW25120   1.470   1.188   6.659
 8074SOL    HW125121   1.477   1.280   6.698
 8074SOL    HW225122   1.374   1.161   6.653
 8075SOL     OW25123   0.873   6.777   0.664
 8075SOL    HW125124   0.900   6.848   0.600
 8075SOL    HW225125   0.910   6.798   0.755
 8076SOL     OW25126   0.168   6.102   0.703
 8076SOL    HW125127   0.154   6.004   0.693
 8076SOL    HW225128   0.208   6.139   0.619
 8077SOL     OW25129   4.716   4.836   0.907
 8077SOL    HW125130   4.683   4.787   0.989
 8077SOL    HW225131   4.754   4.924   0.934
 8078SOL     OW25132   0.477   0.524   2.353
 8078SOL    HW125133   0.476   0.599   2.287
 8078SOL    HW225134   0.496   0.561   2.445
 8079SOL     OW25135   1.265   2.213   5.369
 8079SOL    HW125136   1.293   2.125   5.330
 8079SOL    HW225137   1.300   2.287   5.312
 8080SOL     OW25138   1.372   2.824   3.033
 8080SOL    HW125139   1.285   2.869   3.050
 8080SOL    HW225140   1.419   2.808   3.120
 8081SOL     OW25141   6.455   6.003   4.196
 8081SOL    HW125142   6.540   6.012   4.144
 8081SOL    HW225143   6.430   6.092   4.235
 8082SOL     OW25144   4.227   1.818   1.932
 8082SOL    HW125145   4.250   1.788   2.025
 8082SOL    HW225146   4.260   1.911   1.917
 8083SOL     OW25147   5.916   2.551   4.749
 8083SOL    HW125148   5.903   2.454   4.771
 8083SOL    HW225149   5.829   2.600   4.762
 8084SOL     OW25150   2.913   0.918   5.919
 8084SOL    HW125151   2.903   1.005   5.871
 8084SOL    HW225152   2.829   0.865   5.908
 8085SOL     OW25153   1.663   6.249   4.153
 8085SOL    HW125154   1.700   6.156   4.151
 8085SOL    HW225155   1.681   6.293   4.065
 8086SOL     OW25156   6.675   1.118   1.812
 8086SOL    HW125157   6.705   1.152   1.723
 8086SOL    HW225158   6.677   1.193   1.879
 8087SOL     OW25159   1.188   0.757   0.762
 8087SOL    HW125160   1.254   0.823   0.796
 8087SOL    HW225161   1.195   0.752   0.662
 8088SOL     OW25162   6.421   0.023   4.978
 8088SOL    HW125163   6.389   6.963   5.032
 8088SOL    HW225164   6.446   7.011   4.887
 8089SOL     OW25165   5.312   2.777   6.280
 8089SOL    HW125166   5.363   2.733   6.205
 8089SOL    HW225167   5.375   2.831   6.336
 8090SOL     OW25168   4.142   1.901   5.437
 8090SOL    HW125169   4.169   1.916   5.342
 8090SOL    HW225170   4.043   1.913   5.445
 8091SOL     OW25171   1.680   4.575   4.653
 8091SOL    HW125172   1.756   4.569   4.588
 8091SOL    HW225173   1.645   4.669   4.653
 8092SOL     OW25174   4.940   2.094   5.500
 8092SOL    HW125175   4.963   1.998   5.487
 8092SOL    HW225176   4.921   2.111   5.597
 8093SOL     OW25177   4.225   6.311   2.303
 8093SOL    HW125178   4.213   6.233   2.242
 8093SOL    HW225179   4.304   6.295   2.362
 8094SOL     OW25180   1.684   3.932   3.550
 8094SOL    HW125181   1.638   3.971   3.630
 8094SOL    HW225182   1.739   4.003   3.506
 8095SOL     OW25183   1.064   4.657   5.817
 8095SOL    HW125184   1.134   4.607   5.766
 8095SOL    HW225185   0.975   4.613   5.804
 8096SOL     OW25186   1.043   5.778   1.751
 8096SOL    HW125187   1.083   5.790   1.842
 8096SOL    HW225188   1.109   5.809   1.682
 8097SOL     OW25189   3.649   5.574   5.229
 8097SOL    HW125190   3.606   5.628   5.301
 8097SOL    HW225191   3.580   5.550   5.160
 8098SOL     OW25192   1.628   5.272   5.077
 8098SOL    HW125193   1.632   5.278   4.977
 8098SOL    HW225194   1.706   5.319   5.117
 8099SOL     OW25195   2.508   5.723   3.448
 8099SOL    HW125196   2.444   5.650   3.473
 8099SOL    HW225197   2.512   5.790   3.522
 8100SOL     OW25198   0.287   0.388   6.809
 8100SOL    HW125199   0.275   0.429   6.899
 8100SOL    HW225200   0.348   0.309   6.815
 8101SOL     OW25201   2.625   5.980   1.893
 8101SOL    HW125202   2.667   5.889   1.893
 8101SOL    HW225203   2.657   6.031   1.972
 8102SOL     OW25204   1.375   3.206   5.144
 8102SOL    HW125205   1.474   3.216   5.134
 8102SOL    HW225206   1.345   3.125   5.093
 8103SOL     OW25207   3.177   1.368   2.068
 8103SOL    HW125208   3.188   1.303   2.143
 8103SOL    HW225209   3.179   1.461   2.103
 8104SOL     OW25210   2.509   6.422   0.253
 8104SOL    HW125211   2.434   6.358   0.271
 8104SOL    HW225212   2.506   6.453   0.158
 8105SOL     OW25213   0.048   0.900   2.933
 8105SOL    HW125214   0.048   0.839   3.012
 8105SOL    HW225215   0.141   0.928   2.913
 8106SOL     OW25216   2.567   6.345   5.264
 8106SOL    HW125217   2.507   6.412   5.307
 8106SOL    HW225218   2.532   6.322   5.173
 8107SOL     OW25219   2.008   5.681   5.845
 8107SOL    HW125220   1.915   5.713   5.828
 8107SOL    HW225221   2.008   5.582   5.857
 8108SOL     OW25222   0.459   1.342   6.572
 8108SOL    HW125223   0.377   1.315   6.523
 8108SOL    HW225224   0.538   1.337   6.511
 8109SOL     OW25225   0.038   3.132   0.707
 8109SOL    HW125226   0.040   3.215   0.764
 8109SOL    HW225227   7.003   3.061   0.754
 8110SOL     OW25228   4.267   4.960   0.863
 8110SOL    HW125229   4.308   5.044   0.901
 8110SOL    HW225230   4.256   4.893   0.936
 8111SOL     OW25231   5.966   1.481   3.311
 8111SOL    HW125232   6.046   1.448   3.261
 8111SOL    HW225233   5.985   1.476   3.410
 8112SOL     OW25234   0.831   3.534   6.030
 8112SOL    HW125235   0.809   3.437   6.042
 8112SOL    HW225236   0.916   3.543   5.979
 8113SOL     OW25237   5.589   2.820   0.275
 8113SOL    HW125238   5.575   2.901   0.332
 8113SOL    HW225239   5.620   2.848   0.184
 8114SOL     OW25240   1.991   4.461   1.542
 8114SOL    HW125241   2.070   4.436   1.486
 8114SOL    HW225242   2.022   4.496   1.630
 8115SOL     OW25243   2.062   1.109   6.524
 8115SOL    HW125244   2.015   1.095   6.611
 8115SOL    HW225245   2.094   1.204   6.518
 8116SOL     OW25246   3.241   4.228   1.312
 8116SOL    HW125247   3.258   4.231   1.214
 8116SOL    HW225248   3.281   4.145   1.350
 8117SOL     OW25249   3.019   0.020   2.882
 8117SOL    HW125250   3.055   0.092   2.823
 8117SOL    HW225251   2.944   0.057   2.938
 8118SOL     OW25252   6.678   3.044   0.422
 8118SOL    HW125253   6.614   3.047   0.346
 8118SOL    HW225254   6.667   3.126   0.479
 8119SOL     OW25255   6.061   5.826   6.652
 8119SOL    HW125256   6.055   5.925   6.663
 8119SOL    HW225257   6.132   5.804   6.585
 8120SOL     OW25258   2.082   5.950   1.508
 8120SOL    HW125259   2.108   5.972   1.414
 8120SOL    HW225260   2.113   6.023   1.569
 8121SOL     OW25261   1.042   2.634   2.459
 8121SOL    HW125262   1.008   2.615   2.551
 8121SOL    HW225263   1.072   2.729   2.453
 8122SOL     OW25264   0.950   4.089   2.141
 8122SOL    HW125265   0.903   4.005   2.168
 8122SOL    HW225266   0.889   4.167   2.155
 8123SOL     OW25267   0.191   1.829   5.574
 8123SOL    HW125268   0.249   1.822   5.493
 8123SOL    HW225269   0.113   1.767   5.566
 8124SOL     OW25270   5.333   4.898   4.658
 8124SOL    HW125271   5.314   4.931   4.565
 8124SOL    HW225272   5.417   4.845   4.657
 8125SOL     OW25273   1.185   6.724   2.451
 8125SOL    HW125274   1.284   6.726   2.462
 8125SOL    HW225275   1.142   6.773   2.527
 8126SOL     OW25276   3.907   4.894   4.572
 8126SOL    HW125277   3.964   4.870   4.493
 8126SOL    HW225278   3.944   4.850   4.654
 8127SOL     OW25279   3.370   2.788   0.242
 8127SOL    HW125280   3.345   2.814   0.149
 8127SOL    HW225281   3.384   2.871   0.297
 8128SOL     OW25282   3.537   2.801   1.785
 8128SOL    HW125283   3.499   2.873   1.842
 8128SOL    HW225284   3.465   2.761   1.728
 8129SOL     OW25285   1.037   2.755   0.798
 8129SOL    HW125286   1.099   2.704   0.859
 8129SOL    HW225287   0.943   2.747   0.831
 8130SOL     OW25288   1.326   4.878   6.898
 8130SOL    HW125289   1.338   4.950   6.829
 8130SOL    HW225290   1.328   4.920   6.989
 8131SOL     OW25291   2.240   3.857   1.005
 8131SOL    HW125292   2.201   3.901   0.924
 8131SOL    HW225293   2.206   3.901   1.087
 8132SOL     OW25294   0.432   6.760   4.739
 8132SOL    HW125295   0.516   6.732   4.786
 8132SOL    HW225296   0.455   6.826   4.667
 8133SOL     OW25297   3.339   5.294   1.073
 8133SOL    HW125298   3.286   5.248   1.002
 8133SOL    HW225299   3.318   5.392   1.072
 8134SOL     OW25300   5.842   1.025   5.227
 8134SOL    HW125301   5.861   0.929   5.247
 8134SOL    HW225302   5.798   1.068   5.306
 8135SOL     OW25303   2.404   7.013   1.566
 8135SOL    HW125304   2.476   6.945   1.577
 8135SOL    HW225305   2.371   0.024   1.656
 8136SOL     OW25306   4.512   5.389   2.108
 8136SOL    HW125307   4.478   5.310   2.159
 8136SOL    HW225308   4.542   5.460   2.172
 8137SOL     OW25309   3.616   1.917   4.464
 8137SOL    HW125310   3.711   1.887   4.455
 8137SOL    HW225311   3.577   1.878   4.547
 8138SOL     OW25312   4.986   1.085   1.472
 8138SOL    HW125313   5.010   0.988   1.461
 8138SOL    HW225314   5.039   1.124   1.547
 8139SOL     OW25315   0.908   1.724   2.721
 8139SOL    HW125316   0.973   1.785   2.676
 8139SOL    HW225317   0.947   1.691   2.807
 8140SOL     OW25318   3.532   0.949   3.559
 8140SOL    HW125319   3.622   0.972   3.598
 8140SOL    HW225320   3.525   0.850   3.550
 8141SOL     OW25321   4.237   5.086   4.790
 8141SOL    HW125322   4.326   5.105   4.750
 8141SOL    HW225323   4.201   5.000   4.754
 8142SOL     OW25324   6.206   5.375   0.421
 8142SOL    HW125325   6.209   5.418   0.511
 8142SOL    HW225326   6.252   5.434   0.354
 8143SOL     OW25327   5.852   4.287   5.615
 8143SOL    HW125328   5.854   4.382   5.585
 8143SOL    HW225329   5.943   4.247   5.605
 8144SOL     OW25330   5.730   6.518   6.616
 8144SOL    HW125331   5.732   6.420   6.598
 8144SOL    HW225332   5.645   6.557   6.581
 8145SOL     OW25333   6.068   5.771   2.272
 8145SOL    HW125334   6.093   5.857   2.229
 8145SOL    HW225335   6.120   5.696   2.230
 8146SOL     OW25336   3.233   1.219   4.995
 8146SOL    HW125337   3.327   1.193   5.016
 8146SOL    HW225338   3.220   1.316   5.014
 8147SOL     OW25339   4.866   1.946   3.980
 8147SOL    HW125340   4.791   1.963   3.916
 8147SOL    HW225341   4.954   1.968   3.936
 8148SOL     OW25342   5.705   3.586   2.905
 8148SOL    HW125343   5.617   3.565   2.863
 8148SOL    HW225344   5.726   3.683   2.892
 8149SOL     OW25345   3.993   4.982   3.543
 8149SOL    HW125346   3.989   5.038   3.626
 8149SOL    HW225347   4.013   5.041   3.465
 8150SOL     OW25348   0.391   5.389   6.428
 8150SOL    HW125349   0.479   5.342   6.417
 8150SOL    HW225350   0.387   5.430   6.519
 8151SOL     OW25351   1.099   2.014   5.233
 8151SOL    HW125352   1.036   1.958   5.179
 8151SOL    HW225353   1.193   1.983   5.219
 8152SOL     OW25354   1.690   0.675   3.142
 8152SOL    HW125355   1.679   0.752   3.205
 8152SOL    HW225356   1.758   0.612   3.180
 8153SOL     OW25357   2.333   6.317   0.734
 8153SOL    HW125358   2.275   6.344   0.657
 8153SOL    HW225359   2.375   6.228   0.715
 8154SOL     OW25360   1.757   6.565   3.733
 8154SOL    HW125361   1.797   6.631   3.796
 8154SOL    HW225362   1.818   6.553   3.655
 8155SOL     OW25363   2.977   3.304   3.066
 8155SOL    HW125364   2.916   3.381   3.086
 8155SOL    HW225365   3.031   3.282   3.147
 8156SOL     OW25366   6.381   0.242   5.951
 8156SOL    HW125367   6.314   0.293   5.897
 8156SOL    HW225368   6.447   0.199   5.889
 8157SOL     OW25369   5.997   3.766   6.651
 8157SOL    HW125370   6.074   3.747   6.711
 8157SOL    HW225371   5.971   3.862   6.659
 8158SOL     OW25372   1.304   5.343   2.141
 8158SOL    HW125373   1.280   5.440   2.132
 8158SOL    HW225374   1.403   5.335   2.156
 8159SOL     OW25375   1.805   6.278   2.332
 8159SOL    HW125376   1.752   6.359   2.309
 8159SOL    HW225377   1.782   6.203   2.270
 8160SOL     OW25378   4.151   2.314   1.678
 8160SOL    HW125379   4.173   2.382   1.748
 8160SOL    HW225380   4.053   2.299   1.676
 8161SOL     OW25381   5.009   1.181   0.455
 8161SOL    HW125382   4.976   1.264   0.410
 8161SOL    HW225383   4.941   1.108   0.444
 8162SOL     OW25384   5.669   0.651   1.384
 8162SOL    HW125385   5.617   0.573   1.420
 8162SOL    HW225386   5.649   0.662   1.286
 8163SOL     OW25387   2.335   4.190   5.331
 8163SOL    HW125388   2.381   4.123   5.273
 8163SOL    HW225389   2.331   4.156   5.425
 8164SOL     OW25390   4.501   2.482   2.140
 8164SOL    HW125391   4.557   2.404   2.172
 8164SOL    HW225392   4.537   2.515   2.053
 8165SOL     OW25393   2.193   4.609   1.774
 8165SOL    HW125394   2.256   4.655   1.711
 8165SOL    HW225395   2.186   4.661   1.859
 8166SOL     OW25396   2.815   6.942   2.179
 8166SOL    HW125397   2.877   6.991   2.119
 8166SOL    HW225398   2.832   6.967   2.275
 8167SOL     OW25399   6.132   2.561   4.052
 8167SOL    HW125400   6.210   2.612   4.087
 8167SOL    HW225401   6.132   2.565   3.952
 8168SOL     OW25402   3.266   1.250   3.019
 8168SOL    HW125403   3.279   1.259   3.117
 8168SOL    HW225404   3.259   1.154   2.995
 8169SOL     OW25405   4.454   3.909   6.674
 8169SOL    HW125406   4.389   3.951   6.612
 8169SOL    HW225407   4.429   3.931   6.769
 8170SOL     OW25408   0.842   5.581   3.839
 8170SOL    HW125409   0.914   5.518   3.868
 8170SOL    HW225410   0.793   5.543   3.761
 8171SOL     OW25411   0.516   2.011   5.803
 8171SOL    HW125412   0.486   2.103   5.777
 8171SOL    HW225413   0.437   1.950   5.809
 8172SOL     OW25414   0.281   6.557   1.114
 8172SOL    HW125415   0.183   6.554   1.095
 8172SOL    HW225416   0.332   6.532   1.032
 8173SOL     OW25417   4.417   2.027   6.645
 8173SOL    HW125418   4.361   1.974   6.582
 8173SOL    HW225419   4.397   2.125   6.634
 8174SOL     OW25420   5.821   0.530   2.356
 8174SOL    HW125421   5.778   0.495   2.439
 8174SOL    HW225422   5.751   0.567   2.295
 8175SOL     OW25423   0.726   2.927   6.157
 8175SOL    HW125424   0.672   2.845   6.178
 8175SOL    HW225425   0.785   2.908   6.078
 8176SOL     OW25426   2.637   5.607   2.442
 8176SOL    HW125427   2.640   5.617   2.541
 8176SOL    HW225428   2.616   5.695   2.400
 8177SOL     OW25429   0.215   6.426   5.352
 8177SOL    HW125430   0.264   6.422   5.439
 8177SOL    HW225431   0.117   6.423   5.369
 8178SOL     OW25432   2.287   6.400   6.315
 8178SOL    HW125433   2.212   6.438   6.261
 8178SOL    HW225434   2.371   6.404   6.262
 8179SOL     OW25435   3.070   1.869   0.366
 8179SOL    HW125436   3.063   1.784   0.314
 8179SOL    HW225437   3.150   1.866   0.426
 8180SOL     OW25438   5.863   5.930   5.495
 8180SOL    HW125439   5.785   5.936   5.433
 8180SOL    HW225440   5.876   6.017   5.542
 8181SOL     OW25441   2.644   2.396   2.782
 8181SOL    HW125442   2.694   2.362   2.702
 8181SOL    HW225443   2.699   2.378   2.864
 8182SOL     OW25444   3.546   2.679   5.375
 8182SOL    HW125445   3.500   2.631   5.450
 8182SOL    HW225446   3.632   2.631   5.354
 8183SOL     OW25447   1.200   3.336   4.758
 8183SOL    HW125448   1.258   3.413   4.788
 8183SOL    HW225449   1.229   3.306   4.668
 8184SOL     OW25450   6.081   5.811   5.339
 8184SOL    HW125451   6.003   5.825   5.400
 8184SOL    HW225452   6.165   5.839   5.386
 8185SOL     OW25453   2.378   1.510   2.454
 8185SOL    HW125454   2.441   1.587   2.457
 8185SOL    HW225455   2.424   1.428   2.487
 8186SOL     OW25456   3.382   5.020   5.872
 8186SOL    HW125457   3.324   4.939   5.875
 8186SOL    HW225458   3.359   5.075   5.792
 8187SOL     OW25459   1.296   2.228   4.976
 8187SOL    HW125460   1.320   2.272   5.063
 8187SOL    HW225461   1.317   2.131   4.981
 8188SOL     OW25462   5.258   3.208   3.147
 8188SOL    HW125463   5.284   3.280   3.210
 8188SOL    HW225464   5.174   3.164   3.178
 8189SOL     OW25465   6.324   4.057   2.417
 8189SOL    HW125466   6.302   3.997   2.340
 8189SOL    HW225467   6.402   4.019   2.468
 8190SOL     OW25468   4.980   3.768   2.853
 8190SOL    HW125469   5.048   3.828   2.896
 8190SOL    HW225470   4.962   3.801   2.760
 8191SOL     OW25471   0.841   5.049   3.402
 8191SOL    HW125472   0.838   4.953   3.372
 8191SOL    HW225473   0.749   5.087   3.400
 8192SOL     OW25474   1.798   4.584   1.400
 8192SOL    HW125475   1.856   4.526   1.457
 8192SOL    HW225476   1.803   4.554   1.304
 8193SOL     OW25477   3.873   0.025   5.795
 8193SOL    HW125478   3.862   6.950   5.761
 8193SOL    HW225479   3.812   0.040   5.873
 8194SOL     OW25480   1.012   0.270   0.398
 8194SOL    HW125481   1.111   0.274   0.389
 8194SOL    HW225482   0.974   0.218   0.321
 8195SOL     OW25483   6.822   6.533   0.663
 8195SOL    HW125484   6.863   6.447   0.694
 8195SOL    HW225485   6.835   6.544   0.565
 8196SOL     OW25486   2.317   0.098   6.381
 8196SOL    HW125487   2.343   0.103   6.285
 8196SOL    HW225488   2.279   0.186   6.409
 8197SOL     OW25489   0.504   0.034   6.502
 8197SOL    HW125490   0.568   6.976   6.488
 8197SOL    HW225491   0.462   0.026   6.592
 8198SOL     OW25492   3.833   6.277   3.072
 8198SOL    HW125493   3.781   6.267   3.157
 8198SOL    HW225494   3.769   6.289   2.996
 8199SOL     OW25495   6.468   3.867   0.276
 8199SOL    HW125496   6.486   3.885   0.373
 8199SOL    HW225497   6.503   3.943   0.222
 8200SOL     OW25498   5.207   4.014   1.354
 8200SOL    HW125499   5.302   4.032   1.378
 8200SOL    HW225500   5.202   3.930   1.299
 8201SOL     OW25501   6.048   0.619   4.276
 8201SOL    HW125502   6.061   0.669   4.190
 8201SOL    HW225503   6.063   0.682   4.353
 8202SOL     OW25504   1.743   4.346   3.261
 8202SOL    HW125505   1.744   4.444   3.278
 8202SOL    HW225506   1.649   4.316   3.245
 8203SOL     OW25507   5.630   3.292   0.820
 8203SOL    HW125508   5.590   3.290   0.728
 8203SOL    HW225509   5.707   3.356   0.820
 8204SOL     OW25510   3.277   0.092   1.894
 8204SOL    HW125511   3.343   0.165   1.911
 8204SOL    HW225512   3.200   0.101   1.957
 8205SOL     OW25513   6.033   5.008   3.305
 8205SOL    HW125514   6.072   5.028   3.215
 8205SOL    HW225515   5.950   5.061   3.319
 8206SOL     OW25516   4.702   2.342   3.890
 8206SOL    HW125517   4.765   2.391   3.829
 8206SOL    HW225518   4.729   2.357   3.985
 8207SOL     OW25519   2.760   6.275   6.999
 8207SOL    HW125520   2.819   6.319   6.931
 8207SOL    HW225521   2.702   6.208   6.953
 8208SOL     OW25522   1.298   4.594   6.546
 8208SOL    HW125523   1.376   4.651   6.522
 8208SOL    HW225524   1.247   4.570   6.463
 8209SOL     OW25525   0.573   6.872   5.356
 8209SOL    HW125526   0.517   6.832   5.283
 8209SOL    HW225527   0.513   6.904   5.430
 8210SOL     OW25528   3.144   2.115   6.633
 8210SOL    HW125529   3.137   2.087   6.537
 8210SOL    HW225530   3.081   2.061   6.688
 8211SOL     OW25531   2.875   3.441   4.437
 8211SOL    HW125532   2.943   3.372   4.464
 8211SOL    HW225533   2.799   3.396   4.390
 8212SOL     OW25534   3.353   7.006   0.665
 8212SOL    HW125535   3.287   0.030   0.728
 8212SOL    HW225536   3.446   0.000   0.701
 8213SOL     OW25537   4.360   4.034   1.610
 8213SOL    HW125538   4.262   4.051   1.611
 8213SOL    HW225539   4.400   4.065   1.697
 8214SOL     OW25540   4.205   5.514   4.351
 8214SOL    HW125541   4.164   5.549   4.435
 8214SOL    HW225542   4.191   5.581   4.277
 8215SOL     OW25543   3.671   6.468   0.035
 8215SOL    HW125544   3.597   6.433   0.092
 8215SOL    HW225545   3.668   6.423   6.963
 8216SOL     OW25546   5.633   4.690   1.488
 8216SOL    HW125547   5.664   4.751   1.416
 8216SOL    HW225548   5.574   4.740   1.551
 8217SOL     OW25549   3.048   6.443   3.852
 8217SOL    HW125550   3.031   6.537   3.823
 8217SOL    HW225551   3.078   6.389   3.774
 8218SOL     OW25552   2.980   6.943   4.826
 8218SOL    HW125553   2.888   6.958   4.792
 8218SOL    HW225554   3.044   6.938   4.750
 8219SOL     OW25555   3.830   2.980   1.003
 8219SOL    HW125556   3.889   3.040   0.950
 8219SOL    HW225557   3.882   2.942   1.080
 8220SOL     OW25558   4.031   3.912   4.381
 8220SOL    HW125559   3.972   3.970   4.325
 8220SOL    HW225560   3.991   3.902   4.472
 8221SOL     OW25561   5.523   4.053   3.230
 8221SOL    HW125562   5.562   3.968   3.196
 8221SOL    HW225563   5.479   4.102   3.155
 8222SOL     OW25564   6.860   3.258   0.249
 8222SOL    HW125565   6.840   3.329   0.317
 8222SOL    HW225566   6.837   3.168   0.286
 8223SOL     OW25567   1.847   6.200   5.693
 8223SOL    HW125568   1.863   6.216   5.596
 8223SOL    HW225569   1.929   6.160   5.734
 8224SOL     OW25570   5.418   1.728   0.439
 8224SOL    HW125571   5.337   1.757   0.388
 8224SOL    HW225572   5.439   1.796   0.509
 8225SOL     OW25573   5.221   1.845   0.313
 8225SOL    HW125574   5.143   1.901   0.339
 8225SOL    HW225575   5.234   1.849   0.214
 8226SOL     OW25576   4.094   6.975   0.562
 8226SOL    HW125577   4.179   6.967   0.509
 8226SOL    HW225578   4.031   6.903   0.535
 8227SOL     OW25579   4.535   2.403   2.911
 8227SOL    HW125580   4.635   2.410   2.922
 8227SOL    HW225581   4.491   2.410   3.000
 8228SOL     OW25582   2.199   0.095   4.664
 8228SOL    HW125583   2.290   0.084   4.624
 8228SOL    HW225584   2.149   0.168   4.617
 8229SOL     OW25585   4.612   4.382   0.741
 8229SOL    HW125586   4.653   4.465   0.779
 8229SOL    HW225587   4.577   4.325   0.815
 8230SOL     OW25588   5.714   0.806   6.546
 8230SOL    HW125589   5.667   0.858   6.617
 8230SOL    HW225590   5.687   0.710   6.552
 8231SOL     OW25591   2.344   2.084   2.567
 8231SOL    HW125592   2.418   2.029   2.529
 8231SOL    HW225593   2.333   2.167   2.513
 8232SOL     OW25594   3.321   5.554   3.302
 8232SOL    HW125595   3.339   5.645   3.340
 8232SOL    HW225596   3.406   5.501   3.300
 8233SOL     OW25597   0.512   1.262   5.773
 8233SOL    HW125598   0.423   1.273   5.730
 8233SOL    HW225599   0.502   1.218   5.861
 8234SOL     OW25600   0.745   1.890   0.655
 8234SOL    HW125601   0.715   1.948   0.579
 8234SOL    HW225602   0.680   1.898   0.730
 8235SOL     OW25603   0.694   6.786   1.290
 8235SOL    HW125604   0.597   6.787   1.266
 8235SOL    HW225605   0.709   6.841   1.372
 8236SOL     OW25606   0.662   6.504   1.436
 8236SOL    HW125607   0.582   6.446   1.453
 8236SOL    HW225608   0.633   6.589   1.393
 8237SOL     OW25609   4.341   5.090   6.435
 8237SOL    HW125610   4.383   5.013   6.484
 8237SOL    HW225611   4.248   5.065   6.409
 8238SOL     OW25612   0.552   4.962   0.377
 8238SOL    HW125613   0.482   5.018   0.421
 8238SOL    HW225614   0.616   4.929   0.447
 8239SOL     OW25615   1.541   1.768   5.239
 8239SOL    HW125616   1.455   1.718   5.229
 8239SOL    HW225617   1.588   1.735   5.321
 8240SOL     OW25618   3.213   3.279   4.921
 8240SOL    HW125619   3.217   3.225   4.837
 8240SOL    HW225620   3.146   3.240   4.984
 8241SOL     OW25621   1.994   3.997   5.436
 8241SOL    HW125622   2.019   3.942   5.356
 8241SOL    HW225623   1.927   4.066   5.409
 8242SOL     OW25624   0.619   2.798   2.960
 8242SOL    HW125625   0.652   2.749   3.040
 8242SOL    HW225626   0.604   2.894   2.983
 8243SOL     OW25627   1.842   5.981   4.044
 8243SOL    HW125628   1.880   6.002   4.134
 8243SOL    HW225629   1.884   6.040   3.976
 8244SOL     OW25630   0.191   1.507   3.920
 8244SOL    HW125631   0.253   1.475   3.848
 8244SOL    HW225632   0.112   1.552   3.878
 8245SOL     OW25633   5.297   1.655   3.198
 8245SOL    HW125634   5.215   1.681   3.148
 8245SOL    HW225635   5.334   1.570   3.159
 8246SOL     OW25636   1.649   4.857   6.689
 8246SOL    HW125637   1.594   4.940   6.682
 8246SOL    HW225638   1.633   4.813   6.777
 8247SOL     OW25639   3.231   5.967   3.153
 8247SOL    HW125640   3.223   6.030   3.075
 8247SOL    HW225641   3.162   5.895   3.144
 8248SOL     OW25642   6.803   5.385   2.818
 8248SOL    HW125643   6.815   5.466   2.876
 8248SOL    HW225644   6.871   5.387   2.744
 8249SOL     OW25645   3.342   1.049   6.748
 8249SOL    HW125646   3.284   1.112   6.698
 8249SOL    HW225647   3.286   0.996   6.813
 8250SOL     OW25648   1.185   1.602   0.107
 8250SOL    HW125649   1.134   1.526   0.147
 8250SOL    HW225650   1.149   1.689   0.143
 8251SOL     OW25651   1.166   2.641   4.859
 8251SOL    HW125652   1.246   2.701   4.869
 8251SOL    HW225653   1.088   2.695   4.829
 8252SOL     OW25654   0.989   2.184   6.588
 8252SOL    HW125655   0.969   2.106   6.528
 8252SOL    HW225656   0.904   2.225   6.619
 8253SOL     OW25657   4.193   5.985   0.376
 8253SOL    HW125658   4.171   5.955   0.469
 8253SOL    HW225659   4.109   5.992   0.322
 8254SOL     OW25660   5.553   4.997   6.671
 8254SOL    HW125661   5.479   4.946   6.715
 8254SOL    HW225662   5.530   5.094   6.669
 8255SOL     OW25663   2.103   1.051   5.965
 8255SOL    HW125664   2.054   0.964   5.967
 8255SOL    HW225665   2.201   1.035   5.979
 8256SOL     OW25666   1.513   5.085   5.240
 8256SOL    HW125667   1.516   5.101   5.339
 8256SOL    HW225668   1.553   5.163   5.193
 8257SOL     OW25669   5.164   3.973   2.805
 8257SOL    HW125670   5.248   3.993   2.857
 8257SOL    HW225671   5.187   3.957   2.710
 8258SOL     OW25672   6.815   3.641   1.889
 8258SOL    HW125673   6.851   3.560   1.843
 8258SOL    HW225674   6.880   3.717   1.881
 8259SOL     OW25675   5.469   1.533   3.847
 8259SOL    HW125676   5.543   1.466   3.855
 8259SOL    HW225677   5.508   1.625   3.847
 8260SOL     OW25678   4.122   2.204   0.974
 8260SOL    HW125679   4.205   2.149   0.965
 8260SOL    HW225680   4.042   2.146   0.958
 8261SOL     OW25681   5.758   1.288   2.714
 8261SOL    HW125682   5.681   1.262   2.772
 8261SOL    HW225683   5.772   1.387   2.719
 8262SOL     OW25684   5.775   3.906   1.680
 8262SOL    HW125685   5.775   4.005   1.694
 8262SOL    HW225686   5.685   3.877   1.648
 8263SOL     OW25687   6.348   2.039   5.672
 8263SOL    HW125688   6.345   1.944   5.642
 8263SOL    HW225689   6.278   2.092   5.623
 8264SOL     OW25690   3.215   0.165   2.711
 8264SOL    HW125691   3.254   0.203   2.794
 8264SOL    HW225692   3.287   0.148   2.644
 8265SOL     OW25693   4.850   6.533   0.419
 8265SOL    HW125694   4.822   6.627   0.403
 8265SOL    HW225695   4.771   6.472   0.406
 8266SOL     OW25696   2.905   0.842   3.772
 8266SOL    HW125697   2.833   0.892   3.820
 8266SOL    HW225698   2.863   0.780   3.706
 8267SOL     OW25699   1.742   3.316   2.466
 8267SOL    HW125700   1.780   3.251   2.401
 8267SOL    HW225701   1.779   3.407   2.449
 8268SOL     OW25702   3.175   4.610   6.483
 8268SOL    HW125703   3.215   4.575   6.568
 8268SOL    HW225704   3.094   4.556   6.460
 8269SOL     OW25705   6.393   3.586   4.374
 8269SOL    HW125706   6.386   3.489   4.399
 8269SOL    HW225707   6.347   3.601   4.287
 8270SOL     OW25708   3.665   6.712   6.788
 8270SOL    HW125709   3.609   6.787   6.822
 8270SOL    HW225710   3.751   6.708   6.840
 8271SOL     OW25711   3.712   6.251   6.080
 8271SOL    HW125712   3.807   6.239   6.050
 8271SOL    HW225713   3.653   6.190   6.028
 8272SOL     OW25714   0.524   0.368   2.141
 8272SOL    HW125715   0.514   0.435   2.214
 8272SOL    HW225716   0.571   0.411   2.063
 8273SOL     OW25717   3.907   0.734   6.985
 8273SOL    HW125718   3.936   0.691   6.900
 8273SOL    HW225719   3.928   0.673   0.044
 8274SOL     OW25720   5.192   6.292   5.496
 8274SOL    HW125721   5.125   6.340   5.552
 8274SOL    HW225722   5.232   6.354   5.429
 8275SOL     OW25723   5.296   0.191   3.866
 8275SOL    HW125724   5.348   0.232   3.940
 8275SOL    HW225725   5.201   0.180   3.894
 8276SOL     OW25726   6.608   1.674   6.895
 8276SOL    HW125727   6.586   1.728   6.976
 8276SOL    HW225728   6.679   1.721   6.842
 8277SOL     OW25729   1.360   0.082   6.831
 8277SOL    HW125730   1.392   0.124   6.746
 8277SOL    HW225731   1.274   0.125   6.859
 8278SOL     OW25732   3.001   1.245   0.602
 8278SOL    HW125733   3.033   1.282   0.689
 8278SOL    HW225734   3.001   1.145   0.607
 8279SOL     OW25735   3.714   6.081   5.010
 8279SOL    HW125736   3.770   6.009   4.969
 8279SOL    HW225737   3.768   6.131   5.078
 8280SOL     OW25738   5.560   3.706   0.302
 8280SOL    HW125739   5.472   3.704   0.350
 8280SOL    HW225740   5.545   3.695   0.204
 8281SOL     OW25741   2.811   5.446   0.318
 8281SOL    HW125742   2.849   5.356   0.297
 8281SOL    HW225743   2.774   5.446   0.411
 8282SOL     OW25744   2.806   2.859   1.624
 8282SOL    HW125745   2.774   2.777   1.576
 8282SOL    HW225746   2.903   2.848   1.649
 8283SOL     OW25747   0.532   6.578   3.835
 8283SOL    HW125748   0.494   6.665   3.867
 8283SOL    HW225749   0.632   6.580   3.843
 8284SOL     OW25750   3.215   1.631   2.166
 8284SOL    HW125751   3.262   1.646   2.080
 8284SOL    HW225752   3.241   1.702   2.231
 8285SOL     OW25753   2.229   4.736   0.189
 8285SOL    HW125754   2.279   4.766   0.108
 8285SOL    HW225755   2.245   4.638   0.204
 8286SOL     OW25756   5.436   2.294   5.326
 8286SOL    HW125757   5.511   2.327   5.270
 8286SOL    HW225758   5.371   2.369   5.342
 8287SOL     OW25759   1.733   6.921   4.072
 8287SOL    HW125760   1.792   6.922   4.153
 8287SOL    HW225761   1.642   6.889   4.098
 8288SOL     OW25762   1.960   0.069   2.871
 8288SOL    HW125763   1.946   6.989   2.889
 8288SOL    HW225764   2.014   0.080   2.787
 8289SOL     OW25765   6.532   1.109   6.194
 8289SOL    HW125766   6.621   1.155   6.183
 8289SOL    HW225767   6.490   1.136   6.280
 8290SOL     OW25768   4.539   2.782   1.711
 8290SOL    HW125769   4.443   2.791   1.684
 8290SOL    HW225770   4.567   2.862   1.764
 8291SOL     OW25771   4.208   5.550   6.666
 8291SOL    HW125772   4.284   5.602   6.626
 8291SOL    HW225773   4.176   5.482   6.600
 8292SOL     OW25774   0.547   3.308   4.695
 8292SOL    HW125775   0.526   3.216   4.727
 8292SOL    HW225776   0.465   3.350   4.655
 8293SOL     OW25777   3.090   5.116   3.466
 8293SOL    HW125778   3.024   5.183   3.432
 8293SOL    HW225779   3.180   5.159   3.477
 8294SOL     OW25780   4.456   3.739   6.138
 8294SOL    HW125781   4.469   3.825   6.088
 8294SOL    HW225782   4.474   3.754   6.235
 8295SOL     OW25783   5.318   4.928   2.344
 8295SOL    HW125784   5.268   5.010   2.317
 8295SOL    HW225785   5.253   4.854   2.364
 8296SOL     OW25786   4.075   6.840   1.924
 8296SOL    HW125787   4.146   6.854   1.993
 8296SOL    HW225788   4.105   6.770   1.859
 8297SOL     OW25789   5.550   4.584   3.670
 8297SOL    HW125790   5.485   4.615   3.601
 8297SOL    HW225791   5.642   4.584   3.632
 8298SOL     OW25792   6.912   6.701   6.808
 8298SOL    HW125793   6.992   6.646   6.786
 8298SOL    HW225794   6.917   6.732   6.903
 8299SOL     OW25795   0.778   3.687   1.118
 8299SOL    HW125796   0.821   3.599   1.100
 8299SOL    HW225797   0.848   3.758   1.123
 8300SOL     OW25798   5.810   4.957   3.702
 8300SOL    HW125799   5.901   4.998   3.702
 8300SOL    HW225800   5.755   4.998   3.774
 8301SOL     OW25801   5.481   6.670   0.135
 8301SOL    HW125802   5.445   6.695   0.045
 8301SOL    HW225803   5.581   6.666   0.131
 8302SOL     OW25804   3.477   6.960   5.625
 8302SOL    HW125805   3.433   0.027   5.597
 8302SOL    HW225806   3.407   6.894   5.652
 8303SOL     OW25807   0.385   5.253   2.984
 8303SOL    HW125808   0.421   5.337   3.025
 8303SOL    HW225809   0.430   5.174   3.026
 8304SOL     OW25810   6.031   4.569   3.168
 8304SOL    HW125811   5.952   4.522   3.208
 8304SOL    HW225812   6.000   4.647   3.114
 8305SOL     OW25813   4.964   6.263   4.714
 8305SOL    HW125814   5.038   6.318   4.674
 8305SOL    HW225815   4.998   6.216   4.795
 8306SOL     OW25816   6.774   1.720   2.569
 8306SOL    HW125817   6.731   1.807   2.543
 8306SOL    HW225818   6.751   1.698   2.663
 8307SOL     OW25819   1.293   3.147   2.450
 8307SOL    HW125820   1.385   3.183   2.434
 8307SOL    HW225821   1.229   3.223   2.459
 8308SOL     OW25822   1.178   5.110   1.403
 8308SOL    HW125823   1.173   5.138   1.308
 8308SOL    HW225824   1.270   5.077   1.424
 8309SOL     OW25825   6.942   4.796   4.376
 8309SOL    HW125826   6.984   4.851   4.448
 8309SOL    HW225827   6.848   4.773   4.401
 8310SOL     OW25828   1.902   0.306   0.686
 8310SOL    HW125829   1.824   0.308   0.623
 8310SOL    HW225830   1.980   0.351   0.644
 8311SOL     OW25831   5.660   5.783   3.253
 8311SOL    HW125832   5.697   5.729   3.328
 8311SOL    HW225833   5.643   5.877   3.284
 8312SOL     OW25834   5.699   1.472   0.370
 8312SOL    HW125835   5.734   1.565   0.374
 8312SOL    HW225836   5.665   1.452   0.278
 8313SOL     OW25837   5.749   2.692   5.445
 8313SOL    HW125838   5.702   2.644   5.371
 8313SOL    HW225839   5.818   2.754   5.407
 8314SOL     OW25840   4.478   5.872   3.959
 8314SOL    HW125841   4.464   5.892   4.056
 8314SOL    HW225842   4.389   5.869   3.913
 8315SOL     OW25843   3.251   3.473   4.451
 8315SOL    HW125844   3.261   3.466   4.550
 8315SOL    HW225845   3.280   3.564   4.421
 8316SOL     OW25846   2.101   1.905   5.558
 8316SOL    HW125847   2.041   1.976   5.596
 8316SOL    HW225848   2.161   1.870   5.630
 8317SOL     OW25849   1.024   2.140   3.717
 8317SOL    HW125850   0.934   2.117   3.680
 8317SOL    HW225851   1.065   2.212   3.661
 8318SOL     OW25852   4.643   6.911   6.382
 8318SOL    HW125853   4.655   7.010   6.380
 8318SOL    HW225854   4.585   6.883   6.306
 8319SOL     OW25855   2.062   5.765   6.287
 8319SOL    HW125856   2.011   5.682   6.265
 8319SOL    HW225857   2.005   5.825   6.343
 8320SOL     OW25858   3.344   3.278   5.263
 8320SOL    HW125859   3.341   3.236   5.173
 8320SOL    HW225860   3.273   3.348   5.270
 8321SOL     OW25861   0.413   6.808   0.859
 8321SOL    HW125862   0.450   6.807   0.766
 8321SOL    HW225863   0.419   6.717   0.899
 8322SOL     OW25864   0.571   6.774   6.877
 8322SOL    HW125865   0.533   6.817   6.959
 8322SOL    HW225866   0.535   6.681   6.868
 8323SOL     OW25867   5.525   4.446   0.712
 8323SOL    HW125868   5.439   4.424   0.667
 8323SOL    HW225869   5.539   4.545   0.710
 8324SOL     OW25870   4.930   5.874   6.475
 8324SOL    HW125871   4.923   5.905   6.381
 8324SOL    HW225872   4.850   5.819   6.499
 8325SOL     OW25873   1.351   6.060   6.138
 8325SOL    HW125874   1.345   6.154   6.171
 8325SOL    HW225875   1.281   6.005   6.183
 8326SOL     OW25876   1.501   2.978   6.668
 8326SOL    HW125877   1.452   2.902   6.711
 8326SOL    HW225878   1.436   3.034   6.618
 8327SOL     OW25879   1.416   6.038   4.974
 8327SOL    HW125880   1.511   6.064   4.959
 8327SOL    HW225881   1.411   5.940   4.992
 8328SOL     OW25882   0.656   6.294   0.079
 8328SOL    HW125883   0.692   6.236   0.006
 8328SOL    HW225884   0.666   6.390   0.054
 8329SOL     OW25885   1.615   3.130   4.824
 8329SOL    HW125886   1.646   3.206   4.880
 8329SOL    HW225887   1.657   3.045   4.855
 8330SOL     OW25888   3.249   0.949   0.256
 8330SOL    HW125889   3.173   0.884   0.268
 8330SOL    HW225890   3.221   1.040   0.285
 8331SOL     OW25891   1.663   2.526   5.511
 8331SOL    HW125892   1.648   2.606   5.569
 8331SOL    HW225893   1.761   2.505   5.507
 8332SOL     OW25894   5.902   4.885   1.604
 8332SOL    HW125895   5.975   4.947   1.632
 8332SOL    HW225896   5.891   4.889   1.505
 8333SOL     OW25897   1.899   4.163   0.362
 8333SOL    HW125898   1.805   4.191   0.382
 8333SOL    HW225899   1.902   4.120   0.271
 8334SOL     OW25900   3.097   2.071   6.343
 8334SOL    HW125901   3.104   2.166   6.313
 8334SOL    HW225902   3.120   2.010   6.267
 8335SOL     OW25903   5.366   4.724   6.456
 8335SOL    HW125904   5.300   4.661   6.499
 8335SOL    HW225905   5.454   4.678   6.446
 8336SOL     OW25906   1.011   4.109   3.435
 8336SOL    HW125907   1.079   4.161   3.488
 8336SOL    HW225908   0.968   4.041   3.495
 8337SOL     OW25909   0.276   1.344   4.418
 8337SOL    HW125910   0.372   1.367   4.406
 8337SOL    HW225911   0.269   1.250   4.452
 8338SOL     OW25912   3.494   5.316   1.364
 8338SOL    HW125913   3.582   5.358   1.384
 8338SOL    HW225914   3.421   5.370   1.406
 8339SOL     OW25915   5.885   0.515   1.524
 8339SOL    HW125916   5.907   0.523   1.621
 8339SOL    HW225917   5.823   0.588   1.497
 8340SOL     OW25918   6.142   2.045   6.724
 8340SOL    HW125919   6.119   2.100   6.644
 8340SOL    HW225920   6.060   2.003   6.761
 8341SOL     OW25921   3.611   0.967   1.135
 8341SOL    HW125922   3.613   0.897   1.064
 8341SOL    HW225923   3.561   1.047   1.101
 8342SOL     OW25924   4.435   0.593   0.458
 8342SOL    HW125925   4.347   0.555   0.485
 8342SOL    HW225926   4.420   0.678   0.408
 8343SOL     OW25927   5.653   4.214   3.959
 8343SOL    HW125928   5.594   4.262   3.895
 8343SOL    HW225929   5.658   4.117   3.935
 8344SOL     OW25930   0.841   5.232   5.692
 8344SOL    HW125931   0.879   5.145   5.723
 8344SOL    HW225932   0.906   5.278   5.631
 8345SOL     OW25933   5.032   0.723   3.647
 8345SOL    HW125934   5.091   0.642   3.644
 8345SOL    HW225935   5.089   0.805   3.653
 8346SOL     OW25936   5.959   3.417   4.524
 8346SOL    HW125937   5.862   3.414   4.549
 8346SOL    HW225938   6.010   3.466   4.594
 8347SOL     OW25939   2.193   1.398   7.000
 8347SOL    HW125940   2.190   1.492   0.014
 8347SOL    HW225941   2.139   1.390   6.916
 8348SOL     OW25942   3.555   6.123   2.071
 8348SOL    HW125943   3.501   6.095   1.992
 8348SOL    HW225944   3.623   6.053   2.092
 8349SOL     OW25945   6.404   6.160   2.425
 8349SOL    HW125946   6.312   6.124   2.441
 8349SOL    HW225947   6.406   6.209   2.338
 8350SOL     OW25948   2.017   0.881   0.007
 8350SOL    HW125949   2.000   0.785   7.006
 8350SOL    HW225950   2.115   0.895   0.024
 8351SOL     OW25951   0.024   3.595   3.219
 8351SOL    HW125952   6.962   3.651   3.201
 8351SOL    HW225953   0.107   3.648   3.204
 8352SOL     OW25954   2.770   5.953   1.160
 8352SOL    HW125955   2.685   5.961   1.213
 8352SOL    HW225956   2.804   5.859   1.166
 8353SOL     OW25957   1.207   5.008   1.790
 8353SOL    HW125958   1.194   5.104   1.816
 8353SOL    HW225959   1.292   4.998   1.738
 8354SOL     OW25960   3.567   0.417   3.337
 8354SOL    HW125961   3.557   0.327   3.294
 8354SOL    HW225962   3.518   0.485   3.282
 8355SOL     OW25963   2.632   6.508   6.456
 8355SOL    HW125964   2.583   6.430   6.497
 8355SOL    HW225965   2.682   6.476   6.376
 8356SOL     OW25966   1.703   5.159   0.846
 8356SOL    HW125967   1.606   5.168   0.825
 8356SOL    HW225968   1.755   5.146   0.762
 8357SOL     OW25969   4.763   6.696   5.684
 8357SOL    HW125970   4.701   6.641   5.628
 8357SOL    HW225971   4.740   6.793   5.672
 8358SOL     OW25972   1.212   1.148   4.935
 8358SOL    HW125973   1.170   1.181   5.019
 8358SOL    HW225974   1.177   1.056   4.915
 8359SOL     OW25975   3.828   1.966   6.158
 8359SOL    HW125976   3.868   1.933   6.244
 8359SOL    HW225977   3.730   1.978   6.169
 8360SOL     OW25978   4.855   0.476   0.820
 8360SOL    HW125979   4.918   0.484   0.897
 8360SOL    HW225980   4.905   0.496   0.735
 8361SOL     OW25981   4.117   0.926   6.840
 8361SOL    HW125982   4.151   0.853   6.899
 8361SOL    HW225983   4.192   0.990   6.819
 8362SOL     OW25984   6.866   4.561   1.301
 8362SOL    HW125985   6.892   4.494   1.370
 8362SOL    HW225986   6.838   4.646   1.346
 8363SOL     OW25987   1.622   2.912   0.837
 8363SOL    HW125988   1.673   2.834   0.800
 8363SOL    HW225989   1.583   2.965   0.761
 8364SOL     OW25990   0.299   3.813   4.524
 8364SOL    HW125991   0.298   3.731   4.467
 8364SOL    HW225992   0.384   3.864   4.507
 8365SOL     OW25993   1.132   2.412   1.799
 8365SOL    HW125994   1.157   2.326   1.755
 8365SOL    HW225995   1.105   2.394   1.893
 8366SOL     OW25996   5.514   5.092   2.194
 8366SOL    HW125997   5.451   5.156   2.150
 8366SOL    HW225998   5.464   5.032   2.256
 8367SOL     OW25999   3.053   5.656   4.282
 8367SOL    HW126000   2.996   5.623   4.357
 8367SOL    HW226001   2.994   5.685   4.206
 8368SOL     OW26002   6.141   6.647   6.105
 8368SOL    HW126003   6.118   6.602   6.019
 8368SOL    HW226004   6.057   6.680   6.149
 8369SOL     OW26005   2.625   6.579   1.287
 8369SOL    HW126006   2.675   6.620   1.210
 8369SOL    HW226007   2.538   6.626   1.298
 8370SOL     OW26008   3.030   3.931   6.827
 8370SOL    HW126009   3.066   3.901   6.739
 8370SOL    HW226010   3.097   3.911   6.899
 8371SOL     OW26011   2.338   4.517   5.005
 8371SOL    HW126012   2.243   4.548   4.997
 8371SOL    HW226013   2.398   4.597   5.010
 8372SOL     OW26014   1.658   6.470   2.222
 8372SOL    HW126015   1.684   6.561   2.190
 8372SOL    HW226016   1.574   6.476   2.276
 8373SOL     OW26017   6.771   1.742   4.167
 8373SOL    HW126018   6.871   1.745   4.169
 8373SOL    HW226019   6.741   1.708   4.078
 8374SOL     OW26020   0.510   1.521   4.031
 8374SOL    HW126021   0.463   1.541   4.116
 8374SOL    HW226022   0.468   1.573   3.956
 8375SOL     OW26023   3.506   1.007   4.830
 8375SOL    HW126024   3.506   1.027   4.927
 8375SOL    HW226025   3.581   1.055   4.785
 8376SOL     OW26026   1.976   0.685   3.187
 8376SOL    HW126027   2.019   0.774   3.169
 8376SOL    HW226028   1.927   0.688   3.274
 8377SOL     OW26029   4.966   5.526   0.435
 8377SOL    HW126030   4.928   5.610   0.474
 8377SOL    HW226031   4.949   5.525   0.336
 8378SOL     OW26032   5.114   5.974   4.236
 8378SOL    HW126033   5.161   6.034   4.301
 8378SOL    HW226034   5.167   5.889   4.225
 8379SOL     OW26035   5.494   1.488   1.297
 8379SOL    HW126036   5.498   1.394   1.331
 8379SOL    HW226037   5.553   1.546   1.354
 8380SOL     OW26038   6.637   5.983   0.890
 8380SOL    HW126039   6.696   6.027   0.959
 8380SOL    HW226040   6.561   6.045   0.868
 8381SOL     OW26041   0.216   1.396   2.727
 8381SOL    HW126042   0.312   1.419   2.743
 8381SOL    HW226043   0.164   1.480   2.711
 8382SOL     OW26044   2.023   0.812   0.739
 8382SOL    HW126045   2.086   0.800   0.816
 8382SOL    HW226046   1.958   0.736   0.738
 8383SOL     OW26047   2.923   6.883   6.593
 8383SOL    HW126048   3.017   6.869   6.562
 8383SOL    HW226049   2.922   6.951   6.667
 8384SOL     OW26050   0.592   3.057   3.057
 8384SOL    HW126051   0.648   3.032   3.136
 8384SOL    HW226052   0.535   3.136   3.080
 8385SOL     OW26053   4.309   3.079   1.377
 8385SOL    HW126054   4.287   2.983   1.360
 8385SOL    HW226055   4.364   3.086   1.460
 8386SOL     OW26056   2.278   6.132   2.188
 8386SOL    HW126057   2.260   6.034   2.190
 8386SOL    HW226058   2.193   6.181   2.208
 8387SOL     OW26059   1.485   0.904   2.639
 8387SOL    HW126060   1.435   0.977   2.593
 8387SOL    HW226061   1.507   0.832   2.573
 8388SOL     OW26062   4.310   6.477   1.548
 8388SOL    HW126063   4.397   6.442   1.582
 8388SOL    HW226064   4.241   6.405   1.552
 8389SOL     OW26065   6.960   2.598   3.599
 8389SOL    HW126066   0.041   2.603   3.615
 8389SOL    HW226067   6.923   2.518   3.645
 8390SOL     OW26068   3.119   0.136   5.489
 8390SOL    HW126069   3.048   0.081   5.534
 8390SOL    HW226070   3.081   0.181   5.409
 8391SOL     OW26071   5.041   5.870   1.098
 8391SOL    HW126072   5.096   5.924   1.162
 8391SOL    HW226073   5.003   5.790   1.146
 8392SOL     OW26074   6.028   6.580   5.437
 8392SOL    HW126075   5.939   6.625   5.431
 8392SOL    HW226076   6.020   6.498   5.493
 8393SOL     OW26077   6.785   5.747   3.189
 8393SOL    HW126078   6.719   5.773   3.260
 8393SOL    HW226079   6.834   5.665   3.218
 8394SOL     OW26080   0.844   1.937   2.518
 8394SOL    HW126081   0.802   2.020   2.483
 8394SOL    HW226082   0.775   1.864   2.521
 8395SOL     OW26083   0.525   6.281   5.817
 8395SOL    HW126084   0.574   6.272   5.903
 8395SOL    HW226085   0.587   6.263   5.741
 8396SOL     OW26086   5.445   3.462   1.309
 8396SOL    HW126087   5.349   3.435   1.299
 8396SOL    HW226088   5.489   3.460   1.219
 8397SOL     OW26089   1.999   5.421   3.020
 8397SOL    HW126090   2.042   5.413   3.109
 8397SOL    HW226091   2.029   5.345   2.962
 8398SOL     OW26092   4.727   1.986   0.578
 8398SOL    HW126093   4.716   1.970   0.480
 8398SOL    HW226094   4.784   1.915   0.618
 8399SOL     OW26095   5.468   6.078   0.343
 8399SOL    HW126096   5.514   6.060   0.256
 8399SOL    HW226097   5.486   6.002   0.405
 8400SOL     OW26098   6.223   0.400   4.329
 8400SOL    HW126099   6.161   0.473   4.300
 8400SOL    HW226100   6.224   0.328   4.260
 8401SOL     OW26101   2.993   4.574   6.760
 8401SOL    HW126102   2.897   4.590   6.783
 8401SOL    HW226103   3.028   4.499   6.816
 8402SOL     OW26104   4.163   1.592   0.496
 8402SOL    HW126105   4.130   1.659   0.562
 8402SOL    HW226106   4.225   1.637   0.432
 8403SOL     OW26107   1.275   1.913   4.441
 8403SOL    HW126108   1.188   1.877   4.476
 8403SOL    HW226109   1.256   1.980   4.369
 8404SOL     OW26110   4.539   4.666   5.634
 8404SOL    HW126111   4.482   4.689   5.713
 8404SOL    HW226112   4.625   4.716   5.640
 8405SOL     OW26113   0.253   2.998   5.071
 8405SOL    HW126114   0.263   2.951   4.983
 8405SOL    HW226115   0.205   2.939   5.135
 8406SOL     OW26116   5.380   3.440   1.613
 8406SOL    HW126117   5.475   3.410   1.606
 8406SOL    HW226118   5.319   3.361   1.601
 8407SOL     OW26119   5.376   4.183   2.461
 8407SOL    HW126120   5.429   4.150   2.383
 8407SOL    HW226121   5.357   4.280   2.449
 8408SOL     OW26122   4.442   2.331   3.990
 8408SOL    HW126123   4.405   2.411   3.943
 8408SOL    HW226124   4.539   2.320   3.964
 8409SOL     OW26125   0.568   2.526   3.987
 8409SOL    HW126126   0.642   2.477   4.034
 8409SOL    HW226127   0.517   2.463   3.929
 8410SOL     OW26128   4.013   6.713   2.332
 8410SOL    HW126129   4.041   6.623   2.366
 8410SOL    HW226130   3.964   6.702   2.245
 8411SOL     OW26131   2.042   2.673   3.603
 8411SOL    HW126132   2.043   2.577   3.630
 8411SOL    HW226133   1.959   2.717   3.639
 8412SOL     OW26134   6.113   2.606   3.077
 8412SOL    HW126135   6.173   2.572   3.150
 8412SOL    HW226136   6.041   2.663   3.117
 8413SOL     OW26137   3.014   4.348   0.963
 8413SOL    HW126138   2.921   4.377   0.938
 8413SOL    HW226139   3.009   4.276   1.033
 8414SOL     OW26140   4.574   6.346   2.881
 8414SOL    HW126141   4.643   6.418   2.879
 8414SOL    HW226142   4.564   6.312   2.975
 8415SOL     OW26143   6.321   3.549   2.343
 8415SOL    HW126144   6.224   3.528   2.348
 8415SOL    HW226145   6.372   3.465   2.325
 8416SOL     OW26146   5.241   3.942   2.563
 8416SOL    HW126147   5.166   3.911   2.504
 8416SOL    HW226148   5.289   4.018   2.518
 8417SOL     OW26149   2.692   6.143   5.841
 8417SOL    HW126150   2.599   6.177   5.825
 8417SOL    HW226151   2.703   6.055   5.797
 8418SOL     OW26152   5.667   5.698   2.725
 8418SOL    HW126153   5.620   5.685   2.812
 8418SOL    HW226154   5.712   5.613   2.698
 8419SOL     OW26155   4.336   0.254   4.225
 8419SOL    HW126156   4.298   0.341   4.195
 8419SOL    HW226157   4.428   0.243   4.187
 8420SOL     OW26158   3.787   1.322   6.269
 8420SOL    HW126159   3.871   1.299   6.319
 8420SOL    HW226160   3.711   1.268   6.306
 8421SOL     OW26161   2.568   6.683   1.930
 8421SOL    HW126162   2.656   6.636   1.932
 8421SOL    HW226163   2.582   6.781   1.940
 8422SOL     OW26164   3.399   6.986   1.316
 8422SOL    HW126165   3.444   6.927   1.249
 8422SOL    HW226166   3.359   6.930   1.388
 8423SOL     OW26167   3.110   4.438   1.440
 8423SOL    HW126168   3.171   4.367   1.407
 8423SOL    HW226169   3.032   4.397   1.487
 8424SOL     OW26170   3.109   1.795   2.633
 8424SOL    HW126171   3.127   1.881   2.681
 8424SOL    HW226172   3.025   1.803   2.581
 8425SOL     OW26173   5.532   5.172   6.994
 8425SOL    HW126174   5.606   5.146   0.038
 8425SOL    HW226175   5.444   5.163   0.022
 8426SOL     OW26176   3.957   3.461   2.643
 8426SOL    HW126177   3.996   3.370   2.652
 8426SOL    HW226178   3.866   3.455   2.601
 8427SOL     OW26179   2.188   3.822   6.020
 8427SOL    HW126180   2.234   3.911   6.023
 8427SOL    HW226181   2.190   3.780   6.110
 8428SOL     OW26182   6.102   4.404   2.207
 8428SOL    HW126183   6.054   4.483   2.171
 8428SOL    HW226184   6.056   4.370   2.289
 8429SOL     OW26185   1.706   6.590   2.727
 8429SOL    HW126186   1.615   6.551   2.718
 8429SOL    HW226187   1.775   6.520   2.709
 8430SOL     OW26188   4.813   4.631   3.218
 8430SOL    HW126189   4.810   4.620   3.119
 8430SOL    HW226190   4.892   4.687   3.243
 8431SOL     OW26191   3.554   4.203   1.114
 8431SOL    HW126192   3.460   4.186   1.085
 8431SOL    HW226193   3.615   4.140   1.067
 8432SOL     OW26194   4.092   6.139   6.674
 8432SOL    HW126195   4.178   6.163   6.719
 8432SOL    HW226196   4.108   6.132   6.575
 8433SOL     OW26197   0.666   1.419   5.267
 8433SOL    HW126198   0.688   1.512   5.236
 8433SOL    HW226199   0.713   1.353   5.209
 8434SOL     OW26200   5.317   6.453   5.313
 8434SOL    HW126201   5.351   6.363   5.283
 8434SOL    HW226202   5.306   6.511   5.233
 8435SOL     OW26203   4.530   2.150   1.594
 8435SOL    HW126204   4.532   2.209   1.513
 8435SOL    HW226205   4.445   2.096   1.593
 8436SOL     OW26206   3.815   4.668   1.601
 8436SOL    HW126207   3.802   4.691   1.505
 8436SOL    HW226208   3.858   4.579   1.608
 8437SOL     OW26209   0.232   0.924   1.121
 8437SOL    HW126210   0.165   0.915   1.195
 8437SOL    HW226211   0.320   0.952   1.159
 8438SOL     OW26212   1.676   6.755   1.574
 8438SOL    HW126213   1.731   6.828   1.535
 8438SOL    HW226214   1.651   6.689   1.503
 8439SOL     OW26215   6.942   5.918   1.882
 8439SOL    HW126216   6.848   5.951   1.894
 8439SOL    HW226217   6.998   5.990   1.844
 8440SOL     OW26218   0.750   1.444   3.623
 8440SOL    HW126219   0.664   1.484   3.591
 8440SOL    HW226220   0.780   1.491   3.706
 8441SOL     OW26221   4.209   5.802   0.125
 8441SOL    HW126222   4.166   5.712   0.121
 8441SOL    HW226223   4.207   5.836   0.219
 8442SOL     OW26224   2.072   4.203   0.008
 8442SOL    HW126225   2.142   4.156   6.971
 8442SOL    HW226226   2.117   4.253   0.082
 8443SOL     OW26227   1.771   1.058   2.401
 8443SOL    HW126228   1.771   1.136   2.337
 8443SOL    HW226229   1.856   1.058   2.453
 8444SOL     OW26230   3.936   6.915   3.258
 8444SOL    HW126231   3.970   6.858   3.334
 8444SOL    HW226232   3.920   6.857   3.178
 8445SOL     OW26233   3.942   4.847   2.060
 8445SOL    HW126234   3.842   4.844   2.071
 8445SOL    HW226235   3.971   4.777   1.995
 8446SOL     OW26236   6.584   5.172   3.423
 8446SOL    HW126237   6.543   5.119   3.348
 8446SOL    HW226238   6.683   5.171   3.414
 8447SOL     OW26239   5.237   2.998   1.484
 8447SOL    HW126240   5.156   3.044   1.522
 8447SOL    HW226241   5.302   3.067   1.452
 8448SOL     OW26242   1.154   2.884   6.457
 8448SOL    HW126243   1.175   2.795   6.414
 8448SOL    HW226244   1.185   2.957   6.396
 8449SOL     OW26245   1.815   2.544   4.965
 8449SOL    HW126246   1.895   2.521   4.909
 8449SOL    HW226247   1.845   2.589   5.049
 8450SOL     OW26248   2.205   5.151   2.345
 8450SOL    HW126249   2.264   5.097   2.286
 8450SOL    HW226250   2.258   5.225   2.387
 8451SOL     OW26251   3.420   2.903   0.600
 8451SOL    HW126252   3.456   2.989   0.563
 8451SOL    HW226253   3.327   2.888   0.565
 8452SOL     OW26254   6.985   5.945   1.035
 8452SOL    HW126255   0.060   5.979   1.033
 8452SOL    HW226256   6.933   5.992   1.106
 8453SOL     OW26257   6.986   4.725   6.107
 8453SOL    HW126258   0.032   4.751   6.035
 8453SOL    HW226259   6.894   4.718   6.068
 8454SOL     OW26260   1.636   0.228   4.484
 8454SOL    HW126261   1.724   0.224   4.532
 8454SOL    HW226262   1.648   0.274   4.396
 8455SOL     OW26263   5.552   1.893   1.491
 8455SOL    HW126264   5.589   1.930   1.576
 8455SOL    HW226265   5.456   1.920   1.481
 8456SOL     OW26266   5.143   5.745   2.891
 8456SOL    HW126267   5.164   5.648   2.903
 8456SOL    HW226268   5.082   5.757   2.813
 8457SOL     OW26269   0.452   6.319   6.686
 8457SOL    HW126270   0.352   6.320   6.688
 8457SOL    HW226271   0.484   6.230   6.652
 8458SOL     OW26272   1.100   1.225   1.332
 8458SOL    HW126273   1.044   1.229   1.249
 8458SOL    HW226274   1.129   1.317   1.357
 8459SOL     OW26275   2.438   5.442   2.395
 8459SOL    HW126276   2.365   5.509   2.405
 8459SOL    HW226277   2.527   5.488   2.401
 8460SOL     OW26278   4.469   0.978   0.494
 8460SOL    HW126279   4.386   0.922   0.501
 8460SOL    HW226280   4.446   1.067   0.457
 8461SOL     OW26281   5.763   4.286   2.197
 8461SOL    HW126282   5.815   4.347   2.257
 8461SOL    HW226283   5.819   4.262   2.117
 8462SOL     OW26284   2.235   4.988   0.282
 8462SOL    HW126285   2.322   4.988   0.332
 8462SOL    HW226286   2.204   4.894   0.267
 8463SOL     OW26287   6.411   1.392   0.383
 8463SOL    HW126288   6.397   1.378   0.481
 8463SOL    HW226289   6.406   1.304   0.336
 8464SOL     OW26290   1.086   3.597   6.732
 8464SOL    HW126291   1.092   3.687   6.689
 8464SOL    HW226292   1.020   3.600   6.807
 8465SOL     OW26293   4.624   3.193   0.736
 8465SOL    HW126294   4.675   3.256   0.678
 8465SOL    HW226295   4.526   3.210   0.726
 8466SOL     OW26296   6.262   1.421   5.617
 8466SOL    HW126297   6.225   1.408   5.525
 8466SOL    HW226298   6.349   1.373   5.626
 8467SOL     OW26299   3.193   0.845   1.267
 8467SOL    HW126300   3.184   0.863   1.169
 8467SOL    HW226301   3.184   0.747   1.284
 8468SOL     OW26302   6.244   2.989   0.540
 8468SOL    HW126303   6.291   2.928   0.476
 8468SOL    HW226304   6.188   2.935   0.603
 8469SOL     OW26305   4.767   3.025   6.096
 8469SOL    HW126306   4.716   2.945   6.063
 8469SOL    HW226307   4.720   3.065   6.174
 8470SOL     OW26308   1.561   5.161   1.849
 8470SOL    HW126309   1.534   5.065   1.845
 8470SOL    HW226310   1.594   5.181   1.941
 8471SOL     OW26311   3.277   2.107   4.448
 8471SOL    HW126312   3.357   2.118   4.390
 8471SOL    HW226313   3.305   2.078   4.540
 8472SOL     OW26314   5.878   1.079   5.926
 8472SOL    HW126315   5.954   1.015   5.917
 8472SOL    HW226316   5.838   1.097   5.836
 8473SOL     OW26317   4.373   4.583   6.741
 8473SOL    HW126318   4.338   4.598   6.649
 8473SOL    HW226319   4.455   4.637   6.756
 8474SOL     OW26320   3.170   3.910   3.115
 8474SOL    HW126321   3.196   3.829   3.167
 8474SOL    HW226322   3.087   3.891   3.063
 8475SOL     OW26323   0.026   2.462   1.939
 8475SOL    HW126324   0.056   2.370   1.966
 8475SOL    HW226325   0.101   2.510   1.894
 8476SOL     OW26326   6.559   0.083   2.046
 8476SOL    HW126327   6.509   0.080   1.959
 8476SOL    HW226328   6.520   0.153   2.105
 8477SOL     OW26329   5.429   6.927   1.984
 8477SOL    HW126330   5.371   6.974   2.051
 8477SOL    HW226331   5.505   6.883   2.031
 8478SOL     OW26332   6.485   0.417   6.365
 8478SOL    HW126333   6.427   0.470   6.427
 8478SOL    HW226334   6.565   0.383   6.415
 8479SOL     OW26335   1.086   2.380   0.726
 8479SOL    HW126336   0.996   2.408   0.760
 8479SOL    HW226337   1.079   2.293   0.678
 8480SOL     OW26338   4.454   3.887   0.332
 8480SOL    HW126339   4.384   3.900   0.262
 8480SOL    HW226340   4.506   3.972   0.343
 8481SOL     OW26341   4.370   1.676   3.313
 8481SOL    HW126342   4.440   1.625   3.263
 8481SOL    HW226343   4.414   1.733   3.382
 8482SOL     OW26344   4.509   1.097   0.765
 8482SOL    HW126345   4.473   1.037   0.838
 8482SOL    HW226346   4.477   1.064   0.677
 8483SOL     OW26347   3.058   5.562   3.298
 8483SOL    HW126348   3.157   5.555   3.305
 8483SOL    HW226349   3.020   5.587   3.388
 8484SOL     OW26350   5.122   6.136   4.023
 8484SOL    HW126351   5.092   6.108   3.932
 8484SOL    HW226352   5.109   6.060   4.087
 8485SOL     OW26353   2.945   3.011   0.398
 8485SOL    HW126354   2.968   3.082   0.465
 8485SOL    HW226355   3.021   2.946   0.390
 8486SOL     OW26356   0.786   1.477   2.780
 8486SOL    HW126357   0.727   1.458   2.702
 8486SOL    HW226358   0.860   1.538   2.752
 8487SOL     OW26359   6.063   1.656   5.930
 8487SOL    HW126360   6.035   1.582   5.870
 8487SOL    HW226361   6.154   1.636   5.967
 8488SOL     OW26362   4.418   4.805   1.548
 8488SOL    HW126363   4.481   4.749   1.602
 8488SOL    HW226364   4.429   4.783   1.451
 8489SOL     OW26365   5.385   1.243   1.979
 8489SOL    HW126366   5.331   1.184   2.040
 8489SOL    HW226367   5.362   1.338   1.995
 8490SOL     OW26368   2.615   6.890   6.661
 8490SOL    HW126369   2.632   6.912   6.757
 8490SOL    HW226370   2.681   6.938   6.603
 8491SOL     OW26371   3.322   5.604   2.133
 8491SOL    HW126372   3.240   5.561   2.171
 8491SOL    HW226373   3.398   5.595   2.197
 8492SOL     OW26374   0.087   6.198   4.244
 8492SOL    HW126375   0.186   6.208   4.236
 8492SOL    HW226376   0.052   6.260   4.314
 8493SOL     OW26377   3.984   0.637   6.706
 8493SOL    HW126378   3.998   0.553   6.653
 8493SOL    HW226379   4.072   0.684   6.717
 8494SOL     OW26380   6.704   4.959   2.176
 8494SOL    HW126381   6.674   5.038   2.231
 8494SOL    HW226382   6.684   4.875   2.225
 8495SOL     OW26383   6.931   5.639   0.406
 8495SOL    HW126384   6.838   5.621   0.374
 8495SOL    HW226385   6.953   5.736   0.390
 8496SOL     OW26386   5.300   2.772   2.148
 8496SOL    HW126387   5.346   2.815   2.225
 8496SOL    HW226388   5.364   2.711   2.100
 8497SOL     OW26389   0.009   0.585   3.984
 8497SOL    HW126390   0.068   0.604   4.063
 8497SOL    HW226391   6.945   0.642   3.990
 8498SOL     OW26392   4.637   0.473   4.125
 8498SOL    HW126393   4.719   0.491   4.071
 8498SOL    HW226394   4.568   0.542   4.103
 8499SOL     OW26395   6.320   6.864   6.036
 8499SOL    HW126396   6.277   6.914   6.111
 8499SOL    HW226397   6.263   6.785   6.011
 8500SOL     OW26398   1.285   0.512   4.703
 8500SOL    HW126399   1.207   0.462   4.667
 8500SOL    HW226400   1.365   0.452   4.705
 8501SOL     OW26401   0.800   2.187   6.266
 8501SOL    HW126402   0.753   2.127   6.201
 8501SOL    HW226403   0.899   2.173   6.259
 8502SOL     OW26404   0.973   2.976   6.630
 8502SOL    HW126405   1.036   2.956   6.554
 8502SOL    HW226406   0.880   2.985   6.594
 8503SOL     OW26407   5.642   0.921   4.709
 8503SOL    HW126408   5.572   0.991   4.723
 8503SOL    HW226409   5.731   0.966   4.697
 8504SOL     OW26410   1.196   6.028   1.849
 8504SOL    HW126411   1.139   6.056   1.772
 8504SOL    HW226412   1.293   6.034   1.823
 8505SOL     OW26413   4.847   3.169   3.125
 8505SOL    HW126414   4.851   3.183   3.026
 8505SOL    HW226415   4.901   3.240   3.170
 8506SOL     OW26416   2.054   0.118   6.787
 8506SOL    HW126417   2.154   0.124   6.797
 8506SOL    HW226418   2.012   0.118   6.878
 8507SOL     OW26419   3.899   5.563   5.364
 8507SOL    HW126420   3.956   5.506   5.304
 8507SOL    HW226421   3.810   5.577   5.321
 8508SOL     OW26422   3.496   1.236   6.852
 8508SOL    HW126423   3.506   1.201   6.945
 8508SOL    HW226424   3.458   1.164   6.794
 8509SOL     OW26425   5.841   1.712   3.456
 8509SOL    HW126426   5.860   1.623   3.415
 8509SOL    HW226427   5.753   1.708   3.504
 8510SOL     OW26428   6.637   1.867   4.371
 8510SOL    HW126429   6.664   1.848   4.276
 8510SOL    HW226430   6.718   1.882   4.426
 8511SOL     OW26431   5.770   2.552   2.205
 8511SOL    HW126432   5.708   2.519   2.275
 8511SOL    HW226433   5.817   2.474   2.163
 8512SOL     OW26434   2.104   0.138   5.347
 8512SOL    HW126435   2.194   0.139   5.305
 8512SOL    HW226436   2.109   0.090   5.435
 8513SOL     OW26437   5.102   6.406   6.169
 8513SOL    HW126438   5.143   6.333   6.224
 8513SOL    HW226439   5.002   6.399   6.172
 8514SOL     OW26440   2.804   6.243   3.609
 8514SOL    HW126441   2.875   6.192   3.559
 8514SOL    HW226442   2.822   6.240   3.707
 8515SOL     OW26443   5.637   1.873   0.748
 8515SOL    HW126444   5.729   1.900   0.778
 8515SOL    HW226445   5.635   1.774   0.733
 8516SOL     OW26446   6.909   2.286   2.430
 8516SOL    HW126447   6.861   2.359   2.479
 8516SOL    HW226448   7.003   2.316   2.410
 8517SOL     OW26449   1.581   3.877   6.978
 8517SOL    HW126450   1.568   3.969   6.941
 8517SOL    HW226451   1.502   3.820   6.953
 8518SOL     OW26452   3.343   5.570   1.024
 8518SOL    HW126453   3.364   5.661   1.059
 8518SOL    HW226454   3.425   5.530   0.982
 8519SOL     OW26455   1.265   4.670   2.501
 8519SOL    HW126456   1.212   4.674   2.586
 8519SOL    HW226457   1.301   4.761   2.480
 8520SOL     OW26458   2.925   0.374   0.135
 8520SOL    HW126459   2.950   0.385   0.231
 8520SOL    HW226460   2.925   0.463   0.090
 8521SOL     OW26461   0.998   6.867   6.251
 8521SOL    HW126462   1.093   6.896   6.241
 8521SOL    HW226463   0.987   6.818   6.337
 8522SOL     OW26464   1.695   5.706   4.745
 8522SOL    HW126465   1.630   5.749   4.682
 8522SOL    HW226466   1.667   5.726   4.839
 8523SOL     OW26467   1.599   0.347   6.847
 8523SOL    HW126468   1.593   0.294   6.932
 8523SOL    HW226469   1.555   0.295   6.773
 8524SOL     OW26470   1.492   2.591   6.072
 8524SOL    HW126471   1.576   2.537   6.072
 8524SOL    HW226472   1.416   2.534   6.040
 8525SOL     OW26473   5.362   2.760   2.974
 8525SOL    HW126474   5.265   2.736   2.965
 8525SOL    HW226475   5.409   2.740   2.888
 8526SOL     OW26476   2.081   2.785   2.007
 8526SOL    HW126477   2.118   2.697   1.977
 8526SOL    HW226478   2.070   2.845   1.928
 8527SOL     OW26479   4.221   0.056   4.386
 8527SOL    HW126480   4.270   0.052   4.473
 8527SOL    HW226481   4.251   0.136   4.334
 8528SOL     OW26482   5.000   2.536   6.969
 8528SOL    HW126483   5.070   2.577   6.910
 8528SOL    HW226484   5.042   2.505   0.036
 8529SOL     OW26485   0.434   4.378   0.423
 8529SOL    HW126486   0.433   4.478   0.424
 8529SOL    HW226487   0.422   4.346   0.329
 8530SOL     OW26488   1.356   3.365   5.379
 8530SOL    HW126489   1.303   3.440   5.340
 8530SOL    HW226490   1.390   3.306   5.305
 8531SOL     OW26491   4.496   4.971   2.578
 8531SOL    HW126492   4.567   5.024   2.623
 8531SOL    HW226493   4.536   4.889   2.537
 8532SOL     OW26494   1.258   4.142   5.871
 8532SOL    HW126495   1.270   4.203   5.793
 8532SOL    HW226496   1.339   4.083   5.880
 8533SOL     OW26497   3.669   0.417   5.826
 8533SOL    HW126498   3.699   0.500   5.778
 8533SOL    HW226499   3.749   0.361   5.848
 8534SOL     OW26500   1.841   2.749   3.041
 8534SOL    HW126501   1.934   2.716   3.057
 8534SOL    HW226502   1.833   2.780   2.946
 8535SOL     OW26503   6.976   2.657   3.944
 8535SOL    HW126504   6.998   2.725   4.013
 8535SOL    HW226505   6.885   2.619   3.963
 8536SOL     OW26506   0.263   1.337   5.086
 8536SOL    HW126507   0.291   1.371   5.176
 8536SOL    HW226508   0.333   1.360   5.018
 8537SOL     OW26509   5.968   0.536   1.823
 8537SOL    HW126510   5.936   0.509   1.914
 8537SOL    HW226511   6.065   0.513   1.813
 8538SOL     OW26512   5.990   1.304   4.862
 8538SOL    HW126513   6.074   1.252   4.842
 8538SOL    HW226514   5.961   1.353   4.780
 8539SOL     OW26515   6.841   2.929   2.360
 8539SOL    HW126516   6.873   2.976   2.442
 8539SOL    HW226517   6.908   2.939   2.287
 8540SOL     OW26518   4.624   0.242   0.078
 8540SOL    HW126519   4.551   0.297   0.118
 8540SOL    HW226520   4.617   0.244   6.996
 8541SOL     OW26521   3.598   6.777   5.312
 8541SOL    HW126522   3.514   6.723   5.305
 8541SOL    HW226523   3.671   6.732   5.259
 8542SOL     OW26524   0.966   4.876   6.493
 8542SOL    HW126525   0.891   4.818   6.527
 8542SOL    HW226526   1.012   4.830   6.418
 8543SOL     OW26527   2.430   2.016   5.758
 8543SOL    HW126528   2.416   2.079   5.681
 8543SOL    HW226529   2.523   2.027   5.793
 8544SOL     OW26530   5.655   4.558   5.514
 8544SOL    HW126531   5.611   4.482   5.562
 8544SOL    HW226532   5.606   4.643   5.531
 8545SOL     OW26533   3.014   0.800   6.326
 8545SOL    HW126534   3.050   0.712   6.297
 8545SOL    HW226535   3.043   0.871   6.261
 8546SOL     OW26536   5.025   0.900   2.095
 8546SOL    HW126537   4.942   0.938   2.053
 8546SOL    HW226538   5.075   0.847   2.027
 8547SOL     OW26539   5.624   5.900   5.302
 8547SOL    HW126540   5.611   5.818   5.357
 8547SOL    HW226541   5.644   5.875   5.207
 8548SOL     OW26542   0.755   3.614   5.655
 8548SOL    HW126543   0.715   3.536   5.702
 8548SOL    HW226544   0.845   3.635   5.694
 8549SOL     OW26545   2.131   6.834   3.910
 8549SOL    HW126546   2.201   6.823   3.840
 8549SOL    HW226547   2.142   6.922   3.956
 8550SOL     OW26548   6.676   4.303   6.327
 8550SOL    HW126549   6.674   4.392   6.374
 8550SOL    HW226550   6.768   4.266   6.329
 8551SOL     OW26551   1.749   1.120   6.361
 8551SOL    HW126552   1.649   1.122   6.360
 8551SOL    HW226553   1.783   1.144   6.270
 8552SOL     OW26554   3.306   1.746   3.357
 8552SOL    HW126555   3.219   1.795   3.358
 8552SOL    HW226556   3.294   1.657   3.400
 8553SOL     OW26557   5.009   4.263   0.541
 8553SOL    HW126558   4.921   4.217   0.528
 8553SOL    HW226559   5.061   4.215   0.611
 8554SOL     OW26560   2.238   1.375   0.839
 8554SOL    HW126561   2.215   1.375   0.741
 8554SOL    HW226562   2.336   1.390   0.850
 8555SOL     OW26563   3.751   1.297   3.915
 8555SOL    HW126564   3.771   1.364   3.843
 8555SOL    HW226565   3.838   1.264   3.954
 8556SOL     OW26566   1.790   5.801   0.232
 8556SOL    HW126567   1.719   5.859   0.193
 8556SOL    HW226568   1.831   5.847   0.311
 8557SOL     OW26569   0.130   0.789   6.556
 8557SOL    HW126570   0.130   0.694   6.588
 8557SOL    HW226571   0.096   0.793   6.463
 8558SOL     OW26572   3.419   6.020   4.287
 8558SOL    HW126573   3.374   6.080   4.222
 8558SOL    HW226574   3.367   5.935   4.296
 8559SOL     OW26575   1.643   4.569   2.609
 8559SOL    HW126576   1.629   4.662   2.575
 8559SOL    HW226577   1.567   4.511   2.581
 8560SOL     OW26578   3.027   4.740   1.106
 8560SOL    HW126579   2.971   4.816   1.139
 8560SOL    HW226580   3.098   4.719   1.173
 8561SOL     OW26581   4.777   1.257   2.402
 8561SOL    HW126582   4.756   1.288   2.310
 8561SOL    HW226583   4.839   1.178   2.397
 8562SOL     OW26584   5.100   1.853   6.715
 8562SOL    HW126585   5.003   1.861   6.740
 8562SOL    HW226586   5.157   1.890   6.789
 8563SOL     OW26587   2.381   5.050   2.159
 8563SOL    HW126588   2.401   5.143   2.128
 8563SOL    HW226589   2.467   5.003   2.179
 8564SOL     OW26590   4.095   0.111   0.218
 8564SOL    HW126591   3.995   0.104   0.212
 8564SOL    HW226592   4.138   0.049   0.153
 8565SOL     OW26593   1.766   4.982   1.039
 8565SOL    HW126594   1.725   5.052   0.981
 8565SOL    HW226595   1.847   5.020   1.085
 8566SOL     OW26596   3.240   1.170   2.292
 8566SOL    HW126597   3.308   1.123   2.235
 8566SOL    HW226598   3.279   1.185   2.383
 8567SOL     OW26599   1.588   3.081   1.700
 8567SOL    HW126600   1.505   3.137   1.700
 8567SOL    HW226601   1.574   3.001   1.641
 8568SOL     OW26602   5.927   0.500   6.805
 8568SOL    HW126603   5.947   0.563   6.880
 8568SOL    HW226604   5.961   0.538   6.719
 8569SOL     OW26605   4.023   2.248   6.541
 8569SOL    HW126606   3.953   2.311   6.509
 8569SOL    HW226607   4.106   2.257   6.485
 8570SOL     OW26608   1.909   2.475   2.137
 8570SOL    HW126609   1.834   2.427   2.092
 8570SOL    HW226610   1.873   2.546   2.197
 8571SOL     OW26611   1.603   0.923   3.286
 8571SOL    HW126612   1.503   0.930   3.293
 8571SOL    HW226613   1.638   0.997   3.229
 8572SOL     OW26614   2.369   4.509   5.902
 8572SOL    HW126615   2.365   4.419   5.859
 8572SOL    HW226616   2.387   4.578   5.832
 8573SOL     OW26617   3.782   6.385   0.301
 8573SOL    HW126618   3.741   6.438   0.375
 8573SOL    HW226619   3.771   6.434   0.214
 8574SOL     OW26620   5.458   0.849   5.133
 8574SOL    HW126621   5.384   0.782   5.126
 8574SOL    HW226622   5.535   0.820   5.076
 8575SOL     OW26623   3.068   6.018   3.668
 8575SOL    HW126624   3.123   5.936   3.651
 8575SOL    HW226625   3.038   6.056   3.581
 8576SOL     OW26626   1.515   4.814   3.203
 8576SOL    HW126627   1.421   4.781   3.217
 8576SOL    HW226628   1.540   4.804   3.107
 8577SOL     OW26629   1.637   1.818   0.226
 8577SOL    HW126630   1.678   1.787   0.140
 8577SOL    HW226631   1.574   1.893   0.208
 8578SOL     OW26632   7.007   6.468   6.451
 8578SOL    HW126633   6.988   6.402   6.378
 8578SOL    HW226634   6.970   6.558   6.426
 8579SOL     OW26635   2.839   6.515   2.346
 8579SOL    HW126636   2.747   6.528   2.383
 8579SOL    HW226637   2.857   6.418   2.334
 8580SOL     OW26638   2.041   0.594   1.208
 8580SOL    HW126639   2.055   0.626   1.301
 8580SOL    HW226640   1.973   0.651   1.162
 8581SOL     OW26641   3.444   4.795   1.491
 8581SOL    HW126642   3.526   4.834   1.535
 8581SOL    HW226643   3.421   4.849   1.410
 8582SOL     OW26644   3.367   4.751   6.127
 8582SOL    HW126645   3.374   4.660   6.166
 8582SOL    HW226646   3.313   4.748   6.043
 8583SOL     OW26647   4.293   0.809   2.750
 8583SOL    HW126648   4.295   0.716   2.786
 8583SOL    HW226649   4.198   0.836   2.734
 8584SOL     OW26650   6.745   1.513   5.042
 8584SOL    HW126651   6.738   1.420   5.006
 8584SOL    HW226652   6.726   1.579   4.969
 8585SOL     OW26653   5.263   2.827   2.574
 8585SOL    HW126654   5.268   2.909   2.518
 8585SOL    HW226655   5.168   2.806   2.596
 8586SOL     OW26656   6.694   5.975   0.544
 8586SOL    HW126657   6.773   6.029   0.516
 8586SOL    HW226658   6.722   5.908   0.612
 8587SOL     OW26659   0.771   1.738   6.931
 8587SOL    HW126660   0.727   1.662   6.883
 8587SOL    HW226661   0.791   1.811   6.866
 8588SOL     OW26662   2.929   1.668   6.321
 8588SOL    HW126663   2.860   1.600   6.296
 8588SOL    HW226664   2.884   1.753   6.348
 8589SOL     OW26665   6.664   2.385   6.808
 8589SOL    HW126666   6.657   2.481   6.838
 8589SOL    HW226667   6.667   2.326   6.889
 8590SOL     OW26668   1.298   0.794   4.837
 8590SOL    HW126669   1.322   0.698   4.832
 8590SOL    HW226670   1.372   0.845   4.880
 8591SOL     OW26671   0.010   4.133   6.482
 8591SOL    HW126672   6.933   4.108   6.468
 8591SOL    HW226673   0.021   4.231   6.469
 8592SOL     OW26674   0.131   1.604   5.263
 8592SOL    HW126675   0.064   1.536   5.234
 8592SOL    HW226676   0.083   1.685   5.298
 8593SOL     OW26677   4.139   1.422   0.235
 8593SOL    HW126678   4.127   1.346   0.299
 8593SOL    HW226679   4.067   1.490   0.250
 8594SOL     OW26680   6.578   2.884   5.908
 8594SOL    HW126681   6.587   2.982   5.922
 8594SOL    HW226682   6.500   2.865   5.848
 8595SOL     OW26683   5.950   6.846   3.202
 8595SOL    HW126684   5.979   6.751   3.217
 8595SOL    HW226685   6.026   6.897   3.162
 8596SOL     OW26686   0.999   1.145   4.288
 8596SOL    HW126687   0.978   1.120   4.194
 8596SOL    HW226688   1.024   1.063   4.340
 8597SOL     OW26689   5.199   3.552   0.193
 8597SOL    HW126690   5.106   3.544   0.228
 8597SOL    HW226691   5.243   3.633   0.231
 8598SOL     OW26692   5.875   6.393   4.612
 8598SOL    HW126693   5.946   6.457   4.643
 8598SOL    HW226694   5.895   6.365   4.518
 8599SOL     OW26695   0.084   3.473   4.056
 8599SOL    HW126696   0.004   3.499   4.109
 8599SOL    HW226697   0.159   3.536   4.074
 8600SOL     OW26698   4.487   1.732   0.804
 8600SOL    HW126699   4.395   1.730   0.844
 8600SOL    HW226700   4.481   1.757   0.708
 8601SOL     OW26701   0.549   6.106   3.667
 8601SOL    HW126702   0.493   6.023   3.675
 8601SOL    HW226703   0.587   6.112   3.575
 8602SOL     OW26704   2.719   6.219   4.886
 8602SOL    HW126705   2.650   6.218   4.959
 8602SOL    HW226706   2.736   6.126   4.855
 8603SOL     OW26707   0.202   0.122   6.950
 8603SOL    HW126708   0.113   0.151   6.914
 8603SOL    HW226709   0.244   0.199   7.000
 8604SOL     OW26710   0.040   4.409   6.532
 8604SOL    HW126711   0.024   4.409   6.631
 8604SOL    HW226712   0.107   4.480   6.509
 8605SOL     OW26713   6.293   4.893   4.653
 8605SOL    HW126714   6.341   4.975   4.622
 8605SOL    HW226715   6.306   4.819   4.587
 8606SOL     OW26716   1.777   2.521   0.559
 8606SOL    HW126717   1.870   2.556   0.555
 8606SOL    HW226718   1.721   2.564   0.489
 8607SOL     OW26719   2.893   4.158   1.397
 8607SOL    HW126720   2.832   4.094   1.444
 8607SOL    HW226721   2.910   4.236   1.456
 8608SOL     OW26722   1.827   4.986   2.499
 8608SOL    HW126723   1.825   4.971   2.400
 8608SOL    HW226724   1.889   5.061   2.521
 8609SOL     OW26725   4.117   1.803   4.326
 8609SOL    HW126726   4.116   1.704   4.341
 8609SOL    HW226727   4.095   1.822   4.230
 8610SOL     OW26728   6.803   6.347   3.227
 8610SOL    HW126729   6.823   6.365   3.323
 8610SOL    HW226730   6.883   6.306   3.183
 8611SOL     OW26731   3.208   1.482   5.119
 8611SOL    HW126732   3.248   1.556   5.065
 8611SOL    HW226733   3.245   1.485   5.212
 8612SOL     OW26734   3.646   4.114   4.029
 8612SOL    HW126735   3.572   4.048   4.018
 8612SOL    HW226736   3.713   4.102   3.955
 8613SOL     OW26737   3.960   2.965   1.775
 8613SOL    HW126738   3.903   2.926   1.847
 8613SOL    HW226739   3.981   3.060   1.798
 8614SOL     OW26740   1.591   1.540   2.817
 8614SOL    HW126741   1.654   1.486   2.872
 8614SOL    HW226742   1.628   1.632   2.805
 8615SOL     OW26743   3.828   1.595   4.078
 8615SOL    HW126744   3.901   1.613   4.012
 8615SOL    HW226745   3.765   1.673   4.080
 8616SOL     OW26746   5.296   4.382   2.860
 8616SOL    HW126747   5.215   4.435   2.885
 8616SOL    HW226748   5.377   4.429   2.893
 8617SOL     OW26749   2.880   0.332   3.600
 8617SOL    HW126750   2.901   0.247   3.648
 8617SOL    HW226751   2.839   0.311   3.511
 8618SOL     OW26752   5.332   4.818   0.853
 8618SOL    HW126753   5.357   4.898   0.906
 8618SOL    HW226754   5.414   4.772   0.819
 8619SOL     OW26755   4.911   5.294   0.622
 8619SOL    HW126756   4.820   5.283   0.582
 8619SOL    HW226757   4.958   5.370   0.577
 8620SOL     OW26758   2.498   0.623   4.572
 8620SOL    HW126759   2.590   0.605   4.608
 8620SOL    HW226760   2.467   0.712   4.605
 8621SOL     OW26761   5.837   2.919   1.638
 8621SOL    HW126762   5.756   2.972   1.614
 8621SOL    HW226763   5.875   2.877   1.555
 8622SOL     OW26764   6.661   5.138   2.876
 8622SOL    HW126765   6.704   5.088   2.951
 8622SOL    HW226766   6.679   5.236   2.887
 8623SOL     OW26767   0.952   3.542   4.008
 8623SOL    HW126768   0.948   3.593   3.922
 8623SOL    HW226769   0.927   3.446   3.991
 8624SOL     OW26770   2.897   3.882   4.990
 8624SOL    HW126771   2.861   3.942   5.061
 8624SOL    HW226772   2.968   3.930   4.939
 8625SOL     OW26773   3.888   2.758   5.893
 8625SOL    HW126774   3.819   2.754   5.965
 8625SOL    HW226775   3.957   2.826   5.917
 8626SOL     OW26776   3.484   3.911   0.761
 8626SOL    HW126777   3.445   3.858   0.836
 8626SOL    HW226778   3.575   3.877   0.739
 8627SOL     OW26779   1.873   0.520   1.564
 8627SOL    HW126780   1.853   0.484   1.655
 8627SOL    HW226781   1.815   0.600   1.546
 8628SOL     OW26782   0.745   6.617   1.043
 8628SOL    HW126783   0.839   6.620   1.009
 8628SOL    HW226784   0.728   6.696   1.102
 8629SOL     OW26785   0.440   6.566   5.762
 8629SOL    HW126786   0.538   6.570   5.781
 8629SOL    HW226787   0.424   6.512   5.679
 8630SOL     OW26788   5.025   3.372   2.352
 8630SOL    HW126789   4.984   3.281   2.360
 8630SOL    HW226790   4.981   3.423   2.278
 8631SOL     OW26791   2.203   6.742   6.885
 8631SOL    HW126792   2.273   6.751   6.815
 8631SOL    HW226793   2.166   6.649   6.883
 8632SOL     OW26794   5.287   5.429   5.834
 8632SOL    HW126795   5.305   5.499   5.903
 8632SOL    HW226796   5.373   5.399   5.794
 8633SOL     OW26797   5.507   4.462   5.936
 8633SOL    HW126798   5.554   4.547   5.914
 8633SOL    HW226799   5.462   4.470   6.025
 8634SOL     OW26800   4.295   2.895   0.571
 8634SOL    HW126801   4.230   2.929   0.503
 8634SOL    HW226802   4.257   2.911   0.663
 8635SOL     OW26803   5.405   2.508   5.614
 8635SOL    HW126804   5.390   2.605   5.628
 8635SOL    HW226805   5.486   2.478   5.665
 8636SOL     OW26806   4.739   0.212   2.056
 8636SOL    HW126807   4.722   0.148   2.131
 8636SOL    HW226808   4.763   0.301   2.094
 8637SOL     OW26809   1.524   2.057   0.175
 8637SOL    HW126810   1.520   2.130   0.107
 8637SOL    HW226811   1.468   2.082   0.254
 8638SOL     OW26812   4.976   2.369   4.064
 8638SOL    HW126813   4.943   2.402   3.976
 8638SOL    HW226814   4.901   2.325   4.113
 8639SOL     OW26815   3.488   3.959   0.169
 8639SOL    HW126816   3.393   3.983   0.148
 8639SOL    HW226817   3.534   3.929   0.085
 8640SOL     OW26818   2.875   3.265   0.864
 8640SOL    HW126819   2.836   3.319   0.789
 8640SOL    HW226820   2.807   3.256   0.937
 8641SOL     OW26821   4.704   6.362   2.037
 8641SOL    HW126822   4.649   6.306   1.975
 8641SOL    HW226823   4.774   6.410   1.985
 8642SOL     OW26824   0.960   6.069   3.510
 8642SOL    HW126825   0.983   5.977   3.543
 8642SOL    HW226826   0.913   6.062   3.422
 8643SOL     OW26827   3.900   6.392   1.177
 8643SOL    HW126828   3.840   6.336   1.235
 8643SOL    HW226829   3.952   6.455   1.235
 8644SOL     OW26830   6.527   1.908   6.280
 8644SOL    HW126831   6.585   1.957   6.345
 8644SOL    HW226832   6.579   1.886   6.198
 8645SOL     OW26833   5.855   4.167   2.877
 8645SOL    HW126834   5.902   4.140   2.793
 8645SOL    HW226835   5.799   4.248   2.859
 8646SOL     OW26836   6.771   2.076   5.472
 8646SOL    HW126837   6.841   2.135   5.432
 8646SOL    HW226838   6.805   1.982   5.475
 8647SOL     OW26839   2.232   5.535   2.100
 8647SOL    HW126840   2.144   5.540   2.148
 8647SOL    HW226841   2.217   5.507   2.006
 8648SOL     OW26842   5.223   5.080   0.551
 8648SOL    HW126843   5.168   5.000   0.531
 8648SOL    HW226844   5.181   5.132   0.625
 8649SOL     OW26845   5.267   0.120   0.705
 8649SOL    HW126846   5.202   0.187   0.668
 8649SOL    HW226847   5.360   0.156   0.697
 8650SOL     OW26848   2.282   6.385   4.680
 8650SOL    HW126849   2.375   6.349   4.690
 8650SOL    HW226850   2.217   6.310   4.677
 8651SOL     OW26851   3.175   1.801   1.257
 8651SOL    HW126852   3.100   1.763   1.203
 8651SOL    HW226853   3.191   1.896   1.230
 8652SOL     OW26854   1.270   2.654   3.367
 8652SOL    HW126855   1.353   2.707   3.382
 8652SOL    HW226856   1.257   2.640   3.269
 8653SOL     OW26857   6.778   1.665   6.603
 8653SOL    HW126858   6.843   1.666   6.527
 8653SOL    HW226859   6.783   1.751   6.653
 8654SOL     OW26860   0.261   4.722   2.021
 8654SOL    HW126861   0.193   4.712   1.948
 8654SOL    HW226862   0.214   4.724   2.110
 8655SOL     OW26863   0.390   0.413   4.749
 8655SOL    HW126864   0.298   0.452   4.749
 8655SOL    HW226865   0.419   0.396   4.843
 8656SOL     OW26866   5.299   0.101   1.004
 8656SOL    HW126867   5.376   0.040   1.021
 8656SOL    HW226868   5.267   0.088   0.910
 8657SOL     OW26869   4.344   1.326   3.079
 8657SOL    HW126870   4.307   1.267   3.150
 8657SOL    HW226871   4.335   1.281   2.990
 8658SOL     OW26872   6.462   4.302   0.686
 8658SOL    HW126873   6.466   4.217   0.739
 8658SOL    HW226874   6.528   4.367   0.723
 8659SOL     OW26875   3.758   1.080   2.938
 8659SOL    HW126876   3.761   1.028   2.853
 8659SOL    HW226877   3.808   1.166   2.926
 8660SOL     OW26878   6.597   3.826   1.696
 8660SOL    HW126879   6.539   3.898   1.735
 8660SOL    HW226880   6.639   3.774   1.770
 8661SOL     OW26881   6.631   4.032   2.915
 8661SOL    HW126882   6.535   4.050   2.897
 8661SOL    HW226883   6.676   3.997   2.833
 8662SOL     OW26884   2.288   4.244   3.102
 8662SOL    HW126885   2.241   4.280   3.183
 8662SOL    HW226886   2.345   4.316   3.062
 8663SOL     OW26887   4.119   5.666   2.564
 8663SOL    HW126888   4.168   5.702   2.643
 8663SOL    HW226889   4.044   5.728   2.540
 8664SOL     OW26890   3.592   5.699   3.897
 8664SOL    HW126891   3.549   5.641   3.827
 8664SOL    HW226892   3.669   5.650   3.938
 8665SOL     OW26893   5.253   3.155   6.942
 8665SOL    HW126894   5.256   3.058   6.966
 8665SOL    HW226895   5.263   3.165   6.843
 8666SOL     OW26896   4.534   6.888   2.419
 8666SOL    HW126897   4.512   6.809   2.362
 8666SOL    HW226898   4.523   6.863   2.516
 8667SOL     OW26899   5.267   2.152   3.018
 8667SOL    HW126900   5.230   2.113   3.103
 8667SOL    HW226901   5.345   2.211   3.040
 8668SOL     OW26902   5.320   2.607   4.722
 8668SOL    HW126903   5.382   2.588   4.645
 8668SOL    HW226904   5.369   2.660   4.791
 8669SOL     OW26905   6.465   5.825   5.940
 8669SOL    HW126906   6.442   5.794   6.032
 8669SOL    HW226907   6.505   5.749   5.888
 8670SOL     OW26908   6.406   4.200   6.267
 8670SOL    HW126909   6.335   4.230   6.330
 8670SOL    HW226910   6.496   4.228   6.302
 8671SOL     OW26911   0.382   2.755   2.790
 8671SOL    HW126912   0.401   2.659   2.812
 8671SOL    HW226913   0.417   2.813   2.864
 8672SOL     OW26914   0.567   0.874   3.204
 8672SOL    HW126915   0.526   0.941   3.143
 8672SOL    HW226916   0.603   0.920   3.285
 8673SOL     OW26917   0.510   1.847   1.502
 8673SOL    HW126918   0.560   1.776   1.552
 8673SOL    HW226919   0.433   1.879   1.556
 8674SOL     OW26920   0.066   4.045   3.825
 8674SOL    HW126921   0.044   3.954   3.861
 8674SOL    HW226922   7.011   4.076   3.765
 8675SOL     OW26923   3.368   2.310   5.395
 8675SOL    HW126924   3.411   2.232   5.350
 8675SOL    HW226925   3.323   2.367   5.327
 8676SOL     OW26926   5.412   1.115   0.738
 8676SOL    HW126927   5.462   1.183   0.684
 8676SOL    HW226928   5.316   1.115   0.710
 8677SOL     OW26929   2.491   6.424   6.149
 8677SOL    HW126930   2.556   6.349   6.137
 8677SOL    HW226931   2.528   6.508   6.108
 8678SOL     OW26932   1.803   2.119   0.831
 8678SOL    HW126933   1.740   2.175   0.777
 8678SOL    HW226934   1.877   2.175   0.866
 8679SOL     OW26935   1.345   1.938   5.380
 8679SOL    HW126936   1.286   1.864   5.414
 8679SOL    HW226937   1.401   1.904   5.305
 8680SOL     OW26938   6.687   1.006   0.180
 8680SOL    HW126939   6.747   0.942   0.131
 8680SOL    HW226940   6.673   1.087   0.123
 8681SOL     OW26941   5.536   6.450   1.559
 8681SOL    HW126942   5.551   6.352   1.577
 8681SOL    HW226943   5.438   6.467   1.550
 8682SOL     OW26944   1.786   0.660   0.799
 8682SOL    HW126945   1.726   0.728   0.842
 8682SOL    HW226946   1.795   0.580   0.859
 8683SOL     OW26947   1.732   4.177   4.598
 8683SOL    HW126948   1.767   4.248   4.537
 8683SOL    HW226949   1.644   4.144   4.565
 8684SOL     OW26950   1.274   3.964   4.067
 8684SOL    HW126951   1.175   3.963   4.075
 8684SOL    HW226952   1.315   3.931   4.152
 8685SOL     OW26953   5.224   2.058   4.948
 8685SOL    HW126954   5.125   2.066   4.934
 8685SOL    HW226955   5.264   2.006   4.873
 8686SOL     OW26956   1.006   5.732   2.867
 8686SOL    HW126957   0.994   5.642   2.825
 8686SOL    HW226958   1.037   5.721   2.962
 8687SOL     OW26959   5.170   4.188   5.925
 8687SOL    HW126960   5.263   4.156   5.944
 8687SOL    HW226961   5.173   4.283   5.895
 8688SOL     OW26962   0.564   3.827   5.798
 8688SOL    HW126963   0.500   3.902   5.779
 8688SOL    HW226964   0.596   3.788   5.711
 8689SOL     OW26965   3.764   3.536   0.188
 8689SOL    HW126966   3.818   3.452   0.187
 8689SOL    HW226967   3.668   3.514   0.169
 8690SOL     OW26968   1.586   2.620   3.067
 8690SOL    HW126969   1.677   2.658   3.082
 8690SOL    HW226970   1.594   2.530   3.023
 8691SOL     OW26971   3.311   2.682   5.255
 8691SOL    HW126972   3.294   2.590   5.221
 8691SOL    HW226973   3.407   2.691   5.280
 8692SOL     OW26974   4.461   1.956   5.068
 8692SOL    HW126975   4.451   1.861   5.039
 8692SOL    HW226976   4.522   1.961   5.147
 8693SOL     OW26977   6.617   6.817   6.361
 8693SOL    HW126978   6.564   6.895   6.394
 8693SOL    HW226979   6.601   6.738   6.421
 8694SOL     OW26980   6.052   3.593   4.998
 8694SOL    HW126981   6.088   3.678   5.038
 8694SOL    HW226982   5.952   3.597   4.995
 8695SOL     OW26983   3.923   4.242   6.304
 8695SOL    HW126984   3.969   4.329   6.288
 8695SOL    HW226985   3.987   4.167   6.286
 8696SOL     OW26986   2.746   4.764   6.012
 8696SOL    HW126987   2.649   4.776   6.036
 8696SOL    HW226988   2.776   4.673   6.041
 8697SOL     OW26989   1.549   3.836   5.509
 8697SOL    HW126990   1.603   3.885   5.577
 8697SOL    HW226991   1.601   3.758   5.474
 8698SOL     OW26992   5.433   5.458   5.514
 8698SOL    HW126993   5.336   5.480   5.526
 8698SOL    HW226994   5.443   5.362   5.487
 8699SOL     OW26995   1.479   2.686   6.469
 8699SOL    HW126996   1.387   2.679   6.430
 8699SOL    HW226997   1.474   2.732   6.557
 8700SOL     OW26998   1.390   0.415   4.431
 8700SOL    HW126999   1.304   0.406   4.382
 8700SOL    HW227000   1.428   0.324   4.449
 8701SOL     OW27001   0.308   2.385   0.611
 8701SOL    HW127002   0.242   2.457   0.590
 8701SOL    HW227003   0.363   2.366   0.529
 8702SOL     OW27004   5.245   5.253   2.105
 8702SOL    HW127005   5.285   5.188   2.040
 8702SOL    HW227006   5.210   5.332   2.056
 8703SOL     OW27007   2.191   5.496   1.054
 8703SOL    HW127008   2.258   5.533   0.989
 8703SOL    HW227009   2.128   5.569   1.081
 8704SOL     OW27010   1.046   0.584   5.025
 8704SOL    HW127011   1.045   0.671   4.974
 8704SOL    HW227012   1.140   0.558   5.046
 8705SOL     OW27013   4.335   2.280   6.741
 8705SOL    HW127014   4.384   2.280   6.828
 8705SOL    HW227015   4.239   2.304   6.756
 8706SOL     OW27016   4.585   3.126   6.284
 8706SOL    HW127017   4.561   3.202   6.345
 8706SOL    HW227018   4.526   3.129   6.203
 8707SOL     OW27019   1.475   2.050   5.141
 8707SOL    HW127020   1.509   2.141   5.165
 8707SOL    HW227021   1.545   1.982   5.163
 8708SOL     OW27022   6.004   2.754   0.561
 8708SOL    HW127023   5.910   2.730   0.539
 8708SOL    HW227024   6.005   2.818   0.638
 8709SOL     OW27025   6.121   0.039   5.831
 8709SOL    HW127026   6.175   0.003   5.755
 8709SOL    HW227027   6.162   0.012   5.918
 8710SOL     OW27028   2.441   1.221   3.316
 8710SOL    HW127029   2.513   1.276   3.273
 8710SOL    HW227030   2.425   1.253   3.409
 8711SOL     OW27031   1.426   1.168   1.371
 8711SOL    HW127032   1.370   1.176   1.288
 8711SOL    HW227033   1.427   1.073   1.401
 8712SOL     OW27034   1.732   4.158   5.829
 8712SOL    HW127035   1.766   4.202   5.746
 8712SOL    HW227036   1.651   4.103   5.808
 8713SOL     OW27037   6.935   4.363   1.722
 8713SOL    HW127038   6.874   4.285   1.731
 8713SOL    HW227039   7.001   4.362   1.797
 8714SOL     OW27040   0.432   5.855   6.532
 8714SOL    HW127041   0.383   5.794   6.470
 8714SOL    HW227042   0.531   5.838   6.524
 8715SOL     OW27043   2.056   3.388   1.486
 8715SOL    HW127044   2.150   3.355   1.476
 8715SOL    HW227045   1.997   3.312   1.514
 8716SOL     OW27046   6.856   6.865   2.117
 8716SOL    HW127047   6.850   6.947   2.061
 8716SOL    HW227048   6.792   6.796   2.082
 8717SOL     OW27049   2.766   3.956   0.444
 8717SOL    HW127050   2.670   3.940   0.467
 8717SOL    HW227051   2.793   3.894   0.370
 8718SOL     OW27052   2.170   4.602   6.076
 8718SOL    HW127053   2.245   4.584   6.013
 8718SOL    HW227054   2.119   4.683   6.046
 8719SOL     OW27055   3.693   0.585   5.616
 8719SOL    HW127056   3.761   0.567   5.545
 8719SOL    HW227057   3.610   0.622   5.574
 8720SOL     OW27058   0.095   5.219   4.867
 8720SOL    HW127059   0.045   5.133   4.874
 8720SOL    HW227060   0.124   5.248   4.958
 8721SOL     OW27061   0.429   0.467   6.584
 8721SOL    HW127062   0.501   0.404   6.612
 8721SOL    HW227063   0.352   0.459   6.647
 8722SOL     OW27064   3.108   1.037   1.432
 8722SOL    HW127065   3.129   0.952   1.383
 8722SOL    HW227066   3.087   1.109   1.366
 8723SOL     OW27067   4.112   0.430   2.614
 8723SOL    HW127068   4.205   0.467   2.621
 8723SOL    HW227069   4.076   0.447   2.523
 8724SOL     OW27070   3.959   1.203   4.405
 8724SOL    HW127071   3.902   1.259   4.346
 8724SOL    HW227072   3.918   1.113   4.416
 8725SOL     OW27073   0.175   6.725   3.672
 8725SOL    HW127074   0.214   6.633   3.670
 8725SOL    HW227075   0.096   6.726   3.733
 8726SOL     OW27076   0.043   0.639   0.979
 8726SOL    HW127077   0.004   0.633   1.070
 8726SOL    HW227078   0.129   0.587   0.976
 8727SOL     OW27079   4.688   6.267   5.912
 8727SOL    HW127080   4.774   6.238   5.953
 8727SOL    HW227081   4.627   6.188   5.901
 8728SOL     OW27082   6.554   0.261   3.872
 8728SOL    HW127083   6.521   0.173   3.908
 8728SOL    HW227084   6.653   0.268   3.886
 8729SOL     OW27085   4.334   5.895   6.567
 8729SOL    HW127086   4.289   5.877   6.655
 8729SOL    HW227087   4.318   5.990   6.540
 8730SOL     OW27088   4.748   5.339   1.389
 8730SOL    HW127089   4.821   5.360   1.454
 8730SOL    HW227090   4.761   5.247   1.353
 8731SOL     OW27091   0.087   1.588   3.467
 8731SOL    HW127092   0.133   1.615   3.382
 8731SOL    HW227093   0.076   1.489   3.469
 8732SOL     OW27094   5.899   6.942   0.315
 8732SOL    HW127095   5.939   6.946   0.224
 8732SOL    HW227096   5.883   6.846   0.340
 8733SOL     OW27097   6.251   5.206   2.060
 8733SOL    HW127098   6.264   5.247   1.970
 8733SOL    HW227099   6.160   5.229   2.094
 8734SOL     OW27100   6.827   3.860   2.734
 8734SOL    HW127101   6.899   3.820   2.791
 8734SOL    HW227102   6.741   3.811   2.749
 8735SOL     OW27103   0.362   3.585   5.455
 8735SOL    HW127104   0.312   3.662   5.493
 8735SOL    HW227105   0.307   3.543   5.382
 8736SOL     OW27106   1.312   6.130   4.011
 8736SOL    HW127107   1.292   6.083   4.097
 8736SOL    HW227108   1.400   6.098   3.975
 8737SOL     OW27109   1.681   6.599   6.825
 8737SOL    HW127110   1.751   6.672   6.830
 8737SOL    HW227111   1.701   6.530   6.894
 8738SOL     OW27112   1.498   2.788   3.390
 8738SOL    HW127113   1.471   2.842   3.470
 8738SOL    HW227114   1.571   2.725   3.415
 8739SOL     OW27115   5.005   4.058   5.748
 8739SOL    HW127116   5.050   4.077   5.660
 8739SOL    HW227117   5.058   4.100   5.822
 8740SOL     OW27118   2.946   0.564   5.112
 8740SOL    HW127119   2.853   0.601   5.107
 8740SOL    HW227120   2.943   0.464   5.115
 8741SOL     OW27121   1.007   0.355   2.653
 8741SOL    HW127122   0.994   0.340   2.751
 8741SOL    HW227123   1.104   0.371   2.635
 8742SOL     OW27124   2.844   1.460   2.249
 8742SOL    HW127125   2.940   1.457   2.274
 8742SOL    HW227126   2.788   1.475   2.331
 8743SOL     OW27127   0.349   2.109   1.520
 8743SOL    HW127128   0.355   2.153   1.609
 8743SOL    HW227129   0.414   2.151   1.457
 8744SOL     OW27130   3.246   4.531   5.904
 8744SOL    HW127131   3.226   4.506   5.998
 8744SOL    HW227132   3.184   4.482   5.842
 8745SOL     OW27133   5.600   0.919   6.315
 8745SOL    HW127134   5.682   0.962   6.277
 8745SOL    HW227135   5.621   0.883   6.406
 8746SOL     OW27136   4.799   5.425   4.981
 8746SOL    HW127137   4.763   5.347   5.033
 8746SOL    HW227138   4.730   5.497   4.976
 8747SOL     OW27139   0.322   0.549   2.090
 8747SOL    HW127140   0.367   0.465   2.118
 8747SOL    HW227141   0.386   0.626   2.097
 8748SOL     OW27142   6.458   2.036   3.560
 8748SOL    HW127143   6.451   2.063   3.656
 8748SOL    HW227144   6.551   2.002   3.542
 8749SOL     OW27145   2.956   1.353   3.615
 8749SOL    HW127146   2.947   1.395   3.706
 8749SOL    HW227147   2.901   1.405   3.549
 8750SOL     OW27148   4.088   3.602   0.079
 8750SOL    HW127149   4.045   3.665   0.015
 8750SOL    HW227150   4.128   3.654   0.155
 8751SOL     OW27151   1.602   6.464   0.791
 8751SOL    HW127152   1.694   6.426   0.797
 8751SOL    HW227153   1.539   6.395   0.757
 8752SOL     OW27154   5.901   3.288   6.160
 8752SOL    HW127155   5.884   3.236   6.076
 8752SOL    HW227156   5.967   3.239   6.217
 8753SOL     OW27157   2.432   2.404   0.849
 8753SOL    HW127158   2.509   2.342   0.832
 8753SOL    HW227159   2.426   2.423   0.947
 8754SOL     OW27160   1.937   4.778   6.677
 8754SOL    HW127161   1.917   4.692   6.724
 8754SOL    HW227162   1.858   4.838   6.684
 8755SOL     OW27163   7.005   2.547   1.528
 8755SOL    HW127164   0.045   2.625   1.552
 8755SOL    HW227165   0.028   2.463   1.565
 8756SOL     OW27166   2.155   1.844   1.685
 8756SOL    HW127167   2.233   1.893   1.645
 8756SOL    HW227168   2.186   1.757   1.723
 8757SOL     OW27169   5.585   6.119   5.431
 8757SOL    HW127170   5.586   6.048   5.360
 8757SOL    HW227171   5.558   6.078   5.518
 8758SOL     OW27172   3.461   5.272   5.045
 8758SOL    HW127173   3.425   5.260   4.953
 8758SOL    HW227174   3.556   5.241   5.048
 8759SOL     OW27175   5.955   0.642   0.292
 8759SOL    HW127176   5.862   0.613   0.317
 8759SOL    HW227177   5.975   0.730   0.336
 8760SOL     OW27178   2.819   2.299   3.929
 8760SOL    HW127179   2.917   2.287   3.917
 8760SOL    HW227180   2.782   2.356   3.855
 8761SOL     OW27181   5.742   1.566   2.786
 8761SOL    HW127182   5.661   1.612   2.750
 8761SOL    HW227183   5.744   1.576   2.886
 8762SOL     OW27184   2.443   5.164   3.072
 8762SOL    HW127185   2.386   5.087   3.099
 8762SOL    HW227186   2.527   5.130   3.028
 8763SOL     OW27187   0.868   0.837   6.950
 8763SOL    HW127188   0.838   0.931   6.932
 8763SOL    HW227189   0.963   0.827   6.923
 8764SOL     OW27190   3.002   5.008   5.310
 8764SOL    HW127191   3.077   5.073   5.322
 8764SOL    HW227192   2.967   5.013   5.216
 8765SOL     OW27193   4.994   0.332   4.472
 8765SOL    HW127194   4.896   0.344   4.489
 8765SOL    HW227195   5.045   0.407   4.516
 8766SOL     OW27196   4.804   5.985   5.732
 8766SOL    HW127197   4.745   5.929   5.789
 8766SOL    HW227198   4.790   5.961   5.636
 8767SOL     OW27199   2.178   1.739   4.117
 8767SOL    HW127200   2.107   1.761   4.184
 8767SOL    HW227201   2.230   1.822   4.094
 8768SOL     OW27202   6.296   1.612   6.574
 8768SOL    HW127203   6.211   1.576   6.536
 8768SOL    HW227204   6.374   1.575   6.524
 8769SOL     OW27205   6.579   6.857   6.992
 8769SOL    HW127206   6.481   6.842   6.977
 8769SOL    HW227207   6.627   6.844   6.905
 8770SOL     OW27208   5.556   3.311   0.573
 8770SOL    HW127209   5.465   3.346   0.594
 8770SOL    HW227210   5.599   3.369   0.504
 8771SOL     OW27211   0.662   3.284   0.128
 8771SOL    HW127212   0.760   3.298   0.114
 8771SOL    HW227213   0.618   3.264   0.041
 8772SOL     OW27214   6.699   6.905   4.330
 8772SOL    HW127215   6.654   6.960   4.260
 8772SOL    HW227216   6.781   6.862   4.290
 8773SOL     OW27217   0.034   1.129   4.155
 8773SOL    HW127218   0.008   1.147   4.250
 8773SOL    HW227219   0.027   1.031   4.137
 8774SOL     OW27220   1.563   1.682   0.490
 8774SOL    HW127221   1.646   1.703   0.543
 8774SOL    HW227222   1.506   1.764   0.485
 8775SOL     OW27223   5.648   2.399   3.993
 8775SOL    HW127224   5.568   2.432   4.043
 8775SOL    HW227225   5.697   2.476   3.953
 8776SOL     OW27226   3.967   2.656   0.582
 8776SOL    HW127227   3.954   2.756   0.580
 8776SOL    HW227228   4.065   2.636   0.592
 8777SOL     OW27229   6.743   1.990   3.164
 8777SOL    HW127230   6.787   1.918   3.111
 8777SOL    HW227231   6.758   2.078   3.121
 8778SOL     OW27232   3.047   4.909   0.009
 8778SOL    HW127233   2.951   4.918   7.000
 8778SOL    HW227234   3.097   4.858   6.958
 8779SOL     OW27235   4.224   4.827   3.457
 8779SOL    HW127236   4.273   4.834   3.370
 8779SOL    HW227237   4.131   4.862   3.446
 8780SOL     OW27238   6.299   4.815   3.945
 8780SOL    HW127239   6.263   4.874   4.017
 8780SOL    HW227240   6.242   4.824   3.863
 8781SOL     OW27241   3.088   0.386   1.910
 8781SOL    HW127242   3.180   0.422   1.889
 8781SOL    HW227243   3.020   0.436   1.857
 8782SOL     OW27244   4.795   2.216   0.711
 8782SOL    HW127245   4.878   2.259   0.676
 8782SOL    HW227246   4.768   2.141   0.651
 8783SOL     OW27247   5.214   3.707   4.816
 8783SOL    HW127248   5.200   3.696   4.914
 8783SOL    HW227249   5.139   3.664   4.766
 8784SOL     OW27250   5.485   1.230   1.398
 8784SOL    HW127251   5.411   1.216   1.333
 8784SOL    HW227252   5.531   1.143   1.417
 8785SOL     OW27253   0.396   5.415   5.637
 8785SOL    HW127254   0.411   5.410   5.538
 8785SOL    HW227255   0.388   5.511   5.664
 8786SOL     OW27256   4.616   1.917   3.008
 8786SOL    HW127257   4.618   1.927   2.909
 8786SOL    HW227258   4.522   1.901   3.038
 8787SOL     OW27259   3.930   6.385   0.889
 8787SOL    HW127260   3.964   6.473   0.856
 8787SOL    HW227261   3.898   6.394   0.983
 8788SOL     OW27262   0.611   0.023   4.036
 8788SOL    HW127263   0.552   0.089   4.082
 8788SOL    HW227264   0.603   0.034   3.937
 8789SOL     OW27265   6.986   2.413   6.141
 8789SOL    HW127266   6.924   2.446   6.212
 8789SOL    HW227267   0.052   2.380   6.182
 8790SOL     OW27268   4.826   3.416   5.717
 8790SOL    HW127269   4.750   3.362   5.680
 8790SOL    HW227270   4.832   3.402   5.816
 8791SOL     OW27271   3.830   5.645   5.052
 8791SOL    HW127272   3.777   5.594   5.120
 8791SOL    HW227273   3.884   5.715   5.097
 8792SOL     OW27274   4.786   4.754   1.519
 8792SOL    HW127275   4.717   4.736   1.589
 8792SOL    HW227276   4.756   4.717   1.431
 8793SOL     OW27277   6.999   5.696   4.344
 8793SOL    HW127278   0.055   5.742   4.393
 8793SOL    HW227279   0.019   5.637   4.273
 8794SOL     OW27280   0.042   1.136   2.127
 8794SOL    HW127281   0.103   1.060   2.146
 8794SOL    HW227282   6.971   1.119   2.169
 8795SOL     OW27283   1.025   5.999   6.548
 8795SOL    HW127284   1.057   5.951   6.466
 8795SOL    HW227285   1.026   5.936   6.626
 8796SOL     OW27286   6.714   3.639   3.429
 8796SOL    HW127287   6.751   3.708   3.367
 8796SOL    HW227288   6.763   3.553   3.416
 8797SOL     OW27289   4.604   0.189   4.131
 8797SOL    HW127290   4.691   0.143   4.148
 8797SOL    HW227291   4.617   0.288   4.130
 8798SOL     OW27292   3.333   6.809   5.937
 8798SOL    HW127293   3.281   6.882   5.891
 8798SOL    HW227294   3.312   6.722   5.894
 8799SOL     OW27295   0.822   4.182   1.753
 8799SOL    HW127296   0.775   4.241   1.819
 8799SOL    HW227297   0.921   4.187   1.769
 8800SOL     OW27298   0.167   5.293   5.127
 8800SOL    HW127299   0.205   5.373   5.173
 8800SOL    HW227300   0.110   5.241   5.190
 8801SOL     OW27301   5.544   2.902   5.229
 8801SOL    HW127302   5.454   2.935   5.258
 8801SOL    HW227303   5.615   2.961   5.267
 8802SOL     OW27304   1.279   6.967   6.254
 8802SOL    HW127305   1.293   6.935   6.348
 8802SOL    HW227306   1.320   6.902   6.190
 8803SOL     OW27307   6.269   6.488   6.593
 8803SOL    HW127308   6.273   6.394   6.625
 8803SOL    HW227309   6.255   6.489   6.494
 8804SOL     OW27310   1.332   6.409   2.625
 8804SOL    HW127311   1.416   6.356   2.641
 8804SOL    HW227312   1.338   6.496   2.674
 8805SOL     OW27313   5.620   5.064   3.868
 8805SOL    HW127314   5.569   4.980   3.882
 8805SOL    HW227315   5.575   5.139   3.917
 8806SOL     OW27316   1.945   0.208   0.924
 8806SOL    HW127317   1.949   0.276   0.998
 8806SOL    HW227318   1.940   0.255   0.836
 8807SOL     OW27319   4.933   3.046   1.501
 8807SOL    HW127320   4.878   2.964   1.515
 8807SOL    HW227321   4.916   3.111   1.574
 8808SOL     OW27322   2.026   2.848   7.001
 8808SOL    HW127323   2.011   2.750   7.008
 8808SOL    HW227324   2.006   2.879   6.908
 8809SOL     OW27325   0.103   3.969   3.063
 8809SOL    HW127326   0.016   3.968   3.112
 8809SOL    HW227327   0.102   4.045   2.997
 8810SOL     OW27328   1.033   1.071   5.313
 8810SOL    HW127329   1.095   1.144   5.341
 8810SOL    HW227330   1.081   0.983   5.317
 8811SOL     OW27331   3.884   5.491   2.050
 8811SOL    HW127332   3.934   5.458   1.970
 8811SOL    HW227333   3.812   5.426   2.074
 8812SOL     OW27334   4.184   1.276   6.370
 8812SOL    HW127335   4.277   1.288   6.335
 8812SOL    HW227336   4.142   1.197   6.326
 8813SOL     OW27337   2.013   3.838   3.139
 8813SOL    HW127338   2.050   3.782   3.212
 8813SOL    HW227339   2.088   3.883   3.090
 8814SOL     OW27340   5.207   0.784   5.884
 8814SOL    HW127341   5.259   0.699   5.893
 8814SOL    HW227342   5.153   0.799   5.968
 8815SOL     OW27343   5.572   1.340   0.108
 8815SOL    HW127344   5.519   1.322   0.025
 8815SOL    HW227345   5.529   1.294   0.186
 8816SOL     OW27346   1.355   6.099   4.708
 8816SOL    HW127347   1.314   6.190   4.709
 8816SOL    HW227348   1.356   6.063   4.802
 8817SOL     OW27349   1.790   2.586   3.295
 8817SOL    HW127350   1.831   2.617   3.209
 8817SOL    HW227351   1.699   2.549   3.277
 8818SOL     OW27352   1.048   0.410   5.372
 8818SOL    HW127353   1.050   0.408   5.272
 8818SOL    HW227354   1.001   0.494   5.402
 8819SOL     OW27355   5.246   4.426   6.410
 8819SOL    HW127356   5.239   4.327   6.419
 8819SOL    HW227357   5.183   4.458   6.339
 8820SOL     OW27358   3.209   0.506   5.060
 8820SOL    HW127359   3.135   0.566   5.091
 8820SOL    HW227360   3.281   0.504   5.129
 8821SOL     OW27361   6.630   4.393   6.682
 8821SOL    HW127362   6.645   4.389   6.781
 8821SOL    HW227363   6.533   4.383   6.663
 8822SOL     OW27364   6.763   0.237   4.073
 8822SOL    HW127365   6.714   0.255   4.158
 8822SOL    HW227366   6.774   0.139   4.060
 8823SOL     OW27367   4.151   1.559   2.699
 8823SOL    HW127368   4.162   1.658   2.700
 8823SOL    HW227369   4.126   1.527   2.790
 8824SOL     OW27370   1.731   0.766   1.586
 8824SOL    HW127371   1.644   0.800   1.622
 8824SOL    HW227372   1.797   0.841   1.583
 8825SOL     OW27373   6.960   6.438   0.401
 8825SOL    HW127374   0.017   6.395   0.450
 8825SOL    HW227375   6.982   6.534   0.382
 8826SOL     OW27376   1.544   3.775   1.003
 8826SOL    HW127377   1.446   3.763   0.992
 8826SOL    HW227378   1.563   3.854   1.060
 8827SOL     OW27379   4.690   0.525   2.518
 8827SOL    HW127380   4.710   0.612   2.474
 8827SOL    HW227381   4.697   0.534   2.617
 8828SOL     OW27382   3.488   2.231   6.040
 8828SOL    HW127383   3.561   2.295   6.015
 8828SOL    HW227384   3.517   2.178   6.120
 8829SOL     OW27385   6.445   0.957   1.821
 8829SOL    HW127386   6.507   1.035   1.832
 8829SOL    HW227387   6.497   0.877   1.789
 8830SOL     OW27388   2.708   0.578   3.326
 8830SOL    HW127389   2.701   0.520   3.244
 8830SOL    HW227390   2.646   0.655   3.317
 8831SOL     OW27391   0.277   2.973   1.743
 8831SOL    HW127392   0.328   3.036   1.685
 8831SOL    HW227393   0.250   3.020   1.827
 8832SOL     OW27394   5.891   1.018   4.716
 8832SOL    HW127395   5.962   1.007   4.646
 8832SOL    HW227396   5.930   0.997   4.806
 8833SOL     OW27397   4.919   2.640   1.383
 8833SOL    HW127398   4.958   2.687   1.304
 8833SOL    HW227399   4.841   2.585   1.355
 8834SOL     OW27400   5.460   4.088   5.626
 8834SOL    HW127401   5.361   4.087   5.638
 8834SOL    HW227402   5.495   3.995   5.628
 8835SOL     OW27403   0.431   0.521   6.322
 8835SOL    HW127404   0.409   0.616   6.302
 8835SOL    HW227405   0.430   0.507   6.421
 8836SOL     OW27406   4.778   2.017   1.233
 8836SOL    HW127407   4.782   1.981   1.326
 8836SOL    HW227408   4.683   2.018   1.202
 8837SOL     OW27409   4.296   6.890   0.378
 8837SOL    HW127410   4.361   6.937   0.318
 8837SOL    HW227411   4.277   6.799   0.342
 8838SOL     OW27412   1.287   3.794   3.211
 8838SOL    HW127413   1.360   3.733   3.182
 8838SOL    HW227414   1.303   3.823   3.306
 8839SOL     OW27415   5.029   5.471   3.176
 8839SOL    HW127416   5.030   5.449   3.078
 8839SOL    HW227417   4.968   5.549   3.192
 8840SOL     OW27418   6.907   0.695   1.239
 8840SOL    HW127419   6.895   0.782   1.191
 8840SOL    HW227420   6.867   0.701   1.331
 8841SOL     OW27421   3.669   0.266   1.136
 8841SOL    HW127422   3.712   0.356   1.142
 8841SOL    HW227423   3.622   0.256   1.049
 8842SOL     OW27424   3.863   3.421   4.560
 8842SOL    HW127425   3.955   3.383   4.548
 8842SOL    HW227426   3.818   3.426   4.471
 8843SOL     OW27427   2.697   5.861   6.677
 8843SOL    HW127428   2.775   5.812   6.717
 8843SOL    HW227429   2.614   5.808   6.691
 8844SOL     OW27430   3.631   2.181   6.468
 8844SOL    HW127431   3.660   2.101   6.520
 8844SOL    HW227432   3.653   2.264   6.520
 8845SOL     OW27433   6.659   4.290   1.915
 8845SOL    HW127434   6.705   4.358   1.972
 8845SOL    HW227435   6.581   4.332   1.869
 8846SOL     OW27436   5.762   4.096   5.213
 8846SOL    HW127437   5.724   4.117   5.303
 8846SOL    HW227438   5.862   4.090   5.220
 8847SOL     OW27439   2.662   1.341   3.788
 8847SOL    HW127440   2.564   1.330   3.770
 8847SOL    HW227441   2.684   1.438   3.791
 8848SOL     OW27442   3.973   1.420   0.779
 8848SOL    HW127443   3.926   1.367   0.850
 8848SOL    HW227444   4.069   1.392   0.775
 8849SOL     OW27445   2.848   4.790   4.411
 8849SOL    HW127446   2.874   4.834   4.325
 8849SOL    HW227447   2.921   4.804   4.478
 8850SOL     OW27448   3.088   0.691   1.578
 8850SOL    HW127449   3.103   0.790   1.575
 8850SOL    HW227450   3.152   0.646   1.515
 8851SOL     OW27451   0.014   4.991   2.149
 8851SOL    HW127452   6.933   4.985   2.155
 8851SOL    HW227453   0.042   5.086   2.159
 8852SOL     OW27454   4.306   2.405   4.746
 8852SOL    HW127455   4.321   2.315   4.705
 8852SOL    HW227456   4.311   2.398   4.845
 8853SOL     OW27457   4.066   1.830   5.785
 8853SOL    HW127458   4.121   1.845   5.703
 8853SOL    HW227459   4.109   1.761   5.843
 8854SOL     OW27460   0.833   1.950   6.748
 8854SOL    HW127461   0.889   1.948   6.665
 8854SOL    HW227462   0.742   1.984   6.726
 8855SOL     OW27463   6.342   5.597   0.148
 8855SOL    HW127464   6.408   5.524   0.160
 8855SOL    HW227465   6.388   5.679   0.113
 8856SOL     OW27466   5.803   1.174   4.439
 8856SOL    HW127467   5.752   1.210   4.361
 8856SOL    HW227468   5.739   1.152   4.512
 8857SOL     OW27469   6.996   2.772   4.705
 8857SOL    HW127470   0.075   2.780   4.728
 8857SOL    HW227471   6.955   2.863   4.698
 8858SOL     OW27472   0.100   3.877   6.443
 8858SOL    HW127473   0.044   3.832   6.512
 8858SOL    HW227474   0.085   3.976   6.446
 8859SOL     OW27475   2.928   5.362   5.450
 8859SOL    HW127476   3.004   5.352   5.387
 8859SOL    HW227477   2.860   5.290   5.433
 8860SOL     OW27478   1.408   2.328   1.551
 8860SOL    HW127479   1.347   2.274   1.608
 8860SOL    HW227480   1.387   2.311   1.455
 8861SOL     OW27481   3.331   3.649   0.108
 8861SOL    HW127482   3.379   3.672   0.193
 8861SOL    HW227483   3.331   3.550   0.096
 8862SOL     OW27484   6.360   2.755   4.142
 8862SOL    HW127485   6.315   2.817   4.206
 8862SOL    HW227486   6.451   2.731   4.178
 8863SOL     OW27487   2.412   5.191   5.091
 8863SOL    HW127488   2.473   5.121   5.126
 8863SOL    HW227489   2.464   5.275   5.072
 8864SOL     OW27490   0.786   2.638   6.087
 8864SOL    HW127491   0.728   2.667   6.010
 8864SOL    HW227492   0.756   2.549   6.120
 8865SOL     OW27493   3.153   2.343   6.240
 8865SOL    HW127494   3.234   2.338   6.299
 8865SOL    HW227495   3.092   2.414   6.273
 8866SOL     OW27496   4.041   6.821   4.446
 8866SOL    HW127497   4.027   6.788   4.353
 8866SOL    HW227498   3.952   6.833   4.491
 8867SOL     OW27499   0.333   3.176   3.591
 8867SOL    HW127500   0.353   3.272   3.611
 8867SOL    HW227501   0.236   3.158   3.612
 8868SOL     OW27502   3.986   3.364   0.482
 8868SOL    HW127503   3.968   3.275   0.523
 8868SOL    HW227504   3.976   3.435   0.551
 8869SOL     OW27505   5.826   3.115   4.419
 8869SOL    HW127506   5.833   3.016   4.436
 8869SOL    HW227507   5.763   3.156   4.485
 8870SOL     OW27508   4.581   1.199   1.239
 8870SOL    HW127509   4.541   1.281   1.198
 8870SOL    HW227510   4.641   1.155   1.173
 8871SOL     OW27511   1.903   2.289   4.644
 8871SOL    HW127512   1.887   2.226   4.568
 8871SOL    HW227513   1.909   2.237   4.729
 8872SOL     OW27514   1.713   3.454   3.961
 8872SOL    HW127515   1.740   3.358   3.959
 8872SOL    HW227516   1.791   3.511   3.935
 8873SOL     OW27517   0.018   6.018   4.831
 8873SOL    HW127518   0.106   6.065   4.840
 8873SOL    HW227519   0.006   5.988   4.736
 8874SOL     OW27520   2.605   1.010   0.283
 8874SOL    HW127521   2.701   0.985   0.271
 8874SOL    HW227522   2.587   1.028   0.380
 8875SOL     OW27523   1.800   2.472   4.386
 8875SOL    HW127524   1.717   2.507   4.431
 8875SOL    HW227525   1.837   2.396   4.439
 8876SOL     OW27526   1.596   0.294   4.218
 8876SOL    HW127527   1.665   0.266   4.152
 8876SOL    HW227528   1.507   0.256   4.191
 8877SOL     OW27529   2.786   6.950   5.116
 8877SOL    HW127530   2.874   6.904   5.113
 8877SOL    HW227531   2.713   6.884   5.095
 8878SOL     OW27532   5.968   4.488   6.880
 8878SOL    HW127533   5.917   4.489   6.966
 8878SOL    HW227534   6.021   4.572   6.872
 8879SOL     OW27535   4.629   5.905   4.392
 8879SOL    HW127536   4.709   5.902   4.331
 8879SOL    HW227537   4.636   5.986   4.450
 8880SOL     OW27538   0.426   5.274   5.371
 8880SOL    HW127539   0.516   5.294   5.411
 8880SOL    HW227540   0.439   5.234   5.280
 8881SOL     OW27541   6.511   0.484   1.758
 8881SOL    HW127542   6.527   0.416   1.688
 8881SOL    HW227543   6.546   0.573   1.728
 8882SOL     OW27544   5.529   2.023   6.839
 8882SOL    HW127545   5.553   2.101   6.896
 8882SOL    HW227546   5.580   1.943   6.869
 8883SOL     OW27547   6.806   1.007   5.977
 8883SOL    HW127548   6.860   0.933   6.017
 8883SOL    HW227549   6.774   1.067   6.050
 8884SOL     OW27550   6.560   0.427   6.115
 8884SOL    HW127551   6.501   0.380   6.049
 8884SOL    HW227552   6.530   0.408   6.208
 8885SOL     OW27553   5.101   4.254   1.646
 8885SOL    HW127554   5.186   4.294   1.613
 8885SOL    HW227555   5.063   4.312   1.719
 8886SOL     OW27556   2.965   6.830   7.001
 8886SOL    HW127557   2.998   6.877   0.065
 8886SOL    HW227558   3.040   6.819   6.936
 8887SOL     OW27559   2.542   1.191   0.952
 8887SOL    HW127560   2.543   1.213   0.855
 8887SOL    HW227561   2.611   1.244   1.000
 8888SOL     OW27562   2.719   1.403   2.577
 8888SOL    HW127563   2.661   1.322   2.585
 8888SOL    HW227564   2.686   1.473   2.640
 8889SOL     OW27565   3.822   0.496   5.392
 8889SOL    HW127566   3.885   0.423   5.417
 8889SOL    HW227567   3.809   0.496   5.292
 8890SOL     OW27568   0.904   4.955   4.292
 8890SOL    HW127569   0.853   4.882   4.338
 8890SOL    HW227570   0.978   4.986   4.352
 8891SOL     OW27571   3.653   1.989   6.663
 8891SOL    HW127572   3.680   2.054   6.734
 8891SOL    HW227573   3.555   1.971   6.671
 8892SOL     OW27574   1.090   5.936   2.480
 8892SOL    HW127575   1.115   5.967   2.572
 8892SOL    HW227576   1.073   6.015   2.422
 8893SOL     OW27577   0.677   1.176   1.186
 8893SOL    HW127578   0.747   1.133   1.129
 8893SOL    HW227579   0.603   1.110   1.202
 8894SOL     OW27580   4.026   2.698   6.472
 8894SOL    HW127581   3.993   2.608   6.443
 8894SOL    HW227582   4.066   2.746   6.394
 8895SOL     OW27583   0.435   6.439   2.684
 8895SOL    HW127584   0.477   6.510   2.741
 8895SOL    HW227585   0.336   6.446   2.691
 8896SOL     OW27586   1.395   3.690   5.155
 8896SOL    HW127587   1.482   3.646   5.134
 8896SOL    HW227588   1.338   3.627   5.208
 8897SOL     OW27589   1.746   2.457   1.368
 8897SOL    HW127590   1.722   2.547   1.332
 8897SOL    HW227591   1.701   2.386   1.312
 8898SOL     OW27592   5.530   4.419   4.413
 8898SOL    HW127593   5.515   4.426   4.314
 8898SOL    HW227594   5.491   4.333   4.446
 8899SOL     OW27595   1.850   4.109   6.910
 8899SOL    HW127596   1.930   4.136   6.965
 8899SOL    HW227597   1.773   4.093   6.971
 8900SOL     OW27598   5.547   1.991   3.602
 8900SOL    HW127599   5.607   2.038   3.667
 8900SOL    HW227600   5.524   2.052   3.526
 8901SOL     OW27601   1.571   6.865   3.108
 8901SOL    HW127602   1.487   6.919   3.109
 8901SOL    HW227603   1.619   6.876   3.195
 8902SOL     OW27604   1.657   5.472   6.190
 8902SOL    HW127605   1.608   5.448   6.274
 8902SOL    HW227606   1.678   5.389   6.139
 8903SOL     OW27607   1.639   1.626   3.253
 8903SOL    HW127608   1.657   1.537   3.211
 8903SOL    HW227609   1.698   1.695   3.213
 8904SOL     OW27610   1.690   6.224   3.256
 8904SOL    HW127611   1.651   6.308   3.293
 8904SOL    HW227612   1.616   6.158   3.239
 8905SOL     OW27613   2.731   3.984   5.449
 8905SOL    HW127614   2.734   4.036   5.534
 8905SOL    HW227615   2.638   3.956   5.430
 8906SOL     OW27616   0.761   5.752   5.899
 8906SOL    HW127617   0.814   5.763   5.815
 8906SOL    HW227618   0.784   5.665   5.941
 8907SOL     OW27619   3.246   2.712   5.532
 8907SOL    HW127620   3.240   2.744   5.437
 8907SOL    HW227621   3.336   2.734   5.569
 8908SOL     OW27622   0.477   2.452   1.040
 8908SOL    HW127623   0.408   2.505   1.090
 8908SOL    HW227624   0.497   2.367   1.089
 8909SOL     OW27625   2.607   0.214   6.621
 8909SOL    HW127626   2.525   0.166   6.652
 8909SOL    HW227627   2.660   0.155   6.560
 8910SOL     OW27628   3.542   4.181   6.949
 8910SOL    HW127629   3.633   4.141   6.947
 8910SOL    HW227630   3.478   4.122   6.900
 8911SOL     OW27631   3.469   2.064   3.653
 8911SOL    HW127632   3.392   2.124   3.630
 8911SOL    HW227633   3.453   1.973   3.616
 8912SOL     OW27634   5.100   2.915   5.957
 8912SOL    HW127635   5.001   2.909   5.964
 8912SOL    HW227636   5.124   2.988   5.893
 8913SOL     OW27637   5.321   3.951   0.965
 8913SOL    HW127638   5.351   4.044   0.942
 8913SOL    HW227639   5.228   3.954   1.001
 8914SOL     OW27640   4.073   2.146   4.691
 8914SOL    HW127641   4.113   2.174   4.603
 8914SOL    HW227642   3.977   2.123   4.678
 8915SOL     OW27643   1.269   4.758   2.197
 8915SOL    HW127644   1.178   4.798   2.180
 8915SOL    HW227645   1.292   4.696   2.122
 8916SOL     OW27646   6.504   3.373   2.176
 8916SOL    HW127647   6.580   3.325   2.134
 8916SOL    HW227648   6.418   3.333   2.143
 8917SOL     OW27649   6.255   5.488   6.709
 8917SOL    HW127650   6.188   5.537   6.765
 8917SOL    HW227651   6.330   5.550   6.685
 8918SOL     OW27652   4.665   5.297   6.391
 8918SOL    HW127653   4.575   5.319   6.429
 8918SOL    HW227654   4.736   5.334   6.450
 8919SOL     OW27655   2.333   4.821   0.872
 8919SOL    HW127656   2.412   4.791   0.926
 8919SOL    HW227657   2.365   4.867   0.790
 8920SOL     OW27658   6.256   5.965   5.511
 8920SOL    HW127659   6.196   6.043   5.495
 8920SOL    HW227660   6.299   5.975   5.601
 8921SOL     OW27661   1.697   0.296   3.734
 8921SOL    HW127662   1.790   0.284   3.769
 8921SOL    HW227663   1.649   0.209   3.737
 8922SOL     OW27664   6.644   4.096   6.708
 8922SOL    HW127665   6.663   4.047   6.793
 8922SOL    HW227666   6.665   4.193   6.720
 8923SOL     OW27667   2.509   4.269   5.795
 8923SOL    HW127668   2.582   4.315   5.744
 8923SOL    HW227669   2.549   4.215   5.869
 8924SOL     OW27670   2.743   5.024   5.669
 8924SOL    HW127671   2.768   5.096   5.734
 8924SOL    HW227672   2.745   5.062   5.576
 8925SOL     OW27673   6.656   6.507   2.187
 8925SOL    HW127674   6.755   6.494   2.196
 8925SOL    HW227675   6.638   6.592   2.137
 8926SOL     OW27676   5.676   1.551   1.068
 8926SOL    HW127677   5.627   1.510   1.144
 8926SOL    HW227678   5.669   1.491   0.988
 8927SOL     OW27679   2.436   1.561   5.143
 8927SOL    HW127680   2.350   1.549   5.192
 8927SOL    HW227681   2.437   1.650   5.097
 8928SOL     OW27682   0.131   6.756   5.589
 8928SOL    HW127683   0.190   6.823   5.633
 8928SOL    HW227684   0.168   6.732   5.499
 8929SOL     OW27685   5.929   3.856   3.530
 8929SOL    HW127686   5.992   3.921   3.573
 8929SOL    HW227687   5.924   3.773   3.586
 8930SOL     OW27688   0.663   4.881   4.734
 8930SOL    HW127689   0.600   4.811   4.701
 8930SOL    HW227690   0.665   4.881   4.834
 8931SOL     OW27691   5.155   0.829   0.721
 8931SOL    HW127692   5.057   0.822   0.740
 8931SOL    HW227693   5.182   0.925   0.722
 8932SOL     OW27694   6.981   0.605   6.836
 8932SOL    HW127695   0.018   0.582   6.756
 8932SOL    HW227696   7.012   0.693   6.873
 8933SOL     OW27697   1.334   6.501   5.632
 8933SOL    HW127698   1.329   6.402   5.641
 8933SOL    HW227699   1.420   6.526   5.587
 8934SOL     OW27700   4.136   6.445   2.959
 8934SOL    HW127701   4.149   6.543   2.976
 8934SOL    HW227702   4.049   6.431   2.913
 8935SOL     OW27703   5.541   2.388   3.408
 8935SOL    HW127704   5.512   2.427   3.320
 8935SOL    HW227705   5.640   2.370   3.405
 8936SOL     OW27706   1.478   4.590   2.314
 8936SOL    HW127707   1.406   4.579   2.382
 8936SOL    HW227708   1.479   4.684   2.281
 8937SOL     OW27709   4.873   6.824   5.053
 8937SOL    HW127710   4.881   6.766   5.135
 8937SOL    HW227711   4.787   6.803   5.007
 8938SOL     OW27712   5.948   0.296   1.381
 8938SOL    HW127713   5.860   0.248   1.385
 8938SOL    HW227714   5.939   0.387   1.421
 8939SOL     OW27715   0.077   3.363   3.808
 8939SOL    HW127716   0.036   3.446   3.770
 8939SOL    HW227717   0.097   3.376   3.905
 8940SOL     OW27718   6.080   2.242   0.442
 8940SOL    HW127719   6.127   2.153   0.437
 8940SOL    HW227720   6.095   2.282   0.532
 8941SOL     OW27721   4.229   2.878   1.678
 8941SOL    HW127722   4.239   2.779   1.681
 8941SOL    HW227723   4.141   2.904   1.719
 8942SOL     OW27724   5.767   4.129   4.419
 8942SOL    HW127725   5.696   4.160   4.356
 8942SOL    HW227726   5.811   4.208   4.462
 8943SOL     OW27727   4.741   4.226   0.110
 8943SOL    HW127728   4.683   4.167   0.165
 8943SOL    HW227729   4.812   4.268   0.168
 8944SOL     OW27730   5.661   5.608   4.574
 8944SOL    HW127731   5.704   5.546   4.639
 8944SOL    HW227732   5.561   5.604   4.585
 8945SOL     OW27733   5.508   4.344   4.155
 8945SOL    HW127734   5.572   4.317   4.083
 8945SOL    HW227735   5.432   4.395   4.115
 8946SOL     OW27736   4.839   1.263   5.250
 8946SOL    HW127737   4.770   1.203   5.209
 8946SOL    HW227738   4.930   1.233   5.224
 8947SOL     OW27739   2.115   5.323   6.672
 8947SOL    HW127740   2.138   5.339   6.768
 8947SOL    HW227741   2.176   5.253   6.635
 8948SOL     OW27742   5.870   0.987   3.039
 8948SOL    HW127743   5.799   1.036   2.987
 8948SOL    HW227744   5.953   0.982   2.984
 8949SOL     OW27745   3.686   6.620   0.794
 8949SOL    HW127746   3.750   6.649   0.865
 8949SOL    HW227747   3.594   6.653   0.816
 8950SOL     OW27748   3.507   3.406   0.613
 8950SOL    HW127749   3.418   3.414   0.657
 8950SOL    HW227750   3.571   3.470   0.656
 8951SOL     OW27751   1.994   1.811   4.336
 8951SOL    HW127752   2.025   1.900   4.369
 8951SOL    HW227753   2.039   1.739   4.389
 8952SOL     OW27754   1.865   3.737   4.259
 8952SOL    HW127755   1.959   3.759   4.285
 8952SOL    HW227756   1.825   3.814   4.209
 8953SOL     OW27757   1.152   4.246   1.198
 8953SOL    HW127758   1.188   4.173   1.140
 8953SOL    HW227759   1.058   4.266   1.172
 8954SOL     OW27760   2.334   5.012   5.420
 8954SOL    HW127761   2.412   5.065   5.455
 8954SOL    HW227762   2.367   4.923   5.389
 8955SOL     OW27763   5.983   2.448   4.420
 8955SOL    HW127764   5.909   2.398   4.464
 8955SOL    HW227765   5.958   2.545   4.414
 8956SOL     OW27766   0.644   5.576   6.952
 8956SOL    HW127767   0.636   5.488   6.905
 8956SOL    HW227768   0.554   5.617   6.962
 8957SOL     OW27769   0.033   6.218   3.144
 8957SOL    HW127770   0.126   6.202   3.178
 8957SOL    HW227771   7.002   6.130   3.139
 8958SOL     OW27772   1.808   2.964   4.994
 8958SOL    HW127773   1.898   2.948   5.035
 8958SOL    HW227774   1.803   2.919   4.905
 8959SOL     OW27775   6.776   2.449   2.650
 8959SOL    HW127776   6.753   2.497   2.735
 8959SOL    HW227777   6.712   2.477   2.578
 8960SOL     OW27778   5.484   4.766   3.022
 8960SOL    HW127779   5.401   4.747   3.073
 8960SOL    HW227780   5.560   4.782   3.086
 8961SOL     OW27781   1.906   0.994   5.452
 8961SOL    HW127782   1.937   0.981   5.358
 8961SOL    HW227783   1.859   0.911   5.483
 8962SOL     OW27784   6.905   5.784   2.243
 8962SOL    HW127785   6.817   5.755   2.280
 8962SOL    HW227786   6.977   5.722   2.274
 8963SOL     OW27787   4.965   0.043   5.213
 8963SOL    HW127788   5.039   0.104   5.239
 8963SOL    HW227789   5.002   6.970   5.192
 8964SOL     OW27790   1.530   3.109   4.298
 8964SOL    HW127791   1.444   3.107   4.349
 8964SOL    HW227792   1.543   3.200   4.259
 8965SOL     OW27793   4.114   5.685   6.287
 8965SOL    HW127794   4.106   5.781   6.258
 8965SOL    HW227795   4.031   5.659   6.337
 8966SOL     OW27796   4.091   5.433   5.229
 8966SOL    HW127797   4.099   5.465   5.135
 8966SOL    HW227798   4.084   5.333   5.230
 8967SOL     OW27799   2.913   0.008   4.089
 8967SOL    HW127800   3.007   0.043   4.094
 8967SOL    HW227801   2.907   6.956   4.019
 8968SOL     OW27802   3.673   5.353   2.160
 8968SOL    HW127803   3.621   5.409   2.225
 8968SOL    HW227804   3.629   5.355   2.071
 8969SOL     OW27805   1.117   0.685   2.919
 8969SOL    HW127806   1.065   0.739   2.854
 8969SOL    HW227807   1.201   0.733   2.945
 8970SOL     OW27808   1.849   0.550   3.993
 8970SOL    HW127809   1.873   0.453   3.990
 8970SOL    HW227810   1.760   0.564   3.949
 8971SOL     OW27811   3.462   4.761   0.395
 8971SOL    HW127812   3.505   4.673   0.375
 8971SOL    HW227813   3.524   4.816   0.451
 8972SOL     OW27814   6.231   3.718   0.151
 8972SOL    HW127815   6.193   3.810   0.145
 8972SOL    HW227816   6.321   3.721   0.195
 8973SOL     OW27817   1.529   2.476   3.402
 8973SOL    HW127818   1.450   2.517   3.356
 8973SOL    HW227819   1.499   2.431   3.486
 8974SOL     OW27820   2.123   4.381   4.680
 8974SOL    HW127821   2.075   4.300   4.646
 8974SOL    HW227822   2.179   4.355   4.759
 8975SOL     OW27823   6.857   5.252   5.657
 8975SOL    HW127824   6.816   5.162   5.642
 8975SOL    HW227825   6.888   5.259   5.752
 8976SOL     OW27826   6.135   6.507   1.997
 8976SOL    HW127827   6.183   6.477   2.080
 8976SOL    HW227828   6.055   6.450   1.982
 8977SOL     OW27829   6.650   4.856   5.861
 8977SOL    HW127830   6.683   4.793   5.931
 8977SOL    HW227831   6.550   4.851   5.856
 8978SOL     OW27832   5.960   6.040   6.402
 8978SOL    HW127833   5.924   6.123   6.361
 8978SOL    HW227834   5.886   5.992   6.450
 8979SOL     OW27835   1.507   4.813   5.203
 8979SOL    HW127836   1.528   4.779   5.295
 8979SOL    HW227837   1.500   4.913   5.206
 8980SOL     OW27838   3.481   6.968   6.820
 8980SOL    HW127839   3.468   6.962   6.721
 8980SOL    HW227840   3.432   0.030   6.855
 8981SOL     OW27841   4.449   3.464   6.766
 8981SOL    HW127842   4.515   3.388   6.766
 8981SOL    HW227843   4.428   3.490   6.860
 8982SOL     OW27844   0.335   1.885   1.791
 8982SOL    HW127845   0.314   1.804   1.736
 8982SOL    HW227846   0.414   1.932   1.752
 8983SOL     OW27847   1.424   6.663   2.056
 8983SOL    HW127848   1.398   6.690   1.963
 8983SOL    HW227849   1.366   6.587   2.086
 8984SOL     OW27850   0.136   0.660   4.251
 8984SOL    HW127851   0.064   0.605   4.294
 8984SOL    HW227852   0.218   0.660   4.308
 8985SOL     OW27853   5.049   1.751   1.134
 8985SOL    HW127854   5.031   1.712   1.043
 8985SOL    HW227855   5.010   1.691   1.204
 8986SOL     OW27856   6.679   4.588   0.542
 8986SOL    HW127857   6.739   4.562   0.467
 8986SOL    HW227858   6.681   4.687   0.554
 8987SOL     OW27859   1.910   0.036   1.862
 8987SOL    HW127860   1.830   0.015   1.919
 8987SOL    HW227861   1.983   6.989   1.882
 8988SOL     OW27862   1.960   6.277   1.972
 8988SOL    HW127863   1.896   6.352   1.989
 8988SOL    HW227864   2.054   6.311   1.986
 8989SOL     OW27865   5.416   1.865   2.850
 8989SOL    HW127866   5.450   1.788   2.796
 8989SOL    HW227867   5.473   1.875   2.932
 8990SOL     OW27868   3.315   0.818   1.996
 8990SOL    HW127869   3.305   0.846   1.901
 8990SOL    HW227870   3.233   0.769   2.025
 8991SOL     OW27871   1.820   1.447   0.929
 8991SOL    HW127872   1.839   1.476   0.835
 8991SOL    HW227873   1.757   1.369   0.929
 8992SOL     OW27874   1.177   4.206   6.524
 8992SOL    HW127875   1.100   4.260   6.560
 8992SOL    HW227876   1.252   4.207   6.591
 8993SOL     OW27877   6.015   3.705   4.094
 8993SOL    HW127878   6.000   3.780   4.158
 8993SOL    HW227879   6.017   3.740   4.001
 8994SOL     OW27880   1.196   5.284   2.850
 8994SOL    HW127881   1.270   5.252   2.910
 8994SOL    HW227882   1.228   5.363   2.798
 8995SOL     OW27883   2.222   3.956   4.783
 8995SOL    HW127884   2.238   3.984   4.878
 8995SOL    HW227885   2.305   3.975   4.730
 8996SOL     OW27886   0.990   3.682   1.815
 8996SOL    HW127887   0.927   3.651   1.886
 8996SOL    HW227888   1.060   3.613   1.799
 8997SOL     OW27889   4.148   2.208   5.492
 8997SOL    HW127890   4.122   2.222   5.588
 8997SOL    HW227891   4.124   2.115   5.465
 8998SOL     OW27892   0.818   1.671   6.024
 8998SOL    HW127893   0.823   1.764   5.988
 8998SOL    HW227894   0.887   1.614   5.979
 8999SOL     OW27895   6.196   0.995   5.063
 8999SOL    HW127896   6.108   1.033   5.036
 8999SOL    HW227897   6.182   0.913   5.118
 9000SOL     OW27898   2.780   4.334   0.803
 9000SOL    HW127899   2.709   4.349   0.734
 9000SOL    HW227900   2.868   4.319   0.759
 9001SOL     OW27901   1.733   4.617   3.303
 9001SOL    HW127902   1.666   4.663   3.245
 9001SOL    HW227903   1.726   4.650   3.397
 9002SOL     OW27904   5.063   4.745   6.126
 9002SOL    HW127905   5.064   4.833   6.174
 9002SOL    HW227906   5.072   4.671   6.193
 9003SOL     OW27907   5.641   2.794   5.660
 9003SOL    HW127908   5.663   2.741   5.578
 9003SOL    HW227909   5.542   2.792   5.675
 9004SOL     OW27910   4.328   5.654   0.757
 9004SOL    HW127911   4.361   5.592   0.686
 9004SOL    HW227912   4.361   5.747   0.738
 9005SOL     OW27913   4.701   1.963   3.331
 9005SOL    HW127914   4.735   1.899   3.262
 9005SOL    HW227915   4.641   1.915   3.395
 9006SOL     OW27916   1.620   6.740   0.729
 9006SOL    HW127917   1.609   6.735   0.629
 9006SOL    HW227918   1.620   6.647   0.767
 9007SOL     OW27919   3.047   6.682   4.681
 9007SOL    HW127920   2.987   6.751   4.641
 9007SOL    HW227921   3.012   6.656   4.772
 9008SOL     OW27922   6.636   4.754   2.336
 9008SOL    HW127923   6.558   4.799   2.379
 9008SOL    HW227924   6.625   4.654   2.343
 9009SOL     OW27925   3.729   6.263   1.345
 9009SOL    HW127926   3.778   6.235   1.427
 9009SOL    HW227927   3.666   6.338   1.367
 9010SOL     OW27928   1.386   5.794   5.235
 9010SOL    HW127929   1.342   5.746   5.159
 9010SOL    HW227930   1.484   5.802   5.217
 9011SOL     OW27931   4.281   2.026   1.385
 9011SOL    HW127932   4.191   2.039   1.343
 9011SOL    HW227933   4.271   2.015   1.483
 9012SOL     OW27934   6.654   5.711   1.379
 9012SOL    HW127935   6.736   5.667   1.343
 9012SOL    HW227936   6.656   5.708   1.479
 9013SOL     OW27937   4.822   6.402   3.702
 9013SOL    HW127938   4.808   6.304   3.716
 9013SOL    HW227939   4.892   6.435   3.765
 9014SOL     OW27940   3.291   1.077   0.835
 9014SOL    HW127941   3.291   1.058   0.736
 9014SOL    HW227942   3.229   1.014   0.881
 9015SOL     OW27943   6.650   1.037   5.743
 9015SOL    HW127944   6.714   1.045   5.820
 9015SOL    HW227945   6.700   1.009   5.661
 9016SOL     OW27946   6.962   6.410   6.005
 9016SOL    HW127947   0.016   6.382   5.942
 9016SOL    HW227948   6.942   6.507   5.991
 9017SOL     OW27949   0.248   3.773   3.694
 9017SOL    HW127950   0.322   3.827   3.733
 9017SOL    HW227951   0.183   3.748   3.765
 9018SOL     OW27952   3.430   2.498   5.553
 9018SOL    HW127953   3.341   2.542   5.545
 9018SOL    HW227954   3.431   2.415   5.496
 9019SOL     OW27955   2.189   7.012   0.547
 9019SOL    HW127956   2.157   0.011   0.640
 9019SOL    HW227957   2.230   6.921   0.543
 9020SOL     OW27958   0.484   5.045   3.155
 9020SOL    HW127959   0.569   4.993   3.152
 9020SOL    HW227960   0.486   5.107   3.234
 9021SOL     OW27961   6.604   6.096   5.279
 9021SOL    HW127962   6.614   6.181   5.330
 9021SOL    HW227963   6.560   6.115   5.191
 9022SOL     OW27964   3.200   1.049   6.378
 9022SOL    HW127965   3.268   1.039   6.305
 9022SOL    HW227966   3.226   1.125   6.438
 9023SOL     OW27967   3.580   2.928   3.188
 9023SOL    HW127968   3.599   2.872   3.108
 9023SOL    HW227969   3.481   2.937   3.200
 9024SOL     OW27970   1.698   0.006   6.858
 9024SOL    HW127971   1.635   0.068   6.812
 9024SOL    HW227972   1.650   6.939   6.881
 9025SOL     OW27973   6.356   4.199   1.140
 9025SOL    HW127974   6.269   4.162   1.109
 9025SOL    HW227975   6.397   4.136   1.206
 9026SOL     OW27976   3.463   2.858   5.659
 9026SOL    HW127977   3.561   2.865   5.675
 9026SOL    HW227978   3.429   2.942   5.617
 9027SOL     OW27979   2.384   2.730   2.856
 9027SOL    HW127980   2.345   2.756   2.944
 9027SOL    HW227981   2.349   2.790   2.785
 9028SOL     OW27982   2.600   4.625   4.826
 9028SOL    HW127983   2.643   4.695   4.769
 9028SOL    HW227984   2.659   4.604   4.904
 9029SOL     OW27985   5.232   5.559   3.488
 9029SOL    HW127986   5.246   5.631   3.419
 9029SOL    HW227987   5.261   5.471   3.450
 9030SOL     OW27988   2.978   1.702   1.847
 9030SOL    HW127989   3.060   1.656   1.814
 9030SOL    HW227990   2.921   1.636   1.897
 9031SOL     OW27991   2.213   0.435   6.905
 9031SOL    HW127992   2.133   0.436   6.965
 9031SOL    HW227993   2.296   0.444   6.959
 9032SOL     OW27994   1.490   1.411   1.964
 9032SOL    HW127995   1.478   1.499   2.010
 9032SOL    HW227996   1.405   1.385   1.918
 9033SOL     OW27997   0.489   3.139   2.494
 9033SOL    HW127998   0.477   3.094   2.406
 9033SOL    HW227999   0.573   3.107   2.537
 9034SOL     OW28000   3.184   0.202   5.926
 9034SOL    HW128001   3.090   0.205   5.961
 9034SOL    HW228002   3.191   0.258   5.843
 9035SOL     OW28003   6.950   1.100   4.456
 9035SOL    HW128004   6.965   1.194   4.427
 9035SOL    HW228005   6.854   1.076   4.443
 9036SOL     OW28006   1.380   2.457   4.776
 9036SOL    HW128007   1.461   2.410   4.811
 9036SOL    HW228008   1.299   2.402   4.793
 9037SOL     OW28009   1.781   3.871   5.674
 9037SOL    HW128010   1.867   3.821   5.677
 9037SOL    HW228011   1.796   3.966   5.701
 9038SOL     OW28012   5.491   6.716   5.277
 9038SOL    HW128013   5.426   6.730   5.201
 9038SOL    HW228014   5.580   6.689   5.240
 9039SOL     OW28015   2.376   5.464   5.766
 9039SOL    HW128016   2.373   5.422   5.675
 9039SOL    HW228017   2.469   5.458   5.802
 9040SOL     OW28018   1.829   0.901   1.915
 9040SOL    HW128019   1.802   0.994   1.892
 9040SOL    HW228020   1.787   0.837   1.850
 9041SOL     OW28021   1.551   3.339   0.188
 9041SOL    HW128022   1.567   3.409   0.118
 9041SOL    HW228023   1.603   3.362   0.270
 9042SOL     OW28024   2.843   5.409   3.766
 9042SOL    HW128025   2.785   5.466   3.823
 9042SOL    HW228026   2.789   5.370   3.691
 9043SOL     OW28027   6.543   2.057   6.781
 9043SOL    HW128028   6.551   2.136   6.721
 9043SOL    HW228029   6.468   1.999   6.750
 9044SOL     OW28030   6.418   5.231   0.114
 9044SOL    HW128031   6.481   5.310   0.113
 9044SOL    HW228032   6.436   5.176   0.196
 9045SOL     OW28033   3.684   6.253   3.872
 9045SOL    HW128034   3.677   6.156   3.895
 9045SOL    HW228035   3.596   6.297   3.889
 9046SOL     OW28036   3.153   3.991   5.583
 9046SOL    HW128037   3.164   4.067   5.518
 9046SOL    HW228038   3.074   3.936   5.557
 9047SOL     OW28039   1.081   4.581   4.596
 9047SOL    HW128040   1.007   4.608   4.657
 9047SOL    HW228041   1.166   4.628   4.623
 9048SOL     OW28042   1.297   3.326   4.516
 9048SOL    HW128043   1.240   3.409   4.516
 9048SOL    HW228044   1.386   3.348   4.476
 9049SOL     OW28045   5.114   5.775   6.034
 9049SOL    HW128046   5.106   5.818   5.944
 9049SOL    HW228047   5.140   5.845   6.101
 9050SOL     OW28048   0.052   5.639   5.828
 9050SOL    HW128049   0.135   5.695   5.833
 9050SOL    HW228050   7.010   5.675   5.757
 9051SOL     OW28051   5.236   6.557   5.761
 9051SOL    HW128052   5.300   6.511   5.699
 9051SOL    HW228053   5.278   6.567   5.851
 9052SOL     OW28054   2.571   5.509   4.521
 9052SOL    HW128055   2.581   5.409   4.525
 9052SOL    HW228056   2.509   5.533   4.447
 9053SOL     OW28057   2.812   1.463   3.387
 9053SOL    HW128058   2.852   1.494   3.301
 9053SOL    HW228059   2.788   1.543   3.443
 9054SOL     OW28060   3.318   0.238   1.579
 9054SOL    HW128061   3.326   0.161   1.642
 9054SOL    HW228062   3.384   0.226   1.504
 9055SOL     OW28063   1.267   1.465   4.095
 9055SOL    HW128064   1.246   1.394   4.028
 9055SOL    HW228065   1.185   1.488   4.147
 9056SOL     OW28066   5.475   1.137   3.092
 9056SOL    HW128067   5.572   1.134   3.116
 9056SOL    HW228068   5.421   1.104   3.169
 9057SOL     OW28069   4.551   6.358   6.557
 9057SOL    HW128070   4.572   6.284   6.622
 9057SOL    HW228071   4.453   6.364   6.544
 9058SOL     OW28072   1.611   2.852   5.175
 9058SOL    HW128073   1.675   2.865   5.099
 9058SOL    HW228074   1.639   2.908   5.252
 9059SOL     OW28075   0.157   1.070   3.370
 9059SOL    HW128076   0.202   1.080   3.459
 9059SOL    HW228077   0.102   0.987   3.370
 9060SOL     OW28078   0.712   4.976   1.605
 9060SOL    HW128079   0.717   5.052   1.541
 9060SOL    HW228080   0.796   4.922   1.600
 9061SOL     OW28081   5.937   4.355   2.417
 9061SOL    HW128082   5.871   4.289   2.453
 9061SOL    HW228083   6.003   4.378   2.489
 9062SOL     OW28084   0.752   5.592   3.015
 9062SOL    HW128085   0.768   5.688   2.992
 9062SOL    HW228086   0.837   5.540   3.002
 9063SOL     OW28087   4.311   1.419   1.619
 9063SOL    HW128088   4.226   1.462   1.649
 9063SOL    HW228089   4.339   1.349   1.686
 9064SOL     OW28090   1.145   5.401   3.431
 9064SOL    HW128091   1.228   5.362   3.471
 9064SOL    HW228092   1.129   5.492   3.469
 9065SOL     OW28093   2.711   4.259   5.431
 9065SOL    HW128094   2.705   4.171   5.383
 9065SOL    HW228095   2.713   4.243   5.530
 9066SOL     OW28096   4.961   5.100   4.957
 9066SOL    HW128097   4.998   5.046   4.882
 9066SOL    HW228098   4.864   5.115   4.943
 9067SOL     OW28099   1.502   6.341   4.349
 9067SOL    HW128100   1.576   6.294   4.301
 9067SOL    HW228101   1.416   6.291   4.336
 9068SOL     OW28102   5.053   6.788   5.732
 9068SOL    HW128103   5.121   6.726   5.771
 9068SOL    HW228104   4.976   6.735   5.696
 9069SOL     OW28105   5.278   1.894   1.238
 9069SOL    HW128106   5.199   1.846   1.199
 9069SOL    HW228107   5.362   1.854   1.201
 9070SOL     OW28108   1.146   2.161   5.784
 9070SOL    HW128109   1.121   2.079   5.733
 9070SOL    HW228110   1.073   2.229   5.775
 9071SOL     OW28111   5.079   2.215   6.137
 9071SOL    HW128112   5.072   2.138   6.200
 9071SOL    HW228113   5.125   2.184   6.053
 9072SOL     OW28114   4.969   1.027   2.369
 9072SOL    HW128115   4.953   0.971   2.450
 9072SOL    HW228116   4.962   0.969   2.287
 9073SOL     OW28117   4.681   1.542   5.968
 9073SOL    HW128118   4.624   1.541   5.886
 9073SOL    HW228119   4.776   1.523   5.943
 9074SOL     OW28120   1.510   0.328   1.693
 9074SOL    HW128121   1.539   0.379   1.774
 9074SOL    HW228122   1.509   0.230   1.715
 9075SOL     OW28123   5.811   6.373   0.724
 9075SOL    HW128124   5.762   6.454   0.756
 9075SOL    HW228125   5.903   6.398   0.695
 9076SOL     OW28126   6.713   0.616   2.351
 9076SOL    HW128127   6.639   0.662   2.302
 9076SOL    HW228128   6.693   0.519   2.360
 9077SOL     OW28129   6.364   1.664   6.270
 9077SOL    HW128130   6.381   1.734   6.340
 9077SOL    HW228131   6.345   1.708   6.182
 9078SOL     OW28132   5.175   5.836   6.850
 9078SOL    HW128133   5.184   5.738   6.838
 9078SOL    HW228134   5.085   5.857   6.887
 9079SOL     OW28135   1.783   0.955   6.575
 9079SOL    HW128136   1.776   1.028   6.506
 9079SOL    HW228137   1.759   0.992   6.665
 9080SOL     OW28138   5.778   3.574   1.786
 9080SOL    HW128139   5.710   3.647   1.788
 9080SOL    HW228140   5.764   3.512   1.863
 9081SOL     OW28141   4.534   1.843   0.013
 9081SOL    HW128142   4.572   1.933   7.009
 9081SOL    HW228143   4.472   1.815   6.958
 9082SOL     OW28144   3.241   5.881   5.891
 9082SOL    HW128145   3.291   5.919   5.969
 9082SOL    HW228146   3.262   5.784   5.882
 9083SOL     OW28147   4.106   5.365   6.465
 9083SOL    HW128148   4.129   5.373   6.368
 9083SOL    HW228149   4.062   5.276   6.481
 9084SOL     OW28150   0.006   2.141   5.978
 9084SOL    HW128151   0.087   2.123   6.035
 9084SOL    HW228152   6.977   2.222   6.013
 9085SOL     OW28153   1.887   5.029   0.145
 9085SOL    HW128154   1.891   4.937   0.105
 9085SOL    HW228155   1.954   5.088   0.100
 9086SOL     OW28156   6.965   4.599   1.053
 9086SOL    HW128157   6.916   4.556   1.129
 9086SOL    HW228158   0.000   4.676   1.087
 9087SOL     OW28159   6.195   1.078   1.928
 9087SOL    HW128160   6.264   1.034   1.871
 9087SOL    HW228161   6.114   1.020   1.932
 9088SOL     OW28162   6.550   6.476   0.804
 9088SOL    HW128163   6.518   6.382   0.819
 9088SOL    HW228164   6.650   6.477   0.803
 9089SOL     OW28165   5.201   5.662   3.782
 9089SOL    HW128166   5.211   5.667   3.682
 9089SOL    HW228167   5.255   5.735   3.824
 9090SOL     OW28168   5.676   6.355   5.114
 9090SOL    HW128169   5.756   6.375   5.172
 9090SOL    HW228170   5.707   6.324   5.024
 9091SOL     OW28171   2.491   1.732   1.353
 9091SOL    HW128172   2.453   1.741   1.445
 9091SOL    HW228173   2.420   1.752   1.285
 9092SOL     OW28174   1.592   0.515   6.089
 9092SOL    HW128175   1.645   0.535   6.007
 9092SOL    HW228176   1.541   0.430   6.075
 9093SOL     OW28177   2.406   4.870   0.586
 9093SOL    HW128178   2.493   4.838   0.623
 9093SOL    HW228179   2.360   4.795   0.537
 9094SOL     OW28180   6.896   5.058   1.597
 9094SOL    HW128181   6.837   5.107   1.533
 9094SOL    HW228182   6.926   5.120   1.670
 9095SOL     OW28183   3.461   2.946   6.903
 9095SOL    HW128184   3.503   2.939   6.812
 9095SOL    HW228185   3.527   2.920   6.973
 9096SOL     OW28186   5.495   2.305   3.045
 9096SOL    HW128187   5.554   2.247   3.101
 9096SOL    HW228188   5.551   2.358   2.981
 9097SOL     OW28189   0.744   4.705   6.540
 9097SOL    HW128190   0.680   4.770   6.580
 9097SOL    HW228191   0.770   4.637   6.609
 9098SOL     OW28192   3.750   3.854   2.619
 9098SOL    HW128193   3.711   3.902   2.540
 9098SOL    HW228194   3.697   3.771   2.637
 9099SOL     OW28195   2.533   3.803   0.973
 9099SOL    HW128196   2.436   3.824   0.965
 9099SOL    HW228197   2.567   3.767   0.887
 9100SOL     OW28198   0.538   2.917   0.776
 9100SOL    HW128199   0.482   2.993   0.806
 9100SOL    HW228200   0.557   2.857   0.853
 9101SOL     OW28201   1.796   2.066   1.819
 9101SOL    HW128202   1.726   2.131   1.790
 9101SOL    HW228203   1.769   1.974   1.792
 9102SOL     OW28204   3.356   5.411   2.492
 9102SOL    HW128205   3.342   5.461   2.577
 9102SOL    HW228206   3.424   5.458   2.436
 9103SOL     OW28207   0.673   4.056   0.458
 9103SOL    HW128208   0.675   4.143   0.508
 9103SOL    HW228209   0.653   3.981   0.521
 9104SOL     OW28210   4.367   6.820   1.125
 9104SOL    HW128211   4.454   6.868   1.112
 9104SOL    HW228212   4.384   6.733   1.171
 9105SOL     OW28213   1.332   2.165   6.328
 9105SOL    HW128214   1.405   2.230   6.306
 9105SOL    HW228215   1.348   2.079   6.280
 9106SOL     OW28216   5.784   5.012   0.710
 9106SOL    HW128217   5.689   5.040   0.694
 9106SOL    HW228218   5.840   5.039   0.632
 9107SOL     OW28219   4.490   0.184   1.200
 9107SOL    HW128220   4.418   0.216   1.138
 9107SOL    HW228221   4.563   0.252   1.204
 9108SOL     OW28222   4.547   5.102   5.361
 9108SOL    HW128223   4.449   5.114   5.373
 9108SOL    HW228224   4.589   5.081   5.449
 9109SOL     OW28225   3.477   1.597   3.753
 9109SOL    HW128226   3.514   1.561   3.839
 9109SOL    HW228227   3.390   1.644   3.771
 9110SOL     OW28228   1.882   4.143   3.384
 9110SOL    HW128229   1.868   4.181   3.475
 9110SOL    HW228230   1.801   4.162   3.327
 9111SOL     OW28231   3.430   4.078   1.712
 9111SOL    HW128232   3.479   4.053   1.796
 9111SOL    HW228233   3.482   4.047   1.633
 9112SOL     OW28234   0.080   4.467   2.203
 9112SOL    HW128235   0.109   4.562   2.201
 9112SOL    HW228236   0.057   4.441   2.297
 9113SOL     OW28237   4.712   6.817   0.344
 9113SOL    HW128238   4.807   6.839   0.319
 9113SOL    HW228239   4.696   6.846   0.439
 9114SOL     OW28240   2.549   4.878   1.640
 9114SOL    HW128241   2.556   4.969   1.680
 9114SOL    HW228242   2.623   4.865   1.574
 9115SOL     OW28243   1.435   4.745   4.931
 9115SOL    HW128244   1.466   4.798   5.010
 9115SOL    HW228245   1.455   4.648   4.947
 9116SOL     OW28246   0.251   1.353   6.342
 9116SOL    HW128247   0.226   1.298   6.263
 9116SOL    HW228248   0.180   1.421   6.359
 9117SOL     OW28249   6.952   2.879   6.791
 9117SOL    HW128250   6.995   2.961   6.754
 9117SOL    HW228251   6.967   2.802   6.729
 9118SOL     OW28252   6.846   6.641   1.487
 9118SOL    HW128253   6.799   6.724   1.518
 9118SOL    HW228254   6.899   6.661   1.405
 9119SOL     OW28255   6.444   0.145   1.763
 9119SOL    HW128256   6.469   0.223   1.705
 9119SOL    HW228257   6.347   0.125   1.751
 9120SOL     OW28258   5.748   1.422   6.299
 9120SOL    HW128259   5.716   1.488   6.367
 9120SOL    HW228260   5.714   1.449   6.209
 9121SOL     OW28261   0.555   1.732   5.980
 9121SOL    HW128262   0.503   1.646   5.973
 9121SOL    HW228263   0.653   1.711   5.983
 9122SOL     OW28264   1.802   2.784   2.772
 9122SOL    HW128265   1.863   2.863   2.774
 9122SOL    HW228266   1.851   2.704   2.739
 9123SOL     OW28267   2.475   5.701   6.662
 9123SOL    HW128268   2.380   5.730   6.657
 9123SOL    HW228269   2.480   5.604   6.685
 9124SOL     OW28270   6.939   5.733   5.368
 9124SOL    HW128271   6.902   5.825   5.351
 9124SOL    HW228272   0.020   5.734   5.352
 9125SOL     OW28273   4.796   4.031   3.952
 9125SOL    HW128274   4.795   4.083   3.866
 9125SOL    HW228275   4.834   3.940   3.936
 9126SOL     OW28276   5.930   0.424   2.059
 9126SOL    HW128277   5.957   0.329   2.073
 9126SOL    HW228278   5.839   0.438   2.098
 9127SOL     OW28279   5.233   0.350   6.432
 9127SOL    HW128280   5.257   0.428   6.374
 9127SOL    HW228281   5.272   0.266   6.392
 9128SOL     OW28282   3.418   2.047   5.262
 9128SOL    HW128283   3.356   1.972   5.237
 9128SOL    HW228284   3.512   2.019   5.246
 9129SOL     OW28285   1.697   1.811   6.346
 9129SOL    HW128286   1.602   1.791   6.371
 9129SOL    HW228287   1.751   1.824   6.429
 9130SOL     OW28288   5.932   5.055   0.476
 9130SOL    HW128289   6.021   5.009   0.469
 9130SOL    HW228290   5.903   5.085   0.386
 9131SOL     OW28291   0.467   4.399   4.356
 9131SOL    HW128292   0.461   4.362   4.449
 9131SOL    HW228293   0.444   4.327   4.290
 9132SOL     OW28294   6.757   3.348   4.364
 9132SOL    HW128295   6.777   3.410   4.288
 9132SOL    HW228296   6.666   3.369   4.401
 9133SOL     OW28297   1.984   4.201   1.582
 9133SOL    HW128298   1.975   4.196   1.681
 9133SOL    HW228299   1.982   4.297   1.553
 9134SOL     OW28300   3.243   6.596   0.253
 9134SOL    HW128301   3.150   6.610   0.287
 9134SOL    HW228302   3.300   6.558   0.326
 9135SOL     OW28303   6.518   6.632   3.219
 9135SOL    HW128304   6.488   6.569   3.290
 9135SOL    HW228305   6.567   6.582   3.148
 9136SOL     OW28306   4.815   5.561   5.713
 9136SOL    HW128307   4.827   5.479   5.657
 9136SOL    HW228308   4.904   5.593   5.745
 9137SOL     OW28309   4.447   1.087   1.626
 9137SOL    HW128310   4.387   1.016   1.663
 9137SOL    HW228311   4.470   1.152   1.698
 9138SOL     OW28312   5.609   4.603   6.489
 9138SOL    HW128313   5.584   4.640   6.579
 9138SOL    HW228314   5.678   4.662   6.447
 9139SOL     OW28315   3.365   0.879   5.919
 9139SOL    HW128316   3.420   0.800   5.944
 9139SOL    HW228317   3.275   0.849   5.888
 9140SOL     OW28318   6.591   2.479   2.874
 9140SOL    HW128319   6.522   2.448   2.809
 9140SOL    HW228320   6.546   2.519   2.954
 9141SOL     OW28321   5.256   0.241   5.867
 9141SOL    HW128322   5.314   0.249   5.948
 9141SOL    HW228323   5.162   0.221   5.895
 9142SOL     OW28324   0.618   2.758   5.917
 9142SOL    HW128325   0.577   2.750   5.826
 9142SOL    HW228326   0.546   2.762   5.986
 9143SOL     OW28327   4.267   3.461   0.469
 9143SOL    HW128328   4.310   3.377   0.437
 9143SOL    HW228329   4.170   3.461   0.444
 9144SOL     OW28330   2.215   5.294   5.547
 9144SOL    HW128331   2.202   5.369   5.482
 9144SOL    HW228332   2.171   5.211   5.512
 9145SOL     OW28333   0.713   4.365   0.140
 9145SOL    HW128334   0.632   4.306   0.139
 9145SOL    HW228335   0.741   4.382   0.234
 9146SOL     OW28336   5.496   2.615   1.017
 9146SOL    HW128337   5.535   2.536   1.064
 9146SOL    HW228338   5.397   2.602   1.006
 9147SOL     OW28339   4.448   5.512   3.790
 9147SOL    HW128340   4.519   5.534   3.857
 9147SOL    HW228341   4.460   5.569   3.708
 9148SOL     OW28342   4.974   6.110   3.364
 9148SOL    HW128343   4.987   6.102   3.265
 9148SOL    HW228344   4.877   6.113   3.385
 9149SOL     OW28345   4.893   2.993   4.479
 9149SOL    HW128346   4.961   2.948   4.537
 9149SOL    HW228347   4.850   3.068   4.530
 9150SOL     OW28348   5.023   7.006   3.296
 9150SOL    HW128349   5.089   6.931   3.289
 9150SOL    HW228350   5.003   0.023   3.204
 9151SOL     OW28351   1.419   4.082   2.167
 9151SOL    HW128352   1.428   4.148   2.241
 9151SOL    HW228353   1.331   4.094   2.121
 9152SOL     OW28354   2.304   6.191   3.350
 9152SOL    HW128355   2.382   6.129   3.355
 9152SOL    HW228356   2.310   6.246   3.267
 9153SOL     OW28357   1.595   2.279   6.695
 9153SOL    HW128358   1.641   2.312   6.612
 9153SOL    HW228359   1.553   2.190   6.675
 9154SOL     OW28360   2.723   5.612   6.969
 9154SOL    HW128361   2.778   5.640   6.890
 9154SOL    HW228362   2.727   5.683   0.021
 9155SOL     OW28363   2.174   3.732   6.282
 9155SOL    HW128364   2.167   3.829   6.303
 9155SOL    HW228365   2.192   3.681   6.366
 9156SOL     OW28366   3.426   2.228   1.229
 9156SOL    HW128367   3.518   2.189   1.220
 9156SOL    HW228368   3.431   2.315   1.278
 9157SOL     OW28369   5.702   4.350   5.129
 9157SOL    HW128370   5.713   4.257   5.166
 9157SOL    HW228371   5.626   4.395   5.174
 9158SOL     OW28372   0.188   3.684   4.750
 9158SOL    HW128373   0.230   3.732   4.674
 9158SOL    HW228374   0.257   3.662   4.819
 9159SOL     OW28375   0.479   5.532   3.073
 9159SOL    HW128376   0.423   5.594   3.018
 9159SOL    HW228377   0.571   5.570   3.084
 9160SOL     OW28378   1.003   6.671   6.055
 9160SOL    HW128379   1.004   6.751   6.115
 9160SOL    HW228380   0.975   6.698   5.963
 9161SOL     OW28381   4.804   4.002   4.652
 9161SOL    HW128382   4.828   3.932   4.718
 9161SOL    HW228383   4.880   4.067   4.642
 9162SOL     OW28384   5.033   2.965   3.135
 9162SOL    HW128385   4.976   3.047   3.141
 9162SOL    HW228386   4.979   2.888   3.100
 9163SOL     OW28387   2.690   2.423   3.702
 9163SOL    HW128388   2.677   2.510   3.750
 9163SOL    HW228389   2.652   2.430   3.610
 9164SOL     OW28390   2.583   0.647   6.544
 9164SOL    HW128391   2.541   0.558   6.559
 9164SOL    HW228392   2.520   0.719   6.572
 9165SOL     OW28393   5.984   0.649   6.565
 9165SOL    HW128394   6.063   0.669   6.507
 9165SOL    HW228395   5.949   0.735   6.603
 9166SOL     OW28396   4.337   5.839   1.100
 9166SOL    HW128397   4.304   5.898   1.174
 9166SOL    HW228398   4.406   5.887   1.046
 9167SOL     OW28399   1.482   3.636   6.010
 9167SOL    HW128400   1.501   3.545   6.044
 9167SOL    HW228401   1.516   3.645   5.916
 9168SOL     OW28402   2.034   0.316   5.795
 9168SOL    HW128403   1.971   0.271   5.858
 9168SOL    HW228404   2.029   0.272   5.705
 9169SOL     OW28405   0.395   1.074   5.107
 9169SOL    HW128406   0.361   1.167   5.118
 9169SOL    HW228407   0.450   1.067   5.024
 9170SOL     OW28408   6.906   4.916   0.040
 9170SOL    HW128409   6.842   4.896   6.985
 9170SOL    HW228410   6.993   4.948   0.001
 9171SOL     OW28411   2.797   5.368   6.783
 9171SOL    HW128412   2.790   5.423   6.866
 9171SOL    HW228413   2.891   5.370   6.750
 9172SOL     OW28414   3.698   1.321   4.493
 9172SOL    HW128415   3.708   1.418   4.514
 9172SOL    HW228416   3.627   1.309   4.423
 9173SOL     OW28417   5.763   4.617   5.082
 9173SOL    HW128418   5.744   4.518   5.086
 9173SOL    HW228419   5.677   4.668   5.089
 9174SOL     OW28420   6.189   4.273   0.210
 9174SOL    HW128421   6.259   4.231   0.268
 9174SOL    HW228422   6.220   4.364   0.182
 9175SOL     OW28423   2.734   5.954   5.629
 9175SOL    HW128424   2.796   5.885   5.591
 9175SOL    HW228425   2.688   6.001   5.554
 9176SOL     OW28426   1.849   1.229   5.549
 9176SOL    HW128427   1.927   1.282   5.517
 9176SOL    HW228428   1.848   1.139   5.505
 9177SOL     OW28429   1.272   3.866   4.503
 9177SOL    HW128430   1.183   3.879   4.459
 9177SOL    HW228431   1.322   3.794   4.455
 9178SOL     OW28432   2.098   5.216   1.050
 9178SOL    HW128433   2.100   5.307   1.093
 9178SOL    HW228434   2.067   5.148   1.117
 9179SOL     OW28435   2.568   5.037   4.215
 9179SOL    HW128436   2.577   4.942   4.244
 9179SOL    HW228437   2.626   5.053   4.135
 9180SOL     OW28438   6.199   2.333   3.739
 9180SOL    HW128439   6.228   2.292   3.652
 9180SOL    HW228440   6.122   2.282   3.776
 9181SOL     OW28441   4.239   2.321   2.540
 9181SOL    HW128442   4.305   2.393   2.520
 9181SOL    HW228443   4.243   2.298   2.638
 9182SOL     OW28444   2.141   6.618   2.284
 9182SOL    HW128445   2.119   6.598   2.189
 9182SOL    HW228446   2.060   6.653   2.331
 9183SOL     OW28447   5.243   6.340   0.684
 9183SOL    HW128448   5.235   6.277   0.607
 9183SOL    HW228449   5.191   6.423   0.664
 9184SOL     OW28450   5.501   0.230   0.428
 9184SOL    HW128451   5.447   0.301   0.474
 9184SOL    HW228452   5.446   0.147   0.420
 9185SOL     OW28453   4.185   0.536   5.364
 9185SOL    HW128454   4.151   0.449   5.328
 9185SOL    HW228455   4.116   0.577   5.424
 9186SOL     OW28456   6.509   0.376   4.708
 9186SOL    HW128457   6.582   0.428   4.751
 9186SOL    HW228458   6.457   0.326   4.778
 9187SOL     OW28459   2.195   6.749   1.615
 9187SOL    HW128460   2.141   6.687   1.672
 9187SOL    HW228461   2.288   6.757   1.652
 9188SOL     OW28462   2.428   0.002   1.259
 9188SOL    HW128463   2.437   6.993   1.355
 9188SOL    HW228464   2.334   7.006   1.229
 9189SOL     OW28465   5.296   5.474   2.702
 9189SOL    HW128466   5.284   5.378   2.726
 9189SOL    HW228467   5.206   5.516   2.689
 9190SOL     OW28468   1.939   5.594   0.323
 9190SOL    HW128469   1.889   5.670   0.282
 9190SOL    HW228470   2.037   5.610   0.314
 9191SOL     OW28471   6.433   0.507   5.443
 9191SOL    HW128472   6.407   0.574   5.374
 9191SOL    HW228473   6.531   0.486   5.435
 9192SOL     OW28474   0.487   4.312   4.638
 9192SOL    HW128475   0.561   4.246   4.645
 9192SOL    HW228476   0.440   4.319   4.727
 9193SOL     OW28477   4.102   3.790   0.276
 9193SOL    HW128478   4.124   3.846   0.356
 9193SOL    HW228479   4.004   3.797   0.256
 9194SOL     OW28480   3.487   0.651   3.948
 9194SOL    HW128481   3.402   0.658   3.895
 9194SOL    HW228482   3.501   0.555   3.976
 9195SOL     OW28483   1.793   2.038   4.534
 9195SOL    HW128484   1.747   2.043   4.623
 9195SOL    HW228485   1.752   1.966   4.479
 9196SOL     OW28486   4.655   1.419   5.040
 9196SOL    HW128487   4.726   1.394   5.106
 9196SOL    HW228488   4.661   1.517   5.021
 9197SOL     OW28489   2.275   3.900   1.521
 9197SOL    HW128490   2.216   3.838   1.470
 9197SOL    HW228491   2.347   3.935   1.460
 9198SOL     OW28492   6.681   5.359   5.327
 9198SOL    HW128493   6.583   5.375   5.317
 9198SOL    HW228494   6.703   5.266   5.296
 9199SOL     OW28495   0.433   3.782   6.220
 9199SOL    HW128496   0.519   3.752   6.180
 9199SOL    HW228497   0.377   3.826   6.150
 9200SOL     OW28498   2.390   0.404   1.084
 9200SOL    HW128499   2.441   0.319   1.068
 9200SOL    HW228500   2.362   0.443   0.997
 9201SOL     OW28501   1.371   2.734   6.769
 9201SOL    HW128502   1.439   2.698   6.832
 9201SOL    HW228503   1.289   2.676   6.772
 9202SOL     OW28504   2.066   6.711   3.047
 9202SOL    HW128505   2.038   6.620   3.076
 9202SOL    HW228506   2.010   6.741   2.970
 9203SOL     OW28507   6.901   5.356   0.327
 9203SOL    HW128508   6.883   5.314   0.415
 9203SOL    HW228509   6.943   5.446   0.341
 9204SOL     OW28510   4.989   1.499   6.878
 9204SOL    HW128511   5.007   1.576   6.940
 9204SOL    HW228512   4.896   1.466   6.891
 9205SOL     OW28513   6.842   4.264   2.769
 9205SOL    HW128514   6.760   4.279   2.714
 9205SOL    HW228515   6.906   4.206   2.717
 9206SOL     OW28516   3.363   6.265   0.716
 9206SOL    HW128517   3.345   6.245   0.620
 9206SOL    HW228518   3.406   6.186   0.759
 9207SOL     OW28519   4.500   5.268   0.169
 9207SOL    HW128520   4.488   5.186   0.225
 9207SOL    HW228521   4.433   5.268   0.094
 9208SOL     OW28522   6.179   4.276   4.273
 9208SOL    HW128523   6.228   4.233   4.198
 9208SOL    HW228524   6.199   4.228   4.359
 9209SOL     OW28525   2.777   1.583   6.834
 9209SOL    HW128526   2.858   1.538   6.871
 9209SOL    HW228527   2.775   1.570   6.734
 9210SOL     OW28528   6.356   1.321   2.943
 9210SOL    HW128529   6.261   1.300   2.920
 9210SOL    HW228530   6.414   1.243   2.920
 9211SOL     OW28531   0.241   2.965   4.055
 9211SOL    HW128532   0.304   2.935   3.983
 9211SOL    HW228533   0.279   2.940   4.144
 9212SOL     OW28534   3.856   5.342   4.199
 9212SOL    HW128535   3.803   5.263   4.169
 9212SOL    HW228536   3.873   5.334   4.298
 9213SOL     OW28537   5.788   3.018   5.612
 9213SOL    HW128538   5.734   2.935   5.622
 9213SOL    HW228539   5.866   3.015   5.675
 9214SOL     OW28540   6.976   5.387   5.881
 9214SOL    HW128541   6.921   5.364   5.961
 9214SOL    HW228542   6.984   5.486   5.872
 9215SOL     OW28543   1.249   1.289   0.394
 9215SOL    HW128544   1.223   1.313   0.300
 9215SOL    HW228545   1.239   1.369   0.452
 9216SOL     OW28546   2.678   6.936   3.638
 9216SOL    HW128547   2.651   6.956   3.544
 9216SOL    HW228548   2.673   0.002   3.693
 9217SOL     OW28549   0.532   1.126   6.290
 9217SOL    HW128550   0.594   1.190   6.336
 9217SOL    HW228551   0.437   1.152   6.310
 9218SOL     OW28552   3.389   6.455   0.484
 9218SOL    HW128553   3.398   6.359   0.459
 9218SOL    HW228554   3.340   6.463   0.571
 9219SOL     OW28555   0.939   2.649   0.540
 9219SOL    HW128556   0.937   2.691   0.631
 9219SOL    HW228557   0.847   2.646   0.503
 9220SOL     OW28558   3.269   6.572   1.227
 9220SOL    HW128559   3.257   6.609   1.319
 9220SOL    HW228560   3.263   6.472   1.231
 9221SOL     OW28561   3.189   0.114   4.187
 9221SOL    HW128562   3.273   0.087   4.234
 9221SOL    HW228563   3.208   0.125   4.089
 9222SOL     OW28564   2.515   0.879   6.278
 9222SOL    HW128565   2.454   0.830   6.216
 9222SOL    HW228566   2.465   0.904   6.360
 9223SOL     OW28567   1.417   3.012   4.954
 9223SOL    HW128568   1.466   3.063   4.884
 9223SOL    HW228569   1.462   2.924   4.970
 9224SOL     OW28570   2.729   5.612   3.922
 9224SOL    HW128571   2.638   5.617   3.883
 9224SOL    HW228572   2.722   5.586   4.019
 9225SOL     OW28573   3.076   6.627   6.243
 9225SOL    HW128574   3.088   6.605   6.340
 9225SOL    HW228575   3.009   6.700   6.233
 9226SOL     OW28576   4.833   6.563   1.484
 9226SOL    HW128577   4.776   6.542   1.404
 9226SOL    HW228578   4.884   6.647   1.468
 9227SOL     OW28579   1.070   5.322   3.156
 9227SOL    HW128580   1.010   5.246   3.134
 9227SOL    HW228581   1.082   5.328   3.255
 9228SOL     OW28582   1.555   1.181   6.012
 9228SOL    HW128583   1.597   1.195   5.922
 9228SOL    HW228584   1.529   1.085   6.022
 9229SOL     OW28585   1.824   5.353   3.883
 9229SOL    HW128586   1.843   5.260   3.852
 9229SOL    HW228587   1.906   5.391   3.927
 9230SOL     OW28588   5.575   0.356   3.032
 9230SOL    HW128589   5.583   0.261   3.000
 9230SOL    HW228590   5.665   0.397   3.036
 9231SOL     OW28591   1.604   2.932   4.090
 9231SOL    HW128592   1.575   2.984   4.171
 9231SOL    HW228593   1.654   2.851   4.118
 9232SOL     OW28594   3.919   5.208   0.644
 9232SOL    HW128595   3.965   5.121   0.664
 9232SOL    HW228596   3.842   5.220   0.707
 9233SOL     OW28597   5.838   5.484   1.638
 9233SOL    HW128598   5.822   5.433   1.553
 9233SOL    HW228599   5.889   5.427   1.702
 9234SOL     OW28600   2.774   5.636   3.366
 9234SOL    HW128601   2.793   5.602   3.273
 9234SOL    HW228602   2.675   5.649   3.377
 9235SOL     OW28603   1.953   1.932   3.385
 9235SOL    HW128604   1.971   2.029   3.369
 9235SOL    HW228605   1.914   1.920   3.476
 9236SOL     OW28606   3.360   4.163   5.694
 9236SOL    HW128607   3.433   4.180   5.627
 9236SOL    HW228608   3.305   4.085   5.663
 9237SOL     OW28609   1.571   4.252   4.062
 9237SOL    HW128610   1.484   4.231   4.106
 9237SOL    HW228611   1.555   4.300   3.976
 9238SOL     OW28612   4.744   2.501   6.507
 9238SOL    HW128613   4.660   2.500   6.453
 9238SOL    HW228614   4.742   2.578   6.571
 9239SOL     OW28615   0.092   3.990   1.123
 9239SOL    HW128616   0.046   4.053   1.061
 9239SOL    HW228617   0.057   4.002   1.216
 9240SOL     OW28618   5.224   1.597   0.841
 9240SOL    HW128619   5.233   1.561   0.748
 9240SOL    HW228620   5.128   1.594   0.868
 9241SOL     OW28621   6.924   5.203   6.798
 9241SOL    HW128622   6.832   5.215   6.835
 9241SOL    HW228623   6.956   5.289   6.758
 9242SOL     OW28624   0.142   6.077   1.368
 9242SOL    HW128625   0.064   6.025   1.335
 9242SOL    HW228626   0.147   6.164   1.320
 9243SOL     OW28627   0.195   6.016   3.956
 9243SOL    HW128628   0.144   5.933   3.978
 9243SOL    HW228629   0.274   6.023   4.017
 9244SOL     OW28630   4.490   5.656   6.835
 9244SOL    HW128631   4.560   5.596   6.796
 9244SOL    HW228632   4.492   5.649   6.935
 9245SOL     OW28633   1.203   5.533   2.690
 9245SOL    HW128634   1.213   5.600   2.764
 9245SOL    HW228635   1.109   5.535   2.656
 9246SOL     OW28636   6.922   5.116   3.727
 9246SOL    HW128637   6.989   5.086   3.794
 9246SOL    HW228638   6.832   5.080   3.751
 9247SOL     OW28639   1.002   0.208   3.034
 9247SOL    HW128640   1.026   0.168   3.122
 9247SOL    HW228641   1.051   0.294   3.022
 9248SOL     OW28642   2.826   2.454   5.914
 9248SOL    HW128643   2.818   2.519   5.838
 9248SOL    HW228644   2.850   2.364   5.878
 9249SOL     OW28645   5.784   1.726   4.994
 9249SOL    HW128646   5.741   1.801   5.045
 9249SOL    HW228647   5.816   1.761   4.906
 9250SOL     OW28648   4.906   4.069   4.231
 9250SOL    HW128649   4.885   3.996   4.296
 9250SOL    HW228650   4.875   4.042   4.140
 9251SOL     OW28651   3.612   1.278   3.560
 9251SOL    HW128652   3.669   1.219   3.616
 9251SOL    HW228653   3.596   1.234   3.471
 9252SOL     OW28654   7.006   0.218   4.720
 9252SOL    HW128655   6.925   0.249   4.670
 9252SOL    HW228656   0.068   0.222   4.660
 9253SOL     OW28657   2.672   6.225   6.105
 9253SOL    HW128658   2.746   6.201   6.167
 9253SOL    HW228659   2.688   6.185   6.015
 9254SOL     OW28660   6.082   4.096   1.056
 9254SOL    HW128661   6.011   4.095   1.126
 9254SOL    HW228662   6.064   4.023   0.990
 9255SOL     OW28663   4.964   3.046   0.188
 9255SOL    HW128664   4.885   3.080   0.136
 9255SOL    HW228665   5.033   3.118   0.195
 9256SOL     OW28666   4.162   4.971   2.187
 9256SOL    HW128667   4.222   4.954   2.109
 9256SOL    HW228668   4.068   4.943   2.163
 9257SOL     OW28669   1.030   3.957   2.495
 9257SOL    HW128670   1.085   4.036   2.468
 9257SOL    HW228671   1.049   3.880   2.433
 9258SOL     OW28672   3.792   3.257   3.802
 9258SOL    HW128673   3.851   3.196   3.749
 9258SOL    HW228674   3.701   3.258   3.762
 9259SOL     OW28675   0.952   2.427   1.070
 9259SOL    HW128676   0.941   2.494   0.996
 9259SOL    HW228677   1.019   2.358   1.044
 9260SOL     OW28678   4.647   2.970   5.561
 9260SOL    HW128679   4.694   2.893   5.517
 9260SOL    HW228680   4.552   2.972   5.531
 9261SOL     OW28681   3.873   0.113   6.729
 9261SOL    HW128682   3.822   0.084   6.810
 9261SOL    HW228683   3.903   0.208   6.742
 9262SOL     OW28684   5.717   1.796   5.525
 9262SOL    HW128685   5.700   1.789   5.426
 9262SOL    HW228686   5.808   1.832   5.541
 9263SOL     OW28687   5.495   4.332   1.389
 9263SOL    HW128688   5.447   4.244   1.391
 9263SOL    HW228689   5.502   4.363   1.294
 9264SOL     OW28690   6.632   3.624   6.992
 9264SOL    HW128691   6.623   3.633   6.892
 9264SOL    HW228692   6.561   3.564   0.008
 9265SOL     OW28693   2.613   1.753   0.446
 9265SOL    HW128694   2.708   1.774   0.469
 9265SOL    HW228695   2.588   1.663   0.482
 9266SOL     OW28696   2.718   6.466   2.871
 9266SOL    HW128697   2.670   6.552   2.892
 9266SOL    HW228698   2.651   6.394   2.855
 9267SOL     OW28699   0.197   4.248   4.416
 9267SOL    HW128700   0.171   4.344   4.422
 9267SOL    HW228701   0.232   4.229   4.324
 9268SOL     OW28702   0.392   6.549   3.284
 9268SOL    HW128703   0.420   6.638   3.320
 9268SOL    HW228704   0.396   6.480   3.357
 9269SOL     OW28705   2.871   1.984   0.081
 9269SOL    HW128706   2.853   2.028   0.169
 9269SOL    HW228707   2.907   2.052   0.017
 9270SOL     OW28708   6.555   6.741   5.403
 9270SOL    HW128709   6.568   6.825   5.457
 9270SOL    HW228710   6.580   6.758   5.308
 9271SOL     OW28711   1.429   6.563   1.014
 9271SOL    HW128712   1.427   6.647   1.068
 9271SOL    HW228713   1.508   6.563   0.954
 9272SOL     OW28714   2.558   3.874   5.834
 9272SOL    HW128715   2.616   3.798   5.805
 9272SOL    HW228716   2.480   3.882   5.772
 9273SOL     OW28717   4.551   5.649   3.543
 9273SOL    HW128718   4.461   5.691   3.536
 9273SOL    HW228719   4.621   5.716   3.517
 9274SOL     OW28720   5.272   2.310   0.116
 9274SOL    HW128721   5.358   2.361   0.116
 9274SOL    HW228722   5.239   2.299   0.210
 9275SOL     OW28723   1.233   1.345   6.888
 9275SOL    HW128724   1.239   1.355   6.987
 9275SOL    HW228725   1.320   1.373   6.846
 9276SOL     OW28726   3.328   5.296   4.810
 9276SOL    HW128727   3.402   5.256   4.755
 9276SOL    HW228728   3.241   5.286   4.761
 9277SOL     OW28729   3.483   3.590   0.379
 9277SOL    HW128730   3.549   3.662   0.363
 9277SOL    HW228731   3.522   3.520   0.439
 9278SOL     OW28732   1.048   1.911   3.870
 9278SOL    HW128733   1.023   1.998   3.827
 9278SOL    HW228734   1.121   1.927   3.937
 9279SOL     OW28735   4.026   0.397   2.368
 9279SOL    HW128736   4.021   0.321   2.303
 9279SOL    HW228737   4.081   0.471   2.328
 9280SOL     OW28738   1.147   6.650   3.650
 9280SOL    HW128739   1.134   6.552   3.667
 9280SOL    HW228740   1.164   6.664   3.552
 9281SOL     OW28741   2.263   2.854   0.887
 9281SOL    HW128742   2.184   2.798   0.860
 9281SOL    HW228743   2.242   2.901   0.973
 9282SOL     OW28744   4.913   1.846   4.475
 9282SOL    HW128745   5.001   1.837   4.522
 9282SOL    HW228746   4.844   1.791   4.521
 9283SOL     OW28747   6.385   2.313   2.763
 9283SOL    HW128748   6.376   2.282   2.669
 9283SOL    HW228749   6.448   2.253   2.812
 9284SOL     OW28750   3.840   4.556   0.555
 9284SOL    HW128751   3.808   4.461   0.553
 9284SOL    HW228752   3.803   4.602   0.636
 9285SOL     OW28753   6.658   2.950   6.741
 9285SOL    HW128754   6.730   2.891   6.778
 9285SOL    HW228755   6.660   2.946   6.641
 9286SOL     OW28756   5.799   6.738   5.365
 9286SOL    HW128757   5.744   6.820   5.375
 9286SOL    HW228758   5.864   6.750   5.290
 9287SOL     OW28759   3.038   5.592   1.408
 9287SOL    HW128760   3.000   5.566   1.497
 9287SOL    HW228761   3.131   5.625   1.421
 9288SOL     OW28762   3.816   1.707   5.723
 9288SOL    HW128763   3.836   1.629   5.782
 9288SOL    HW228764   3.853   1.790   5.765
 9289SOL     OW28765   5.006   2.570   2.617
 9289SOL    HW128766   4.943   2.508   2.569
 9289SOL    HW228767   4.954   2.646   2.657
 9290SOL     OW28768   4.072   2.202   4.984
 9290SOL    HW128769   4.132   2.281   4.997
 9290SOL    HW228770   4.040   2.200   4.889
 9291SOL     OW28771   1.579   0.330   5.078
 9291SOL    HW128772   1.640   0.406   5.101
 9291SOL    HW228773   1.533   0.297   5.161
 9292SOL     OW28774   0.147   3.046   6.155
 9292SOL    HW128775   0.080   3.114   6.124
 9292SOL    HW228776   0.236   3.066   6.114
 9293SOL     OW28777   5.421   4.236   0.891
 9293SOL    HW128778   5.443   4.318   0.838
 9293SOL    HW228779   5.503   4.181   0.904
 9294SOL     OW28780   3.955   5.896   0.199
 9294SOL    HW128781   3.883   5.964   0.210
 9294SOL    HW228782   3.999   5.908   0.110
 9295SOL     OW28783   4.809   2.145   2.987
 9295SOL    HW128784   4.723   2.099   3.007
 9295SOL    HW228785   4.791   2.230   2.938
 9296SOL     OW28786   6.384   6.661   5.700
 9296SOL    HW128787   6.463   6.627   5.751
 9296SOL    HW228788   6.369   6.603   5.619
 9297SOL     OW28789   0.107   0.569   1.357
 9297SOL    HW128790   0.109   0.486   1.302
 9297SOL    HW228791   0.018   0.614   1.347
 9298SOL     OW28792   2.355   5.915   5.502
 9298SOL    HW128793   2.318   5.874   5.586
 9298SOL    HW228794   2.282   5.964   5.455
 9299SOL     OW28795   1.621   2.835   3.842
 9299SOL    HW128796   1.666   2.747   3.853
 9299SOL    HW228797   1.595   2.871   3.932
 9300SOL     OW28798   6.656   4.816   5.293
 9300SOL    HW128799   6.755   4.810   5.309
 9300SOL    HW228800   6.631   4.911   5.275
 9301SOL     OW28801   5.105   4.577   2.821
 9301SOL    HW128802   5.025   4.535   2.864
 9301SOL    HW228803   5.087   4.674   2.805
 9302SOL     OW28804   2.536   2.595   3.334
 9302SOL    HW128805   2.497   2.684   3.356
 9302SOL    HW228806   2.528   2.579   3.235
 9303SOL     OW28807   4.058   6.627   0.802
 9303SOL    HW128808   4.154   6.643   0.823
 9303SOL    HW228809   4.001   6.681   0.864
 9304SOL     OW28810   3.768   4.297   0.501
 9304SOL    HW128811   3.795   4.292   0.405
 9304SOL    HW228812   3.713   4.218   0.525
 9305SOL     OW28813   5.657   2.062   1.274
 9305SOL    HW128814   5.639   2.037   1.179
 9305SOL    HW228815   5.662   1.979   1.329
 9306SOL     OW28816   0.072   4.756   4.155
 9306SOL    HW128817   0.019   4.809   4.222
 9306SOL    HW228818   0.133   4.817   4.105
 9307SOL     OW28819   1.419   2.232   0.978
 9307SOL    HW128820   1.360   2.155   0.954
 9307SOL    HW228821   1.411   2.304   0.909
 9308SOL     OW28822   0.315   3.559   1.116
 9308SOL    HW128823   0.401   3.553   1.065
 9308SOL    HW228824   0.303   3.478   1.173
 9309SOL     OW28825   4.177   4.421   5.737
 9309SOL    HW128826   4.225   4.490   5.683
 9309SOL    HW228827   4.229   4.336   5.737
 9310SOL     OW28828   4.206   6.575   6.085
 9310SOL    HW128829   4.151   6.658   6.078
 9310SOL    HW228830   4.145   6.495   6.090
 9311SOL     OW28831   5.679   3.774   0.545
 9311SOL    HW128832   5.674   3.874   0.554
 9311SOL    HW228833   5.632   3.746   0.462
 9312SOL     OW28834   1.625   4.497   6.914
 9312SOL    HW128835   1.611   4.596   6.917
 9312SOL    HW228836   1.631   4.461   7.007
 9313SOL     OW28837   6.661   0.720   2.594
 9313SOL    HW128838   6.747   0.749   2.635
 9313SOL    HW228839   6.678   0.687   2.501
 9314SOL     OW28840   3.865   5.422   6.626
 9314SOL    HW128841   3.785   5.374   6.663
 9314SOL    HW228842   3.918   5.359   6.569
 9315SOL     OW28843   0.123   0.489   5.589
 9315SOL    HW128844   0.127   0.468   5.491
 9315SOL    HW228845   0.117   0.403   5.641
 9316SOL     OW28846   4.060   5.932   4.450
 9316SOL    HW128847   4.029   5.958   4.359
 9316SOL    HW228848   4.103   5.842   4.446
 9317SOL     OW28849   6.122   5.112   3.035
 9317SOL    HW128850   6.217   5.143   3.023
 9317SOL    HW228851   6.062   5.165   2.974
 9318SOL     OW28852   0.409   0.793   6.313
 9318SOL    HW128853   0.492   0.848   6.318
 9318SOL    HW228854   0.352   0.827   6.238
 9319SOL     OW28855   1.262   3.027   6.236
 9319SOL    HW128856   1.290   2.953   6.175
 9319SOL    HW228857   1.185   3.077   6.196
 9320SOL     OW28858   3.685   2.451   5.917
 9320SOL    HW128859   3.749   2.407   5.854
 9320SOL    HW228860   3.627   2.515   5.867
 9321SOL     OW28861   5.946   0.203   3.085
 9321SOL    HW128862   5.897   0.267   3.025
 9321SOL    HW228863   5.880   0.154   3.142
 9322SOL     OW28864   0.313   6.306   6.085
 9322SOL    HW128865   0.373   6.383   6.060
 9322SOL    HW228866   0.285   6.316   6.180
 9323SOL     OW28867   1.266   1.136   6.165
 9323SOL    HW128868   1.258   1.225   6.120
 9323SOL    HW228869   1.198   1.129   6.237
 9324SOL     OW28870   1.152   4.942   0.858
 9324SOL    HW128871   1.162   4.897   0.769
 9324SOL    HW228872   1.171   4.876   0.931
 9325SOL     OW28873   5.411   1.823   0.894
 9325SOL    HW128874   5.488   1.843   0.832
 9325SOL    HW228875   5.370   1.736   0.869
 9326SOL     OW28876   2.685   0.039   0.570
 9326SOL    HW128877   2.626   0.114   0.543
 9326SOL    HW228878   2.630   6.986   0.614
 9327SOL     OW28879   4.823   6.938   3.477
 9327SOL    HW128880   4.828   6.977   3.569
 9327SOL    HW228881   4.901   6.968   3.423
 9328SOL     OW28882   3.790   1.478   0.019
 9328SOL    HW128883   3.817   1.393   6.993
 9328SOL    HW228884   3.838   1.488   0.107
 9329SOL     OW28885   6.666   3.344   3.337
 9329SOL    HW128886   6.760   3.338   3.369
 9329SOL    HW228887   6.604   3.350   3.415
 9330SOL     OW28888   0.067   6.771   0.822
 9330SOL    HW128889   0.065   6.690   0.762
 9330SOL    HW228890   0.127   6.840   0.782
 9331SOL     OW28891   0.037   0.901   0.246
 9331SOL    HW128892   0.071   0.812   0.217
 9331SOL    HW228893   7.011   0.946   0.168
 9332SOL     OW28894   3.186   3.907   3.689
 9332SOL    HW128895   3.135   3.857   3.618
 9332SOL    HW228896   3.194   3.850   3.771
 9333SOL     OW28897   6.126   3.684   0.744
 9333SOL    HW128898   6.195   3.611   0.740
 9333SOL    HW228899   6.052   3.663   0.680
 9334SOL     OW28900   2.935   0.079   3.708
 9334SOL    HW128901   2.919   7.002   3.736
 9334SOL    HW228902   3.031   0.091   3.684
 9335SOL     OW28903   1.459   1.770   6.444
 9335SOL    HW128904   1.473   1.760   6.543
 9335SOL    HW228905   1.432   1.864   6.424
 9336SOL     OW28906   2.901   6.384   6.251
 9336SOL    HW128907   2.981   6.439   6.228
 9336SOL    HW228908   2.923   6.321   6.325
 9337SOL     OW28909   5.146   0.706   2.571
 9337SOL    HW128910   5.238   0.741   2.588
 9337SOL    HW228911   5.144   0.661   2.482
 9338SOL     OW28912   4.137   0.597   2.235
 9338SOL    HW128913   4.211   0.644   2.283
 9338SOL    HW228914   4.050   0.642   2.257
 9339SOL     OW28915   5.510   6.954   1.068
 9339SOL    HW128916   5.583   7.014   1.035
 9339SOL    HW228917   5.550   6.871   1.108
 9340SOL     OW28918   5.209   3.630   5.699
 9340SOL    HW128919   5.184   3.536   5.720
 9340SOL    HW228920   5.136   3.692   5.730
 9341SOL     OW28921   1.507   5.729   6.588
 9341SOL    HW128922   1.422   5.728   6.536
 9341SOL    HW228923   1.501   5.799   6.659
 9342SOL     OW28924   1.780   7.015   5.295
 9342SOL    HW128925   1.867   0.014   5.249
 9342SOL    HW228926   1.754   0.077   5.347
 9343SOL     OW28927   6.503   5.524   4.873
 9343SOL    HW128928   6.533   5.455   4.938
 9343SOL    HW228929   6.435   5.484   4.811
 9344SOL     OW28930   4.619   6.502   0.800
 9344SOL    HW128931   4.718   6.490   0.797
 9344SOL    HW228932   4.592   6.529   0.893
 9345SOL     OW28933   6.482   2.746   2.119
 9345SOL    HW128934   6.462   2.676   2.187
 9345SOL    HW228935   6.485   2.835   2.163
 9346SOL     OW28936   5.956   0.653   1.285
 9346SOL    HW128937   5.870   0.668   1.333
 9346SOL    HW228938   6.033   0.674   1.346
 9347SOL     OW28939   1.591   5.963   1.333
 9347SOL    HW128940   1.606   5.868   1.304
 9347SOL    HW228941   1.664   5.990   1.395
 9348SOL     OW28942   3.734   5.752   0.573
 9348SOL    HW128943   3.763   5.847   0.575
 9348SOL    HW228944   3.813   5.693   0.590
 9349SOL     OW28945   0.961   6.609   2.331
 9349SOL    HW128946   1.040   6.635   2.386
 9349SOL    HW228947   0.878   6.652   2.368
 9350SOL     OW28948   0.432   2.343   6.354
 9350SOL    HW128949   0.425   2.353   6.453
 9350SOL    HW228950   0.381   2.416   6.309
 9351SOL     OW28951   3.317   2.316   0.032
 9351SOL    HW128952   3.257   2.395   0.042
 9351SOL    HW228953   3.274   2.236   0.073
 9352SOL     OW28954   2.665   4.479   0.125
 9352SOL    HW128955   2.755   4.441   0.105
 9352SOL    HW228956   2.662   4.512   0.219
 9353SOL     OW28957   0.676   5.797   2.045
 9353SOL    HW128958   0.745   5.855   2.088
 9353SOL    HW228959   0.710   5.764   1.957
 9354SOL     OW28960   6.105   2.564   6.804
 9354SOL    HW128961   6.073   2.603   6.718
 9354SOL    HW228962   6.179   2.499   6.787
 9355SOL     OW28963   0.703   1.689   5.148
 9355SOL    HW128964   0.666   1.766   5.201
 9355SOL    HW228965   0.674   1.697   5.053
 9356SOL     OW28966   4.480   6.983   2.065
 9356SOL    HW128967   4.539   0.013   2.001
 9356SOL    HW228968   4.532   6.911   2.111
 9357SOL     OW28969   0.932   2.047   0.008
 9357SOL    HW128970   0.862   1.995   0.057
 9357SOL    HW228971   0.911   2.048   6.929
 9358SOL     OW28972   1.102   3.307   2.145
 9358SOL    HW128973   1.029   3.269   2.088
 9358SOL    HW228974   1.150   3.379   2.095
 9359SOL     OW28975   2.229   6.671   5.953
 9359SOL    HW128976   2.268   6.763   5.961
 9359SOL    HW228977   2.278   6.620   5.882
 9360SOL     OW28978   1.522   0.466   6.495
 9360SOL    HW128979   1.548   0.559   6.518
 9360SOL    HW228980   1.457   0.466   6.420
 9361SOL     OW28981   2.430   6.231   4.012
 9361SOL    HW128982   2.366   6.270   4.078
 9361SOL    HW228983   2.462   6.142   4.044
 9362SOL     OW28984   1.959   0.472   2.376
 9362SOL    HW128985   1.928   0.416   2.452
 9362SOL    HW228986   1.938   0.568   2.394
 9363SOL     OW28987   2.819   5.377   2.743
 9363SOL    HW128988   2.801   5.390   2.646
 9363SOL    HW228989   2.770   5.447   2.796
 9364SOL     OW28990   1.969   1.821   1.449
 9364SOL    HW128991   1.939   1.734   1.490
 9364SOL    HW228992   2.039   1.862   1.507
 9365SOL     OW28993   3.170   1.879   4.059
 9365SOL    HW128994   3.155   1.850   4.153
 9365SOL    HW228995   3.200   1.975   4.058
 9366SOL     OW28996   3.309   5.904   0.529
 9366SOL    HW128997   3.387   5.856   0.489
 9366SOL    HW228998   3.322   5.912   0.628
 9367SOL     OW28999   5.946   0.780   1.044
 9367SOL    HW129000   5.961   0.726   1.127
 9367SOL    HW229001   5.910   0.722   0.972
 9368SOL     OW29002   3.584   0.627   2.764
 9368SOL    HW129003   3.528   0.655   2.842
 9368SOL    HW229004   3.528   0.572   2.701
 9369SOL     OW29005   1.937   5.255   6.467
 9369SOL    HW129006   1.944   5.337   6.409
 9369SOL    HW229007   1.987   5.270   6.552
 9370SOL     OW29008   5.230   2.263   4.106
 9370SOL    HW129009   5.263   2.209   4.028
 9370SOL    HW229010   5.138   2.296   4.086
 9371SOL     OW29011   3.892   6.204   1.559
 9371SOL    HW129012   3.889   6.105   1.566
 9371SOL    HW229013   3.849   6.245   1.640
 9372SOL     OW29014   4.904   6.832   1.620
 9372SOL    HW129015   4.844   6.818   1.698
 9372SOL    HW229016   4.907   6.930   1.598
 9373SOL     OW29017   6.741   1.107   0.832
 9373SOL    HW129018   6.813   1.149   0.777
 9373SOL    HW229019   6.778   1.029   0.882
 9374SOL     OW29020   0.733   4.951   5.544
 9374SOL    HW129021   0.804   4.993   5.601
 9374SOL    HW229022   0.649   5.004   5.552
 9375SOL     OW29023   0.479   1.768   6.646
 9375SOL    HW129024   0.426   1.700   6.696
 9375SOL    HW229025   0.572   1.734   6.632
 9376SOL     OW29026   2.078   3.704   2.050
 9376SOL    HW129027   2.121   3.718   2.139
 9376SOL    HW229028   2.111   3.619   2.009
 9377SOL     OW29029   2.428   6.583   3.116
 9377SOL    HW129030   2.383   6.654   3.170
 9377SOL    HW229031   2.416   6.603   3.018
 9378SOL     OW29032   3.178   0.362   3.541
 9378SOL    HW129033   3.241   0.439   3.547
 9378SOL    HW229034   3.085   0.394   3.559
 9379SOL     OW29035   4.452   6.897   4.737
 9379SOL    HW129036   4.415   6.827   4.676
 9379SOL    HW229037   4.384   6.918   4.807
 9380SOL     OW29038   4.902   5.820   6.965
 9380SOL    HW129039   4.864   5.822   0.039
 9380SOL    HW229040   4.878   5.733   6.921
 9381SOL     OW29041   5.823   2.177   4.474
 9381SOL    HW129042   5.871   2.185   4.387
 9381SOL    HW229043   5.860   2.101   4.526
 9382SOL     OW29044   3.204   0.088   4.669
 9382SOL    HW129045   3.128   0.057   4.612
 9382SOL    HW229046   3.258   0.156   4.619
 9383SOL     OW29047   4.722   4.304   3.447
 9383SOL    HW129048   4.799   4.366   3.460
 9383SOL    HW229049   4.739   4.245   3.368
 9384SOL     OW29050   1.726   0.487   2.184
 9384SOL    HW129051   1.746   0.471   2.281
 9384SOL    HW229052   1.797   0.546   2.145
 9385SOL     OW29053   3.993   1.429   3.234
 9385SOL    HW129054   3.902   1.418   3.275
 9385SOL    HW229055   4.040   1.341   3.231
 9386SOL     OW29056   4.055   6.364   6.108
 9386SOL    HW129057   4.024   6.285   6.055
 9386SOL    HW229058   3.985   6.388   6.174
 9387SOL     OW29059   3.012   2.181   6.950
 9387SOL    HW129060   2.920   2.218   6.932
 9387SOL    HW229061   3.079   2.235   6.900
 9388SOL     OW29062   2.012   6.274   4.667
 9388SOL    HW129063   1.980   6.339   4.736
 9388SOL    HW229064   1.995   6.311   4.576
 9389SOL     OW29065   3.034   4.953   1.463
 9389SOL    HW129066   2.952   4.915   1.506
 9389SOL    HW229067   3.104   4.968   1.533
 9390SOL     OW29068   5.121   5.066   5.376
 9390SOL    HW129069   5.094   5.019   5.292
 9390SOL    HW229070   5.132   5.163   5.357
 9391SOL     OW29071   2.128   5.971   4.487
 9391SOL    HW129072   2.115   6.015   4.398
 9391SOL    HW229073   2.052   5.909   4.505
 9392SOL     OW29074   6.123   4.457   2.591
 9392SOL    HW129075   6.180   4.525   2.546
 9392SOL    HW229076   6.166   4.429   2.677
 9393SOL     OW29077   2.546   6.630   5.799
 9393SOL    HW129078   2.585   6.619   5.890
 9393SOL    HW229079   2.611   6.598   5.730
 9394SOL     OW29080   4.448   0.090   0.726
 9394SOL    HW129081   4.382   0.033   0.775
 9394SOL    HW229082   4.431   0.186   0.745
 9395SOL     OW29083   2.079   2.069   0.947
 9395SOL    HW129084   2.169   2.050   0.988
 9395SOL    HW229085   2.057   2.166   0.961
 9396SOL     OW29086   0.968   6.732   6.535
 9396SOL    HW129087   1.007   6.760   6.623
 9396SOL    HW229088   0.953   6.633   6.536
 9397SOL     OW29089   4.018   1.211   5.709
 9397SOL    HW129090   3.939   1.262   5.673
 9397SOL    HW229091   4.027   1.230   5.806
 9398SOL     OW29092   0.532   1.284   6.913
 9398SOL    HW129093   0.470   1.266   6.990
 9398SOL    HW229094   0.479   1.317   6.835
 9399SOL     OW29095   1.741   2.625   3.566
 9399SOL    HW129096   1.725   2.721   3.587
 9399SOL    HW229097   1.754   2.613   3.468
 9400SOL     OW29098   5.741   1.405   0.688
 9400SOL    HW129099   5.796   1.362   0.617
 9400SOL    HW229100   5.740   1.346   0.769
 9401SOL     OW29101   0.282   1.891   3.137
 9401SOL    HW129102   0.349   1.907   3.064
 9401SOL    HW229103   0.191   1.885   3.097
 9402SOL     OW29104   1.282   5.936   3.393
 9402SOL    HW129105   1.291   5.837   3.402
 9402SOL    HW229106   1.262   5.976   3.483
 9403SOL     OW29107   6.382   2.567   1.943
 9403SOL    HW129108   6.283   2.578   1.945
 9403SOL    HW229109   6.426   2.650   1.977
 9404SOL     OW29110   2.054   3.392   1.033
 9404SOL    HW129111   1.997   3.416   1.112
 9404SOL    HW229112   2.029   3.449   0.955
 9405SOL     OW29113   0.678   5.326   5.457
 9405SOL    HW129114   0.712   5.333   5.551
 9405SOL    HW229115   0.744   5.367   5.394
 9406SOL     OW29116   0.254   3.166   6.848
 9406SOL    HW129117   0.292   3.123   6.930
 9406SOL    HW229118   0.181   3.229   6.874
 9407SOL     OW29119   1.404   5.028   5.657
 9407SOL    HW129120   1.430   4.962   5.586
 9407SOL    HW229121   1.355   4.980   5.730
 9408SOL     OW29122   6.947   4.684   4.715
 9408SOL    HW129123   6.897   4.629   4.649
 9408SOL    HW229124   6.968   4.774   4.676
 9409SOL     OW29125   6.881   5.212   2.037
 9409SOL    HW129126   6.972   5.245   2.062
 9409SOL    HW229127   6.812   5.275   2.073
 9410SOL     OW29128   4.006   0.651   1.301
 9410SOL    HW129129   4.014   0.715   1.377
 9410SOL    HW229130   4.093   0.645   1.253
 9411SOL     OW29131   3.079   3.065   3.511
 9411SOL    HW129132   3.032   3.114   3.584
 9411SOL    HW229133   3.069   3.116   3.425
 9412SOL     OW29134   5.963   6.341   1.405
 9412SOL    HW129135   5.907   6.296   1.335
 9412SOL    HW229136   5.998   6.427   1.369
 9413SOL     OW29137   4.351   4.563   2.822
 9413SOL    HW129138   4.313   4.646   2.782
 9413SOL    HW229139   4.408   4.515   2.755
 9414SOL     OW29140   1.556   2.132   4.188
 9414SOL    HW129141   1.650   2.102   4.208
 9414SOL    HW229142   1.559   2.214   4.131
 9415SOL     OW29143   3.904   1.515   2.558
 9415SOL    HW129144   3.915   1.605   2.515
 9415SOL    HW229145   3.982   1.497   2.617
 9416SOL     OW29146   6.375   5.158   6.272
 9416SOL    HW129147   6.445   5.228   6.286
 9416SOL    HW229148   6.405   5.072   6.315
 9417SOL     OW29149   3.978   6.070   1.854
 9417SOL    HW129150   4.010   6.066   1.759
 9417SOL    HW229151   3.883   6.040   1.858
 9418SOL     OW29152   3.031   2.233   4.469
 9418SOL    HW129153   3.125   2.201   4.459
 9418SOL    HW229154   3.027   2.304   4.539
 9419SOL     OW29155   2.052   3.070   6.129
 9419SOL    HW129156   2.014   3.126   6.056
 9419SOL    HW229157   2.118   3.005   6.091
 9420SOL     OW29158   6.460   4.060   6.986
 9420SOL    HW129159   6.519   3.989   6.948
 9420SOL    HW229160   6.369   4.054   6.944
 9421SOL     OW29161   3.698   6.325   5.366
 9421SOL    HW129162   3.661   6.335   5.458
 9421SOL    HW229163   3.624   6.311   5.301
 9422SOL     OW29164   2.776   6.019   4.572
 9422SOL    HW129165   2.771   6.119   4.583
 9422SOL    HW229166   2.809   5.997   4.480
 9423SOL     OW29167   4.816   4.866   3.651
 9423SOL    HW129168   4.899   4.891   3.601
 9423SOL    HW229169   4.821   4.903   3.743
 9424SOL     OW29170   5.857   0.202   4.649
 9424SOL    HW129171   5.775   0.156   4.615
 9424SOL    HW229172   5.850   0.300   4.630
 9425SOL     OW29173   6.906   5.106   0.937
 9425SOL    HW129174   6.832   5.118   0.871
 9425SOL    HW229175   6.947   5.194   0.958
 9426SOL     OW29176   6.963   2.013   0.141
 9426SOL    HW129177   0.028   1.987   0.093
 9426SOL    HW229178   6.952   2.112   0.137
 9427SOL     OW29179   4.640   4.851   3.004
 9427SOL    HW129180   4.584   4.772   3.029
 9427SOL    HW229181   4.660   4.905   3.086
 9428SOL     OW29182   6.725   6.565   5.533
 9428SOL    HW129183   6.716   6.587   5.630
 9428SOL    HW229184   6.667   6.628   5.479
 9429SOL     OW29185   2.439   2.320   3.875
 9429SOL    HW129186   2.445   2.246   3.809
 9429SOL    HW229187   2.475   2.404   3.834
 9430SOL     OW29188   0.495   2.370   4.550
 9430SOL    HW129189   0.512   2.402   4.643
 9430SOL    HW229190   0.582   2.358   4.502
 9431SOL     OW29191   0.729   4.878   5.012
 9431SOL    HW129192   0.693   4.864   5.104
 9431SOL    HW229193   0.822   4.915   5.018
 9432SOL     OW29194   6.627   1.114   3.872
 9432SOL    HW129195   6.725   1.096   3.867
 9432SOL    HW229196   6.597   1.158   3.787
 9433SOL     OW29197   4.841   5.653   2.396
 9433SOL    HW129198   4.804   5.585   2.459
 9433SOL    HW229199   4.896   5.607   2.325
 9434SOL     OW29200   4.930   5.127   4.596
 9434SOL    HW129201   4.985   5.082   4.666
 9434SOL    HW229202   4.983   5.137   4.512
 9435SOL     OW29203   0.182   2.724   1.617
 9435SOL    HW129204   0.268   2.699   1.572
 9435SOL    HW229205   0.201   2.789   1.691
 9436SOL     OW29206   1.760   0.661   2.894
 9436SOL    HW129207   1.720   0.666   2.985
 9436SOL    HW229208   1.809   0.574   2.884
 9437SOL     OW29209   6.096   6.205   4.876
 9437SOL    HW129210   6.180   6.257   4.891
 9437SOL    HW229211   6.119   6.108   4.867
 9438SOL     OW29212   4.646   6.085   2.786
 9438SOL    HW129213   4.659   6.183   2.771
 9438SOL    HW229214   4.667   6.035   2.702
 9439SOL     OW29215   1.088   3.069   0.765
 9439SOL    HW129216   1.162   3.019   0.720
 9439SOL    HW229217   1.090   3.050   0.863
 9440SOL     OW29218   2.271   5.330   3.232
 9440SOL    HW129219   2.328   5.280   3.167
 9440SOL    HW229220   2.265   5.278   3.317
 9441SOL     OW29221   0.871   6.080   4.554
 9441SOL    HW129222   0.927   6.005   4.519
 9441SOL    HW229223   0.886   6.088   4.653
 9442SOL     OW29224   4.363   3.224   0.713
 9442SOL    HW129225   4.338   3.157   0.782
 9442SOL    HW229226   4.339   3.189   0.622
 9443SOL     OW29227   1.994   4.666   3.087
 9443SOL    HW129228   2.081   4.631   3.051
 9443SOL    HW229229   1.920   4.604   3.061
 9444SOL     OW29230   0.906   4.613   6.160
 9444SOL    HW129231   0.813   4.649   6.155
 9444SOL    HW229232   0.915   4.536   6.097
 9445SOL     OW29233   0.455   1.128   3.972
 9445SOL    HW129234   0.359   1.153   3.986
 9445SOL    HW229235   0.513   1.181   4.035
 9446SOL     OW29236   6.385   5.197   2.987
 9446SOL    HW129237   6.435   5.233   2.909
 9446SOL    HW229238   6.431   5.115   3.021
 9447SOL     OW29239   4.842   4.052   1.698
 9447SOL    HW129240   4.762   4.088   1.651
 9447SOL    HW229241   4.925   4.095   1.661
 9448SOL     OW29242   6.101   0.778   5.198
 9448SOL    HW129243   6.101   0.695   5.142
 9448SOL    HW229244   6.008   0.797   5.230
 9449SOL     OW29245   5.692   6.862   1.442
 9449SOL    HW129246   5.634   6.891   1.519
 9449SOL    HW229247   5.779   6.828   1.477
 9450SOL     OW29248   1.376   5.304   3.511
 9450SOL    HW129249   1.427   5.305   3.426
 9450SOL    HW229250   1.429   5.347   3.583
 9451SOL     OW29251   3.363   5.786   6.296
 9451SOL    HW129252   3.313   5.702   6.273
 9451SOL    HW229253   3.386   5.836   6.212
 9452SOL     OW29254   6.872   3.985   0.328
 9452SOL    HW129255   6.913   3.911   0.381
 9452SOL    HW229256   6.819   4.044   0.389
 9453SOL     OW29257   5.003   5.566   2.202
 9453SOL    HW129258   4.965   5.507   2.130
 9453SOL    HW229259   5.067   5.631   2.162
 9454SOL     OW29260   5.774   4.256   0.678
 9454SOL    HW129261   5.801   4.224   0.768
 9454SOL    HW229262   5.699   4.322   0.687
 9455SOL     OW29263   3.509   1.765   1.811
 9455SOL    HW129264   3.604   1.734   1.804
 9455SOL    HW229265   3.484   1.814   1.727
 9456SOL     OW29266   6.686   3.198   1.648
 9456SOL    HW129267   6.629   3.146   1.712
 9456SOL    HW229268   6.780   3.199   1.681
 9457SOL     OW29269   0.193   5.958   4.420
 9457SOL    HW129270   0.252   5.885   4.386
 9457SOL    HW229271   0.210   6.041   4.368
 9458SOL     OW29272   6.833   3.378   6.807
 9458SOL    HW129273   6.736   3.350   6.810
 9458SOL    HW229274   6.848   3.437   6.728
 9459SOL     OW29275   4.661   4.794   5.309
 9459SOL    HW129276   4.692   4.724   5.245
 9459SOL    HW229277   4.612   4.865   5.258
 9460SOL     OW29278   1.480   2.021   3.171
 9460SOL    HW129279   1.386   2.042   3.199
 9460SOL    HW229280   1.482   1.933   3.124
 9461SOL     OW29281   1.519   2.102   2.411
 9461SOL    HW129282   1.549   2.127   2.319
 9461SOL    HW229283   1.449   2.167   2.442
 9462SOL     OW29284   1.139   1.358   4.402
 9462SOL    HW129285   1.230   1.333   4.435
 9462SOL    HW229286   1.102   1.282   4.347
 9463SOL     OW29287   5.349   5.177   1.613
 9463SOL    HW129288   5.295   5.169   1.529
 9463SOL    HW229289   5.419   5.248   1.601
 9464SOL     OW29290   0.929   1.102   1.917
 9464SOL    HW129291   0.976   1.160   1.851
 9464SOL    HW229292   0.831   1.121   1.914
 9465SOL     OW29293   6.395   4.419   1.323
 9465SOL    HW129294   6.490   4.391   1.338
 9465SOL    HW229295   6.352   4.358   1.256
 9466SOL     OW29296   3.861   4.837   5.840
 9466SOL    HW129297   3.771   4.870   5.813
 9466SOL    HW229298   3.854   4.742   5.869
 9467SOL     OW29299   1.981   4.011   0.916
 9467SOL    HW129300   1.920   4.070   0.968
 9467SOL    HW229301   1.954   3.915   0.928
 9468SOL     OW29302   6.432   1.766   0.183
 9468SOL    HW129303   6.516   1.714   0.200
 9468SOL    HW229304   6.422   1.837   0.252
 9469SOL     OW29305   0.947   6.426   1.604
 9469SOL    HW129306   1.011   6.350   1.604
 9469SOL    HW229307   0.945   6.469   1.514
 9470SOL     OW29308   3.938   4.141   0.649
 9470SOL    HW129309   3.902   4.101   0.733
 9470SOL    HW229310   3.877   4.214   0.619
 9471SOL     OW29311   6.023   3.612   5.360
 9471SOL    HW129312   6.062   3.530   5.319
 9471SOL    HW229313   6.007   3.596   5.458
 9472SOL     OW29314   1.894   2.789   6.067
 9472SOL    HW129315   1.865   2.884   6.080
 9472SOL    HW229316   1.904   2.771   5.969
 9473SOL     OW29317   2.976   4.617   0.873
 9473SOL    HW129318   2.985   4.649   0.967
 9473SOL    HW229319   3.024   4.529   0.863
 9474SOL     OW29320   5.778   3.048   0.719
 9474SOL    HW129321   5.695   3.094   0.750
 9474SOL    HW229322   5.849   3.057   0.787
 9475SOL     OW29323   4.752   3.862   6.433
 9475SOL    HW129324   4.732   3.939   6.493
 9475SOL    HW229325   4.825   3.886   6.370
 9476SOL     OW29326   3.844   4.069   6.586
 9476SOL    HW129327   3.896   4.100   6.507
 9476SOL    HW229328   3.820   3.972   6.575
 9477SOL     OW29329   1.822   4.341   0.784
 9477SOL    HW129330   1.744   4.333   0.723
 9477SOL    HW229331   1.889   4.403   0.744
 9478SOL     OW29332   5.504   3.053   0.440
 9478SOL    HW129333   5.501   3.138   0.492
 9478SOL    HW229334   5.589   3.004   0.461
 9479SOL     OW29335   3.922   0.806   1.877
 9479SOL    HW129336   3.844   0.781   1.819
 9479SOL    HW229337   3.930   0.739   1.952
 9480SOL     OW29338   6.754   0.495   0.459
 9480SOL    HW129339   6.671   0.537   0.497
 9480SOL    HW229340   6.762   0.520   0.362
 9481SOL     OW29341   4.236   0.281   3.719
 9481SOL    HW129342   4.193   0.358   3.671
 9481SOL    HW229343   4.187   0.197   3.697
 9482SOL     OW29344   6.259   6.402   0.291
 9482SOL    HW129345   6.232   6.446   0.205
 9482SOL    HW229346   6.312   6.466   0.346
 9483SOL     OW29347   6.732   6.938   0.447
 9483SOL    HW129348   6.734   6.947   0.347
 9483SOL    HW229349   6.672   7.008   0.485
 9484SOL     OW29350   4.143   5.543   4.977
 9484SOL    HW129351   4.116   5.574   4.886
 9484SOL    HW229352   4.177   5.621   5.030
 9485SOL     OW29353   6.686   1.035   0.445
 9485SOL    HW129354   6.765   1.096   0.436
 9485SOL    HW229355   6.652   1.012   0.354
 9486SOL     OW29356   5.201   6.069   0.160
 9486SOL    HW129357   5.279   6.020   0.198
 9486SOL    HW229358   5.189   6.044   0.064
 9487SOL     OW29359   3.295   2.976   3.185
 9487SOL    HW129360   3.289   2.935   3.094
 9487SOL    HW229361   3.215   3.033   3.201
 9488SOL     OW29362   1.767   1.042   0.753
 9488SOL    HW129363   1.690   1.007   0.700
 9488SOL    HW229364   1.840   0.973   0.755
 9489SOL     OW29365   5.422   3.682   0.602
 9489SOL    HW129366   5.345   3.649   0.657
 9489SOL    HW229367   5.507   3.675   0.655
 9490SOL     OW29368   5.380   3.901   4.135
 9490SOL    HW129369   5.319   3.975   4.106
 9490SOL    HW229370   5.407   3.847   4.055
 9491SOL     OW29371   5.110   6.280   2.582
 9491SOL    HW129372   5.142   6.353   2.642
 9491SOL    HW229373   5.130   6.191   2.623
 9492SOL     OW29374   4.895   3.032   4.149
 9492SOL    HW129375   4.844   3.036   4.235
 9492SOL    HW229376   4.983   2.988   4.165
 9493SOL     OW29377   4.142   6.514   2.081
 9493SOL    HW129378   4.235   6.544   2.061
 9493SOL    HW229379   4.142   6.458   2.165
 9494SOL     OW29380   5.417   2.337   2.047
 9494SOL    HW129381   5.480   2.300   2.116
 9494SOL    HW229382   5.429   2.288   1.961
 9495SOL     OW29383   0.638   1.683   2.009
 9495SOL    HW129384   0.652   1.748   2.083
 9495SOL    HW229385   0.544   1.648   2.013
 9496SOL     OW29386   5.089   2.156   2.540
 9496SOL    HW129387   5.141   2.087   2.491
 9496SOL    HW229388   4.993   2.127   2.546
 9497SOL     OW29389   5.008   4.710   4.985
 9497SOL    HW129390   4.946   4.691   4.909
 9497SOL    HW229391   5.077   4.637   4.989
 9498SOL     OW29392   0.720   5.504   3.600
 9498SOL    HW129393   0.771   5.456   3.528
 9498SOL    HW229394   0.665   5.438   3.651
 9499SOL     OW29395   6.498   5.874   5.412
 9499SOL    HW129396   6.511   5.957   5.358
 9499SOL    HW229397   6.407   5.875   5.454
 9500SOL     OW29398   3.846   1.663   0.889
 9500SOL    HW129399   3.905   1.586   0.864
 9500SOL    HW229400   3.818   1.654   0.984
 9501SOL     OW29401   1.881   3.204   5.227
 9501SOL    HW129402   1.931   3.253   5.155
 9501SOL    HW229403   1.940   3.135   5.267
 9502SOL     OW29404   5.276   4.781   5.069
 9502SOL    HW129405   5.310   4.839   4.994
 9502SOL    HW229406   5.213   4.834   5.125
 9503SOL     OW29407   0.552   2.668   0.160
 9503SOL    HW129408   0.624   2.703   0.101
 9503SOL    HW229409   0.546   2.568   0.149
 9504SOL     OW29410   5.754   5.072   2.394
 9504SOL    HW129411   5.710   5.020   2.320
 9504SOL    HW229412   5.703   5.156   2.411
 9505SOL     OW29413   4.322   5.226   5.466
 9505SOL    HW129414   4.244   5.169   5.439
 9505SOL    HW229415   4.365   5.265   5.384
 9506SOL     OW29416   3.000   1.261   1.255
 9506SOL    HW129417   2.975   1.198   1.181
 9506SOL    HW229418   2.952   1.347   1.242
 9507SOL     OW29419   5.032   0.451   2.147
 9507SOL    HW129420   4.968   0.472   2.073
 9507SOL    HW229421   5.011   0.360   2.183
 9508SOL     OW29422   5.135   1.866   2.875
 9508SOL    HW129423   5.231   1.841   2.865
 9508SOL    HW229424   5.126   1.966   2.870
 9509SOL     OW29425   5.945   0.449   3.327
 9509SOL    HW129426   5.962   0.532   3.273
 9509SOL    HW229427   5.940   0.474   3.424
 9510SOL     OW29428   1.176   2.278   3.551
 9510SOL    HW129429   1.200   2.255   3.457
 9510SOL    HW229430   1.256   2.264   3.610
 9511SOL     OW29431   1.816   1.541   0.670
 9511SOL    HW129432   1.800   1.447   0.638
 9511SOL    HW229433   1.902   1.574   0.632
 9512SOL     OW29434   6.259   1.778   1.061
 9512SOL    HW129435   6.180   1.719   1.049
 9512SOL    HW229436   6.313   1.780   0.977
 9513SOL     OW29437   4.500   4.999   6.182
 9513SOL    HW129438   4.458   5.033   6.266
 9513SOL    HW229439   4.437   5.012   6.106
 9514SOL     OW29440   3.634   2.874   0.086
 9514SOL    HW129441   3.636   2.847   0.183
 9514SOL    HW229442   3.728   2.891   0.055
 9515SOL     OW29443   0.713   5.065   3.822
 9515SOL    HW129444   0.750   5.013   3.899
 9515SOL    HW229445   0.786   5.115   3.776
 9516SOL     OW29446   6.962   4.185   0.934
 9516SOL    HW129447   0.017   4.216   0.874
 9516SOL    HW229448   6.892   4.256   0.941
 9517SOL     OW29449   0.937   5.229   0.639
 9517SOL    HW129450   0.993   5.246   0.558
 9517SOL    HW229451   0.978   5.155   0.693
 9518SOL     OW29452   1.101   1.318   0.148
 9518SOL    HW129453   1.013   1.365   0.142
 9518SOL    HW229454   1.089   1.222   0.123
 9519SOL     OW29455   1.145   3.054   5.336
 9519SOL    HW129456   1.182   2.966   5.365
 9519SOL    HW229457   1.209   3.098   5.273
 9520SOL     OW29458   3.361   6.834   1.928
 9520SOL    HW129459   3.457   6.845   1.956
 9520SOL    HW229460   3.325   6.922   1.899
 9521SOL     OW29461   5.488   5.271   3.957
 9521SOL    HW129462   5.484   5.235   4.050
 9521SOL    HW229463   5.504   5.370   3.960
 9522SOL     OW29464   3.572   5.791   0.789
 9522SOL    HW129465   3.557   5.693   0.801
 9522SOL    HW229466   3.637   5.806   0.714
 9523SOL     OW29467   3.652   5.857   4.657
 9523SOL    HW129468   3.564   5.896   4.686
 9523SOL    HW229469   3.713   5.931   4.630
 9524SOL     OW29470   4.577   2.872   0.915
 9524SOL    HW129471   4.622   2.825   0.991
 9524SOL    HW229472   4.644   2.894   0.844
 9525SOL     OW29473   3.839   0.403   6.236
 9525SOL    HW129474   3.876   0.495   6.228
 9525SOL    HW229475   3.829   0.362   6.145
 9526SOL     OW29476   5.518   5.363   1.905
 9526SOL    HW129477   5.616   5.349   1.896
 9526SOL    HW229478   5.470   5.276   1.887
 9527SOL     OW29479   6.572   1.850   1.638
 9527SOL    HW129480   6.538   1.759   1.661
 9527SOL    HW229481   6.666   1.842   1.604
 9528SOL     OW29482   6.486   0.927   2.572
 9528SOL    HW129483   6.536   0.841   2.565
 9528SOL    HW229484   6.549   1.004   2.559
 9529SOL     OW29485   0.591   3.719   5.460
 9529SOL    HW129486   0.654   3.682   5.529
 9529SOL    HW229487   0.503   3.673   5.467
 9530SOL     OW29488   0.983   2.478   4.189
 9530SOL    HW129489   1.015   2.399   4.241
 9530SOL    HW229490   1.026   2.478   4.099
 9531SOL     OW29491   3.324   6.051   2.633
 9531SOL    HW129492   3.350   5.986   2.561
 9531SOL    HW229493   3.400   6.114   2.649
 9532SOL     OW29494   2.141   0.417   2.168
 9532SOL    HW129495   2.072   0.455   2.230
 9532SOL    HW229496   2.185   0.490   2.117
 9533SOL     OW29497   2.256   0.745   5.241
 9533SOL    HW129498   2.207   0.789   5.166
 9533SOL    HW229499   2.190   0.715   5.311
 9534SOL     OW29500   4.594   2.304   4.728
 9534SOL    HW129501   4.678   2.351   4.698
 9534SOL    HW229502   4.584   2.218   4.677
 9535SOL     OW29503   2.105   1.549   5.528
 9535SOL    HW129504   2.174   1.596   5.474
 9535SOL    HW229505   2.095   1.455   5.494
 9536SOL     OW29506   2.302   6.557   5.717
 9536SOL    HW129507   2.266   6.468   5.745
 9536SOL    HW229508   2.400   6.561   5.739
 9537SOL     OW29509   2.787   6.817   0.857
 9537SOL    HW129510   2.876   6.860   0.840
 9537SOL    HW229511   2.766   6.754   0.782
 9538SOL     OW29512   6.517   3.281   3.825
 9538SOL    HW129513   6.606   3.240   3.808
 9538SOL    HW229514   6.459   3.217   3.876
 9539SOL     OW29515   0.452   5.224   1.118
 9539SOL    HW129516   0.486   5.131   1.104
 9539SOL    HW229517   0.529   5.286   1.131
 9540SOL     OW29518   5.024   4.157   4.550
 9540SOL    HW129519   5.083   4.179   4.472
 9540SOL    HW229520   5.058   4.203   4.631
 9541SOL     OW29521   1.915   1.966   3.874
 9541SOL    HW129522   1.993   2.013   3.833
 9541SOL    HW229523   1.844   2.033   3.896
 9542SOL     OW29524   4.930   3.654   4.484
 9542SOL    HW129525   4.939   3.610   4.574
 9542SOL    HW229526   4.933   3.584   4.413
 9543SOL     OW29527   4.937   2.401   2.396
 9543SOL    HW129528   4.971   2.405   2.302
 9543SOL    HW229529   5.008   2.363   2.455
 9544SOL     OW29530   3.287   1.637   1.882
 9544SOL    HW129531   3.250   1.579   1.810
 9544SOL    HW229532   3.367   1.687   1.848
 9545SOL     OW29533   0.078   6.900   4.001
 9545SOL    HW129534   0.077   7.000   4.009
 9545SOL    HW229535   0.169   6.870   3.973
 9546SOL     OW29536   2.785   4.854   0.875
 9546SOL    HW129537   2.703   4.825   0.826
 9546SOL    HW229538   2.845   4.775   0.889
 9547SOL     OW29539   6.620   6.424   3.057
 9547SOL    HW129540   6.594   6.341   3.008
 9547SOL    HW229541   6.696   6.404   3.118
 9548SOL     OW29542   4.755   6.539   2.971
 9548SOL    HW129543   4.667   6.587   2.982
 9548SOL    HW229544   4.807   6.546   3.056
 9549SOL     OW29545   2.411   6.085   0.689
 9549SOL    HW129546   2.343   6.020   0.655
 9549SOL    HW229547   2.495   6.037   0.712
 9550SOL     OW29548   0.902   1.518   0.548
 9550SOL    HW129549   0.934   1.524   0.453
 9550SOL    HW229550   0.970   1.559   0.608
 9551SOL     OW29551   2.285   6.128   4.893
 9551SOL    HW129552   2.304   6.133   4.795
 9551SOL    HW229553   2.241   6.213   4.923
 9552SOL     OW29554   0.972   5.825   3.621
 9552SOL    HW129555   0.875   5.813   3.643
 9552SOL    HW229556   1.016   5.736   3.613
 9553SOL     OW29557   5.916   4.837   5.124
 9553SOL    HW129558   5.853   4.765   5.094
 9553SOL    HW229559   5.969   4.868   5.045
 9554SOL     OW29560   2.274   1.598   1.775
 9554SOL    HW129561   2.227   1.577   1.861
 9554SOL    HW229562   2.347   1.531   1.759
 9555SOL     OW29563   6.482   2.495   0.161
 9555SOL    HW129564   6.394   2.521   0.200
 9555SOL    HW229565   6.494   2.541   0.073
 9556SOL     OW29566   0.985   1.696   1.533
 9556SOL    HW129567   0.929   1.778   1.545
 9556SOL    HW229568   1.062   1.698   1.598
 9557SOL     OW29569   5.228   2.551   1.525
 9557SOL    HW129570   5.238   2.624   1.592
 9557SOL    HW229571   5.309   2.493   1.525
 9558SOL     OW29572   6.368   5.213   2.317
 9558SOL    HW129573   6.329   5.303   2.337
 9558SOL    HW229574   6.294   5.149   2.294
 9559SOL     OW29575   6.627   2.502   2.407
 9559SOL    HW129576   6.542   2.484   2.356
 9559SOL    HW229577   6.694   2.543   2.345
 9560SOL     OW29578   2.956   1.400   3.888
 9560SOL    HW129579   2.867   1.372   3.922
 9560SOL    HW229580   2.971   1.497   3.910
 9561SOL     OW29581   4.223   0.010   1.290
 9561SOL    HW129582   4.203   0.001   1.388
 9561SOL    HW229583   4.281   6.952   1.261
 9562SOL     OW29584   6.255   5.629   3.020
 9562SOL    HW129585   6.204   5.597   2.941
 9562SOL    HW229586   6.251   5.729   3.024
 9563SOL     OW29587   0.049   5.682   6.609
 9563SOL    HW129588   0.009   5.757   6.661
 9563SOL    HW229589   0.054   5.707   6.513
 9564SOL     OW29590   2.396   6.741   6.685
 9564SOL    HW129591   2.342   6.781   6.611
 9564SOL    HW229592   2.482   6.792   6.695
 9565SOL     OW29593   4.267   6.425   4.594
 9565SOL    HW129594   4.354   6.437   4.642
 9565SOL    HW229595   4.192   6.443   4.657
 9566SOL     OW29596   3.141   4.781   5.188
 9566SOL    HW129597   3.067   4.715   5.179
 9566SOL    HW229598   3.133   4.828   5.276
 9567SOL     OW29599   6.296   5.445   5.853
 9567SOL    HW129600   6.304   5.354   5.894
 9567SOL    HW229601   6.368   5.458   5.785
 9568SOL     OW29602   5.098   3.606   6.812
 9568SOL    HW129603   5.148   3.660   6.880
 9568SOL    HW229604   5.088   3.513   6.845
 9569SOL     OW29605   6.257   0.309   0.717
 9569SOL    HW129606   6.161   0.323   0.694
 9569SOL    HW229607   6.311   0.300   0.633
 9570SOL     OW29608   0.627   0.298   6.654
 9570SOL    HW129609   0.671   0.281   6.741
 9570SOL    HW229610   0.630   0.215   6.598
 9571SOL     OW29611   2.293   3.926   0.377
 9571SOL    HW129612   2.239   4.005   0.407
 9571SOL    HW229613   2.278   3.910   0.280
 9572SOL     OW29614   1.207   4.432   0.822
 9572SOL    HW129615   1.130   4.375   0.850
 9572SOL    HW229616   1.292   4.394   0.859
 9573SOL     OW29617   6.828   1.969   1.526
 9573SOL    HW129618   6.926   1.978   1.545
 9573SOL    HW229619   6.802   2.032   1.453
 9574SOL     OW29620   2.483   1.868   5.132
 9574SOL    HW129621   2.535   1.953   5.119
 9574SOL    HW229622   2.432   1.873   5.218
 9575SOL     OW29623   5.235   1.233   1.620
 9575SOL    HW129624   5.233   1.272   1.528
 9575SOL    HW229625   5.234   1.307   1.687
 9576SOL     OW29626   3.506   1.503   5.549
 9576SOL    HW129627   3.419   1.479   5.592
 9576SOL    HW229628   3.554   1.570   5.605
 9577SOL     OW29629   0.236   6.003   3.142
 9577SOL    HW129630   0.158   5.942   3.125
 9577SOL    HW229631   0.257   6.003   3.240
 9578SOL     OW29632   5.646   3.445   2.038
 9578SOL    HW129633   5.576   3.437   2.109
 9578SOL    HW229634   5.678   3.353   2.013
 9579SOL     OW29635   0.807   6.368   3.005
 9579SOL    HW129636   0.765   6.458   2.989
 9579SOL    HW229637   0.742   6.296   2.979
 9580SOL     OW29638   4.523   4.062   6.101
 9580SOL    HW129639   4.589   4.094   6.033
 9580SOL    HW229640   4.544   4.105   6.189
 9581SOL     OW29641   1.484   5.108   6.668
 9581SOL    HW129642   1.569   5.127   6.619
 9581SOL    HW229643   1.407   5.108   6.604
 9582SOL     OW29644   4.341   4.875   4.533
 9582SOL    HW129645   4.357   4.795   4.475
 9582SOL    HW229646   4.249   4.871   4.571
 9583SOL     OW29647   2.337   4.512   2.048
 9583SOL    HW129648   2.282   4.595   2.033
 9583SOL    HW229649   2.374   4.481   1.961
 9584SOL     OW29650   6.363   5.819   6.210
 9584SOL    HW129651   6.345   5.727   6.173
 9584SOL    HW229652   6.293   5.882   6.177
 9585SOL     OW29653   6.895   6.771   4.185
 9585SOL    HW129654   6.925   6.709   4.257
 9585SOL    HW229655   6.959   6.766   4.108
 9586SOL     OW29656   5.368   3.663   2.573
 9586SOL    HW129657   5.329   3.755   2.576
 9586SOL    HW229658   5.315   3.606   2.510
 9587SOL     OW29659   4.797   6.691   2.636
 9587SOL    HW129660   4.701   6.707   2.613
 9587SOL    HW229661   4.817   6.593   2.632
 9588SOL     OW29662   0.133   0.405   3.220
 9588SOL    HW129663   0.149   0.494   3.262
 9588SOL    HW229664   0.128   0.415   3.121
 9589SOL     OW29665   2.040   1.360   6.129
 9589SOL    HW129666   2.006   1.424   6.060
 9589SOL    HW229667   1.982   1.279   6.132
 9590SOL     OW29668   6.727   4.399   4.829
 9590SOL    HW129669   6.700   4.430   4.738
 9590SOL    HW229670   6.810   4.344   4.821
 9591SOL     OW29671   1.789   4.267   2.186
 9591SOL    HW129672   1.758   4.294   2.095
 9591SOL    HW229673   1.780   4.345   2.248
 9592SOL     OW29674   4.755   5.217   2.161
 9592SOL    HW129675   4.667   5.253   2.131
 9592SOL    HW229676   4.827   5.249   2.099
 9593SOL     OW29677   1.725   2.549   4.118
 9593SOL    HW129678   1.725   2.530   4.216
 9593SOL    HW229679   1.663   2.625   4.098
 9594SOL     OW29680   5.907   6.350   2.011
 9594SOL    HW129681   5.905   6.319   2.106
 9594SOL    HW229682   5.838   6.421   1.998
 9595SOL     OW29683   0.704   4.144   4.639
 9595SOL    HW129684   0.802   4.147   4.660
 9595SOL    HW229685   0.653   4.117   4.720
 9596SOL     OW29686   4.542   5.785   3.093
 9596SOL    HW129687   4.597   5.705   3.114
 9596SOL    HW229688   4.498   5.773   3.004
 9597SOL     OW29689   1.938   3.811   1.216
 9597SOL    HW129690   1.977   3.901   1.237
 9597SOL    HW229691   1.923   3.804   1.117
 9598SOL     OW29692   1.173   5.744   5.766
 9598SOL    HW129693   1.256   5.793   5.793
 9598SOL    HW229694   1.196   5.650   5.743
 9599SOL     OW29695   5.185   1.783   4.514
 9599SOL    HW129696   5.192   1.779   4.414
 9599SOL    HW229697   5.197   1.691   4.551
 9600SOL     OW29698   1.581   6.008   0.118
 9600SOL    HW129699   1.512   5.938   0.140
 9600SOL    HW229700   1.632   5.979   0.037
 9601SOL     OW29701   0.815   5.746   6.271
 9601SOL    HW129702   0.844   5.832   6.228
 9601SOL    HW229703   0.819   5.672   6.204
 9602SOL     OW29704   1.099   5.831   0.436
 9602SOL    HW129705   1.184   5.805   0.483
 9602SOL    HW229706   1.073   5.924   0.463
 9603SOL     OW29707   1.290   4.724   4.054
 9603SOL    HW129708   1.198   4.763   4.051
 9603SOL    HW229709   1.339   4.761   4.133
 9604SOL     OW29710   0.212   6.984   0.730
 9604SOL    HW129711   0.149   0.025   0.679
 9604SOL    HW229712   0.241   0.013   0.813
 9605SOL     OW29713   2.224   5.762   6.672
 9605SOL    HW129714   2.227   5.749   6.771
 9605SOL    HW229715   2.183   5.680   6.629
 9606SOL     OW29716   0.015   6.904   4.436
 9606SOL    HW129717   6.986   6.907   4.525
 9606SOL    HW229718   0.057   6.814   4.424
 9607SOL     OW29719   0.298   3.063   1.385
 9607SOL    HW129720   0.200   3.042   1.392
 9607SOL    HW229721   0.351   2.982   1.408
 9608SOL     OW29722   6.606   6.175   2.930
 9608SOL    HW129723   6.552   6.092   2.937
 9608SOL    HW229724   6.691   6.156   2.880
 9609SOL     OW29725   2.161   2.270   3.488
 9609SOL    HW129726   2.236   2.319   3.445
 9609SOL    HW229727   2.089   2.254   3.420
 9610SOL     OW29728   3.214   2.242   6.001
 9610SOL    HW129729   3.177   2.256   6.092
 9610SOL    HW229730   3.313   2.232   6.005
 9611SOL     OW29731   5.771   5.964   0.811
 9611SOL    HW129732   5.719   6.012   0.741
 9611SOL    HW229733   5.800   6.028   0.881
 9612SOL     OW29734   5.461   3.508   2.762
 9612SOL    HW129735   5.418   3.564   2.691
 9612SOL    HW229736   5.481   3.417   2.725
 9613SOL     OW29737   5.424   6.410   5.629
 9613SOL    HW129738   5.508   6.431   5.579
 9613SOL    HW229739   5.369   6.344   5.578
 9614SOL     OW29740   3.113   3.010   2.245
 9614SOL    HW129741   3.155   3.060   2.169
 9614SOL    HW229742   3.015   3.030   2.247
 9615SOL     OW29743   1.004   6.030   4.157
 9615SOL    HW129744   0.997   6.065   4.063
 9615SOL    HW229745   1.095   5.990   4.171
 9616SOL     OW29746   2.315   3.295   1.429
 9616SOL    HW129747   2.277   3.205   1.450
 9616SOL    HW229748   2.360   3.293   1.339
 9617SOL     OW29749   0.911   3.486   2.519
 9617SOL    HW129750   0.831   3.426   2.511
 9617SOL    HW229751   0.903   3.540   2.603
 9618SOL     OW29752   4.061   4.985   0.655
 9618SOL    HW129753   4.124   5.015   0.727
 9618SOL    HW229754   4.055   4.885   0.656
 9619SOL     OW29755   1.776   6.865   1.051
 9619SOL    HW129756   1.815   6.928   1.117
 9619SOL    HW229757   1.807   6.888   0.959
 9620SOL     OW29758   3.596   1.668   0.098
 9620SOL    HW129759   3.510   1.634   0.135
 9620SOL    HW229760   3.654   1.592   0.072
 9621SOL     OW29761   1.188   2.163   1.686
 9621SOL    HW129762   1.202   2.113   1.772
 9621SOL    HW229763   1.211   2.103   1.609
 9622SOL     OW29764   6.993   6.522   5.558
 9622SOL    HW129765   6.898   6.554   5.553
 9622SOL    HW229766   0.033   6.596   5.592
 9623SOL     OW29767   4.656   6.538   6.067
 9623SOL    HW129768   4.645   6.443   6.038
 9623SOL    HW229769   4.719   6.585   6.006
 9624SOL     OW29770   4.932   5.422   5.320
 9624SOL    HW129771   4.862   5.378   5.263
 9624SOL    HW229772   5.022   5.407   5.280
 9625SOL     OW29773   4.496   3.553   5.664
 9625SOL    HW129774   4.545   3.506   5.591
 9625SOL    HW229775   4.469   3.487   5.734
 9626SOL     OW29776   2.188   2.105   5.921
 9626SOL    HW129777   2.159   2.192   5.882
 9626SOL    HW229778   2.270   2.073   5.873
 9627SOL     OW29779   0.458   5.552   6.650
 9627SOL    HW129780   0.486   5.629   6.592
 9627SOL    HW229781   0.385   5.582   6.712
 9628SOL     OW29782   6.045   1.547   6.452
 9628SOL    HW129783   6.036   1.512   6.359
 9628SOL    HW229784   5.998   1.485   6.516
 9629SOL     OW29785   0.934   5.669   4.629
 9629SOL    HW129786   0.853   5.621   4.598
 9629SOL    HW229787   0.969   5.727   4.556
 9630SOL     OW29788   5.869   6.858   5.632
 9630SOL    HW129789   5.777   6.895   5.643
 9630SOL    HW229790   5.917   6.909   5.561
 9631SOL     OW29791   3.514   0.205   0.893
 9631SOL    HW129792   3.419   0.176   0.901
 9631SOL    HW229793   3.563   0.141   0.833
 9632SOL     OW29794   3.273   5.131   2.399
 9632SOL    HW129795   3.221   5.094   2.476
 9632SOL    HW229796   3.326   5.210   2.430
 9633SOL     OW29797   3.583   2.898   2.860
 9633SOL    HW129798   3.557   2.981   2.910
 9633SOL    HW229799   3.530   2.894   2.775
 9634SOL     OW29800   5.847   4.684   3.617
 9634SOL    HW129801   5.934   4.646   3.585
 9634SOL    HW229802   5.861   4.777   3.650
 9635SOL     OW29803   1.367   5.344   3.957
 9635SOL    HW129804   1.359   5.245   3.964
 9635SOL    HW229805   1.460   5.372   3.982
 9636SOL     OW29806   4.906   3.779   3.905
 9636SOL    HW129807   4.825   3.722   3.891
 9636SOL    HW229808   4.989   3.724   3.895
 9637SOL     OW29809   2.224   3.567   6.847
 9637SOL    HW129810   2.313   3.524   6.864
 9637SOL    HW229811   2.154   3.495   6.836
 9638SOL     OW29812   5.796   5.522   5.356
 9638SOL    HW129813   5.711   5.513   5.305
 9638SOL    HW229814   5.867   5.560   5.296
 9639SOL     OW29815   4.073   1.950   2.337
 9639SOL    HW129816   4.156   1.972   2.388
 9639SOL    HW229817   4.028   2.035   2.309
 9640SOL     OW29818   4.746   0.490   3.317
 9640SOL    HW129819   4.673   0.524   3.376
 9640SOL    HW229820   4.780   0.404   3.352
 9641SOL     OW29821   6.839   3.758   3.153
 9641SOL    HW129822   6.801   3.688   3.092
 9641SOL    HW229823   6.813   3.849   3.121
 9642SOL     OW29824   1.485   0.647   4.565
 9642SOL    HW129825   1.481   0.579   4.492
 9642SOL    HW229826   1.412   0.630   4.631
 9643SOL     OW29827   4.746   4.911   4.606
 9643SOL    HW129828   4.789   5.001   4.608
 9643SOL    HW229829   4.680   4.907   4.531
 9644SOL     OW29830   2.081   5.404   4.057
 9644SOL    HW129831   2.106   5.490   4.011
 9644SOL    HW229832   2.159   5.341   4.053
 9645SOL     OW29833   0.610   4.869   5.999
 9645SOL    HW129834   0.627   4.839   6.093
 9645SOL    HW229835   0.512   4.866   5.980
 9646SOL     OW29836   3.950   5.268   6.234
 9646SOL    HW129837   3.930   5.198   6.165
 9646SOL    HW229838   3.872   5.329   6.243
 9647SOL     OW29839   6.940   0.055   3.457
 9647SOL    HW129840   6.852   0.044   3.503
 9647SOL    HW229841   6.997   6.993   3.475
 9648SOL     OW29842   4.087   2.651   1.014
 9648SOL    HW129843   4.003   2.632   0.964
 9648SOL    HW229844   4.108   2.574   1.075
 9649SOL     OW29845   1.021   5.776   6.746
 9649SOL    HW129846   0.927   5.744   6.731
 9649SOL    HW229847   1.032   5.803   6.841
 9650SOL     OW29848   6.828   4.501   4.512
 9650SOL    HW129849   6.794   4.548   4.431
 9650SOL    HW229850   6.787   4.410   4.518
 9651SOL     OW29851   4.092   1.855   0.150
 9651SOL    HW129852   4.049   1.843   0.061
 9651SOL    HW229853   4.190   1.836   0.143
 9652SOL     OW29854   0.084   3.774   0.350
 9652SOL    HW129855   0.083   3.682   0.310
 9652SOL    HW229856   0.111   3.840   0.281
 9653SOL     OW29857   4.409   4.486   6.027
 9653SOL    HW129858   4.339   4.450   6.088
 9653SOL    HW229859   4.450   4.411   5.976
 9654SOL     OW29860   3.206   3.403   2.926
 9654SOL    HW129861   3.170   3.416   2.833
 9654SOL    HW229862   3.130   3.404   2.991
 9655SOL     OW29863   4.077   1.206   1.456
 9655SOL    HW129864   4.036   1.268   1.388
 9655SOL    HW229865   4.175   1.198   1.439
 9656SOL     OW29866   5.910   3.508   0.087
 9656SOL    HW129867   5.871   3.418   0.107
 9656SOL    HW229868   5.923   3.518   7.007
 9657SOL     OW29869   6.400   4.303   3.773
 9657SOL    HW129870   6.333   4.346   3.834
 9657SOL    HW229871   6.447   4.374   3.720
 9658SOL     OW29872   4.818   2.377   2.854
 9658SOL    HW129873   4.903   2.338   2.820
 9658SOL    HW229874   4.815   2.475   2.833
 9659SOL     OW29875   2.794   3.380   0.120
 9659SOL    HW129876   2.879   3.420   0.153
 9659SOL    HW229877   2.789   3.284   0.147
 9660SOL     OW29878   1.614   5.979   1.848
 9660SOL    HW129879   1.537   6.008   1.792
 9660SOL    HW229880   1.680   6.054   1.855
 9661SOL     OW29881   4.789   4.096   0.970
 9661SOL    HW129882   4.721   4.023   0.972
 9661SOL    HW229883   4.779   4.149   0.886
 9662SOL     OW29884   5.582   5.580   6.351
 9662SOL    HW129885   5.512   5.509   6.342
 9662SOL    HW229886   5.612   5.585   6.446
 9663SOL     OW29887   0.941   5.442   2.870
 9663SOL    HW129888   1.022   5.391   2.898
 9663SOL    HW229889   0.921   5.423   2.774
 9664SOL     OW29890   4.972   4.510   2.515
 9664SOL    HW129891   5.040   4.442   2.544
 9664SOL    HW229892   4.960   4.505   2.416
 9665SOL     OW29893   6.611   5.903   6.273
 9665SOL    HW129894   6.522   5.866   6.247
 9665SOL    HW229895   6.671   5.906   6.193
 9666SOL     OW29896   6.136   3.977   0.147
 9666SOL    HW129897   6.134   4.050   0.216
 9666SOL    HW229898   6.044   3.938   0.138
 9667SOL     OW29899   6.138   5.978   6.204
 9667SOL    HW129900   6.154   6.064   6.155
 9667SOL    HW229901   6.074   5.995   6.279
 9668SOL     OW29902   0.910   0.428   6.163
 9668SOL    HW129903   0.917   0.331   6.139
 9668SOL    HW229904   0.843   0.439   6.236
 9669SOL     OW29905   3.764   0.318   0.213
 9669SOL    HW129906   3.715   0.398   0.248
 9669SOL    HW229907   3.764   0.246   0.282
 9670SOL     OW29908   6.951   0.199   6.907
 9670SOL    HW129909   6.939   0.299   6.905
 9670SOL    HW229910   6.893   0.160   6.979
 9671SOL     OW29911   0.982   5.237   0.079
 9671SOL    HW129912   1.030   5.285   0.006
 9671SOL    HW229913   0.884   5.255   0.073
 9672SOL     OW29914   1.120   3.484   3.600
 9672SOL    HW129915   1.055   3.411   3.622
 9672SOL    HW229916   1.126   3.494   3.500
 9673SOL     OW29917   1.854   3.501   0.662
 9673SOL    HW129918   1.903   3.543   0.586
 9673SOL    HW229919   1.892   3.410   0.679
 9674SOL     OW29920   2.856   6.430   4.061
 9674SOL    HW129921   2.877   6.503   4.126
 9674SOL    HW229922   2.932   6.420   3.997
 9675SOL     OW29923   5.665   3.138   0.061
 9675SOL    HW129924   5.578   3.098   0.090
 9675SOL    HW229925   5.733   3.128   0.134
 9676SOL     OW29926   0.345   3.016   0.035
 9676SOL    HW129927   0.257   3.006   0.082
 9676SOL    HW229928   0.410   3.061   0.096
 9677SOL     OW29929   0.386   4.709   1.136
 9677SOL    HW129930   0.341   4.789   1.096
 9677SOL    HW229931   0.449   4.738   1.207
 9678SOL     OW29932   3.358   3.666   5.120
 9678SOL    HW129933   3.297   3.662   5.042
 9678SOL    HW229934   3.324   3.605   5.192
 9679SOL     OW29935   1.612   1.814   4.484
 9679SOL    HW129936   1.625   1.799   4.582
 9679SOL    HW229937   1.525   1.773   4.456
 9680SOL     OW29938   4.972   6.280   1.873
 9680SOL    HW129939   5.058   6.283   1.822
 9680SOL    HW229940   4.968   6.355   1.938
 9681SOL     OW29941   1.643   1.504   1.474
 9681SOL    HW129942   1.692   1.571   1.530
 9681SOL    HW229943   1.545   1.520   1.479
 9682SOL     OW29944   4.249   5.733   5.601
 9682SOL    HW129945   4.241   5.650   5.546
 9682SOL    HW229946   4.330   5.785   5.572
 9683SOL     OW29947   3.163   6.846   2.716
 9683SOL    HW129948   3.144   6.889   2.628
 9683SOL    HW229949   3.132   6.905   2.790
 9684SOL     OW29950   0.317   3.358   5.600
 9684SOL    HW129951   0.313   3.363   5.700
 9684SOL    HW229952   0.320   3.451   5.562
 9685SOL     OW29953   3.925   4.142   1.388
 9685SOL    HW129954   3.989   4.186   1.326
 9685SOL    HW229955   3.839   4.194   1.390
 9686SOL     OW29956   6.511   1.817   5.505
 9686SOL    HW129957   6.570   1.736   5.507
 9686SOL    HW229958   6.532   1.872   5.424
 9687SOL     OW29959   6.054   1.516   2.693
 9687SOL    HW129960   5.966   1.556   2.720
 9687SOL    HW229961   6.126   1.584   2.705
 9688SOL     OW29962   0.365   4.449   1.179
 9688SOL    HW129963   0.373   4.546   1.156
 9688SOL    HW229964   0.268   4.424   1.181
 9689SOL     OW29965   2.107   6.022   1.239
 9689SOL    HW129966   2.007   6.017   1.237
 9689SOL    HW229967   2.137   6.112   1.208
 9690SOL     OW29968   6.291   5.477   4.647
 9690SOL    HW129969   6.305   5.572   4.622
 9690SOL    HW229970   6.323   5.417   4.574
 9691SOL     OW29971   3.099   3.730   1.857
 9691SOL    HW129972   3.158   3.728   1.777
 9691SOL    HW229973   3.015   3.680   1.837
 9692SOL     OW29974   5.115   4.440   1.126
 9692SOL    HW129975   5.087   4.376   1.197
 9692SOL    HW229976   5.108   4.534   1.161
 9693SOL     OW29977   5.383   3.469   4.749
 9693SOL    HW129978   5.340   3.558   4.763
 9693SOL    HW229979   5.455   3.456   4.817
 9694SOL     OW29980   2.861   6.994   2.485
 9694SOL    HW129981   2.834   6.968   2.578
 9694SOL    HW229982   2.956   6.968   2.469
 9695SOL     OW29983   0.802   2.291   3.097
 9695SOL    HW129984   0.798   2.226   3.173
 9695SOL    HW229985   0.709   2.309   3.064
 9696SOL     OW29986   5.179   2.455   3.181
 9696SOL    HW129987   5.130   2.384   3.232
 9696SOL    HW229988   5.141   2.462   3.088
 9697SOL     OW29989   0.853   6.907   1.040
 9697SOL    HW129990   0.939   6.880   0.995
 9697SOL    HW229991   0.870   6.920   1.138
 9698SOL     OW29992   6.225   3.673   1.548
 9698SOL    HW129993   6.203   3.746   1.612
 9698SOL    HW229994   6.325   3.665   1.539
 9699SOL     OW29995   1.211   5.621   0.748
 9699SOL    HW129996   1.261   5.644   0.665
 9699SOL    HW229997   1.118   5.656   0.742
 9700SOL     OW29998   5.316   0.035   5.148
 9700SOL    HW129999   5.350   7.010   5.232
 9700SOL    HW230000   5.246   0.103   5.172
 9701SOL     OW30001   4.487   3.500   6.486
 9701SOL    HW130002   4.499   3.589   6.442
 9701SOL    HW230003   4.470   3.512   6.583
 9702SOL     OW30004   3.869   3.654   1.824
 9702SOL    HW130005   3.897   3.600   1.744
 9702SOL    HW230006   3.950   3.682   1.876
 9703SOL     OW30007   6.448   4.307   4.797
 9703SOL    HW130008   6.431   4.268   4.888
 9703SOL    HW230009   6.523   4.373   4.803
 9704SOL     OW30010   1.859   3.871   2.790
 9704SOL    HW130011   1.833   3.775   2.801
 9704SOL    HW230012   1.782   3.930   2.813
 9705SOL     OW30013   6.009   3.381   5.819
 9705SOL    HW130014   5.997   3.459   5.758
 9705SOL    HW230015   5.920   3.353   5.854
 9706SOL     OW30016   0.597   1.361   2.373
 9706SOL    HW130017   0.666   1.398   2.310
 9706SOL    HW230018   0.586   1.263   2.356
 9707SOL     OW30019   1.083   4.560   2.342
 9707SOL    HW130020   1.005   4.548   2.404
 9707SOL    HW230021   1.162   4.591   2.395
 9708SOL     OW30022   2.243   0.318   1.765
 9708SOL    HW130023   2.171   0.288   1.827
 9708SOL    HW230024   2.311   0.246   1.753
 9709SOL     OW30025   5.035   2.241   1.514
 9709SOL    HW130026   5.040   2.338   1.538
 9709SOL    HW230027   4.953   2.201   1.556
 9710SOL     OW30028   6.945   5.563   3.579
 9710SOL    HW130029   7.002   5.491   3.617
 9710SOL    HW230030   6.908   5.534   3.491
 9711SOL     OW30031   3.897   0.810   0.906
 9711SOL    HW130032   3.877   0.712   0.904
 9711SOL    HW230033   3.842   0.856   0.835
 9712SOL     OW30034   5.677   2.085   6.619
 9712SOL    HW130035   5.620   2.095   6.701
 9712SOL    HW230036   5.725   1.998   6.622
 9713SOL     OW30037   0.888   6.812   3.222
 9713SOL    HW130038   0.984   6.794   3.245
 9713SOL    HW230039   0.880   6.831   3.124
 9714SOL     OW30040   2.347   4.385   4.139
 9714SOL    HW130041   2.399   4.438   4.206
 9714SOL    HW230042   2.292   4.315   4.185
 9715SOL     OW30043   6.448   3.517   6.426
 9715SOL    HW130044   6.462   3.570   6.343
 9715SOL    HW230045   6.353   3.487   6.431
 9716SOL     OW30046   2.267   5.093   6.867
 9716SOL    HW130047   2.252   5.079   6.769
 9716SOL    HW230048   2.243   5.187   6.891
 9717SOL     OW30049   3.880   1.977   5.412
 9717SOL    HW130050   3.890   2.023   5.324
 9717SOL    HW230051   3.804   1.913   5.408
 9718SOL     OW30052   3.752   3.042   6.742
 9718SOL    HW130053   3.663   3.016   6.705
 9718SOL    HW230054   3.804   2.959   6.764
 9719SOL     OW30055   4.661   6.966   5.636
 9719SOL    HW130056   4.724   7.009   5.700
 9719SOL    HW230057   4.694   6.981   5.542
 9720SOL     OW30058   1.994   3.367   3.181
 9720SOL    HW130059   2.014   3.387   3.085
 9720SOL    HW230060   1.897   3.383   3.199
 9721SOL     OW30061   0.682   1.082   0.182
 9721SOL    HW130062   0.603   1.057   0.237
 9721SOL    HW230063   0.755   1.015   0.196
 9722SOL     OW30064   4.076   2.857   5.348
 9722SOL    HW130065   4.046   2.811   5.431
 9722SOL    HW230066   4.020   2.827   5.271
 9723SOL     OW30067   6.743   6.888   5.009
 9723SOL    HW130068   6.674   6.840   5.062
 9723SOL    HW230069   6.756   6.842   4.921
 9724SOL     OW30070   1.349   5.281   0.108
 9724SOL    HW130071   1.292   5.359   0.085
 9724SOL    HW230072   1.409   5.260   0.031
 9725SOL     OW30073   4.096   5.451   5.708
 9725SOL    HW130074   4.117   5.540   5.747
 9725SOL    HW230075   4.109   5.380   5.777
 9726SOL     OW30076   6.773   1.186   4.183
 9726SOL    HW130077   6.740   1.278   4.159
 9726SOL    HW230078   6.862   1.170   4.140
 9727SOL     OW30079   0.202   1.201   0.731
 9727SOL    HW130080   0.212   1.287   0.780
 9727SOL    HW230081   0.243   1.209   0.640
 9728SOL     OW30082   4.714   1.726   5.191
 9728SOL    HW130083   4.728   1.813   5.237
 9728SOL    HW230084   4.795   1.669   5.201
 9729SOL     OW30085   0.567   5.058   2.667
 9729SOL    HW130086   0.585   4.961   2.687
 9729SOL    HW230087   0.470   5.070   2.646
 9730SOL     OW30088   0.387   4.071   2.737
 9730SOL    HW130089   0.310   4.111   2.787
 9730SOL    HW230090   0.364   3.978   2.711
 9731SOL     OW30091   5.375   3.410   1.925
 9731SOL    HW130092   5.437   3.390   1.849
 9731SOL    HW230093   5.387   3.505   1.953
 9732SOL     OW30094   1.809   3.081   3.220
 9732SOL    HW130095   1.817   2.983   3.237
 9732SOL    HW230096   1.896   3.125   3.239
 9733SOL     OW30097   6.374   4.784   2.090
 9733SOL    HW130098   6.285   4.799   2.133
 9733SOL    HW230099   6.414   4.873   2.065
 9734SOL     OW30100   6.134   6.222   6.082
 9734SOL    HW130101   6.112   6.213   5.985
 9734SOL    HW230102   6.225   6.262   6.092
 9735SOL     OW30103   0.529   2.733   0.988
 9735SOL    HW130104   0.532   2.648   0.936
 9735SOL    HW230105   0.600   2.732   1.059
 9736SOL     OW30106   5.350   1.567   4.749
 9736SOL    HW130107   5.422   1.600   4.687
 9736SOL    HW230108   5.392   1.524   4.829
 9737SOL     OW30109   5.770   2.857   2.967
 9737SOL    HW130110   5.746   2.945   2.926
 9737SOL    HW230111   5.702   2.834   3.037
 9738SOL     OW30112   2.212   6.184   1.676
 9738SOL    HW130113   2.290   6.125   1.655
 9738SOL    HW230114   2.208   6.202   1.774
 9739SOL     OW30115   5.805   0.279   6.876
 9739SOL    HW130116   5.849   0.365   6.851
 9739SOL    HW230117   5.831   0.254   6.969
 9740SOL     OW30118   5.978   0.451   2.732
 9740SOL    HW130119   5.993   0.550   2.738
 9740SOL    HW230120   6.064   0.403   2.749
 9741SOL     OW30121   2.715   1.515   4.454
 9741SOL    HW130122   2.727   1.498   4.552
 9741SOL    HW230123   2.622   1.491   4.427
 9742SOL     OW30124   3.801   1.682   6.100
 9742SOL    HW130125   3.839   1.772   6.123
 9742SOL    HW230126   3.705   1.692   6.077
 9743SOL     OW30127   4.908   3.561   4.210
 9743SOL    HW130128   4.853   3.643   4.220
 9743SOL    HW230129   4.889   3.518   4.122
 9744SOL     OW30130   1.551   0.702   3.608
 9744SOL    HW130131   1.478   0.756   3.567
 9744SOL    HW230132   1.558   0.614   3.561
 9745SOL     OW30133   0.141   0.220   5.711
 9745SOL    HW130134   0.085   0.139   5.690
 9745SOL    HW230135   0.153   0.228   5.810
 9746SOL     OW30136   4.431   5.343   6.516
 9746SOL    HW130137   4.390   5.407   6.450
 9746SOL    HW230138   4.398   5.251   6.497
 9747SOL     OW30139   2.455   1.956   2.922
 9747SOL    HW130140   2.530   1.947   2.988
 9747SOL    HW230141   2.464   2.043   2.873
 9748SOL     OW30142   1.655   1.202   3.808
 9748SOL    HW130143   1.731   1.160   3.859
 9748SOL    HW230144   1.684   1.290   3.772
 9749SOL     OW30145   6.611   1.283   2.160
 9749SOL    HW130146   6.549   1.292   2.083
 9749SOL    HW230147   6.679   1.356   2.157
 9750SOL     OW30148   6.540   3.175   4.269
 9750SOL    HW130149   6.579   3.265   4.247
 9750SOL    HW230150   6.524   3.124   4.185
 9751SOL     OW30151   2.892   0.240   1.762
 9751SOL    HW130152   2.921   0.336   1.760
 9751SOL    HW230153   2.944   0.188   1.695
 9752SOL     OW30154   3.217   3.306   6.512
 9752SOL    HW130155   3.207   3.225   6.570
 9752SOL    HW230156   3.291   3.363   6.547
 9753SOL     OW30157   6.975   6.414   5.237
 9753SOL    HW130158   6.918   6.416   5.320
 9753SOL    HW230159   6.975   6.505   5.196
 9754SOL     OW30160   3.221   0.943   1.714
 9754SOL    HW130161   3.318   0.962   1.697
 9754SOL    HW230162   3.165   0.997   1.651
 9755SOL     OW30163   3.239   4.581   0.547
 9755SOL    HW130164   3.159   4.636   0.570
 9755SOL    HW230165   3.311   4.640   0.510
 9756SOL     OW30166   5.888   0.343   5.929
 9756SOL    HW130167   5.876   0.249   5.897
 9756SOL    HW230168   5.960   0.387   5.875
 9757SOL     OW30169   5.174   4.167   4.032
 9757SOL    HW130170   5.132   4.251   3.999
 9757SOL    HW230171   5.191   4.173   4.130
 9758SOL     OW30172   1.830   0.310   1.787
 9758SOL    HW130173   1.818   0.254   1.704
 9758SOL    HW230174   1.912   0.279   1.835
 9759SOL     OW30175   6.844   1.113   1.356
 9759SOL    HW130176   6.897   1.166   1.422
 9759SOL    HW230177   6.781   1.052   1.405
 9760SOL     OW30178   4.106   1.185   0.057
 9760SOL    HW130179   4.109   1.272   0.108
 9760SOL    HW230180   4.166   1.191   6.996
 9761SOL     OW30181   1.309   1.947   0.897
 9761SOL    HW130182   1.233   1.908   0.949
 9761SOL    HW230183   1.306   1.912   0.803
 9762SOL     OW30184   2.558   1.592   5.901
 9762SOL    HW130185   2.640   1.549   5.937
 9762SOL    HW230186   2.486   1.523   5.891
 9763SOL     OW30187   6.307   0.927   0.622
 9763SOL    HW130188   6.331   0.853   0.686
 9763SOL    HW230189   6.390   0.976   0.596
 9764SOL     OW30190   6.697   2.482   2.087
 9764SOL    HW130191   6.710   2.575   2.123
 9764SOL    HW230192   6.710   2.483   1.988
 9765SOL     OW30193   6.524   0.455   2.052
 9765SOL    HW130194   6.513   0.545   2.094
 9765SOL    HW230195   6.518   0.463   1.953
 9766SOL     OW30196   2.258   2.166   4.824
 9766SOL    HW130197   2.325   2.202   4.888
 9766SOL    HW230198   2.305   2.109   4.756
 9767SOL     OW30199   2.178   3.146   5.706
 9767SOL    HW130200   2.193   3.049   5.687
 9767SOL    HW230201   2.244   3.177   5.774
 9768SOL     OW30202   5.645   3.023   1.346
 9768SOL    HW130203   5.611   2.946   1.291
 9768SOL    HW230204   5.741   3.039   1.324
 9769SOL     OW30205   3.015   1.811   5.131
 9769SOL    HW130206   3.104   1.844   5.163
 9769SOL    HW230207   2.949   1.886   5.136
 9770SOL     OW30208   2.876   2.627   6.427
 9770SOL    HW130209   2.845   2.551   6.369
 9770SOL    HW230210   2.972   2.647   6.407
 9771SOL     OW30211   2.968   6.352   2.622
 9771SOL    HW130212   3.062   6.323   2.604
 9771SOL    HW230213   2.959   6.380   2.717
 9772SOL     OW30214   1.346   0.243   1.303
 9772SOL    HW130215   1.368   0.327   1.353
 9772SOL    HW230216   1.369   0.163   1.358
 9773SOL     OW30217   5.236   4.562   2.218
 9773SOL    HW130218   5.234   4.622   2.297
 9773SOL    HW230219   5.302   4.488   2.234
 9774SOL     OW30220   1.283   5.373   5.281
 9774SOL    HW130221   1.237   5.298   5.233
 9774SOL    HW230222   1.361   5.338   5.332
 9775SOL     OW30223   2.326   1.480   3.772
 9775SOL    HW130224   2.340   1.495   3.870
 9775SOL    HW230225   2.251   1.540   3.741
 9776SOL     OW30226   2.149   5.368   6.942
 9776SOL    HW130227   2.076   5.372   7.010
 9776SOL    HW230228   2.226   5.424   6.973
 9777SOL     OW30229   4.487   0.874   5.463
 9777SOL    HW130230   4.391   0.861   5.436
 9777SOL    HW230231   4.499   0.966   5.499
 9778SOL     OW30232   0.322   3.604   4.309
 9778SOL    HW130233   0.376   3.574   4.231
 9778SOL    HW230234   0.257   3.674   4.279
 9779SOL     OW30235   2.215   0.948   3.861
 9779SOL    HW130236   2.135   0.916   3.912
 9779SOL    HW230237   2.246   0.875   3.800
 9780SOL     OW30238   1.042   2.603   1.530
 9780SOL    HW130239   1.005   2.545   1.603
 9780SOL    HW230240   1.136   2.630   1.554
 9781SOL     OW30241   2.138   2.628   3.338
 9781SOL    HW130242   2.106   2.535   3.322
 9781SOL    HW230243   2.097   2.663   3.422
 9782SOL     OW30244   6.697   2.441   1.178
 9782SOL    HW130245   6.730   2.488   1.260
 9782SOL    HW230246   6.641   2.504   1.124
 9783SOL     OW30247   3.528   1.132   3.338
 9783SOL    HW130248   3.570   1.080   3.264
 9783SOL    HW230249   3.489   1.070   3.405
 9784SOL     OW30250   1.498   1.380   6.228
 9784SOL    HW130251   1.483   1.293   6.275
 9784SOL    HW230252   1.524   1.362   6.133
 9785SOL     OW30253   0.458   3.379   5.064
 9785SOL    HW130254   0.380   3.316   5.069
 9785SOL    HW230255   0.539   3.333   5.102
 9786SOL     OW30256   2.131   4.186   0.746
 9786SOL    HW130257   2.193   4.231   0.810
 9786SOL    HW230258   2.066   4.130   0.798
 9787SOL     OW30259   3.259   3.672   3.376
 9787SOL    HW130260   3.341   3.724   3.350
 9787SOL    HW230261   3.237   3.607   3.303
 9788SOL     OW30262   5.277   6.709   1.966
 9788SOL    HW130263   5.274   6.672   2.059
 9788SOL    HW230264   5.338   6.787   1.963
 9789SOL     OW30265   3.735   1.032   6.102
 9789SOL    HW130266   3.674   0.980   6.161
 9789SOL    HW230267   3.714   1.011   6.006
 9790SOL     OW30268   0.275   4.550   4.188
 9790SOL    HW130269   0.194   4.609   4.188
 9790SOL    HW230270   0.299   4.526   4.282
 9791SOL     OW30271   1.214   6.585   0.830
 9791SOL    HW130272   1.243   6.589   0.735
 9791SOL    HW230273   1.293   6.564   0.888
 9792SOL     OW30274   4.120   6.434   0.268
 9792SOL    HW130275   4.095   6.359   0.206
 9792SOL    HW230276   4.043   6.453   0.328
 9793SOL     OW30277   5.386   1.015   3.303
 9793SOL    HW130278   5.457   0.990   3.369
 9793SOL    HW230279   5.352   0.933   3.257
 9794SOL     OW30280   4.592   4.898   4.831
 9794SOL    HW130281   4.669   4.904   4.767
 9794SOL    HW230282   4.532   4.823   4.804
 9795SOL     OW30283   1.739   3.826   3.155
 9795SOL    HW130284   1.703   3.815   3.062
 9795SOL    HW230285   1.839   3.834   3.152
 9796SOL     OW30286   3.727   3.739   3.586
 9796SOL    HW130287   3.797   3.783   3.642
 9796SOL    HW230288   3.758   3.648   3.558
 9797SOL     OW30289   3.085   5.957   6.792
 9797SOL    HW130290   3.181   5.936   6.776
 9797SOL    HW230291   3.077   6.046   6.836
 9798SOL     OW30292   0.970   3.795   0.113
 9798SOL    HW130293   0.925   3.865   0.168
 9798SOL    HW230294   1.058   3.829   0.082
 9799SOL     OW30295   3.086   0.264   6.767
 9799SOL    HW130296   3.093   0.244   6.865
 9799SOL    HW230297   2.992   0.289   6.745
 9800SOL     OW30298   6.537   3.578   4.803
 9800SOL    HW130299   6.469   3.520   4.758
 9800SOL    HW230300   6.606   3.606   4.737
 9801SOL     OW30301   6.317   6.253   6.747
 9801SOL    HW130302   6.356   6.296   6.828
 9801SOL    HW230303   6.381   6.184   6.712
 9802SOL     OW30304   3.876   4.675   0.302
 9802SOL    HW130305   3.869   4.607   0.375
 9802SOL    HW230306   3.920   4.758   0.337
 9803SOL     OW30307   0.784   3.741   6.735
 9803SOL    HW130308   0.699   3.786   6.764
 9803SOL    HW230309   0.778   3.643   6.753
 9804SOL     OW30310   0.086   5.827   2.513
 9804SOL    HW130311   0.138   5.742   2.510
 9804SOL    HW230312   0.118   5.888   2.441
 9805SOL     OW30313   0.824   6.430   3.928
 9805SOL    HW130314   0.828   6.354   3.863
 9805SOL    HW230315   0.782   6.400   4.013
 9806SOL     OW30316   3.361   1.827   6.269
 9806SOL    HW130317   3.326   1.839   6.362
 9806SOL    HW230318   3.285   1.812   6.206
 9807SOL     OW30319   3.399   3.662   2.049
 9807SOL    HW130320   3.359   3.749   2.076
 9807SOL    HW230321   3.491   3.677   2.012
 9808SOL     OW30322   4.318   5.770   2.907
 9808SOL    HW130323   4.332   5.860   2.867
 9808SOL    HW230324   4.222   5.742   2.895
 9809SOL     OW30325   6.993   3.166   1.030
 9809SOL    HW130326   6.917   3.101   1.034
 9809SOL    HW230327   6.961   3.252   0.990
 9810SOL     OW30328   2.507   1.523   6.801
 9810SOL    HW130329   2.455   1.554   6.881
 9810SOL    HW230330   2.604   1.545   6.814
 9811SOL     OW30331   6.622   3.890   3.826
 9811SOL    HW130332   6.604   3.961   3.894
 9811SOL    HW230333   6.536   3.860   3.786
 9812SOL     OW30334   3.275   6.265   5.170
 9812SOL    HW130335   3.364   6.305   5.152
 9812SOL    HW230336   3.224   6.257   5.084
 9813SOL     OW30337   4.903   2.251   1.224
 9813SOL    HW130338   4.929   2.272   1.318
 9813SOL    HW230339   4.849   2.167   1.222
 9814SOL     OW30340   5.812   1.243   0.468
 9814SOL    HW130341   5.911   1.248   0.479
 9814SOL    HW230342   5.778   1.328   0.427
 9815SOL     OW30343   4.471   2.204   4.938
 9815SOL    HW130344   4.540   2.238   4.874
 9815SOL    HW230345   4.491   2.109   4.961
 9816SOL     OW30346   1.746   6.749   0.109
 9816SOL    HW130347   1.650   6.748   0.081
 9816SOL    HW230348   1.804   6.769   0.030
 9817SOL     OW30349   0.008   6.719   3.260
 9817SOL    HW130350   6.928   6.727   3.272
 9817SOL    HW230351   0.035   6.762   3.173
 9818SOL     OW30352   6.783   2.371   4.352
 9818SOL    HW130353   6.830   2.410   4.430
 9818SOL    HW230354   6.843   2.307   4.305
 9819SOL     OW30355   3.727   1.080   3.707
 9819SOL    HW130356   3.710   1.100   3.803
 9819SOL    HW230357   3.823   1.098   3.686
 9820SOL     OW30358   4.619   3.771   5.748
 9820SOL    HW130359   4.685   3.816   5.688
 9820SOL    HW230360   4.578   3.693   5.701
 9821SOL     OW30361   5.899   5.494   0.192
 9821SOL    HW130362   5.827   5.546   0.239
 9821SOL    HW230363   5.893   5.398   0.218
 9822SOL     OW30364   0.706   6.778   2.713
 9822SOL    HW130365   0.668   6.772   2.621
 9822SOL    HW230366   0.695   6.871   2.747
 9823SOL     OW30367   3.023   0.980   1.924
 9823SOL    HW130368   3.096   0.977   1.855
 9823SOL    HW230369   2.942   0.932   1.888
 9824SOL     OW30370   1.454   4.494   4.987
 9824SOL    HW130371   1.488   4.453   4.903
 9824SOL    HW230372   1.375   4.443   5.021
 9825SOL     OW30373   3.957   4.849   5.349
 9825SOL    HW130374   3.972   4.861   5.447
 9825SOL    HW230375   3.880   4.786   5.335
 9826SOL     OW30376   4.143   7.006   5.794
 9826SOL    HW130377   4.055   0.025   5.764
 9826SOL    HW230378   4.198   6.980   5.714
 9827SOL     OW30379   0.877   3.793   4.714
 9827SOL    HW130380   0.918   3.702   4.716
 9827SOL    HW230381   0.778   3.784   4.700
 9828SOL     OW30382   3.795   2.031   6.899
 9828SOL    HW130383   3.747   2.075   6.976
 9828SOL    HW230384   3.828   1.941   6.928
 9829SOL     OW30385   1.995   5.976   0.440
 9829SOL    HW130386   2.059   5.969   0.517
 9829SOL    HW230387   2.043   5.954   0.355
 9830SOL     OW30388   6.040   1.427   1.794
 9830SOL    HW130389   5.971   1.423   1.721
 9830SOL    HW230390   6.026   1.350   1.856
 9831SOL     OW30391   0.287   0.048   1.800
 9831SOL    HW130392   0.327   0.112   1.866
 9831SOL    HW230393   0.336   6.979   1.803
 9832SOL     OW30394   4.437   5.193   1.716
 9832SOL    HW130395   4.405   5.282   1.748
 9832SOL    HW230396   4.498   5.153   1.785
 9833SOL     OW30397   3.520   3.954   5.321
 9833SOL    HW130398   3.455   3.879   5.323
 9833SOL    HW230399   3.541   3.983   5.414
 9834SOL     OW30400   0.942   3.822   4.996
 9834SOL    HW130401   1.026   3.768   5.008
 9834SOL    HW230402   0.895   3.791   4.913
 9835SOL     OW30403   4.990   1.495   4.525
 9835SOL    HW130404   5.031   1.438   4.455
 9835SOL    HW230405   4.910   1.542   4.488
 9836SOL     OW30406   5.184   4.528   3.525
 9836SOL    HW130407   5.276   4.499   3.497
 9836SOL    HW230408   5.192   4.612   3.580
 9837SOL     OW30409   2.407   6.777   4.579
 9837SOL    HW130410   2.307   6.788   4.581
 9837SOL    HW230411   2.444   6.794   4.670
 9838SOL     OW30412   0.933   6.305   5.885
 9838SOL    HW130413   0.977   6.231   5.836
 9838SOL    HW230414   1.000   6.353   5.941
 9839SOL     OW30415   0.061   1.246   1.498
 9839SOL    HW130416   0.126   1.252   1.423
 9839SOL    HW230417   0.102   1.284   1.581
 9840SOL     OW30418   6.615   0.318   0.891
 9840SOL    HW130419   6.534   0.359   0.933
 9840SOL    HW230420   6.693   0.379   0.901
 9841SOL     OW30421   1.599   3.936   4.747
 9841SOL    HW130422   1.604   3.987   4.833
 9841SOL    HW230423   1.561   3.994   4.675
 9842SOL     OW30424   2.937   3.168   2.526
 9842SOL    HW130425   3.035   3.153   2.538
 9842SOL    HW230426   2.891   3.158   2.614
 9843SOL     OW30427   6.902   1.633   1.443
 9843SOL    HW130428   6.901   1.720   1.493
 9843SOL    HW230429   6.818   1.624   1.389
 9844SOL     OW30430   4.810   0.271   2.481
 9844SOL    HW130431   4.855   0.274   2.571
 9844SOL    HW230432   4.748   0.349   2.473
 9845SOL     OW30433   2.281   2.021   3.941
 9845SOL    HW130434   2.324   2.093   3.995
 9845SOL    HW230435   2.238   2.061   3.860
 9846SOL     OW30436   3.173   4.024   3.377
 9846SOL    HW130437   3.182   4.011   3.278
 9846SOL    HW230438   3.115   3.952   3.415
 9847SOL     OW30439   1.832   3.741   6.970
 9847SOL    HW130440   1.757   3.803   6.949
 9847SOL    HW230441   1.800   3.646   6.967
 9848SOL     OW30442   4.466   2.973   6.949
 9848SOL    HW130443   4.381   2.981   7.001
 9848SOL    HW230444   4.488   2.876   6.936
 9849SOL     OW30445   6.454   7.011   6.437
 9849SOL    HW130446   6.406   0.037   6.512
 9849SOL    HW230447   6.416   0.023   6.349
 9850SOL     OW30448   3.966   6.996   2.367
 9850SOL    HW130449   4.019   0.045   2.418
 9850SOL    HW230450   3.976   6.906   2.410
 9851SOL     OW30451   5.188   1.439   5.273
 9851SOL    HW130452   5.203   1.465   5.369
 9851SOL    HW230453   5.247   1.495   5.214
 9852SOL     OW30454   4.719   1.932   3.751
 9852SOL    HW130455   4.759   1.841   3.764
 9852SOL    HW230456   4.620   1.926   3.756
 9853SOL     OW30457   5.991   4.104   2.636
 9853SOL    HW130458   6.082   4.143   2.622
 9853SOL    HW230459   5.974   4.030   2.571
 9854SOL     OW30460   5.426   5.361   4.212
 9854SOL    HW130461   5.500   5.301   4.243
 9854SOL    HW230462   5.444   5.454   4.243
 9855SOL     OW30463   0.764   4.049   1.321
 9855SOL    HW130464   0.801   4.137   1.293
 9855SOL    HW230465   0.785   4.033   1.417
 9856SOL     OW30466   3.735   3.816   0.735
 9856SOL    HW130467   3.821   3.848   0.694
 9856SOL    HW230468   3.740   3.717   0.749
 9857SOL     OW30469   5.239   2.903   3.322
 9857SOL    HW130470   5.218   2.815   3.366
 9857SOL    HW230471   5.179   2.915   3.243
 9858SOL     OW30472   5.243   1.071   2.145
 9858SOL    HW130473   5.308   1.054   2.219
 9858SOL    HW230474   5.176   0.997   2.142
 9859SOL     OW30475   6.214   0.584   1.465
 9859SOL    HW130476   6.220   0.683   1.479
 9859SOL    HW230477   6.161   0.543   1.540
 9860SOL     OW30478   0.364   0.892   2.429
 9860SOL    HW130479   0.419   0.942   2.496
 9860SOL    HW230480   0.297   0.835   2.477
 9861SOL     OW30481   4.422   6.178   4.218
 9861SOL    HW130482   4.513   6.203   4.251
 9861SOL    HW230483   4.395   6.090   4.257
 9862SOL     OW30484   1.624   3.063   0.307
 9862SOL    HW130485   1.541   3.009   0.321
 9862SOL    HW230486   1.600   3.150   0.263
 9863SOL     OW30487   3.081   0.246   3.311
 9863SOL    HW130488   3.161   0.243   3.251
 9863SOL    HW230489   3.101   0.302   3.391
 9864SOL     OW30490   4.400   5.336   3.379
 9864SOL    HW130491   4.471   5.265   3.377
 9864SOL    HW230492   4.343   5.323   3.460
 9865SOL     OW30493   0.474   0.171   3.374
 9865SOL    HW130494   0.515   0.227   3.446
 9865SOL    HW230495   0.396   0.120   3.411
 9866SOL     OW30496   4.864   3.886   4.410
 9866SOL    HW130497   4.917   3.805   4.435
 9866SOL    HW230498   4.824   3.927   4.492
 9867SOL     OW30499   4.258   1.351   0.751
 9867SOL    HW130500   4.231   1.254   0.749
 9867SOL    HW230501   4.353   1.359   0.723
 9868SOL     OW30502   6.911   4.368   0.129
 9868SOL    HW130503   7.003   4.348   0.095
 9868SOL    HW230504   6.868   4.284   0.160
 9869SOL     OW30505   2.213   3.981   3.036
 9869SOL    HW130506   2.241   4.067   3.079
 9869SOL    HW230507   2.293   3.923   3.025
 9870SOL     OW30508   4.640   4.769   2.467
 9870SOL    HW130509   4.573   4.699   2.444
 9870SOL    HW230510   4.686   4.800   2.383
 9871SOL     OW30511   2.228   0.494   5.663
 9871SOL    HW130512   2.254   0.573   5.718
 9871SOL    HW230513   2.187   0.424   5.721
 9872SOL     OW30514   3.039   4.818   3.077
 9872SOL    HW130515   2.962   4.754   3.072
 9872SOL    HW230516   3.055   4.843   3.172
 9873SOL     OW30517   1.881   3.064   0.079
 9873SOL    HW130518   1.943   2.991   0.051
 9873SOL    HW230519   1.792   3.051   0.035
 9874SOL     OW30520   0.533   2.579   3.198
 9874SOL    HW130521   0.482   2.573   3.112
 9874SOL    HW230522   0.485   2.639   3.262
 9875SOL     OW30523   0.340   0.651   2.611
 9875SOL    HW130524   0.379   0.698   2.690
 9875SOL    HW230525   0.309   0.560   2.638
 9876SOL     OW30526   6.329   0.340   2.500
 9876SOL    HW130527   6.403   0.363   2.564
 9876SOL    HW230528   6.275   0.264   2.538
 9877SOL     OW30529   3.368   0.327   2.549
 9877SOL    HW130530   3.393   0.424   2.553
 9877SOL    HW230531   3.355   0.300   2.453
 9878SOL     OW30532   1.577   5.600   5.925
 9878SOL    HW130533   1.636   5.664   5.875
 9878SOL    HW230534   1.631   5.552   5.994
 9879SOL     OW30535   4.731   5.524   4.587
 9879SOL    HW130536   4.668   5.584   4.536
 9879SOL    HW230537   4.816   5.515   4.536
 9880SOL     OW30538   0.875   2.130   5.583
 9880SOL    HW130539   0.870   2.167   5.490
 9880SOL    HW230540   0.879   2.205   5.649
 9881SOL     OW30541   0.784   2.630   4.623
 9881SOL    HW130542   0.762   2.619   4.720
 9881SOL    HW230543   0.823   2.545   4.588
 9882SOL     OW30544   0.960   2.763   4.196
 9882SOL    HW130545   0.942   2.665   4.209
 9882SOL    HW230546   1.047   2.775   4.149
 9883SOL     OW30547   1.632   0.715   1.245
 9883SOL    HW130548   1.681   0.759   1.320
 9883SOL    HW230549   1.648   0.616   1.249
 9884SOL     OW30550   4.358   0.689   3.825
 9884SOL    HW130551   4.353   0.771   3.768
 9884SOL    HW230552   4.385   0.611   3.768
 9885SOL     OW30553   6.084   4.177   5.008
 9885SOL    HW130554   6.089   4.190   5.107
 9885SOL    HW230555   5.988   4.169   4.980
 9886SOL     OW30556   1.138   4.663   2.732
 9886SOL    HW130557   1.182   4.614   2.807
 9886SOL    HW230558   1.118   4.757   2.760
 9887SOL     OW30559   3.654   1.092   0.044
 9887SOL    HW130560   3.741   1.088   0.093
 9887SOL    HW230561   3.623   0.999   0.022
 9888SOL     OW30562   0.420   3.572   0.285
 9888SOL    HW130563   0.398   3.527   0.198
 9888SOL    HW230564   0.512   3.610   0.281
 9889SOL     OW30565   6.512   5.030   0.523
 9889SOL    HW130566   6.511   4.935   0.491
 9889SOL    HW230567   6.425   5.073   0.500
 9890SOL     OW30568   1.687   2.692   1.250
 9890SOL    HW130569   1.661   2.763   1.185
 9890SOL    HW230570   1.687   2.729   1.342
 9891SOL     OW30571   5.745   2.707   0.475
 9891SOL    HW130572   5.702   2.743   0.393
 9891SOL    HW230573   5.689   2.633   0.513
 9892SOL     OW30574   6.825   4.801   0.259
 9892SOL    HW130575   6.854   4.705   0.265
 9892SOL    HW230576   6.865   4.843   0.177
 9893SOL     OW30577   2.471   0.696   0.625
 9893SOL    HW130578   2.372   0.685   0.611
 9893SOL    HW230579   2.491   0.793   0.642
 9894SOL     OW30580   1.553   1.642   0.891
 9894SOL    HW130581   1.595   1.729   0.916
 9894SOL    HW230582   1.624   1.577   0.865
 9895SOL     OW30583   5.322   3.953   4.740
 9895SOL    HW130584   5.381   3.941   4.661
 9895SOL    HW230585   5.285   3.864   4.768
 9896SOL     OW30586   6.636   6.779   6.714
 9896SOL    HW130587   6.720   6.726   6.706
 9896SOL    HW230588   6.558   6.717   6.716
 9897SOL     OW30589   5.471   5.510   3.665
 9897SOL    HW130590   5.384   5.548   3.634
 9897SOL    HW230591   5.513   5.572   3.731
 9898SOL     OW30592   2.823   6.485   6.006
 9898SOL    HW130593   2.846   6.402   5.955
 9898SOL    HW230594   2.846   6.472   6.103
 9899SOL     OW30595   0.499   5.734   0.773
 9899SOL    HW130596   0.428   5.701   0.712
 9899SOL    HW230597   0.525   5.660   0.836
 9900SOL     OW30598   1.461   4.191   3.450
 9900SOL    HW130599   1.469   4.153   3.542
 9900SOL    HW230600   1.495   4.124   3.384
 9901SOL     OW30601   2.944   1.916   5.424
 9901SOL    HW130602   2.964   2.007   5.388
 9901SOL    HW230603   2.861   1.880   5.381
 9902SOL     OW30604   2.163   4.616   6.912
 9902SOL    HW130605   2.153   4.556   6.991
 9902SOL    HW230606   2.260   4.634   6.895
 9903SOL     OW30607   5.049   1.520   3.503
 9903SOL    HW130608   5.137   1.501   3.546
 9903SOL    HW230609   4.975   1.481   3.558
 9904SOL     OW30610   0.795   3.206   6.583
 9904SOL    HW130611   0.847   3.283   6.546
 9904SOL    HW230612   0.805   3.127   6.522
 9905SOL     OW30613   3.652   1.392   1.072
 9905SOL    HW130614   3.578   1.344   1.026
 9905SOL    HW230615   3.636   1.391   1.171
 9906SOL     OW30616   3.860   3.121   2.470
 9906SOL    HW130617   3.896   3.147   2.381
 9906SOL    HW230618   3.781   3.179   2.492
 9907SOL     OW30619   6.476   0.545   1.362
 9907SOL    HW130620   6.474   0.642   1.336
 9907SOL    HW230621   6.384   0.517   1.391
 9908SOL     OW30622   5.443   2.520   3.183
 9908SOL    HW130623   5.474   2.451   3.118
 9908SOL    HW230624   5.343   2.519   3.188
 9909SOL     OW30625   3.869   6.583   3.819
 9909SOL    HW130626   3.775   6.615   3.831
 9909SOL    HW230627   3.887   6.508   3.883
 9910SOL     OW30628   1.402   3.825   2.365
 9910SOL    HW130629   1.315   3.806   2.412
 9910SOL    HW230630   1.386   3.895   2.295
 9911SOL     OW30631   4.032   0.214   2.142
 9911SOL    HW130632   3.966   0.144   2.169
 9911SOL    HW230633   4.114   0.170   2.106
 9912SOL     OW30634   4.519   2.032   1.176
 9912SOL    HW130635   4.459   2.058   1.252
 9912SOL    HW230636   4.471   2.048   1.090
 9913SOL     OW30637   6.175   4.017   6.882
 9913SOL    HW130638   6.171   3.972   6.971
 9913SOL    HW230639   6.125   4.103   6.886
 9914SOL     OW30640   0.261   3.363   4.782
 9914SOL    HW130641   0.306   3.274   4.779
 9914SOL    HW230642   0.231   3.382   4.875
 9915SOL     OW30643   4.483   1.018   3.167
 9915SOL    HW130644   4.506   1.095   3.107
 9915SOL    HW230645   4.391   0.985   3.145
 9916SOL     OW30646   2.123   2.505   2.819
 9916SOL    HW130647   2.214   2.496   2.781
 9916SOL    HW230648   2.119   2.588   2.876
 9917SOL     OW30649   6.297   3.733   6.863
 9917SOL    HW130650   6.254   3.651   6.826
 9917SOL    HW230651   6.273   3.742   6.960
 9918SOL     OW30652   4.336   1.860   2.621
 9918SOL    HW130653   4.287   1.888   2.704
 9918SOL    HW230654   4.326   1.931   2.551
 9919SOL     OW30655   6.444   6.151   1.089
 9919SOL    HW130656   6.380   6.202   1.146
 9919SOL    HW230657   6.431   6.176   0.993
 9920SOL     OW30658   4.699   1.339   2.128
 9920SOL    HW130659   4.737   1.430   2.146
 9920SOL    HW230660   4.753   1.294   2.057
 9921SOL     OW30661   4.660   5.767   5.823
 9921SOL    HW130662   4.709   5.709   5.757
 9921SOL    HW230663   4.647   5.717   5.908
 9922SOL     OW30664   0.751   5.407   0.430
 9922SOL    HW130665   0.713   5.423   0.339
 9922SOL    HW230666   0.836   5.458   0.439
 9923SOL     OW30667   4.566   5.023   6.938
 9923SOL    HW130668   4.624   5.082   6.881
 9923SOL    HW230669   4.503   5.079   6.991
 9924SOL     OW30670   0.071   2.470   4.630
 9924SOL    HW130671   0.054   2.568   4.640
 9924SOL    HW230672   0.001   2.418   4.679
 9925SOL     OW30673   6.802   3.749   3.679
 9925SOL    HW130674   6.751   3.745   3.593
 9925SOL    HW230675   6.755   3.809   3.744
 9926SOL     OW30676   2.235   3.879   0.114
 9926SOL    HW130677   2.188   3.841   0.034
 9926SOL    HW230678   2.323   3.919   0.085
 9927SOL     OW30679   5.801   0.170   2.395
 9927SOL    HW130680   5.889   0.122   2.395
 9927SOL    HW230681   5.787   0.214   2.307
 9928SOL     OW30682   4.796   4.694   1.262
 9928SOL    HW130683   4.896   4.689   1.263
 9928SOL    HW230684   4.761   4.639   1.186
 9929SOL     OW30685   2.094   5.504   4.961
 9929SOL    HW130686   2.069   5.526   5.055
 9929SOL    HW230687   2.187   5.535   4.942
 9930SOL     OW30688   6.335   0.247   4.877
 9930SOL    HW130689   6.244   0.225   4.840
 9930SOL    HW230690   6.369   0.171   4.931
 9931SOL     OW30691   0.810   4.565   4.683
 9931SOL    HW130692   0.711   4.579   4.681
 9931SOL    HW230693   0.832   4.473   4.651
 9932SOL     OW30694   1.569   6.628   6.410
 9932SOL    HW130695   1.606   6.720   6.399
 9932SOL    HW230696   1.547   6.590   6.321
 9933SOL     OW30697   2.205   4.802   2.576
 9933SOL    HW130698   2.285   4.793   2.517
 9933SOL    HW230699   2.202   4.895   2.614
 9934SOL     OW30700   5.778   2.142   5.751
 9934SOL    HW130701   5.684   2.172   5.737
 9934SOL    HW230702   5.778   2.052   5.795
 9935SOL     OW30703   2.826   0.771   0.532
 9935SOL    HW130704   2.803   0.678   0.502
 9935SOL    HW230705   2.849   0.827   0.452
 9936SOL     OW30706   0.273   5.360   4.712
 9936SOL    HW130707   0.194   5.318   4.755
 9936SOL    HW230708   0.337   5.390   4.783
 9937SOL     OW30709   6.377   2.378   5.534
 9937SOL    HW130710   6.357   2.427   5.619
 9937SOL    HW230711   6.449   2.311   5.550
 9938SOL     OW30712   6.656   6.120   3.255
 9938SOL    HW130713   6.703   6.204   3.232
 9938SOL    HW230714   6.557   6.137   3.260
 9939SOL     OW30715   3.049   3.067   0.690
 9939SOL    HW130716   3.004   3.156   0.686
 9939SOL    HW230717   3.071   3.045   0.785
 9940SOL     OW30718   0.357   0.687   1.056
 9940SOL    HW130719   0.380   0.662   1.150
 9940SOL    HW230720   0.279   0.750   1.057
 9941SOL     OW30721   2.945   3.722   5.201
 9941SOL    HW130722   2.926   3.780   5.122
 9941SOL    HW230723   2.961   3.780   5.281
 9942SOL     OW30724   1.931   6.342   2.845
 9942SOL    HW130725   1.921   6.243   2.843
 9942SOL    HW230726   1.950   6.375   2.752
 9943SOL     OW30727   0.607   5.991   5.917
 9943SOL    HW130728   0.646   5.904   5.888
 9943SOL    HW230729   0.510   5.993   5.894
 9944SOL     OW30730   1.973   4.419   5.957
 9944SOL    HW130731   2.018   4.493   6.007
 9944SOL    HW230732   1.881   4.405   5.992
 9945SOL     OW30733   6.657   5.271   6.952
 9945SOL    HW130734   6.647   5.363   6.989
 9945SOL    HW230735   6.734   5.225   6.997
 9946SOL     OW30736   5.472   1.199   5.068
 9946SOL    HW130737   5.399   1.231   5.008
 9946SOL    HW230738   5.515   1.118   5.028
 9947SOL     OW30739   6.819   3.880   5.881
 9947SOL    HW130740   6.778   3.963   5.920
 9947SOL    HW230741   6.864   3.903   5.795
 9948SOL     OW30742   4.747   4.617   5.105
 9948SOL    HW130743   4.702   4.568   5.030
 9948SOL    HW230744   4.846   4.609   5.096
 9949SOL     OW30745   5.330   4.988   3.565
 9949SOL    HW130746   5.238   4.975   3.528
 9949SOL    HW230747   5.324   5.040   3.651
 9950SOL     OW30748   5.445   6.210   5.216
 9950SOL    HW130749   5.518   6.255   5.164
 9950SOL    HW230750   5.481   6.182   5.305
 9951SOL     OW30751   6.006   2.033   3.767
 9951SOL    HW130752   6.002   2.051   3.669
 9951SOL    HW230753   6.012   2.119   3.817
 9952SOL     OW30754   6.474   3.860   0.962
 9952SOL    HW130755   6.559   3.865   1.016
 9952SOL    HW230756   6.489   3.802   0.882
 9953SOL     OW30757   6.434   2.185   3.812
 9953SOL    HW130758   6.349   2.237   3.823
 9953SOL    HW230759   6.436   2.110   3.879
 9954SOL     OW30760   5.702   6.531   5.553
 9954SOL    HW130761   5.718   6.593   5.630
 9954SOL    HW230762   5.702   6.583   5.468
 9955SOL     OW30763   6.842   4.974   4.734
 9955SOL    HW130764   6.781   4.926   4.797
 9955SOL    HW230765   6.829   5.073   4.744
 9956SOL     OW30766   1.313   6.985   1.848
 9956SOL    HW130767   1.277   6.892   1.832
 9956SOL    HW230768   1.254   0.033   1.803
 9957SOL     OW30769   6.337   5.413   3.158
 9957SOL    HW130770   6.357   5.351   3.082
 9957SOL    HW230771   6.295   5.496   3.122
 9958SOL     OW30772   3.681   4.919   0.516
 9958SOL    HW130773   3.725   4.932   0.427
 9958SOL    HW230774   3.727   4.845   0.565
 9959SOL     OW30775   4.189   3.837   5.813
 9959SOL    HW130776   4.276   3.879   5.840
 9959SOL    HW230777   4.203   3.778   5.734
 9960SOL     OW30778   6.897   0.786   2.715
 9960SOL    HW130779   6.933   0.842   2.791
 9960SOL    HW230780   6.971   0.766   2.651
 9961SOL     OW30781   2.065   5.818   3.917
 9961SOL    HW130782   2.069   5.862   4.006
 9961SOL    HW230783   2.129   5.741   3.915
 9962SOL     OW30784   5.524   6.248   4.639
 9962SOL    HW130785   5.554   6.175   4.700
 9962SOL    HW230786   5.585   6.255   4.561
 9963SOL     OW30787   3.330   2.368   0.885
 9963SOL    HW130788   3.288   2.278   0.903
 9963SOL    HW230789   3.429   2.357   0.876
 9964SOL     OW30790   4.953   5.423   4.232
 9964SOL    HW130791   5.037   5.463   4.195
 9964SOL    HW230792   4.954   5.429   4.332
 9965SOL     OW30793   3.774   6.702   0.118
 9965SOL    HW130794   3.873   6.693   0.108
 9965SOL    HW230795   3.732   6.612   0.106
 9966SOL     OW30796   1.169   5.294   1.874
 9966SOL    HW130797   1.242   5.293   1.942
 9966SOL    HW230798   1.196   5.354   1.798
 9967SOL     OW30799   0.799   5.844   1.407
 9967SOL    HW130800   0.764   5.915   1.468
 9967SOL    HW230801   0.802   5.757   1.455
 9968SOL     OW30802   3.512   3.976   1.942
 9968SOL    HW130803   3.563   4.019   2.017
 9968SOL    HW230804   3.560   3.894   1.912
 9969SOL     OW30805   1.498   3.760   2.943
 9969SOL    HW130806   1.553   3.715   2.873
 9969SOL    HW230807   1.483   3.855   2.917
 9970SOL     OW30808   5.070   4.617   2.004
 9970SOL    HW130809   5.136   4.578   2.068
 9970SOL    HW230810   5.056   4.714   2.025
 9971SOL     OW30811   1.387   4.412   1.210
 9971SOL    HW130812   1.321   4.347   1.173
 9971SOL    HW230813   1.342   4.500   1.226
 9972SOL     OW30814   6.133   4.889   2.570
 9972SOL    HW130815   6.195   4.964   2.592
 9972SOL    HW230816   6.174   4.802   2.598
 9973SOL     OW30817   5.660   0.772   4.095
 9973SOL    HW130818   5.714   0.739   4.172
 9973SOL    HW230819   5.682   0.868   4.078
 9974SOL     OW30820   1.541   0.901   3.806
 9974SOL    HW130821   1.559   0.823   3.747
 9974SOL    HW230822   1.555   0.986   3.755
 9975SOL     OW30823   0.121   2.932   0.214
 9975SOL    HW130824   0.125   2.951   0.312
 9975SOL    HW230825   0.162   2.842   0.196
 9976SOL     OW30826   0.982   0.153   5.397
 9976SOL    HW130827   0.984   0.117   5.304
 9976SOL    HW230828   0.994   0.252   5.394
 9977SOL     OW30829   6.201   4.730   5.095
 9977SOL    HW130830   6.263   4.668   5.141
 9977SOL    HW230831   6.114   4.684   5.078
 9978SOL     OW30832   0.573   3.012   4.552
 9978SOL    HW130833   0.581   2.922   4.510
 9978SOL    HW230834   0.654   3.066   4.529
 9979SOL     OW30835   5.848   4.144   4.835
 9979SOL    HW130836   5.851   4.051   4.871
 9979SOL    HW230837   5.755   4.165   4.804
 9980SOL     OW30838   3.415   0.217   6.877
 9980SOL    HW130839   3.338   0.258   6.926
 9980SOL    HW230840   3.436   0.270   6.796
 9981SOL     OW30841   3.207   1.363   3.827
 9981SOL    HW130842   3.109   1.365   3.848
 9981SOL    HW230843   3.221   1.322   3.737
 9982SOL     OW30844   6.819   6.127   3.846
 9982SOL    HW130845   6.902   6.182   3.857
 9982SOL    HW230846   6.838   6.048   3.788
 9983SOL     OW30847   6.840   1.170   2.781
 9983SOL    HW130848   6.865   1.124   2.866
 9983SOL    HW230849   6.837   1.269   2.796
 9984SOL     OW30850   3.157   1.763   6.533
 9984SOL    HW130851   3.061   1.788   6.519
 9984SOL    HW230852   3.165   1.705   6.614
 9985SOL     OW30853   1.870   1.002   1.604
 9985SOL    HW130854   1.825   1.083   1.567
 9985SOL    HW230855   1.969   1.018   1.608
 9986SOL     OW30856   5.562   4.416   4.694
 9986SOL    HW130857   5.636   4.389   4.633
 9986SOL    HW230858   5.481   4.360   4.676
 9987SOL     OW30859   5.970   3.610   6.189
 9987SOL    HW130860   5.875   3.582   6.173
 9987SOL    HW230861   6.027   3.578   6.113
 9988SOL     OW30862   6.569   6.712   5.101
 9988SOL    HW130863   6.562   6.615   5.122
 9988SOL    HW230864   6.477   6.752   5.098
 9989SOL     OW30865   6.892   3.643   4.967
 9989SOL    HW130866   6.977   3.639   5.021
 9989SOL    HW230867   6.915   3.651   4.870
 9990SOL     OW30868   0.819   4.580   2.923
 9990SOL    HW130869   0.822   4.490   2.967
 9990SOL    HW230870   0.727   4.598   2.890
 9991SOL     OW30871   3.065   2.172   3.974
 9991SOL    HW130872   3.162   2.183   3.994
 9991SOL    HW230873   3.013   2.169   4.060
 9992SOL     OW30874   6.010   5.524   6.417
 9992SOL    HW130875   5.978   5.562   6.504
 9992SOL    HW230876   6.019   5.598   6.350
 9993SOL     OW30877   1.556   1.857   1.201
 9993SOL    HW130878   1.585   1.894   1.113
 9993SOL    HW230879   1.457   1.838   1.199
 9994SOL     OW30880   6.115   4.636   3.432
 9994SOL    HW130881   6.076   4.605   3.345
 9994SOL    HW230882   6.147   4.730   3.422
 9995SOL     OW30883   5.614   1.202   4.223
 9995SOL    HW130884   5.515   1.197   4.227
 9995SOL    HW230885   5.649   1.136   4.156
 9996SOL     OW30886   3.712   4.600   0.085
 9996SOL    HW130887   3.637   4.539   0.111
 9996SOL    HW230888   3.754   4.638   0.167
 9997SOL     OW30889   2.833   0.655   5.608
 9997SOL    HW130890   2.770   0.731   5.626
 9997SOL    HW230891   2.886   0.675   5.526
 9998SOL     OW30892   5.757   5.495   5.625
 9998SOL    HW130893   5.766   5.497   5.525
 9998SOL    HW230894   5.847   5.482   5.666
 9999SOL     OW30895   6.234   2.568   5.388
 9999SOL    HW130896   6.202   2.641   5.448
 9999SOL    HW230897   6.289   2.503   5.441
10000SOL     OW30898   6.980   2.044   6.789
10000SOL    HW130899   6.945   2.118   6.732
10000SOL    HW230900   0.060   2.057   6.804
10001SOL     OW30901   4.914   0.696   2.225
10001SOL    HW130902   4.955   0.611   2.190
10001SOL    HW230903   4.956   0.774   2.179
10002SOL     OW30904   1.243   0.237   1.671
10002SOL    HW130905   1.194   0.266   1.753
10002SOL    HW230906   1.338   0.269   1.675
10003SOL     OW30907   3.814   2.042   2.996
10003SOL    HW130908   3.891   2.083   2.947
10003SOL    HW230909   3.842   1.953   3.033
10004SOL     OW30910   0.150   2.421   2.992
10004SOL    HW130911   0.068   2.477   3.009
10004SOL    HW230912   0.188   2.390   3.079
10005SOL     OW30913   4.934   0.334   3.584
10005SOL    HW130914   4.915   0.268   3.511
10005SOL    HW230915   5.011   0.392   3.557
10006SOL     OW30916   3.993   6.740   4.186
10006SOL    HW130917   3.994   6.797   4.104
10006SOL    HW230918   4.085   6.707   4.205
10007SOL     OW30919   0.255   3.379   4.450
10007SOL    HW130920   0.250   3.386   4.550
10007SOL    HW230921   0.274   3.470   4.411
10008SOL     OW30922   3.197   0.608   4.660
10008SOL    HW130923   3.153   0.642   4.577
10008SOL    HW230924   3.273   0.667   4.684
10009SOL     OW30925   2.218   4.028   2.304
10009SOL    HW130926   2.309   4.038   2.264
10009SOL    HW230927   2.150   4.075   2.247
10010SOL     OW30928   1.729   2.143   6.446
10010SOL    HW130929   1.795   2.171   6.515
10010SOL    HW230930   1.659   2.085   6.489
10011SOL     OW30931   6.281   6.901   5.646
10011SOL    HW130932   6.241   6.904   5.554
10011SOL    HW230933   6.317   6.810   5.664
10012SOL     OW30934   6.349   1.431   4.123
10012SOL    HW130935   6.353   1.347   4.179
10012SOL    HW230936   6.296   1.500   4.172
10013SOL     OW30937   0.462   0.736   2.847
10013SOL    HW130938   0.445   0.678   2.927
10013SOL    HW230939   0.545   0.790   2.863
10014SOL     OW30940   0.406   4.953   6.419
10014SOL    HW130941   0.468   5.006   6.362
10014SOL    HW230942   0.328   4.922   6.364
10015SOL     OW30943   1.896   4.734   6.991
10015SOL    HW130944   1.990   4.759   6.967
10015SOL    HW230945   1.892   4.638   7.016
10016SOL     OW30946   2.399   1.046   5.978
10016SOL    HW130947   2.453   1.108   5.920
10016SOL    HW230948   2.398   1.081   6.071
10017SOL     OW30949   1.998   2.177   4.879
10017SOL    HW130950   2.090   2.151   4.848
10017SOL    HW230951   2.001   2.199   4.977
10018SOL     OW30952   4.928   0.815   5.502
10018SOL    HW130953   4.946   0.912   5.516
10018SOL    HW230954   4.975   0.762   5.573
10019SOL     OW30955   1.379   0.864   3.518
10019SOL    HW130956   1.291   0.875   3.563
10019SOL    HW230957   1.389   0.934   3.447
10020SOL     OW30958   0.582   3.067   1.114
10020SOL    HW130959   0.533   2.991   1.156
10020SOL    HW230960   0.522   3.114   1.049
10021SOL     OW30961   0.289   3.857   1.311
10021SOL    HW130962   0.235   3.893   1.235
10021SOL    HW230963   0.247   3.772   1.343
10022SOL     OW30964   1.071   2.084   6.316
10022SOL    HW130965   1.059   1.985   6.309
10022SOL    HW230966   1.168   2.104   6.334
10023SOL     OW30967   6.998   3.416   0.861
10023SOL    HW130968   6.926   3.472   0.901
10023SOL    HW230969   0.014   3.459   0.778
10024SOL     OW30970   1.537   4.115   3.701
10024SOL    HW130971   1.537   4.197   3.757
10024SOL    HW230972   1.466   4.053   3.733
10025SOL     OW30973   1.689   1.222   0.967
10025SOL    HW130974   1.706   1.158   0.892
10025SOL    HW230975   1.707   1.176   1.054
10026SOL     OW30976   6.304   0.656   3.383
10026SOL    HW130977   6.330   0.587   3.450
10026SOL    HW230978   6.318   0.747   3.421
10027SOL     OW30979   5.066   3.517   5.028
10027SOL    HW130980   4.973   3.547   5.008
10027SOL    HW230981   5.089   3.540   5.123
10028SOL     OW30982   2.192   1.441   0.587
10028SOL    HW130983   2.188   1.533   0.626
10028SOL    HW230984   2.119   1.430   0.520
10029SOL     OW30985   5.782   1.028   4.021
10029SOL    HW130986   5.871   1.011   4.065
10029SOL    HW230987   5.789   1.108   3.962
10030SOL     OW30988   1.602   0.530   3.881
10030SOL    HW130989   1.552   0.587   3.816
10030SOL    HW230990   1.604   0.435   3.847
10031SOL     OW30991   6.517   4.668   3.920
10031SOL    HW130992   6.432   4.722   3.921
10031SOL    HW230993   6.565   4.684   3.834
10032SOL     OW30994   3.054   1.322   4.688
10032SOL    HW130995   3.034   1.391   4.757
10032SOL    HW230996   3.121   1.257   4.724
10033SOL     OW30997   5.935   3.070   5.103
10033SOL    HW130998   5.880   2.987   5.091
10033SOL    HW230999   5.983   3.064   5.191
10034SOL     OW31000   5.571   0.850   5.376
10034SOL    HW131001   5.527   0.850   5.286
10034SOL    HW231002   5.512   0.803   5.442
10035SOL     OW31003   0.546   5.503   1.366
10035SOL    HW131004   0.608   5.473   1.439
10035SOL    HW231005   0.578   5.467   1.278
10036SOL     OW31006   6.675   1.433   0.373
10036SOL    HW131007   6.590   1.414   0.324
10036SOL    HW231008   6.655   1.484   0.457
10037SOL     OW31009   0.701   0.211   6.902
10037SOL    HW131010   0.654   0.158   6.973
10037SOL    HW231011   0.739   0.294   6.942
10038SOL     OW31012   6.344   6.728   1.157
10038SOL    HW131013   6.432   6.756   1.117
10038SOL    HW231014   6.289   6.682   1.087
10039SOL     OW31015   3.613   0.357   3.831
10039SOL    HW131016   3.549   0.371   3.906
10039SOL    HW231017   3.625   0.442   3.780
10040SOL     OW31018   6.870   2.848   1.314
10040SOL    HW131019   6.843   2.937   1.277
10040SOL    HW231020   6.953   2.859   1.369
10041SOL     OW31021   2.043   6.333   0.170
10041SOL    HW131022   2.000   6.418   0.199
10041SOL    HW231023   2.098   6.296   0.245
10042SOL     OW31024   6.318   2.681   2.891
10042SOL    HW131025   6.235   2.637   2.923
10042SOL    HW231026   6.353   2.632   2.811
10043SOL     OW31027   0.037   1.564   6.099
10043SOL    HW131028   7.015   1.654   6.120
10043SOL    HW231029   0.132   1.577   6.070
10044SOL     OW31030   3.356   2.205   5.667
10044SOL    HW131031   3.333   2.295   5.703
10044SOL    HW231032   3.368   2.211   5.568
10045SOL     OW31033   3.566   0.763   0.587
10045SOL    HW131034   3.520   0.788   0.501
10045SOL    HW231035   3.576   0.664   0.592
10046SOL     OW31036   1.965   5.024   1.218
10046SOL    HW131037   2.015   4.942   1.189
10046SOL    HW231038   1.914   5.003   1.302
10047SOL     OW31039   0.832   3.525   0.667
10047SOL    HW131040   0.755   3.587   0.680
10047SOL    HW231041   0.854   3.519   0.569
10048SOL     OW31042   5.885   5.561   2.929
10048SOL    HW131043   5.820   5.500   2.883
10048SOL    HW231044   5.909   5.521   3.018
10049SOL     OW31045   6.936   0.686   5.950
10049SOL    HW131046   6.993   0.637   6.016
10049SOL    HW231047   6.963   0.661   5.858
10050SOL     OW31048   6.461   3.113   6.317
10050SOL    HW131049   6.515   3.165   6.250
10050SOL    HW231050   6.411   3.176   6.376
10051SOL     OW31051   1.950   3.375   3.643
10051SOL    HW131052   1.859   3.337   3.660
10051SOL    HW231053   1.948   3.474   3.655
10052SOL     OW31054   1.194   6.490   3.211
10052SOL    HW131055   1.288   6.472   3.180
10052SOL    HW231056   1.130   6.441   3.153
10053SOL     OW31057   5.679   5.383   5.006
10053SOL    HW131058   5.730   5.444   4.946
10053SOL    HW231059   5.634   5.437   5.078
10054SOL     OW31060   5.830   3.906   4.965
10054SOL    HW131061   5.835   3.919   5.064
10054SOL    HW231062   5.853   3.811   4.942
10055SOL     OW31063   0.477   1.961   6.443
10055SOL    HW131064   0.455   1.874   6.486
10055SOL    HW231065   0.498   1.947   6.346
10056SOL     OW31066   6.423   2.761   3.870
10056SOL    HW131067   6.409   2.774   3.968
10056SOL    HW231068   6.340   2.722   3.830
10057SOL     OW31069   6.214   4.922   5.602
10057SOL    HW131070   6.301   4.880   5.576
10057SOL    HW231071   6.148   4.850   5.624
10058SOL     OW31072   6.756   3.998   5.419
10058SOL    HW131073   6.814   4.032   5.344
10058SOL    HW231074   6.693   3.929   5.383
10059SOL     OW31075   6.576   0.713   0.208
10059SOL    HW131076   6.501   0.668   0.160
10059SOL    HW231077   6.555   0.810   0.218
10060SOL     OW31078   2.488   2.145   1.936
10060SOL    HW131079   2.557   2.216   1.917
10060SOL    HW231080   2.534   2.060   1.959
10061SOL     OW31081   3.563   0.166   3.222
10061SOL    HW131082   3.496   0.098   3.194
10061SOL    HW231083   3.654   0.137   3.193
10062SOL     OW31084   6.705   6.991   4.575
10062SOL    HW131085   6.671   6.981   4.482
10062SOL    HW231086   6.669   6.916   4.632
10063SOL     OW31087   1.921   2.653   5.207
10063SOL    HW131088   1.993   2.640   5.139
10063SOL    HW231089   1.943   2.730   5.266
10064SOL     OW31090   2.956   0.085   0.566
10064SOL    HW131091   2.857   0.085   0.558
10064SOL    HW231092   2.995   0.020   0.501
10065SOL     OW31093   1.093   1.653   1.871
10065SOL    HW131094   1.163   1.586   1.847
10065SOL    HW231095   1.128   1.745   1.859
10066SOL     OW31096   6.855   3.507   3.744
10066SOL    HW131097   6.801   3.484   3.825
10066SOL    HW231098   6.835   3.601   3.716
10067SOL     OW31099   6.913   2.751   5.903
10067SOL    HW131100   6.870   2.695   5.832
10067SOL    HW231101   6.882   2.721   5.993
10068SOL     OW31102   2.031   3.362   2.894
10068SOL    HW131103   2.042   3.336   2.798
10068SOL    HW231104   2.054   3.459   2.905
10069SOL     OW31105   2.847   5.233   0.676
10069SOL    HW131106   2.896   5.315   0.647
10069SOL    HW231107   2.887   5.199   0.762
10070SOL     OW31108   3.982   6.479   6.358
10070SOL    HW131109   3.979   6.574   6.326
10070SOL    HW231110   4.074   6.443   6.348
10071SOL     OW31111   5.948   6.813   4.153
10071SOL    HW131112   6.025   6.803   4.216
10071SOL    HW231113   5.982   6.818   4.060
10072SOL     OW31114   6.263   2.846   1.882
10072SOL    HW131115   6.185   2.909   1.881
10072SOL    HW231116   6.326   2.871   1.956
10073SOL     OW31117   6.636   4.737   4.382
10073SOL    HW131118   6.608   4.761   4.289
10073SOL    HW231119   6.556   4.736   4.442
10074SOL     OW31120   1.118   4.837   0.619
10074SOL    HW131121   1.078   4.886   0.542
10074SOL    HW231122   1.123   4.739   0.598
10075SOL     OW31123   1.431   3.457   1.776
10075SOL    HW131124   1.487   3.504   1.707
10075SOL    HW231125   1.487   3.437   1.857
10076SOL     OW31126   5.199   5.488   4.127
10076SOL    HW131127   5.247   5.430   4.191
10076SOL    HW231128   5.207   5.450   4.034
10077SOL     OW31129   5.072   3.364   7.004
10077SOL    HW131130   5.110   3.276   6.973
10077SOL    HW231131   5.142   3.416   0.033
10078SOL     OW31132   6.224   5.916   4.833
10078SOL    HW131133   6.323   5.921   4.847
10078SOL    HW231134   6.181   5.879   4.915
10079SOL     OW31135   4.740   2.883   3.929
10079SOL    HW131136   4.717   2.971   3.969
10079SOL    HW231137   4.713   2.810   3.992
10080SOL     OW31138   4.974   1.519   5.628
10080SOL    HW131139   4.902   1.496   5.563
10080SOL    HW231140   5.052   1.458   5.615
10081SOL     OW31141   1.529   3.992   0.574
10081SOL    HW131142   1.562   4.063   0.512
10081SOL    HW231143   1.430   3.987   0.571
10082SOL     OW31144   0.923   4.910   1.086
10082SOL    HW131145   1.005   4.861   1.057
10082SOL    HW231146   0.885   4.867   1.168
10083SOL     OW31147   3.750   4.915   2.872
10083SOL    HW131148   3.737   4.904   2.970
10083SOL    HW231149   3.766   5.012   2.851
10084SOL     OW31150   1.126   1.376   5.357
10084SOL    HW131151   1.087   1.354   5.268
10084SOL    HW231152   1.225   1.390   5.349
10085SOL     OW31153   5.287   0.055   0.355
10085SOL    HW131154   5.265   6.990   0.405
10085SOL    HW231155   5.202   0.103   0.331
10086SOL     OW31156   6.011   6.577   3.214
10086SOL    HW131157   5.991   6.539   3.124
10086SOL    HW231158   5.969   6.520   3.285
10087SOL     OW31159   1.003   6.352   5.462
10087SOL    HW131160   0.922   6.353   5.403
10087SOL    HW231161   1.067   6.283   5.429
10088SOL     OW31162   6.889   2.731   0.961
10088SOL    HW131163   6.831   2.685   0.895
10088SOL    HW231164   6.944   2.801   0.914
10089SOL     OW31165   3.550   1.372   1.648
10089SOL    HW131166   3.470   1.372   1.708
10089SOL    HW231167   3.631   1.345   1.701
10090SOL     OW31168   2.990   6.467   2.902
10090SOL    HW131169   3.048   6.535   2.947
10090SOL    HW231170   2.895   6.497   2.906
10091SOL     OW31171   6.779   4.421   5.815
10091SOL    HW131172   6.778   4.343   5.753
10091SOL    HW231173   6.687   4.438   5.850
10092SOL     OW31174   0.769   2.042   3.707
10092SOL    HW131175   0.739   1.964   3.760
10092SOL    HW231176   0.745   2.127   3.755
10093SOL     OW31177   4.926   4.521   6.683
10093SOL    HW131178   4.899   4.537   6.778
10093SOL    HW231179   4.922   4.607   6.632
10094SOL     OW31180   3.206   1.456   1.039
10094SOL    HW131181   3.252   1.431   1.123
10094SOL    HW231182   3.142   1.530   1.057
10095SOL     OW31183   4.363   2.697   5.595
10095SOL    HW131184   4.286   2.634   5.606
10095SOL    HW231185   4.371   2.724   5.499
10096SOL     OW31186   6.112   2.550   1.988
10096SOL    HW131187   6.093   2.610   2.066
10096SOL    HW231188   6.087   2.456   2.011
10097SOL     OW31189   0.325   1.251   0.105
10097SOL    HW131190   0.279   1.203   0.180
10097SOL    HW231191   0.286   1.223   0.018
10098SOL     OW31192   2.754   5.617   3.068
10098SOL    HW131193   2.799   5.679   3.003
10098SOL    HW231194   2.709   5.543   3.018
10099SOL     OW31195   0.405   5.190   2.106
10099SOL    HW131196   0.471   5.252   2.148
10099SOL    HW231197   0.438   5.161   2.016
10100SOL     OW31198   4.771   5.139   4.277
10100SOL    HW131199   4.711   5.059   4.277
10100SOL    HW231200   4.737   5.207   4.212
10101SOL     OW31201   0.132   2.962   1.105
10101SOL    HW131202   0.091   3.053   1.096
10101SOL    HW231203   0.079   2.896   1.052
10102SOL     OW31204   6.954   5.607   2.985
10102SOL    HW131205   6.964   5.694   2.938
10102SOL    HW231206   0.010   5.546   2.958
10103SOL     OW31207   0.113   5.830   6.367
10103SOL    HW131208   0.116   5.879   6.280
10103SOL    HW231209   0.190   5.767   6.373
10104SOL     OW31210   2.152   0.635   4.711
10104SOL    HW131211   2.056   0.639   4.738
10104SOL    HW231212   2.161   0.587   4.624
10105SOL     OW31213   3.487   1.074   5.151
10105SOL    HW131214   3.541   1.122   5.220
10105SOL    HW231215   3.432   1.003   5.195
10106SOL     OW31216   5.341   4.672   1.572
10106SOL    HW131217   5.392   4.662   1.486
10106SOL    HW231218   5.284   4.754   1.566
10107SOL     OW31219   5.701   4.802   0.075
10107SOL    HW131220   5.733   4.892   0.105
10107SOL    HW231221   5.768   4.761   0.014
10108SOL     OW31222   2.232   2.429   6.570
10108SOL    HW131223   2.325   2.462   6.585
10108SOL    HW231224   2.207   2.443   6.474
10109SOL     OW31225   0.789   2.358   1.280
10109SOL    HW131226   0.770   2.449   1.316
10109SOL    HW231227   0.853   2.365   1.203
10110SOL     OW31228   5.868   5.762   2.441
10110SOL    HW131229   5.950   5.782   2.387
10110SOL    HW231230   5.794   5.734   2.380
10111SOL     OW31231   1.090   2.571   1.266
10111SOL    HW131232   1.058   2.561   1.360
10111SOL    HW231233   1.046   2.502   1.208
10112SOL     OW31234   0.309   2.249   2.279
10112SOL    HW131235   0.337   2.250   2.183
10112SOL    HW231236   0.212   2.272   2.285
10113SOL     OW31237   0.024   0.801   6.286
10113SOL    HW131238   0.093   0.844   6.227
10113SOL    HW231239   0.006   0.708   6.254
10114SOL     OW31240   5.683   2.350   1.385
10114SOL    HW131241   5.724   2.261   1.364
10114SOL    HW231242   5.743   2.400   1.448
10115SOL     OW31243   3.505   2.771   6.364
10115SOL    HW131244   3.589   2.824   6.364
10115SOL    HW231245   3.453   2.790   6.280
10116SOL     OW31246   6.938   0.498   5.247
10116SOL    HW131247   6.975   0.590   5.232
10116SOL    HW231248   7.003   0.446   5.302
10117SOL     OW31249   6.043   5.063   3.573
10117SOL    HW131250   6.043   5.011   3.487
10117SOL    HW231251   5.996   5.150   3.559
10118SOL     OW31252   4.449   5.244   3.703
10118SOL    HW131253   4.412   5.217   3.792
10118SOL    HW231254   4.487   5.336   3.710
10119SOL     OW31255   6.708   6.192   5.688
10119SOL    HW131256   6.661   6.186   5.776
10119SOL    HW231257   6.793   6.244   5.700
10120SOL     OW31258   2.238   3.014   3.538
10120SOL    HW131259   2.183   3.054   3.464
10120SOL    HW231260   2.222   3.065   3.622
10121SOL     OW31261   6.355   5.188   0.819
10121SOL    HW131262   6.274   5.236   0.851
10121SOL    HW231263   6.337   5.146   0.730
10122SOL     OW31264   1.635   0.452   3.488
10122SOL    HW131265   1.580   0.388   3.434
10122SOL    HW231266   1.646   0.415   3.581
10123SOL     OW31267   6.786   5.093   6.589
10123SOL    HW131268   6.864   5.112   6.649
10123SOL    HW231269   6.787   4.997   6.563
10124SOL     OW31270   2.083   5.159   2.914
10124SOL    HW131271   2.173   5.143   2.955
10124SOL    HW231272   2.027   5.076   2.924
10125SOL     OW31273   1.984   0.478   4.887
10125SOL    HW131274   2.004   0.387   4.850
10125SOL    HW231275   1.888   0.500   4.871
10126SOL     OW31276   6.475   6.230   5.814
10126SOL    HW131277   6.472   6.244   5.913
10126SOL    HW231278   6.412   6.157   5.789
10127SOL     OW31279   2.639   6.871   5.527
10127SOL    HW131280   2.609   6.918   5.610
10127SOL    HW231281   2.583   6.790   5.512
10128SOL     OW31282   2.761   3.086   0.197
10128SOL    HW131283   2.668   3.117   0.217
10128SOL    HW231284   2.808   3.064   0.283
10129SOL     OW31285   6.332   1.526   4.456
10129SOL    HW131286   6.253   1.468   4.438
10129SOL    HW231287   6.415   1.478   4.428
10130SOL     OW31288   0.824   1.375   4.254
10130SOL    HW131289   0.847   1.454   4.198
10130SOL    HW231290   0.894   1.304   4.243
10131SOL     OW31291   2.062   6.476   4.025
10131SOL    HW131292   2.084   6.509   3.933
10131SOL    HW231293   1.982   6.525   4.060
10132SOL     OW31294   6.213   0.072   1.612
10132SOL    HW131295   6.184   0.076   1.517
10132SOL    HW231296   6.132   0.064   1.671
10133SOL     OW31297   5.250   6.529   0.272
10133SOL    HW131298   5.337   6.508   0.315
10133SOL    HW231299   5.263   6.600   0.203
10134SOL     OW31300   6.705   6.818   2.668
10134SOL    HW131301   6.704   6.750   2.595
10134SOL    HW231302   6.666   6.779   2.751
10135SOL     OW31303   6.091   0.914   3.215
10135SOL    HW131304   6.050   0.905   3.306
10135SOL    HW231305   6.019   0.933   3.148
10136SOL     OW31306   4.988   2.253   3.195
10136SOL    HW131307   4.994   2.167   3.247
10136SOL    HW231308   4.940   2.237   3.109
10137SOL     OW31309   6.589   5.057   5.212
10137SOL    HW131310   6.494   5.026   5.222
10137SOL    HW231311   6.595   5.122   5.136
10138SOL     OW31312   6.995   2.622   1.186
10138SOL    HW131313   6.961   2.707   1.228
10138SOL    HW231314   6.962   2.616   1.092
10139SOL     OW31315   2.778   2.920   6.621
10139SOL    HW131316   2.756   2.915   6.524
10139SOL    HW231317   2.695   2.906   6.675
10140SOL     OW31318   1.081   6.551   5.672
10140SOL    HW131319   1.179   6.538   5.656
10140SOL    HW231320   1.029   6.507   5.599
10141SOL     OW31321   2.079   2.570   4.398
10141SOL    HW131322   1.991   2.543   4.361
10141SOL    HW231323   2.077   2.666   4.425
10142SOL     OW31324   4.711   6.668   3.351
10142SOL    HW131325   4.642   6.709   3.411
10142SOL    HW231326   4.735   6.733   3.279
10143SOL     OW31327   5.465   2.986   6.443
10143SOL    HW131328   5.406   2.955   6.518
10143SOL    HW231329   5.423   3.065   6.398
10144SOL     OW31330   3.163   6.661   0.618
10144SOL    HW131331   3.084   6.718   0.641
10144SOL    HW231332   3.228   6.714   0.563
10145SOL     OW31333   5.359   0.101   6.295
10145SOL    HW131334   5.272   0.051   6.288
10145SOL    HW231335   5.374   0.155   6.213
10146SOL     OW31336   0.253   2.844   4.825
10146SOL    HW131337   0.286   2.836   4.732
10146SOL    HW231338   0.287   2.768   4.880
10147SOL     OW31339   4.258   5.507   5.441
10147SOL    HW131340   4.204   5.501   5.357
10147SOL    HW231341   4.242   5.427   5.498
10148SOL     OW31342   1.010   4.122   0.533
10148SOL    HW131343   1.077   4.173   0.479
10148SOL    HW231344   0.938   4.184   0.564
10149SOL     OW31345   3.909   3.681   1.066
10149SOL    HW131346   3.856   3.600   1.041
10149SOL    HW231347   3.966   3.660   1.145
10150SOL     OW31348   4.676   4.563   1.076
10150SOL    HW131349   4.585   4.531   1.102
10150SOL    HW231350   4.728   4.489   1.034
10151SOL     OW31351   6.065   0.361   6.166
10151SOL    HW131352   6.145   0.315   6.205
10151SOL    HW231353   6.009   0.294   6.118
10152SOL     OW31354   4.427   0.130   2.471
10152SOL    HW131355   4.482   0.162   2.547
10152SOL    HW231356   4.452   0.036   2.448
10153SOL     OW31357   4.895   4.513   2.231
10153SOL    HW131358   4.800   4.520   2.262
10153SOL    HW231359   4.930   4.605   2.211
10154SOL     OW31360   4.863   5.435   6.063
10154SOL    HW131361   4.796   5.361   6.060
10154SOL    HW231362   4.817   5.522   6.079
10155SOL     OW31363   4.404   1.686   4.470
10155SOL    HW131364   4.456   1.672   4.385
10155SOL    HW231365   4.307   1.676   4.451
10156SOL     OW31366   3.944   1.619   0.263
10156SOL    HW131367   3.857   1.616   0.313
10156SOL    HW231368   3.971   1.714   0.250
10157SOL     OW31369   0.455   4.225   1.639
10157SOL    HW131370   0.400   4.309   1.644
10157SOL    HW231371   0.397   4.150   1.608
10158SOL     OW31372   6.124   5.139   0.107
10158SOL    HW131373   6.121   5.068   0.037
10158SOL    HW231374   6.210   5.190   0.099
10159SOL     OW31375   3.333   3.013   1.829
10159SOL    HW131376   3.261   3.018   1.898
10159SOL    HW231377   3.373   3.103   1.814
10160SOL     OW31378   0.337   4.635   2.453
10160SOL    HW131379   0.305   4.656   2.545
10160SOL    HW231380   0.415   4.572   2.459
10161SOL     OW31381   5.417   3.333   5.196
10161SOL    HW131382   5.372   3.252   5.158
10161SOL    HW231383   5.362   3.414   5.174
10162SOL     OW31384   1.642   2.262   1.705
10162SOL    HW131385   1.733   2.295   1.682
10162SOL    HW231386   1.577   2.289   1.634
10163SOL     OW31387   2.601   5.432   5.081
10163SOL    HW131388   2.655   5.389   5.009
10163SOL    HW231389   2.661   5.489   5.138
10164SOL     OW31390   1.106   1.645   3.905
10164SOL    HW131391   1.058   1.729   3.880
10164SOL    HW231392   1.189   1.636   3.848
10165SOL     OW31393   0.793   3.566   4.236
10165SOL    HW131394   0.841   3.490   4.280
10165SOL    HW231395   0.830   3.579   4.144
10166SOL     OW31396   2.417   6.469   1.901
10166SOL    HW131397   2.461   6.431   1.820
10166SOL    HW231398   2.458   6.557   1.923
10167SOL     OW31399   2.301   1.756   6.879
10167SOL    HW131400   2.241   1.719   6.949
10167SOL    HW231401   2.339   1.844   6.910
10168SOL     OW31402   6.972   0.407   6.399
10168SOL    HW131403   6.941   0.342   6.469
10168SOL    HW231404   0.036   0.371   6.355
10169SOL     OW31405   5.048   4.399   3.952
10169SOL    HW131406   4.991   4.410   3.871
10169SOL    HW231407   5.063   4.489   3.994
10170SOL     OW31408   5.151   5.558   0.164
10170SOL    HW131409   5.127   5.639   0.219
10170SOL    HW231410   5.076   5.492   0.169
10171SOL     OW31411   1.938   4.773   4.750
10171SOL    HW131412   1.979   4.783   4.659
10171SOL    HW231413   1.841   4.754   4.740
10172SOL     OW31414   6.444   0.380   2.992
10172SOL    HW131415   6.351   0.408   3.014
10172SOL    HW231416   6.442   0.305   2.926
10173SOL     OW31417   3.500   3.544   4.611
10173SOL    HW131418   3.526   3.604   4.536
10173SOL    HW231419   3.553   3.460   4.606
10174SOL     OW31420   4.716   5.073   1.316
10174SOL    HW131421   4.671   5.068   1.406
10174SOL    HW231422   4.806   5.031   1.322
10175SOL     OW31423   0.212   0.334   4.214
10175SOL    HW131424   0.125   0.375   4.242
10175SOL    HW231425   0.282   0.355   4.282
10176SOL     OW31426   6.767   1.239   4.938
10176SOL    HW131427   6.758   1.234   4.838
10176SOL    HW231428   6.863   1.228   4.963
10177SOL     OW31429   2.802   1.080   3.526
10177SOL    HW131430   2.841   1.159   3.574
10177SOL    HW231431   2.728   1.042   3.581
10178SOL     OW31432   0.427   1.659   1.142
10178SOL    HW131433   0.484   1.629   1.066
10178SOL    HW231434   0.331   1.657   1.115
10179SOL     OW31435   1.396   4.289   0.201
10179SOL    HW131436   1.327   4.294   0.128
10179SOL    HW231437   1.401   4.377   0.248
10180SOL     OW31438   3.848   6.528   5.801
10180SOL    HW131439   3.879   6.445   5.756
10180SOL    HW231440   3.772   6.506   5.863
10181SOL     OW31441   5.925   3.157   2.854
10181SOL    HW131442   5.979   3.077   2.831
10181SOL    HW231443   5.828   3.138   2.837
10182SOL     OW31444   4.377   0.869   1.325
10182SOL    HW131445   4.468   0.897   1.355
10182SOL    HW231446   4.337   0.939   1.266
10183SOL     OW31447   5.952   0.630   5.851
10183SOL    HW131448   5.923   0.673   5.937
10183SOL    HW231449   6.028   0.567   5.870
10184SOL     OW31450   5.183   1.814   5.993
10184SOL    HW131451   5.248   1.856   5.930
10184SOL    HW231452   5.174   1.870   6.075
10185SOL     OW31453   3.711   5.483   1.399
10185SOL    HW131454   3.776   5.507   1.471
10185SOL    HW231455   3.650   5.561   1.383
10186SOL     OW31456   3.576   3.110   6.413
10186SOL    HW131457   3.576   3.078   6.508
10186SOL    HW231458   3.641   3.186   6.404
10187SOL     OW31459   2.275   4.546   5.542
10187SOL    HW131460   2.285   4.536   5.443
10187SOL    HW231461   2.364   4.567   5.582
10188SOL     OW31462   2.943   0.075   6.232
10188SOL    HW131463   3.010   0.069   6.307
10188SOL    HW231464   2.947   0.166   6.192
10189SOL     OW31465   1.694   1.814   5.520
10189SOL    HW131466   1.647   1.732   5.552
10189SOL    HW231467   1.789   1.792   5.496
10190SOL     OW31468   4.272   4.760   1.071
10190SOL    HW131469   4.325   4.678   1.090
10190SOL    HW231470   4.200   4.769   1.140
10191SOL     OW31471   5.098   6.724   6.977
10191SOL    HW131472   5.044   6.804   6.948
10191SOL    HW231473   5.036   6.648   6.998
10192SOL     OW31474   1.541   1.531   4.198
10192SOL    HW131475   1.462   1.481   4.162
10192SOL    HW231476   1.615   1.529   4.131
10193SOL     OW31477   3.862   3.519   3.706
10193SOL    HW131478   3.840   3.422   3.704
10193SOL    HW231479   3.958   3.532   3.733
10194SOL     OW31480   2.763   0.432   2.866
10194SOL    HW131481   2.845   0.377   2.878
10194SOL    HW231482   2.759   0.467   2.772
10195SOL     OW31483   4.946   6.838   2.874
10195SOL    HW131484   4.878   6.906   2.848
10195SOL    HW231485   4.951   6.767   2.803
10196SOL     OW31486   6.143   3.176   4.548
10196SOL    HW131487   6.078   3.253   4.552
10196SOL    HW231488   6.098   3.094   4.582
10197SOL     OW31489   5.596   1.131   2.544
10197SOL    HW131490   5.608   1.172   2.635
10197SOL    HW231491   5.662   1.171   2.481
10198SOL     OW31492   2.377   0.153   0.814
10198SOL    HW131493   2.380   0.241   0.767
10198SOL    HW231494   2.437   0.155   0.894
10199SOL     OW31495   1.107   1.689   0.719
10199SOL    HW131496   1.095   1.788   0.708
10199SOL    HW231497   1.203   1.666   0.703
10200SOL     OW31498   5.747   4.263   5.961
10200SOL    HW131499   5.720   4.182   5.910
10200SOL    HW231500   5.665   4.309   5.996
10201SOL     OW31501   1.613   4.824   2.569
10201SOL    HW131502   1.697   4.877   2.556
10201SOL    HW231503   1.538   4.868   2.519
10202SOL     OW31504   0.625   2.537   2.489
10202SOL    HW131505   0.637   2.612   2.554
10202SOL    HW231506   0.531   2.503   2.494
10203SOL     OW31507   0.843   3.154   2.083
10203SOL    HW131508   0.890   3.184   2.000
10203SOL    HW231509   0.745   3.170   2.073
10204SOL     OW31510   3.365   5.277   4.250
10204SOL    HW131511   3.432   5.340   4.290
10204SOL    HW231512   3.360   5.294   4.151
10205SOL     OW31513   4.501   1.000   2.681
10205SOL    HW131514   4.448   0.945   2.745
10205SOL    HW231515   4.439   1.054   2.624
10206SOL     OW31516   4.815   0.240   6.333
10206SOL    HW131517   4.770   0.235   6.244
10206SOL    HW231518   4.773   0.313   6.388
10207SOL     OW31519   4.241   0.935   3.161
10207SOL    HW131520   4.250   0.886   3.074
10207SOL    HW231521   4.211   0.871   3.232
10208SOL     OW31522   5.944   3.871   5.282
10208SOL    HW131523   5.876   3.891   5.352
10208SOL    HW231524   5.961   3.772   5.279
10209SOL     OW31525   5.285   6.955   6.709
10209SOL    HW131526   5.193   6.989   6.725
10209SOL    HW231527   5.288   6.906   6.622
10210SOL     OW31528   4.811   5.703   1.894
10210SOL    HW131529   4.843   5.641   1.965
10210SOL    HW231530   4.834   5.797   1.920
10211SOL     OW31531   3.526   6.245   4.880
10211SOL    HW131532   3.465   6.177   4.841
10211SOL    HW231533   3.606   6.200   4.919
10212SOL     OW31534   6.360   6.359   4.958
10212SOL    HW131535   6.344   6.427   4.887
10212SOL    HW231536   6.304   6.380   5.038
10213SOL     OW31537   5.626   0.767   3.620
10213SOL    HW131538   5.527   0.771   3.605
10213SOL    HW231539   5.651   0.678   3.659
10214SOL     OW31540   6.966   0.262   2.166
10214SOL    HW131541   6.919   0.211   2.095
10214SOL    HW231542   0.035   0.218   2.188
10215SOL     OW31543   3.631   2.524   0.083
10215SOL    HW131544   3.598   2.614   0.112
10215SOL    HW231545   3.627   2.461   0.161
10216SOL     OW31546   4.918   0.524   1.903
10216SOL    HW131547   4.888   0.442   1.855
10216SOL    HW231548   4.861   0.602   1.876
10217SOL     OW31549   3.206   1.408   5.427
10217SOL    HW131550   3.214   1.421   5.526
10217SOL    HW231551   3.130   1.464   5.392
10218SOL     OW31552   2.007   2.782   1.004
10218SOL    HW131553   1.945   2.843   1.053
10218SOL    HW231554   2.074   2.743   1.068
10219SOL     OW31555   0.899   3.839   0.542
10219SOL    HW131556   0.899   3.936   0.516
10219SOL    HW231557   0.814   3.818   0.590
10220SOL     OW31558   4.334   2.022   0.963
10220SOL    HW131559   4.272   1.947   0.944
10220SOL    HW231560   4.419   2.009   0.912
10221SOL     OW31561   3.505   0.676   5.080
10221SOL    HW131562   3.411   0.705   5.101
10221SOL    HW231563   3.563   0.757   5.071
10222SOL     OW31564   1.715   5.254   6.016
10222SOL    HW131565   1.800   5.204   6.007
10222SOL    HW231566   1.639   5.199   5.980
10223SOL     OW31567   6.516   4.517   0.164
10223SOL    HW131568   6.512   4.609   0.204
10223SOL    HW231569   6.428   4.496   0.122
10224SOL     OW31570   2.141   6.793   4.416
10224SOL    HW131571   2.072   6.864   4.402
10224SOL    HW231572   2.189   6.776   4.330
10225SOL     OW31573   5.702   6.171   4.432
10225SOL    HW131574   5.785   6.132   4.471
10225SOL    HW231575   5.725   6.225   4.351
10226SOL     OW31576   6.983   2.428   0.902
10226SOL    HW131577   7.005   2.416   0.805
10226SOL    HW231578   6.890   2.394   0.919
10227SOL     OW31579   5.648   5.857   6.369
10227SOL    HW131580   5.623   5.849   6.466
10227SOL    HW231581   5.640   5.768   6.325
10228SOL     OW31582   0.583   3.847   3.108
10228SOL    HW131583   0.629   3.875   3.024
10228SOL    HW231584   0.509   3.784   3.086
10229SOL     OW31585   2.026   0.816   2.170
10229SOL    HW131586   2.047   0.875   2.092
10229SOL    HW231587   2.110   0.771   2.201
10230SOL     OW31588   6.645   6.595   4.064
10230SOL    HW131589   6.679   6.513   4.111
10230SOL    HW231590   6.680   6.676   4.110
10231SOL     OW31591   4.651   6.337   4.303
10231SOL    HW131592   4.680   6.407   4.368
10231SOL    HW231593   4.634   6.378   4.214
10232SOL     OW31594   3.795   2.100   4.633
10232SOL    HW131595   3.731   2.160   4.681
10232SOL    HW231596   3.744   2.033   4.579
10233SOL     OW31597   4.720   1.096   5.696
10233SOL    HW131598   4.641   1.089   5.636
10233SOL    HW231599   4.803   1.070   5.646
10234SOL     OW31600   5.707   6.272   1.272
10234SOL    HW131601   5.703   6.308   1.179
10234SOL    HW231602   5.690   6.346   1.337
10235SOL     OW31603   5.350   1.705   6.329
10235SOL    HW131604   5.421   1.698   6.259
10235SOL    HW231605   5.295   1.622   6.329
10236SOL     OW31606   2.388   6.150   2.654
10236SOL    HW131607   2.461   6.105   2.604
10236SOL    HW231608   2.427   6.207   2.726
10237SOL     OW31609   6.985   2.619   3.003
10237SOL    HW131610   6.945   2.680   2.935
10237SOL    HW231611   0.050   2.660   3.041
10238SOL     OW31612   4.716   4.678   4.357
10238SOL    HW131613   4.814   4.658   4.358
10238SOL    HW231614   4.666   4.598   4.324
10239SOL     OW31615   0.240   4.264   3.749
10239SOL    HW131616   0.164   4.201   3.763
10239SOL    HW231617   0.255   4.317   3.832
10240SOL     OW31618   7.001   3.795   3.907
10240SOL    HW131619   6.982   3.742   3.823
10240SOL    HW231620   6.959   3.748   3.985
10241SOL     OW31621   2.224   1.529   3.410
10241SOL    HW131622   2.127   1.538   3.434
10241SOL    HW231623   2.278   1.526   3.494
10242SOL     OW31624   0.311   6.380   6.350
10242SOL    HW131625   0.385   6.321   6.380
10242SOL    HW231626   0.329   6.474   6.378
10243SOL     OW31627   0.859   5.769   2.511
10243SOL    HW131628   0.815   5.822   2.583
10243SOL    HW231629   0.944   5.815   2.483
10244SOL     OW31630   1.929   6.322   6.486
10244SOL    HW131631   1.923   6.270   6.401
10244SOL    HW231632   2.000   6.283   6.545
10245SOL     OW31633   2.088   2.319   0.023
10245SOL    HW131634   2.044   2.408   0.031
10245SOL    HW231635   2.147   2.303   0.102
10246SOL     OW31636   4.083   3.637   4.594
10246SOL    HW131637   4.036   3.609   4.678
10246SOL    HW231638   4.171   3.679   4.617
10247SOL     OW31639   1.471   5.389   5.795
10247SOL    HW131640   1.513   5.460   5.852
10247SOL    HW231641   1.376   5.413   5.775
10248SOL     OW31642   4.726   0.736   1.830
10248SOL    HW131643   4.679   0.757   1.745
10248SOL    HW231644   4.812   0.787   1.834
10249SOL     OW31645   3.518   1.266   0.189
10249SOL    HW131646   3.578   1.306   0.258
10249SOL    HW231647   3.574   1.217   0.122
10250SOL     OW31648   6.756   0.253   0.156
10250SOL    HW131649   6.723   0.317   0.088
10250SOL    HW231650   6.849   0.279   0.184
10251SOL     OW31651   3.733   4.733   6.668
10251SOL    HW131652   3.749   4.663   6.599
10251SOL    HW231653   3.644   4.776   6.652
10252SOL     OW31654   6.633   5.197   1.765
10252SOL    HW131655   6.545   5.236   1.793
10252SOL    HW231656   6.618   5.132   1.691
10253SOL     OW31657   3.002   5.062   6.476
10253SOL    HW131658   2.985   4.976   6.525
10253SOL    HW231659   3.018   5.043   6.380
10254SOL     OW31660   2.501   2.229   4.928
10254SOL    HW131661   2.552   2.192   5.006
10254SOL    HW231662   2.562   2.243   4.851
10255SOL     OW31663   3.025   5.780   3.150
10255SOL    HW131664   2.956   5.831   3.202
10255SOL    HW231665   3.042   5.693   3.196
10256SOL     OW31666   5.847   6.157   6.821
10256SOL    HW131667   5.937   6.133   6.785
10256SOL    HW231668   5.855   6.180   6.918
10257SOL     OW31669   1.307   6.328   6.268
10257SOL    HW131670   1.331   6.238   6.305
10257SOL    HW231671   1.273   6.386   6.342
10258SOL     OW31672   4.120   1.168   3.224
10258SOL    HW131673   4.166   1.088   3.183
10258SOL    HW231674   4.150   1.178   3.319
10259SOL     OW31675   0.674   3.462   2.969
10259SOL    HW131676   0.688   3.560   2.980
10259SOL    HW231677   0.732   3.412   3.033
10260SOL     OW31678   0.099   6.877   1.305
10260SOL    HW131679   0.157   6.914   1.378
10260SOL    HW231680   0.131   6.911   1.216
10261SOL     OW31681   1.995   6.647   1.452
10261SOL    HW131682   1.944   6.572   1.493
10261SOL    HW231683   2.069   6.675   1.514
10262SOL     OW31684   2.148   5.130   5.052
10262SOL    HW131685   2.240   5.159   5.078
10262SOL    HW231686   2.143   5.030   5.055
10263SOL     OW31687   5.969   2.133   6.216
10263SOL    HW131688   5.957   2.035   6.202
10263SOL    HW231689   5.901   2.166   6.281
10264SOL     OW31690   0.369   0.004   6.760
10264SOL    HW131691   0.318   0.055   6.829
10264SOL    HW231692   0.407   6.940   6.801
10265SOL     OW31693   4.391   1.804   2.321
10265SOL    HW131694   4.350   1.886   2.359
10265SOL    HW231695   4.378   1.727   2.384
10266SOL     OW31696   3.663   4.211   6.253
10266SOL    HW131697   3.643   4.305   6.223
10266SOL    HW231698   3.761   4.201   6.266
10267SOL     OW31699   6.253   1.934   6.377
10267SOL    HW131700   6.186   1.988   6.326
10267SOL    HW231701   6.337   1.926   6.323
10268SOL     OW31702   6.547   4.964   1.630
10268SOL    HW131703   6.466   4.955   1.572
10268SOL    HW231704   6.599   4.879   1.628
10269SOL     OW31705   2.836   2.798   5.860
10269SOL    HW131706   2.935   2.802   5.848
10269SOL    HW231707   2.808   2.860   5.933
10270SOL     OW31708   2.264   6.282   1.257
10270SOL    HW131709   2.262   6.290   1.157
10270SOL    HW231710   2.354   6.310   1.291
10271SOL     OW31711   4.006   5.222   1.021
10271SOL    HW131712   4.002   5.154   0.948
10271SOL    HW231713   4.042   5.180   1.104
10272SOL     OW31714   1.199   0.891   6.033
10272SOL    HW131715   1.168   0.846   6.117
10272SOL    HW231716   1.223   0.986   6.054
10273SOL     OW31717   4.163   5.871   4.751
10273SOL    HW131718   4.140   5.906   4.661
10273SOL    HW231719   4.245   5.813   4.745
10274SOL     OW31720   2.102   6.064   5.838
10274SOL    HW131721   2.096   6.164   5.839
10274SOL    HW231722   2.197   6.037   5.850
10275SOL     OW31723   0.932   6.341   1.992
10275SOL    HW131724   0.977   6.430   2.001
10275SOL    HW231725   0.861   6.347   1.921
10276SOL     OW31726   6.713   6.232   6.022
10276SOL    HW131727   6.682   6.273   6.108
10276SOL    HW231728   6.804   6.267   5.999
10277SOL     OW31729   1.858   5.453   3.499
10277SOL    HW131730   1.834   5.550   3.503
10277SOL    HW231731   1.928   5.438   3.428
10278SOL     OW31732   5.876   0.553   6.217
10278SOL    HW131733   5.936   0.479   6.185
10278SOL    HW231734   5.782   0.519   6.225
10279SOL     OW31735   3.610   6.607   3.381
10279SOL    HW131736   3.695   6.652   3.407
10279SOL    HW231737   3.625   6.552   3.299
10280SOL     OW31738   2.823   3.387   6.705
10280SOL    HW131739   2.854   3.293   6.717
10280SOL    HW231740   2.826   3.410   6.607
10281SOL     OW31741   4.126   6.815   3.470
10281SOL    HW131742   4.131   6.787   3.566
10281SOL    HW231743   4.188   6.759   3.415
10282SOL     OW31744   0.950   2.415   4.595
10282SOL    HW131745   1.031   2.473   4.582
10282SOL    HW231746   0.963   2.356   4.675
10283SOL     OW31747   0.678   3.345   6.298
10283SOL    HW131748   0.604   3.412   6.294
10283SOL    HW231749   0.725   3.353   6.386
10284SOL     OW31750   5.295   3.455   6.129
10284SOL    HW131751   5.218   3.395   6.105
10284SOL    HW231752   5.327   3.433   6.221
10285SOL     OW31753   5.936   0.232   0.935
10285SOL    HW131754   6.003   0.250   0.862
10285SOL    HW231755   5.944   0.303   1.005
10286SOL     OW31756   4.644   0.971   3.838
10286SOL    HW131757   4.712   0.898   3.852
10286SOL    HW231758   4.555   0.940   3.873
10287SOL     OW31759   2.856   5.685   2.028
10287SOL    HW131760   2.780   5.659   1.968
10287SOL    HW231761   2.923   5.611   2.031
10288SOL     OW31762   4.958   6.340   4.137
10288SOL    HW131763   5.033   6.278   4.113
10288SOL    HW231764   4.872   6.288   4.138
10289SOL     OW31765   2.975   1.136   1.640
10289SOL    HW131766   2.906   1.197   1.602
10289SOL    HW231767   3.026   1.093   1.566
10290SOL     OW31768   3.055   3.774   2.208
10290SOL    HW131769   3.124   3.810   2.146
10290SOL    HW231770   3.016   3.690   2.171
10291SOL     OW31771   3.716   0.126   6.037
10291SOL    HW131772   3.743   0.221   6.020
10291SOL    HW231773   3.622   0.113   6.006
10292SOL     OW31774   0.252   1.262   4.044
10292SOL    HW131775   0.171   1.209   4.070
10292SOL    HW231776   0.229   1.359   4.038
10293SOL     OW31777   2.647   6.025   3.000
10293SOL    HW131778   2.737   6.048   2.963
10293SOL    HW231779   2.639   6.062   3.093
10294SOL     OW31780   5.806   1.196   3.710
10294SOL    HW131781   5.828   1.171   3.616
10294SOL    HW231782   5.722   1.149   3.739
10295SOL     OW31783   0.931   4.958   5.350
10295SOL    HW131784   0.870   4.954   5.428
10295SOL    HW231785   0.998   4.883   5.356
10296SOL     OW31786   6.023   1.812   0.788
10296SOL    HW131787   5.949   1.784   0.849
10296SOL    HW231788   6.076   1.732   0.760
10297SOL     OW31789   1.986   5.181   4.205
10297SOL    HW131790   2.030   5.099   4.169
10297SOL    HW231791   2.041   5.261   4.184
10298SOL     OW31792   5.420   3.459   3.695
10298SOL    HW131793   5.421   3.559   3.707
10298SOL    HW231794   5.508   3.422   3.725
10299SOL     OW31795   4.695   4.952   2.221
10299SOL    HW131796   4.622   4.929   2.156
10299SOL    HW231797   4.716   5.050   2.212
10300SOL     OW31798   1.908   4.697   2.714
10300SOL    HW131799   1.992   4.643   2.701
10300SOL    HW231800   1.829   4.636   2.715
10301SOL     OW31801   5.727   1.432   1.605
10301SOL    HW131802   5.645   1.392   1.647
10301SOL    HW231803   5.706   1.525   1.574
10302SOL     OW31804   2.004   5.347   3.298
10302SOL    HW131805   2.093   5.300   3.299
10302SOL    HW231806   1.932   5.280   3.283
10303SOL     OW31807   3.292   2.683   0.797
10303SOL    HW131808   3.227   2.691   0.722
10303SOL    HW231809   3.339   2.770   0.812
10304SOL     OW31810   6.175   6.666   3.454
10304SOL    HW131811   6.156   6.763   3.471
10304SOL    HW231812   6.144   6.641   3.362
10305SOL     OW31813   2.081   5.763   1.139
10305SOL    HW131814   2.070   5.847   1.193
10305SOL    HW231815   2.001   5.704   1.152
10306SOL     OW31816   4.418   5.456   0.597
10306SOL    HW131817   4.358   5.476   0.519
10306SOL    HW231818   4.434   5.358   0.603
10307SOL     OW31819   2.608   1.232   5.234
10307SOL    HW131820   2.526   1.241   5.290
10307SOL    HW231821   2.587   1.259   5.140
10308SOL     OW31822   3.215   5.607   3.857
10308SOL    HW131823   3.243   5.614   3.952
10308SOL    HW231824   3.121   5.640   3.847
10309SOL     OW31825   0.378   6.346   3.483
10309SOL    HW131826   0.350   6.396   3.564
10309SOL    HW231827   0.376   6.247   3.502
10310SOL     OW31828   4.153   3.479   4.053
10310SOL    HW131829   4.151   3.546   4.127
10310SOL    HW231830   4.144   3.387   4.091
10311SOL     OW31831   6.840   6.173   0.413
10311SOL    HW131832   6.794   6.131   0.335
10311SOL    HW231833   6.841   6.273   0.402
10312SOL     OW31834   1.743   4.738   0.925
10312SOL    HW131835   1.781   4.830   0.936
10312SOL    HW231836   1.779   4.678   0.996
10313SOL     OW31837   5.420   6.061   3.232
10313SOL    HW131838   5.354   6.111   3.287
10313SOL    HW231839   5.512   6.097   3.248
10314SOL     OW31840   6.722   5.483   6.714
10314SOL    HW131841   6.811   5.469   6.671
10314SOL    HW231842   6.661   5.408   6.689
10315SOL     OW31843   6.246   5.735   4.469
10315SOL    HW131844   6.306   5.808   4.502
10315SOL    HW231845   6.167   5.776   4.423
10316SOL     OW31846   0.043   3.767   2.873
10316SOL    HW131847   0.064   3.828   2.950
10316SOL    HW231848   0.100   3.685   2.879
10317SOL     OW31849   3.608   4.883   1.041
10317SOL    HW131850   3.625   4.785   1.029
10317SOL    HW231851   3.510   4.901   1.031
10318SOL     OW31852   6.608   6.001   1.897
10318SOL    HW131853   6.630   6.081   1.841
10318SOL    HW231854   6.639   6.018   1.991
10319SOL     OW31855   5.134   6.476   4.603
10319SOL    HW131856   5.217   6.530   4.615
10319SOL    HW231857   5.125   6.450   4.507
10320SOL     OW31858   4.582   6.605   1.067
10320SOL    HW131859   4.536   6.605   1.156
10320SOL    HW231860   4.663   6.664   1.071
10321SOL     OW31861   4.118   6.353   4.383
10321SOL    HW131862   4.181   6.366   4.460
10321SOL    HW231863   4.025   6.341   4.417
10322SOL     OW31864   6.835   2.512   0.071
10322SOL    HW131865   6.748   2.520   0.119
10322SOL    HW231866   6.865   2.602   0.041
10323SOL     OW31867   5.950   2.273   4.862
10323SOL    HW131868   5.974   2.260   4.958
10323SOL    HW231869   5.859   2.235   4.845
10324SOL     OW31870   3.115   3.252   3.307
10324SOL    HW131871   3.209   3.265   3.277
10324SOL    HW231872   3.097   3.307   3.388
10325SOL     OW31873   0.815   3.705   3.045
10325SOL    HW131874   0.797   3.670   3.137
10325SOL    HW231875   0.914   3.714   3.031
10326SOL     OW31876   4.893   1.579   1.635
10326SOL    HW131877   4.891   1.484   1.667
10326SOL    HW231878   4.982   1.598   1.595
10327SOL     OW31879   0.366   0.624   3.839
10327SOL    HW131880   0.385   0.680   3.759
10327SOL    HW231881   0.417   0.538   3.833
10328SOL     OW31882   5.999   2.794   2.478
10328SOL    HW131883   6.015   2.888   2.508
10328SOL    HW231884   6.034   2.783   2.384
10329SOL     OW31885   4.160   6.041   2.211
10329SOL    HW131886   4.091   6.091   2.157
10329SOL    HW231887   4.149   6.064   2.308
10330SOL     OW31888   3.699   4.879   1.364
10330SOL    HW131889   3.743   4.923   1.443
10330SOL    HW231890   3.753   4.799   1.337
10331SOL     OW31891   5.411   0.404   4.414
10331SOL    HW131892   5.333   0.381   4.356
10331SOL    HW231893   5.387   0.481   4.473
10332SOL     OW31894   0.269   2.074   6.769
10332SOL    HW131895   0.270   2.073   6.669
10332SOL    HW231896   0.363   2.083   6.804
10333SOL     OW31897   4.728   4.277   4.529
10333SOL    HW131898   4.800   4.208   4.524
10333SOL    HW231899   4.639   4.232   4.529
10334SOL     OW31900   1.033   4.859   5.022
10334SOL    HW131901   1.057   4.825   4.932
10334SOL    HW231902   1.082   4.806   5.092
10335SOL     OW31903   1.942   5.542   2.145
10335SOL    HW131904   1.907   5.487   2.069
10335SOL    HW231905   1.879   5.537   2.222
10336SOL     OW31906   4.533   6.812   2.699
10336SOL    HW131907   4.527   6.909   2.723
10336SOL    HW231908   4.538   6.758   2.782
10337SOL     OW31909   0.677   5.321   4.926
10337SOL    HW131910   0.613   5.311   5.002
10337SOL    HW231911   0.770   5.299   4.958
10338SOL     OW31912   3.681   5.118   3.330
10338SOL    HW131913   3.772   5.130   3.370
10338SOL    HW231914   3.619   5.080   3.399
10339SOL     OW31915   3.065   5.587   0.994
10339SOL    HW131916   3.043   5.526   1.071
10339SOL    HW231917   3.164   5.599   0.989
10340SOL     OW31918   1.466   6.606   6.659
10340SOL    HW131919   1.516   6.601   6.573
10340SOL    HW231920   1.530   6.615   6.735
10341SOL     OW31921   1.418   1.165   2.549
10341SOL    HW131922   1.410   1.162   2.450
10341SOL    HW231923   1.384   1.253   2.583
10342SOL     OW31924   2.548   6.884   4.377
10342SOL    HW131925   2.550   6.809   4.312
10342SOL    HW231926   2.482   6.864   4.449
10343SOL     OW31927   2.263   2.961   4.349
10343SOL    HW131928   2.254   3.050   4.394
10343SOL    HW231929   2.333   2.966   4.278
10344SOL     OW31930   4.111   3.925   6.739
10344SOL    HW131931   4.155   3.997   6.791
10344SOL    HW231932   4.158   3.913   6.652
10345SOL     OW31933   1.585   1.689   5.964
10345SOL    HW131934   1.491   1.661   5.986
10345SOL    HW231935   1.590   1.788   5.959
10346SOL     OW31936   4.908   5.459   0.154
10346SOL    HW131937   4.849   5.379   0.166
10346SOL    HW231938   4.859   5.530   0.104
10347SOL     OW31939   5.103   2.005   1.813
10347SOL    HW131940   5.168   1.931   1.830
10347SOL    HW231941   5.018   1.966   1.775
10348SOL     OW31942   6.948   4.865   5.752
10348SOL    HW131943   6.860   4.844   5.795
10348SOL    HW231944   6.998   4.930   5.809
10349SOL     OW31945   6.905   1.452   0.680
10349SOL    HW131946   6.989   1.479   0.634
10349SOL    HW231947   6.903   1.352   0.690
10350SOL     OW31948   2.192   4.107   4.375
10350SOL    HW131949   2.249   4.184   4.404
10350SOL    HW231950   2.137   4.076   4.453
10351SOL     OW31951   4.604   4.492   4.888
10351SOL    HW131952   4.508   4.516   4.897
10351SOL    HW231953   4.629   4.488   4.791
10352SOL     OW31954   5.193   1.421   0.160
10352SOL    HW131955   5.256   1.356   0.203
10352SOL    HW231956   5.100   1.385   0.164
10353SOL     OW31957   6.875   3.041   3.395
10353SOL    HW131958   6.779   3.023   3.417
10353SOL    HW231959   6.880   3.103   3.317
10354SOL     OW31960   6.730   3.070   1.112
10354SOL    HW131961   6.677   2.986   1.116
10354SOL    HW231962   6.701   3.124   1.033
10355SOL     OW31963   0.154   1.659   1.102
10355SOL    HW131964   0.118   1.587   1.042
10355SOL    HW231965   0.155   1.746   1.053
10356SOL     OW31966   5.844   3.161   5.903
10356SOL    HW131967   5.854   3.061   5.893
10356SOL    HW231968   5.754   3.189   5.870
10357SOL     OW31969   0.932   1.184   6.070
10357SOL    HW131970   0.905   1.121   6.143
10357SOL    HW231971   0.921   1.278   6.102
10358SOL     OW31972   0.711   1.871   2.838
10358SOL    HW131973   0.788   1.810   2.819
10358SOL    HW231974   0.741   1.966   2.829
10359SOL     OW31975   6.145   2.366   1.734
10359SOL    HW131976   6.200   2.448   1.753
10359SOL    HW231977   6.184   2.288   1.782
10360SOL     OW31978   6.192   4.597   1.786
10360SOL    HW131979   6.199   4.587   1.686
10360SOL    HW231980   6.095   4.601   1.812
10361SOL     OW31981   0.024   1.130   2.488
10361SOL    HW131982   0.001   1.142   2.391
10361SOL    HW231983   6.959   1.113   2.540
10362SOL     OW31984   1.144   5.918   1.225
10362SOL    HW131985   1.068   5.980   1.243
10362SOL    HW231986   1.166   5.918   1.127
10363SOL     OW31987   5.344   4.293   6.824
10363SOL    HW131988   5.257   4.277   6.777
10363SOL    HW231989   5.414   4.314   6.757
10364SOL     OW31990   6.159   4.757   2.269
10364SOL    HW131991   6.227   4.725   2.335
10364SOL    HW231992   6.078   4.790   2.316
10365SOL     OW31993   5.300   5.566   0.402
10365SOL    HW131994   5.261   5.657   0.389
10365SOL    HW231995   5.277   5.508   0.324
10366SOL     OW31996   2.986   6.362   3.234
10366SOL    HW131997   2.968   6.324   3.144
10366SOL    HW231998   2.916   6.429   3.257
10367SOL     OW31999   6.003   6.756   1.963
10367SOL    HW132000   6.055   6.681   2.003
10367SOL    HW232001   6.052   6.792   1.884
10368SOL     OW32002   1.794   6.498   1.708
10368SOL    HW132003   1.738   6.533   1.634
10368SOL    HW232004   1.739   6.440   1.767
10369SOL     OW32005   2.583   6.661   6.087
10369SOL    HW132006   2.525   6.688   6.164
10369SOL    HW232007   2.678   6.688   6.105
10370SOL     OW32008   1.095   0.601   6.164
10370SOL    HW132009   1.136   0.567   6.080
10370SOL    HW232010   1.008   0.554   6.180
10371SOL     OW32011   4.397   4.992   3.173
10371SOL    HW132012   4.462   5.052   3.219
10371SOL    HW232013   4.332   5.047   3.120
10372SOL     OW32014   2.814   6.559   1.662
10372SOL    HW132015   2.723   6.555   1.623
10372SOL    HW232016   2.830   6.478   1.719
10373SOL     OW32017   0.294   1.302   5.994
10373SOL    HW132018   0.255   1.262   5.911
10373SOL    HW232019   0.390   1.273   6.003
10374SOL     OW32020   4.007   5.453   3.487
10374SOL    HW132021   3.943   5.486   3.418
10374SOL    HW232022   4.059   5.530   3.524
10375SOL     OW32023   2.589   4.595   0.351
10375SOL    HW132024   2.529   4.532   0.399
10375SOL    HW232025   2.626   4.662   0.416
10376SOL     OW32026   2.294   4.964   3.124
10376SOL    HW132027   2.373   4.905   3.107
10376SOL    HW232028   2.220   4.910   3.164
10377SOL     OW32029   1.633   0.909   2.201
10377SOL    HW132030   1.646   0.978   2.272
10377SOL    HW232031   1.720   0.891   2.156
10378SOL     OW32032   6.820   4.990   4.124
10378SOL    HW132033   6.828   5.053   4.202
10378SOL    HW232034   6.789   4.901   4.157
10379SOL     OW32035   2.254   6.341   4.192
10379SOL    HW132036   2.212   6.415   4.138
10379SOL    HW232037   2.183   6.280   4.227
10380SOL     OW32038   2.124   2.308   4.354
10380SOL    HW132039   2.113   2.399   4.394
10380SOL    HW232040   2.201   2.308   4.291
10381SOL     OW32041   4.390   5.958   2.049
10381SOL    HW132042   4.466   5.974   2.112
10381SOL    HW232043   4.308   6.004   2.083
10382SOL     OW32044   4.199   5.752   2.021
10382SOL    HW132045   4.275   5.816   2.020
10382SOL    HW232046   4.175   5.728   2.115
10383SOL     OW32047   1.722   4.731   0.411
10383SOL    HW132048   1.669   4.699   0.490
10383SOL    HW232049   1.678   4.812   0.372
10384SOL     OW32050   5.748   6.550   1.711
10384SOL    HW132051   5.733   6.566   1.809
10384SOL    HW232052   5.662   6.519   1.669
10385SOL     OW32053   4.828   4.607   6.931
10385SOL    HW132054   4.805   4.674   7.002
10385SOL    HW232055   4.783   4.520   6.951
10386SOL     OW32056   6.920   0.830   0.875
10386SOL    HW132057   6.873   0.800   0.792
10386SOL    HW232058   6.972   0.753   0.913
10387SOL     OW32059   4.954   3.284   2.075
10387SOL    HW132060   5.050   3.259   2.074
10387SOL    HW232061   4.902   3.214   2.124
10388SOL     OW32062   2.619   0.477   5.418
10388SOL    HW132063   2.602   0.454   5.514
10388SOL    HW232064   2.615   0.576   5.405
10389SOL     OW32065   0.510   3.595   0.642
10389SOL    HW132066   0.417   3.604   0.607
10389SOL    HW232067   0.550   3.510   0.608
10390SOL     OW32068   2.114   2.632   1.788
10390SOL    HW132069   2.109   2.675   1.698
10390SOL    HW232070   2.200   2.580   1.796
10391SOL     OW32071   5.694   6.953   4.164
10391SOL    HW132072   5.749   6.869   4.169
10391SOL    HW232073   5.657   6.974   4.255
10392SOL     OW32074   6.629   4.453   4.050
10392SOL    HW132075   6.662   4.393   3.977
10392SOL    HW232076   6.590   4.536   4.010
10393SOL     OW32077   1.415   3.842   3.448
10393SOL    HW132078   1.491   3.883   3.499
10393SOL    HW232079   1.365   3.779   3.507
10394SOL     OW32080   3.576   6.156   4.537
10394SOL    HW132081   3.607   6.251   4.538
10394SOL    HW232082   3.508   6.144   4.464
10395SOL     OW32083   0.605   0.524   1.003
10395SOL    HW132084   0.559   0.474   0.930
10395SOL    HW232085   0.536   0.560   1.067
10396SOL     OW32086   2.867   2.059   4.790
10396SOL    HW132087   2.957   2.104   4.796
10396SOL    HW232088   2.804   2.117   4.738
10397SOL     OW32089   3.406   2.012   2.499
10397SOL    HW132090   3.494   2.029   2.454
10397SOL    HW232091   3.420   1.946   2.574
10398SOL     OW32092   6.473   2.684   1.340
10398SOL    HW132093   6.500   2.695   1.244
10398SOL    HW232094   6.537   2.624   1.386
10399SOL     OW32095   6.145   3.572   1.978
10399SOL    HW132096   6.209   3.611   2.045
10399SOL    HW232097   6.054   3.566   2.018
10400SOL     OW32098   4.066   6.712   0.182
10400SOL    HW132099   4.119   6.784   0.137
10400SOL    HW232100   4.107   6.623   0.161
10401SOL     OW32101   0.203   1.129   5.443
10401SOL    HW132102   0.292   1.164   5.413
10401SOL    HW232103   0.177   1.173   5.528
10402SOL     OW32104   6.804   2.729   4.258
10402SOL    HW132105   6.783   2.801   4.191
10402SOL    HW232106   6.746   2.650   4.241
10403SOL     OW32107   2.640   0.431   3.108
10403SOL    HW132108   2.679   0.434   3.016
10403SOL    HW232109   2.540   0.441   3.103
10404SOL     OW32110   0.102   6.531   6.718
10404SOL    HW132111   0.190   6.567   6.685
10404SOL    HW232112   0.057   6.481   6.644
10405SOL     OW32113   0.095   1.028   6.010
10405SOL    HW132114   0.083   1.089   6.089
10405SOL    HW232115   0.059   1.073   5.928
10406SOL     OW32116   3.229   4.855   1.681
10406SOL    HW132117   3.309   4.815   1.636
10406SOL    HW232118   3.147   4.804   1.655
10407SOL     OW32119   3.062   6.898   0.389
10407SOL    HW132120   3.008   6.816   0.372
10407SOL    HW232121   3.158   6.873   0.400
10408SOL     OW32122   4.160   0.375   0.889
10408SOL    HW132123   4.126   0.298   0.836
10408SOL    HW232124   4.132   0.461   0.846
10409SOL     OW32125   5.778   4.974   1.054
10409SOL    HW132126   5.796   5.072   1.066
10409SOL    HW232127   5.842   4.937   0.987
10410SOL     OW32128   5.877   0.837   0.526
10410SOL    HW132129   5.786   0.795   0.532
10410SOL    HW232130   5.870   0.935   0.544
10411SOL     OW32131   2.949   5.321   3.371
10411SOL    HW132132   2.988   5.405   3.335
10411SOL    HW232133   2.883   5.342   3.443
10412SOL     OW32134   6.002   0.391   0.367
10412SOL    HW132135   5.909   0.358   0.386
10412SOL    HW232136   6.002   0.491   0.368
10413SOL     OW32137   5.787   2.458   0.827
10413SOL    HW132138   5.720   2.395   0.868
10413SOL    HW232139   5.765   2.552   0.853
10414SOL     OW32140   4.616   2.648   4.553
10414SOL    HW132141   4.524   2.611   4.544
10414SOL    HW232142   4.682   2.576   4.531
10415SOL     OW32143   0.852   6.330   6.251
10415SOL    HW132144   0.929   6.367   6.198
10415SOL    HW232145   0.786   6.288   6.188
10416SOL     OW32146   5.852   3.072   4.791
10416SOL    HW132147   5.813   2.999   4.847
10416SOL    HW232148   5.916   3.126   4.846
10417SOL     OW32149   2.387   4.879   3.992
10417SOL    HW132150   2.457   4.930   4.043
10417SOL    HW232151   2.367   4.794   4.039
10418SOL     OW32152   0.815   4.363   5.184
10418SOL    HW132153   0.849   4.332   5.272
10418SOL    HW232154   0.798   4.461   5.187
10419SOL     OW32155   1.236   1.184   0.745
10419SOL    HW132156   1.152   1.220   0.785
10419SOL    HW232157   1.315   1.236   0.779
10420SOL     OW32158   7.014   2.886   2.882
10420SOL    HW132159   7.004   2.874   2.783
10420SOL    HW232160   0.054   2.965   2.899
10421SOL     OW32161   1.232   0.551   3.545
10421SOL    HW132162   1.250   0.563   3.642
10421SOL    HW232163   1.164   0.617   3.515
10422SOL     OW32164   6.325   2.473   5.797
10422SOL    HW132165   6.366   2.407   5.860
10422SOL    HW232166   6.332   2.565   5.836
10423SOL     OW32167   4.681   4.668   3.911
10423SOL    HW132168   4.660   4.690   3.816
10423SOL    HW232169   4.777   4.690   3.930
10424SOL     OW32170   5.126   1.602   6.636
10424SOL    HW132171   5.075   1.571   6.716
10424SOL    HW232172   5.105   1.698   6.618
10425SOL     OW32173   1.267   5.840   2.779
10425SOL    HW132174   1.190   5.802   2.830
10425SOL    HW232175   1.259   5.940   2.774
10426SOL     OW32176   6.204   4.503   0.105
10426SOL    HW132177   6.165   4.590   0.134
10426SOL    HW232178   6.241   4.513   0.012
10427SOL     OW32179   5.312   2.083   0.504
10427SOL    HW132180   5.384   2.025   0.465
10427SOL    HW232181   5.278   2.145   0.433
10428SOL     OW32182   4.310   0.602   4.314
10428SOL    HW132183   4.368   0.617   4.234
10428SOL    HW232184   4.230   0.548   4.287
10429SOL     OW32185   0.084   6.137   1.785
10429SOL    HW132186   0.079   6.236   1.772
10429SOL    HW232187   0.156   6.099   1.727
10430SOL     OW32188   4.144   6.874   2.749
10430SOL    HW132189   4.149   6.963   2.795
10430SOL    HW232190   4.048   6.847   2.738
10431SOL     OW32191   2.788   0.628   4.709
10431SOL    HW132192   2.721   0.569   4.752
10431SOL    HW232193   2.866   0.640   4.771
10432SOL     OW32194   6.002   0.780   4.508
10432SOL    HW132195   5.907   0.757   4.486
10432SOL    HW232196   6.015   0.774   4.607
10433SOL     OW32197   1.722   6.627   1.178
10433SOL    HW132198   1.796   6.563   1.160
10433SOL    HW232199   1.745   6.716   1.138
10434SOL     OW32200   2.833   0.227   3.910
10434SOL    HW132201   2.882   0.194   3.990
10434SOL    HW232202   2.872   0.188   3.827
10435SOL     OW32203   5.520   6.570   6.216
10435SOL    HW132204   5.602   6.559   6.160
10435SOL    HW232205   5.517   6.663   6.252
10436SOL     OW32206   1.452   4.821   4.285
10436SOL    HW132207   1.464   4.893   4.218
10436SOL    HW232208   1.541   4.794   4.323
10437SOL     OW32209   6.625   5.123   5.818
10437SOL    HW132210   6.563   5.142   5.743
10437SOL    HW232211   6.637   5.024   5.827
10438SOL     OW32212   4.991   6.811   0.293
10438SOL    HW132213   5.046   6.789   0.213
10438SOL    HW232214   5.047   6.860   0.360
10439SOL     OW32215   3.460   0.153   5.900
10439SOL    HW132216   3.494   0.177   5.809
10439SOL    HW232217   3.367   0.187   5.911
10440SOL     OW32218   1.688   6.506   1.416
10440SOL    HW132219   1.747   6.425   1.411
10440SOL    HW232220   1.666   6.536   1.323
10441SOL     OW32221   5.277   2.167   6.734
10441SOL    HW132222   5.260   2.182   6.636
10441SOL    HW232223   5.352   2.102   6.745
10442SOL     OW32224   3.982   4.922   5.598
10442SOL    HW132225   3.931   4.871   5.667
10442SOL    HW232226   3.954   5.018   5.600
10443SOL     OW32227   5.783   3.595   5.078
10443SOL    HW132228   5.780   3.498   5.102
10443SOL    HW232229   5.739   3.648   5.150
10444SOL     OW32230   3.732   5.368   4.909
10444SOL    HW132231   3.721   5.299   4.980
10444SOL    HW232232   3.734   5.459   4.950
10445SOL     OW32233   6.671   6.248   4.591
10445SOL    HW132234   6.682   6.226   4.688
10445SOL    HW232235   6.583   6.292   4.576
10446SOL     OW32236   1.188   4.905   5.844
10446SOL    HW132237   1.222   4.901   5.938
10446SOL    HW232238   1.155   4.815   5.816
10447SOL     OW32239   5.911   2.266   1.113
10447SOL    HW132240   5.981   2.208   1.070
10447SOL    HW232241   5.857   2.312   1.043
10448SOL     OW32242   3.610   3.770   1.822
10448SOL    HW132243   3.579   3.753   1.728
10448SOL    HW232244   3.699   3.727   1.836
10449SOL     OW32245   2.646   5.452   4.159
10449SOL    HW132246   2.686   5.361   4.171
10449SOL    HW232247   2.565   5.462   4.217
10450SOL     OW32248   6.519   1.886   0.498
10450SOL    HW132249   6.587   1.958   0.488
10450SOL    HW232250   6.564   1.801   0.528
10451SOL     OW32251   2.570   4.581   3.137
10451SOL    HW132252   2.550   4.669   3.094
10451SOL    HW232253   2.507   4.512   3.103
10452SOL     OW32254   0.904   2.969   3.666
10452SOL    HW132255   0.939   2.891   3.613
10452SOL    HW232256   0.884   2.939   3.759
10453SOL     OW32257   5.323   5.844   1.486
10453SOL    HW132258   5.285   5.916   1.428
10453SOL    HW232259   5.254   5.813   1.551
10454SOL     OW32260   5.101   2.967   2.166
10454SOL    HW132261   5.167   2.892   2.156
10454SOL    HW232262   5.101   3.022   2.082
10455SOL     OW32263   7.000   4.860   3.510
10455SOL    HW132264   0.044   4.928   3.473
10455SOL    HW232265   0.005   4.843   3.606
10456SOL     OW32266   4.579   6.400   1.659
10456SOL    HW132267   4.645   6.325   1.658
10456SOL    HW232268   4.611   6.472   1.720
10457SOL     OW32269   4.032   3.802   3.163
10457SOL    HW132270   4.082   3.723   3.199
10457SOL    HW232271   4.010   3.865   3.238
10458SOL     OW32272   1.049   6.805   0.869
10458SOL    HW132273   1.093   6.719   0.843
10458SOL    HW232274   1.116   6.879   0.866
10459SOL     OW32275   6.281   5.181   2.677
10459SOL    HW132276   6.346   5.233   2.622
10459SOL    HW232277   6.188   5.211   2.656
10460SOL     OW32278   2.128   5.088   1.964
10460SOL    HW132279   2.177   5.127   1.885
10460SOL    HW232280   2.192   5.075   2.040
10461SOL     OW32281   3.264   0.813   6.525
10461SOL    HW132282   3.227   0.895   6.480
10461SOL    HW232283   3.333   0.771   6.467
10462SOL     OW32284   6.308   0.627   0.749
10462SOL    HW132285   6.219   0.672   0.755
10462SOL    HW232286   6.315   0.559   0.822
10463SOL     OW32287   2.833   5.036   0.455
10463SOL    HW132288   2.868   5.081   0.537
10463SOL    HW232289   2.871   5.080   0.373
10464SOL     OW32290   5.735   0.611   0.938
10464SOL    HW132291   5.762   0.606   0.842
10464SOL    HW232292   5.685   0.528   0.962
10465SOL     OW32293   6.768   5.011   6.252
10465SOL    HW132294   6.671   5.021   6.227
10465SOL    HW232295   6.787   4.914   6.272
10466SOL     OW32296   4.954   6.085   6.026
10466SOL    HW132297   5.040   6.101   6.074
10466SOL    HW232298   4.971   6.026   5.948
10467SOL     OW32299   2.830   1.460   5.502
10467SOL    HW132300   2.880   1.515   5.435
10467SOL    HW232301   2.815   1.369   5.464
10468SOL     OW32302   3.435   6.487   3.594
10468SOL    HW132303   3.452   6.431   3.675
10468SOL    HW232304   3.522   6.522   3.559
10469SOL     OW32305   1.461   4.886   0.724
10469SOL    HW132306   1.405   4.807   0.750
10469SOL    HW232307   1.558   4.865   0.740
10470SOL     OW32308   2.765   1.557   4.152
10470SOL    HW132309   2.768   1.549   4.252
10470SOL    HW232310   2.725   1.474   4.114
10471SOL     OW32311   3.021   3.573   1.040
10471SOL    HW132312   3.052   3.541   0.950
10471SOL    HW232313   2.947   3.513   1.072
10472SOL     OW32314   3.846   1.045   1.992
10472SOL    HW132315   3.902   0.993   1.927
10472SOL    HW232316   3.871   1.019   2.085
10473SOL     OW32317   4.841   6.226   0.256
10473SOL    HW132318   4.781   6.300   0.287
10473SOL    HW232319   4.937   6.256   0.261
10474SOL     OW32320   4.176   0.947   4.782
10474SOL    HW132321   4.186   0.893   4.866
10474SOL    HW232322   4.212   0.895   4.705
10475SOL     OW32323   4.122   0.230   1.579
10475SOL    HW132324   4.212   0.217   1.540
10475SOL    HW232325   4.110   0.171   1.659
10476SOL     OW32326   0.158   5.564   0.199
10476SOL    HW132327   0.137   5.522   0.287
10476SOL    HW232328   0.249   5.535   0.169
10477SOL     OW32329   5.342   4.117   5.299
10477SOL    HW132330   5.399   4.035   5.297
10477SOL    HW232331   5.300   4.130   5.209
10478SOL     OW32332   0.316   6.354   1.445
10478SOL    HW132333   0.286   6.335   1.351
10478SOL    HW232334   0.341   6.450   1.453
10479SOL     OW32335   1.378   3.508   2.959
10479SOL    HW132336   1.404   3.604   2.965
10479SOL    HW232337   1.403   3.461   3.044
10480SOL     OW32338   5.299   0.222   2.380
10480SOL    HW132339   5.202   0.237   2.359
10480SOL    HW232340   5.351   0.305   2.359
10481SOL     OW32341   2.008   0.640   5.317
10481SOL    HW132342   2.017   0.637   5.217
10481SOL    HW232343   1.972   0.553   5.350
10482SOL     OW32344   1.650   5.622   5.382
10482SOL    HW132345   1.574   5.597   5.442
10482SOL    HW232346   1.733   5.576   5.413
10483SOL     OW32347   6.868   5.199   0.081
10483SOL    HW132348   6.891   5.104   0.059
10483SOL    HW232349   6.913   5.226   0.166
10484SOL     OW32350   6.241   0.984   1.266
10484SOL    HW132351   6.166   1.044   1.237
10484SOL    HW232352   6.278   0.936   1.186
10485SOL     OW32353   3.287   4.116   2.985
10485SOL    HW132354   3.205   4.173   2.991
10485SOL    HW232355   3.268   4.026   3.024
10486SOL     OW32356   6.117   6.619   5.823
10486SOL    HW132357   6.172   6.670   5.757
10486SOL    HW232358   6.076   6.540   5.778
10487SOL     OW32359   4.501   2.282   1.830
10487SOL    HW132360   4.530   2.349   1.761
10487SOL    HW232361   4.490   2.193   1.786
10488SOL     OW32362   6.508   2.108   5.916
10488SOL    HW132363   6.461   2.099   5.828
10488SOL    HW232364   6.539   2.203   5.927
10489SOL     OW32365   6.068   4.565   4.609
10489SOL    HW132366   6.048   4.662   4.601
10489SOL    HW232367   6.167   4.552   4.620
10490SOL     OW32368   5.889   6.252   6.234
10490SOL    HW132369   5.887   6.335   6.289
10490SOL    HW232370   5.963   6.257   6.168
10491SOL     OW32371   1.903   2.590   6.253
10491SOL    HW132372   1.822   2.532   6.244
10491SOL    HW232373   1.904   2.657   6.178
10492SOL     OW32374   3.961   0.712   0.468
10492SOL    HW132375   3.937   0.678   0.378
10492SOL    HW232376   3.878   0.721   0.524
10493SOL     OW32377   4.638   5.802   0.546
10493SOL    HW132378   4.562   5.809   0.612
10493SOL    HW232379   4.661   5.893   0.514
10494SOL     OW32380   0.814   4.630   5.248
10494SOL    HW132381   0.880   4.658   5.318
10494SOL    HW232382   0.743   4.700   5.239
10495SOL     OW32383   0.627   6.517   0.531
10495SOL    HW132384   0.716   6.513   0.487
10495SOL    HW232385   0.621   6.445   0.601
10496SOL     OW32386   0.102   3.667   5.126
10496SOL    HW132387   0.186   3.720   5.112
10496SOL    HW232388   0.118   3.597   5.195
10497SOL     OW32389   2.151   0.015   1.432
10497SOL    HW132390   2.222   0.003   1.501
10497SOL    HW232391   2.184   0.079   1.362
10498SOL     OW32392   4.182   5.033   0.400
10498SOL    HW132393   4.265   4.999   0.444
10498SOL    HW232394   4.120   5.071   0.469
10499SOL     OW32395   5.848   5.087   2.672
10499SOL    HW132396   5.814   5.002   2.712
10499SOL    HW232397   5.819   5.094   2.577
10500SOL     OW32398   6.627   3.582   5.105
10500SOL    HW132399   6.581   3.503   5.064
10500SOL    HW232400   6.688   3.624   5.037
10501SOL     OW32401   2.770   5.112   2.742
10501SOL    HW132402   2.788   5.210   2.749
10501SOL    HW232403   2.855   5.061   2.758
10502SOL     OW32404   3.319   4.116   2.268
10502SOL    HW132405   3.382   4.124   2.345
10502SOL    HW232406   3.344   4.183   2.197
10503SOL     OW32407   6.294   2.343   6.323
10503SOL    HW132408   6.287   2.312   6.228
10503SOL    HW232409   6.309   2.442   6.325
10504SOL     OW32410   1.290   2.571   5.750
10504SOL    HW132411   1.290   2.524   5.838
10504SOL    HW232412   1.285   2.504   5.676
10505SOL     OW32413   5.606   6.566   0.769
10505SOL    HW132414   5.589   6.552   0.671
10505SOL    HW232415   5.528   6.615   0.809
10506SOL     OW32416   1.232   2.498   0.227
10506SOL    HW132417   1.176   2.483   0.308
10506SOL    HW232418   1.175   2.530   0.152
10507SOL     OW32419   1.101   5.145   6.538
10507SOL    HW132420   1.177   5.161   6.475
10507SOL    HW232421   1.055   5.059   6.514
10508SOL     OW32422   1.695   4.914   4.939
10508SOL    HW132423   1.700   4.866   5.027
10508SOL    HW232424   1.726   5.008   4.951
10509SOL     OW32425   4.679   2.687   3.748
10509SOL    HW132426   4.679   2.766   3.809
10509SOL    HW232427   4.740   2.617   3.783
10510SOL     OW32428   5.521   5.251   3.651
10510SOL    HW132429   5.534   5.212   3.742
10510SOL    HW232430   5.507   5.350   3.658
10511SOL     OW32431   4.414   2.019   1.893
10511SOL    HW132432   4.465   2.071   1.962
10511SOL    HW232433   4.460   1.932   1.875
10512SOL     OW32434   4.553   1.554   4.666
10512SOL    HW132435   4.597   1.597   4.745
10512SOL    HW232436   4.482   1.615   4.630
10513SOL     OW32437   5.107   3.527   1.031
10513SOL    HW132438   5.048   3.483   0.964
10513SOL    HW232439   5.197   3.544   0.991
10514SOL     OW32440   0.721   3.245   1.773
10514SOL    HW132441   0.719   3.325   1.714
10514SOL    HW232442   0.667   3.263   1.856
10515SOL     OW32443   2.386   2.728   5.000
10515SOL    HW132444   2.339   2.708   5.086
10515SOL    HW232445   2.407   2.826   4.995
10516SOL     OW32446   4.137   2.427   1.145
10516SOL    HW132447   4.194   2.403   1.223
10516SOL    HW232448   4.125   2.347   1.087
10517SOL     OW32449   1.297   2.532   3.113
10517SOL    HW132450   1.396   2.545   3.119
10517SOL    HW232451   1.277   2.453   3.055
10518SOL     OW32452   0.727   4.807   2.639
10518SOL    HW132453   0.672   4.746   2.696
10518SOL    HW232454   0.716   4.781   2.543
10519SOL     OW32455   3.642   6.563   1.098
10519SOL    HW132456   3.661   6.533   1.192
10519SOL    HW232457   3.612   6.485   1.043
10520SOL     OW32458   6.971   2.264   5.008
10520SOL    HW132459   6.983   2.212   5.093
10520SOL    HW232460   6.915   2.212   4.944
10521SOL     OW32461   6.509   3.049   1.804
10521SOL    HW132462   6.429   3.096   1.841
10521SOL    HW232463   6.488   2.953   1.787
10522SOL     OW32464   5.150   2.663   3.437
10522SOL    HW132465   5.112   2.611   3.513
10522SOL    HW232466   5.154   2.606   3.356
10523SOL     OW32467   0.308   4.447   2.922
10523SOL    HW132468   0.314   4.458   3.021
10523SOL    HW232469   0.216   4.416   2.898
10524SOL     OW32470   0.156   6.354   5.036
10524SOL    HW132471   0.228   6.384   5.098
10524SOL    HW232472   0.067   6.380   5.073
10525SOL     OW32473   5.122   1.699   3.957
10525SOL    HW132474   5.030   1.706   3.918
10525SOL    HW232475   5.156   1.606   3.944
10526SOL     OW32476   1.448   5.166   0.636
10526SOL    HW132477   1.462   5.067   0.642
10526SOL    HW232478   1.418   5.189   0.544
10527SOL     OW32479   0.732   6.797   4.497
10527SOL    HW132480   0.810   6.767   4.552
10527SOL    HW232481   0.756   6.790   4.400
10528SOL     OW32482   1.398   4.039   5.426
10528SOL    HW132483   1.355   4.030   5.335
10528SOL    HW232484   1.450   3.956   5.446
10529SOL     OW32485   0.774   6.345   1.127
10529SOL    HW132486   0.761   6.444   1.120
10529SOL    HW232487   0.864   6.325   1.166
10530SOL     OW32488   0.417   5.554   0.979
10530SOL    HW132489   0.327   5.577   1.016
10530SOL    HW232490   0.407   5.481   0.911
10531SOL     OW32491   2.942   3.125   5.071
10531SOL    HW132492   2.950   3.028   5.095
10531SOL    HW232493   2.897   3.174   5.144
10532SOL     OW32494   5.715   6.229   6.589
10532SOL    HW132495   5.757   6.189   6.670
10532SOL    HW232496   5.635   6.176   6.563
10533SOL     OW32497   3.703   6.297   3.331
10533SOL    HW132498   3.686   6.313   3.428
10533SOL    HW232499   3.628   6.336   3.278
10534SOL     OW32500   1.567   6.014   3.951
10534SOL    HW132501   1.574   6.072   3.870
10534SOL    HW232502   1.652   5.962   3.962
10535SOL     OW32503   3.313   1.741   2.440
10535SOL    HW132504   3.236   1.753   2.503
10535SOL    HW232505   3.321   1.821   2.381
10536SOL     OW32506   5.911   1.560   4.015
10536SOL    HW132507   6.003   1.589   4.043
10536SOL    HW232508   5.859   1.531   4.096
10537SOL     OW32509   3.838   0.121   4.007
10537SOL    HW132510   3.904   0.130   4.082
10537SOL    HW232511   3.850   0.198   3.944
10538SOL     OW32512   6.716   3.485   3.062
10538SOL    HW132513   6.709   3.446   3.154
10538SOL    HW232514   6.633   3.462   3.010
10539SOL     OW32515   6.528   0.208   2.712
10539SOL    HW132516   6.571   0.132   2.664
10539SOL    HW232517   6.551   0.294   2.666
10540SOL     OW32518   1.922   3.594   6.003
10540SOL    HW132519   1.920   3.666   6.072
10540SOL    HW232520   1.951   3.633   5.916
10541SOL     OW32521   3.436   3.085   5.447
10541SOL    HW132522   3.421   3.157   5.379
10541SOL    HW232523   3.347   3.048   5.477
10542SOL     OW32524   5.073   0.117   4.749
10542SOL    HW132525   5.061   0.019   4.765
10542SOL    HW232526   5.061   0.137   4.652
10543SOL     OW32527   0.580   3.590   4.981
10543SOL    HW132528   0.522   3.515   5.015
10543SOL    HW232529   0.642   3.620   5.054
10544SOL     OW32530   1.790   1.384   2.970
10544SOL    HW132531   1.860   1.350   2.908
10544SOL    HW232532   1.834   1.426   3.050
10545SOL     OW32533   1.947   2.605   2.627
10545SOL    HW132534   2.026   2.575   2.681
10545SOL    HW232535   1.921   2.532   2.563
10546SOL     OW32536   2.926   6.541   0.017
10546SOL    HW132537   2.950   6.638   0.021
10546SOL    HW232538   2.974   6.492   0.090
10547SOL     OW32539   4.412   0.489   4.679
10547SOL    HW132540   4.440   0.463   4.771
10547SOL    HW232541   4.409   0.589   4.672
10548SOL     OW32542   0.457   5.141   3.864
10548SOL    HW132543   0.541   5.087   3.869
10548SOL    HW232544   0.391   5.095   3.805
10549SOL     OW32545   6.612   0.753   1.004
10549SOL    HW132546   6.586   0.665   1.044
10549SOL    HW232547   6.655   0.810   1.073
10550SOL     OW32548   4.767   5.841   3.491
10550SOL    HW132549   4.767   5.936   3.460
10550SOL    HW232550   4.817   5.834   3.578
10551SOL     OW32551   2.706   2.057   5.862
10551SOL    HW132552   2.778   2.030   5.798
10551SOL    HW232553   2.737   2.039   5.955
10552SOL     OW32554   2.496   1.275   4.429
10552SOL    HW132555   2.524   1.200   4.489
10552SOL    HW232556   2.396   1.276   4.422
10553SOL     OW32557   0.256   4.926   0.498
10553SOL    HW132558   0.297   4.956   0.584
10553SOL    HW232559   0.211   5.003   0.454
10554SOL     OW32560   6.444   6.339   1.908
10554SOL    HW132561   6.458   6.435   1.883
10554SOL    HW232562   6.462   6.281   1.829
10555SOL     OW32563   3.965   2.923   0.487
10555SOL    HW132564   3.926   3.007   0.525
10555SOL    HW232565   4.010   2.943   0.400
10556SOL     OW32566   2.371   1.706   2.692
10556SOL    HW132567   2.339   1.678   2.782
10556SOL    HW232568   2.299   1.758   2.646
10557SOL     OW32569   2.376   4.256   3.884
10557SOL    HW132570   2.347   4.291   3.973
10557SOL    HW232571   2.433   4.323   3.837
10558SOL     OW32572   3.076   5.243   4.688
10558SOL    HW132573   2.985   5.202   4.679
10558SOL    HW232574   3.114   5.258   4.597
10559SOL     OW32575   4.307   6.616   0.354
10559SOL    HW132576   4.308   6.596   0.452
10559SOL    HW232577   4.233   6.565   0.311
10560SOL     OW32578   5.538   0.061   2.429
10560SOL    HW132579   5.466   0.130   2.417
10560SOL    HW232580   5.625   0.107   2.450
10561SOL     OW32581   6.076   4.413   0.433
10561SOL    HW132582   5.976   4.411   0.432
10561SOL    HW232583   6.112   4.349   0.366
10562SOL     OW32584   4.091   6.488   2.453
10562SOL    HW132585   4.127   6.406   2.410
10562SOL    HW232586   4.162   6.532   2.507
10563SOL     OW32587   0.298   0.578   1.592
10563SOL    HW132588   0.282   0.515   1.668
10563SOL    HW232589   0.212   0.594   1.544
10564SOL     OW32590   5.515   4.802   3.876
10564SOL    HW132591   5.526   4.729   3.809
10564SOL    HW232592   5.568   4.780   3.958
10565SOL     OW32593   1.123   0.216   5.725
10565SOL    HW132594   1.126   0.134   5.668
10565SOL    HW232595   1.042   0.214   5.784
10566SOL     OW32596   2.961   3.579   6.935
10566SOL    HW132597   2.865   3.579   6.962
10566SOL    HW232598   2.969   3.603   6.839
10567SOL     OW32599   1.183   2.337   6.472
10567SOL    HW132600   1.106   2.284   6.508
10567SOL    HW232601   1.243   2.276   6.420
10568SOL     OW32602   4.965   2.442   5.681
10568SOL    HW132603   4.987   2.523   5.626
10568SOL    HW232604   5.042   2.422   5.742
10569SOL     OW32605   5.927   6.676   0.429
10569SOL    HW132606   5.943   6.622   0.347
10569SOL    HW232607   6.010   6.677   0.486
10570SOL     OW32608   1.221   4.799   3.182
10570SOL    HW132609   1.148   4.771   3.120
10570SOL    HW232610   1.184   4.861   3.252
10571SOL     OW32611   6.484   4.564   6.074
10571SOL    HW132612   6.493   4.464   6.065
10571SOL    HW232613   6.398   4.593   6.033
10572SOL     OW32614   5.813   4.555   0.818
10572SOL    HW132615   5.801   4.596   0.728
10572SOL    HW232616   5.850   4.463   0.807
10573SOL     OW32617   5.642   1.693   3.633
10573SOL    HW132618   5.667   1.770   3.693
10573SOL    HW232619   5.560   1.716   3.582
10574SOL     OW32620   6.568   2.640   3.497
10574SOL    HW132621   6.514   2.720   3.470
10574SOL    HW232622   6.664   2.665   3.505
10575SOL     OW32623   6.538   0.327   1.537
10575SOL    HW132624   6.536   0.409   1.480
10575SOL    HW232625   6.500   0.250   1.486
10576SOL     OW32626   1.177   4.564   4.252
10576SOL    HW132627   1.227   4.546   4.336
10576SOL    HW232628   1.242   4.569   4.175
10577SOL     OW32629   4.365   4.934   0.585
10577SOL    HW132630   4.353   4.943   0.684
10577SOL    HW232631   4.434   4.865   0.565
10578SOL     OW32632   6.969   3.575   4.712
10578SOL    HW132633   6.977   3.503   4.643
10578SOL    HW232634   0.041   3.615   4.730
10579SOL     OW32635   1.368   3.686   6.942
10579SOL    HW132636   1.336   3.678   6.847
10579SOL    HW232637   1.298   3.650   7.003
10580SOL     OW32638   6.572   6.557   0.147
10580SOL    HW132639   6.539   6.575   0.239
10580SOL    HW232640   6.608   6.641   0.107
10581SOL     OW32641   5.611   0.083   3.032
10581SOL    HW132642   5.672   0.086   3.112
10581SOL    HW232643   5.636   0.006   2.974
10582SOL     OW32644   5.701   4.558   6.210
10582SOL    HW132645   5.733   4.610   6.130
10582SOL    HW232646   5.734   4.603   6.293
10583SOL     OW32647   3.041   0.986   5.555
10583SOL    HW132648   3.108   1.032   5.497
10583SOL    HW232649   3.028   0.892   5.524
10584SOL     OW32650   1.218   6.777   4.637
10584SOL    HW132651   1.306   6.785   4.683
10584SOL    HW232652   1.213   6.843   4.562
10585SOL     OW32653   0.966   6.893   5.043
10585SOL    HW132654   1.025   6.958   4.996
10585SOL    HW232655   0.982   6.899   5.142
10586SOL     OW32656   3.941   4.386   5.292
10586SOL    HW132657   3.961   4.440   5.374
10586SOL    HW232658   4.026   4.368   5.243
10587SOL     OW32659   2.413   5.365   5.327
10587SOL    HW132660   2.431   5.424   5.248
10587SOL    HW232661   2.360   5.286   5.298
10588SOL     OW32662   1.016   3.922   4.097
10588SOL    HW132663   0.921   3.932   4.069
10588SOL    HW232664   1.022   3.851   4.167
10589SOL     OW32665   5.234   6.328   3.756
10589SOL    HW132666   5.267   6.295   3.845
10589SOL    HW232667   5.148   6.378   3.770
10590SOL     OW32668   0.883   5.285   2.453
10590SOL    HW132669   0.969   5.240   2.480
10590SOL    HW232670   0.822   5.218   2.410
10591SOL     OW32671   6.784   2.427   1.804
10591SOL    HW132672   6.844   2.492   1.756
10591SOL    HW232673   6.828   2.337   1.805
10592SOL     OW32674   6.601   1.877   4.878
10592SOL    HW132675   6.546   1.823   4.814
10592SOL    HW232676   6.563   1.868   4.970
10593SOL     OW32677   3.385   5.566   3.005
10593SOL    HW132678   3.355   5.572   3.100
10593SOL    HW232679   3.347   5.642   2.953
10594SOL     OW32680   2.701   6.692   3.756
10594SOL    HW132681   2.702   6.767   3.690
10594SOL    HW232682   2.665   6.725   3.844
10595SOL     OW32683   6.190   6.706   0.127
10595SOL    HW132684   6.101   6.670   0.153
10595SOL    HW232685   6.234   6.747   0.208
10596SOL     OW32686   5.189   2.704   6.851
10596SOL    HW132687   5.178   2.774   6.921
10596SOL    HW232688   5.282   2.706   6.814
10597SOL     OW32689   2.388   0.780   5.511
10597SOL    HW132690   2.349   0.738   5.429
10597SOL    HW232691   2.364   0.877   5.513
10598SOL     OW32692   2.676   2.087   6.492
10598SOL    HW132693   2.603   2.023   6.515
10598SOL    HW232694   2.649   2.141   6.412
10599SOL     OW32695   6.960   2.320   6.878
10599SOL    HW132696   6.911   2.402   6.905
10599SOL    HW232697   6.989   2.270   6.959
10600SOL     OW32698   2.903   2.329   0.941
10600SOL    HW132699   2.967   2.339   1.017
10600SOL    HW232700   2.824   2.389   0.955
10601SOL     OW32701   1.218   0.069   5.958
10601SOL    HW132702   1.276   0.093   5.880
10601SOL    HW232703   1.248   0.120   6.039
10602SOL     OW32704   6.549   0.015   0.863
10602SOL    HW132705   6.590   0.106   0.876
10602SOL    HW232706   6.622   6.966   0.854
10603SOL     OW32707   5.075   0.504   3.054
10603SOL    HW132708   5.008   0.575   3.076
10603SOL    HW232709   5.140   0.539   2.986
10604SOL     OW32710   5.017   6.501   5.025
10604SOL    HW132711   4.979   6.572   4.966
10604SOL    HW232712   5.114   6.518   5.040
10605SOL     OW32713   2.694   1.892   1.322
10605SOL    HW132714   2.726   1.890   1.227
10605SOL    HW232715   2.610   1.837   1.330
10606SOL     OW32716   6.298   0.608   0.287
10606SOL    HW132717   6.368   0.546   0.251
10606SOL    HW232718   6.207   0.571   0.267
10607SOL     OW32719   2.742   4.557   6.859
10607SOL    HW132720   2.781   4.467   6.840
10607SOL    HW232721   2.709   4.560   6.954
10608SOL     OW32722   5.646   3.815   3.134
10608SOL    HW132723   5.699   3.732   3.148
10608SOL    HW232724   5.616   3.820   3.038
10609SOL     OW32725   4.168   1.522   6.512
10609SOL    HW132726   4.175   1.446   6.448
10609SOL    HW232727   4.076   1.524   6.551
10610SOL     OW32728   0.912   0.590   3.515
10610SOL    HW132729   0.903   0.503   3.564
10610SOL    HW232730   0.847   0.593   3.440
10611SOL     OW32731   3.562   5.434   4.390
10611SOL    HW132732   3.583   5.516   4.337
10611SOL    HW232733   3.626   5.426   4.466
10612SOL     OW32734   5.922   1.596   3.736
10612SOL    HW132735   5.924   1.611   3.835
10612SOL    HW232736   5.832   1.562   3.709
10613SOL     OW32737   4.629   6.165   4.526
10613SOL    HW132738   4.579   6.187   4.609
10613SOL    HW232739   4.617   6.238   4.458
10614SOL     OW32740   4.279   0.911   5.751
10614SOL    HW132741   4.182   0.898   5.773
10614SOL    HW232742   4.327   0.944   5.832
10615SOL     OW32743   1.852   1.589   6.332
10615SOL    HW132744   1.789   1.666   6.331
10615SOL    HW232745   1.887   1.575   6.239
10616SOL     OW32746   2.287   6.276   0.320
10616SOL    HW132747   2.332   6.187   0.333
10616SOL    HW232748   2.251   6.308   0.408
10617SOL     OW32749   2.507   3.408   1.616
10617SOL    HW132750   2.479   3.406   1.712
10617SOL    HW232751   2.428   3.432   1.559
10618SOL     OW32752   1.556   5.001   4.118
10618SOL    HW132753   1.513   5.052   4.044
10618SOL    HW232754   1.608   5.064   4.176
10619SOL     OW32755   1.655   2.382   2.936
10619SOL    HW132756   1.621   2.291   2.913
10619SOL    HW232757   1.750   2.375   2.965
10620SOL     OW32758   3.421   0.996   6.233
10620SOL    HW132759   3.478   1.053   6.292
10620SOL    HW232760   3.412   1.038   6.143
10621SOL     OW32761   0.514   3.471   3.261
10621SOL    HW132762   0.443   3.401   3.255
10621SOL    HW232763   0.490   3.547   3.201
10622SOL     OW32764   4.045   2.058   0.320
10622SOL    HW132765   3.957   2.035   0.362
10622SOL    HW232766   4.083   1.977   0.275
10623SOL     OW32767   5.235   6.271   5.921
10623SOL    HW132768   5.332   6.296   5.927
10623SOL    HW232769   5.182   6.326   5.986
10624SOL     OW32770   0.248   2.097   6.496
10624SOL    HW132771   0.325   2.049   6.454
10624SOL    HW232772   0.241   2.189   6.457
10625SOL     OW32773   5.808   4.365   0.108
10625SOL    HW132774   5.718   4.333   0.080
10625SOL    HW232775   5.822   4.343   0.204
10626SOL     OW32776   5.279   3.045   1.019
10626SOL    HW132777   5.350   2.986   1.057
10626SOL    HW232778   5.216   2.990   0.964
10627SOL     OW32779   5.887   5.300   6.266
10627SOL    HW132780   5.822   5.321   6.193
10627SOL    HW232781   5.945   5.380   6.283
10628SOL     OW32782   3.509   6.810   1.109
10628SOL    HW132783   3.538   6.718   1.137
10628SOL    HW232784   3.477   6.807   1.014
10629SOL     OW32785   3.062   5.185   4.146
10629SOL    HW132786   3.154   5.186   4.108
10629SOL    HW232787   2.995   5.186   4.072
10630SOL     OW32788   3.644   1.100   2.284
10630SOL    HW132789   3.664   1.197   2.302
10630SOL    HW232790   3.553   1.092   2.243
10631SOL     OW32791   4.332   6.153   6.774
10631SOL    HW132792   4.432   6.148   6.768
10631SOL    HW232793   4.303   6.129   6.866
10632SOL     OW32794   4.314   5.817   3.552
10632SOL    HW132795   4.219   5.791   3.533
10632SOL    HW232796   4.348   5.875   3.478
10633SOL     OW32797   0.960   3.145   1.526
10633SOL    HW132798   0.991   3.117   1.435
10633SOL    HW232799   0.953   3.064   1.585
10634SOL     OW32800   0.713   3.483   6.853
10634SOL    HW132801   0.793   3.493   6.912
10634SOL    HW232802   0.698   3.387   6.832
10635SOL     OW32803   2.108   4.195   5.916
10635SOL    HW132804   2.105   4.169   5.820
10635SOL    HW232805   2.069   4.286   5.928
10636SOL     OW32806   6.624   1.893   6.032
10636SOL    HW132807   6.581   1.979   6.006
10636SOL    HW232808   6.716   1.888   5.991
10637SOL     OW32809   3.129   0.900   6.879
10637SOL    HW132810   3.118   0.833   6.806
10637SOL    HW232811   3.042   0.943   6.899
10638SOL     OW32812   7.010   5.488   1.566
10638SOL    HW132813   0.063   5.433   1.611
10638SOL    HW232814   6.955   5.534   1.636
10639SOL     OW32815   1.509   4.310   1.445
10639SOL    HW132816   1.491   4.340   1.351
10639SOL    HW232817   1.459   4.368   1.509
10640SOL     OW32818   4.351   6.996   3.768
10640SOL    HW132819   4.356   6.908   3.814
10640SOL    HW232820   4.265   7.004   3.718
10641SOL     OW32821   1.803   1.448   3.756
10641SOL    HW132822   1.896   1.412   3.745
10641SOL    HW232823   1.772   1.488   3.669
10642SOL     OW32824   5.567   2.380   6.352
10642SOL    HW132825   5.508   2.362   6.274
10642SOL    HW232826   5.512   2.417   6.427
10643SOL     OW32827   1.790   5.139   5.375
10643SOL    HW132828   1.802   5.044   5.402
10643SOL    HW232829   1.727   5.184   5.439
10644SOL     OW32830   6.809   2.440   3.110
10644SOL    HW132831   6.718   2.482   3.107
10644SOL    HW232832   6.878   2.511   3.093
10645SOL     OW32833   2.416   2.459   3.567
10645SOL    HW132834   2.462   2.487   3.483
10645SOL    HW232835   2.381   2.541   3.614
10646SOL     OW32836   5.171   0.497   4.019
10646SOL    HW132837   5.115   0.571   4.057
10646SOL    HW232838   5.268   0.523   4.025
10647SOL     OW32839   3.691   4.913   4.966
10647SOL    HW132840   3.623   4.901   4.894
10647SOL    HW232841   3.654   4.879   5.053
10648SOL     OW32842   5.233   5.327   5.249
10648SOL    HW132843   5.322   5.296   5.284
10648SOL    HW232844   5.238   5.425   5.228
10649SOL     OW32845   6.293   3.175   2.909
10649SOL    HW132846   6.336   3.128   2.986
10649SOL    HW232847   6.212   3.224   2.941
10650SOL     OW32848   0.263   0.352   3.949
10650SOL    HW132849   0.244   0.347   4.047
10650SOL    HW232850   0.251   0.446   3.917
10651SOL     OW32851   3.942   6.185   5.930
10651SOL    HW132852   3.885   6.207   5.851
10651SOL    HW232853   3.942   6.086   5.944
10652SOL     OW32854   1.935   0.079   0.004
10652SOL    HW132855   1.899   0.136   0.079
10652SOL    HW232856   1.862   0.058   6.958
10653SOL     OW32857   4.427   5.884   4.225
10653SOL    HW132858   4.380   5.796   4.237
10653SOL    HW232859   4.500   5.892   4.293
10654SOL     OW32860   5.615   1.945   4.641
10654SOL    HW132861   5.615   2.042   4.664
10654SOL    HW232862   5.707   1.917   4.614
10655SOL     OW32863   0.543   4.729   1.354
10655SOL    HW132864   0.641   4.721   1.337
10655SOL    HW232865   0.527   4.749   1.451
10656SOL     OW32866   6.071   1.492   2.992
10656SOL    HW132867   6.166   1.495   2.962
10656SOL    HW232868   6.023   1.573   2.958
10657SOL     OW32869   5.283   6.658   4.280
10657SOL    HW132870   5.314   6.640   4.186
10657SOL    HW232871   5.242   6.576   4.318
10658SOL     OW32872   0.379   2.964   5.534
10658SOL    HW132873   0.289   3.005   5.520
10658SOL    HW232874   0.438   2.985   5.456
10659SOL     OW32875   0.980   5.359   0.998
10659SOL    HW132876   1.063   5.306   0.977
10659SOL    HW232877   0.997   5.456   0.981
10660SOL     OW32878   6.383   3.389   5.378
10660SOL    HW132879   6.396   3.470   5.436
10660SOL    HW232880   6.288   3.385   5.347
10661SOL     OW32881   1.448   4.385   6.153
10661SOL    HW132882   1.475   4.289   6.143
10661SOL    HW232883   1.349   4.390   6.170
10662SOL     OW32884   2.631   1.351   3.042
10662SOL    HW132885   2.657   1.261   3.077
10662SOL    HW232886   2.712   1.397   3.007
10663SOL     OW32887   1.746   1.844   4.218
10663SOL    HW132888   1.681   1.843   4.293
10663SOL    HW232889   1.839   1.832   4.254
10664SOL     OW32890   1.621   5.260   4.478
10664SOL    HW132891   1.553   5.219   4.539
10664SOL    HW232892   1.677   5.187   4.438
10665SOL     OW32893   1.976   2.697   5.623
10665SOL    HW132894   2.025   2.781   5.645
10665SOL    HW232895   1.932   2.661   5.706
10666SOL     OW32896   3.490   3.219   1.758
10666SOL    HW132897   3.466   3.316   1.768
10666SOL    HW232898   3.570   3.211   1.698
10667SOL     OW32899   5.692   2.250   3.687
10667SOL    HW132900   5.703   2.348   3.705
10667SOL    HW232901   5.767   2.218   3.630
10668SOL     OW32902   3.003   2.179   5.221
10668SOL    HW132903   2.967   2.256   5.274
10668SOL    HW232904   3.088   2.208   5.176
10669SOL     OW32905   6.357   1.281   1.285
10669SOL    HW132906   6.345   1.380   1.280
10669SOL    HW232907   6.269   1.236   1.269
10670SOL     OW32908   5.147   3.355   4.536
10670SOL    HW132909   5.114   3.409   4.460
10670SOL    HW232910   5.239   3.385   4.561
10671SOL     OW32911   1.217   2.797   4.080
10671SOL    HW132912   1.162   2.791   3.997
10671SOL    HW232913   1.295   2.736   4.073
10672SOL     OW32914   5.861   3.327   1.622
10672SOL    HW132915   5.828   3.417   1.651
10672SOL    HW232916   5.783   3.269   1.600
10673SOL     OW32917   2.305   0.866   0.820
10673SOL    HW132918   2.274   0.951   0.862
10673SOL    HW232919   2.333   0.801   0.891
10674SOL     OW32920   3.604   4.197   4.675
10674SOL    HW132921   3.544   4.237   4.606
10674SOL    HW232922   3.618   4.263   4.749
10675SOL     OW32923   3.869   6.961   5.417
10675SOL    HW132924   3.878   0.014   5.347
10675SOL    HW232925   3.955   6.910   5.424
10676SOL     OW32926   2.164   6.318   5.523
10676SOL    HW132927   2.243   6.256   5.527
10676SOL    HW232928   2.123   6.325   5.614
10677SOL     OW32929   0.245   1.340   1.044
10677SOL    HW132930   0.196   1.257   1.017
10677SOL    HW232931   0.231   1.410   0.974
10678SOL     OW32932   4.084   5.292   4.046
10678SOL    HW132933   4.005   5.325   4.097
10678SOL    HW232934   4.147   5.247   4.109
10679SOL     OW32935   3.776   3.585   6.784
10679SOL    HW132936   3.865   3.599   6.742
10679SOL    HW232937   3.775   3.497   6.832
10680SOL     OW32938   4.023   1.210   4.003
10680SOL    HW132939   4.073   1.158   4.073
10680SOL    HW232940   4.054   1.305   4.004
10681SOL     OW32941   0.478   3.126   6.312
10681SOL    HW132942   0.465   3.028   6.328
10681SOL    HW232943   0.568   3.153   6.349
10682SOL     OW32944   6.168   2.893   6.004
10682SOL    HW132945   6.128   2.801   6.011
10682SOL    HW232946   6.263   2.885   5.973
10683SOL     OW32947   3.885   0.317   3.760
10683SOL    HW132948   3.787   0.311   3.741
10683SOL    HW232949   3.910   0.413   3.772
10684SOL     OW32950   4.234   4.364   1.715
10684SOL    HW132951   4.302   4.296   1.744
10684SOL    HW232952   4.274   4.455   1.717
10685SOL     OW32953   1.038   6.130   1.666
10685SOL    HW132954   1.009   6.131   1.570
10685SOL    HW232955   0.959   6.147   1.725
10686SOL     OW32956   2.434   3.426   6.904
10686SOL    HW132957   2.497   3.463   6.836
10686SOL    HW232958   2.475   3.434   6.995
10687SOL     OW32959   0.755   4.321   3.023
10687SOL    HW132960   0.799   4.284   2.942
10687SOL    HW232961   0.734   4.247   3.087
10688SOL     OW32962   5.072   1.463   2.513
10688SOL    HW132963   5.082   1.492   2.608
10688SOL    HW232964   5.075   1.363   2.509
10689SOL     OW32965   0.243   6.716   2.315
10689SOL    HW132966   0.333   6.754   2.334
10689SOL    HW232967   0.188   6.783   2.266
10690SOL     OW32968   6.916   5.946   3.674
10690SOL    HW132969   6.967   6.007   3.613
10690SOL    HW232970   6.966   5.859   3.683
10691SOL     OW32971   3.067   1.392   2.906
10691SOL    HW132972   3.060   1.392   2.806
10691SOL    HW232973   3.153   1.349   2.933
10692SOL     OW32974   2.533   1.037   4.588
10692SOL    HW132975   2.479   0.963   4.628
10692SOL    HW232976   2.576   1.090   4.661
10693SOL     OW32977   1.506   5.965   0.812
10693SOL    HW132978   1.546   6.044   0.858
10693SOL    HW232979   1.500   5.888   0.875
10694SOL     OW32980   4.705   6.278   5.639
10694SOL    HW132981   4.747   6.189   5.622
10694SOL    HW232982   4.691   6.290   5.737
10695SOL     OW32983   0.035   3.498   1.431
10695SOL    HW132984   0.063   3.543   1.346
10695SOL    HW232985   0.018   3.401   1.413
10696SOL     OW32986   6.887   4.363   5.112
10696SOL    HW132987   6.898   4.304   5.032
10696SOL    HW232988   6.841   4.447   5.085
10697SOL     OW32989   1.224   5.427   4.929
10697SOL    HW132990   1.168   5.409   4.848
10697SOL    HW232991   1.241   5.341   4.978
10698SOL     OW32992   4.415   3.629   0.260
10698SOL    HW132993   4.326   3.596   0.291
10698SOL    HW232994   4.427   3.725   0.286
10699SOL     OW32995   3.143   4.243   0.689
10699SOL    HW132996   3.092   4.325   0.713
10699SOL    HW232997   3.128   4.173   0.758
10700SOL     OW32998   5.452   0.087   6.860
10700SOL    HW132999   5.387   0.053   6.793
10700SOL    HW233000   5.428   0.052   6.951
10701SOL     OW33001   2.946   0.410   6.411
10701SOL    HW133002   3.029   0.452   6.447
10701SOL    HW233003   2.895   0.366   6.485
10702SOL     OW33004   4.861   3.149   2.480
10702SOL    HW133005   4.768   3.184   2.468
10702SOL    HW233006   4.891   3.105   2.395
10703SOL     OW33007   2.062   2.349   5.825
10703SOL    HW133008   1.964   2.335   5.841
10703SOL    HW233009   2.080   2.354   5.727
10704SOL     OW33010   6.822   6.059   2.799
10704SOL    HW133011   6.859   6.038   2.889
10704SOL    HW233012   6.822   5.976   2.743
10705SOL     OW33013   5.537   5.209   1.151
10705SOL    HW133014   5.510   5.255   1.236
10705SOL    HW233015   5.630   5.236   1.126
10706SOL     OW33016   4.993   0.203   2.288
10706SOL    HW133017   4.934   0.232   2.364
10706SOL    HW233018   4.978   0.106   2.269
10707SOL     OW33019   6.240   6.812   4.182
10707SOL    HW133020   6.289   6.885   4.229
10707SOL    HW233021   6.295   6.780   4.105
10708SOL     OW33022   4.791   2.666   2.928
10708SOL    HW133023   4.738   2.674   3.013
10708SOL    HW233024   4.738   2.704   2.853
10709SOL     OW33025   5.791   5.383   3.855
10709SOL    HW133026   5.765   5.379   3.759
10709SOL    HW233027   5.732   5.448   3.903
10710SOL     OW33028   5.187   0.521   3.339
10710SOL    HW133029   5.112   0.489   3.282
10710SOL    HW233030   5.252   0.446   3.353
10711SOL     OW33031   3.745   6.664   2.571
10711SOL    HW133032   3.668   6.607   2.601
10711SOL    HW233033   3.711   6.745   2.524
10712SOL     OW33034   3.550   0.327   2.979
10712SOL    HW133035   3.640   0.364   2.958
10712SOL    HW233036   3.557   0.263   3.055
10713SOL     OW33037   0.806   3.465   0.980
10713SOL    HW133038   0.821   3.376   1.024
10713SOL    HW233039   0.858   3.469   0.895
10714SOL     OW33040   4.036   3.181   4.692
10714SOL    HW133041   4.081   3.254   4.640
10714SOL    HW233042   4.055   3.192   4.789
10715SOL     OW33043   5.486   0.448   2.352
10715SOL    HW133044   5.554   0.465   2.423
10715SOL    HW233045   5.421   0.524   2.350
10716SOL     OW33046   6.452   2.379   3.436
10716SOL    HW133047   6.487   2.461   3.481
10716SOL    HW233048   6.486   2.375   3.343
10717SOL     OW33049   1.249   2.795   0.636
10717SOL    HW133050   1.335   2.795   0.688
10717SOL    HW233051   1.173   2.770   0.696
10718SOL     OW33052   0.637   4.752   6.253
10718SOL    HW133053   0.677   4.746   6.345
10718SOL    HW233054   0.565   4.683   6.244
10719SOL     OW33055   5.885   5.927   3.276
10719SOL    HW133056   5.974   5.890   3.303
10719SOL    HW233057   5.872   5.913   3.178
10720SOL     OW33058   5.946   5.278   4.506
10720SOL    HW133059   5.995   5.343   4.565
10720SOL    HW233060   5.876   5.326   4.454
10721SOL     OW33061   5.055   3.877   5.455
10721SOL    HW133062   5.074   3.969   5.490
10721SOL    HW233063   5.140   3.824   5.454
10722SOL     OW33064   6.574   3.787   6.332
10722SOL    HW133065   6.558   3.844   6.412
10722SOL    HW233066   6.663   3.743   6.340
10723SOL     OW33067   0.033   1.395   6.741
10723SOL    HW133068   0.029   1.375   6.839
10723SOL    HW233069   0.101   1.335   6.698
10724SOL     OW33070   0.440   6.919   0.048
10724SOL    HW133071   0.343   6.902   0.033
10724SOL    HW233072   0.458   6.926   0.146
10725SOL     OW33073   2.356   5.777   5.154
10725SOL    HW133074   2.386   5.720   5.078
10725SOL    HW233075   2.433   5.793   5.216
10726SOL     OW33076   5.023   1.174   3.952
10726SOL    HW133077   5.072   1.258   3.929
10726SOL    HW233078   4.930   1.178   3.917
10727SOL     OW33079   1.329   5.261   6.131
10727SOL    HW133080   1.382   5.344   6.147
10727SOL    HW233081   1.368   5.211   6.053
10728SOL     OW33082   0.161   5.422   0.470
10728SOL    HW133083   0.110   5.375   0.542
10728SOL    HW233084   0.217   5.494   0.510
10729SOL     OW33085   5.680   2.131   1.577
10729SOL    HW133086   5.641   2.168   1.493
10729SOL    HW233087   5.780   2.140   1.575
10730SOL     OW33088   3.793   0.701   1.592
10730SOL    HW133089   3.850   0.620   1.599
10730SOL    HW233090   3.699   0.678   1.617
10731SOL     OW33091   3.789   0.883   1.340
10731SOL    HW133092   3.706   0.917   1.294
10731SOL    HW233093   3.763   0.822   1.414
10732SOL     OW33094   0.365   4.905   5.298
10732SOL    HW133095   0.285   4.965   5.298
10732SOL    HW233096   0.348   4.825   5.355
10733SOL     OW33097   5.503   1.416   6.526
10733SOL    HW133098   5.512   1.514   6.540
10733SOL    HW233099   5.407   1.389   6.539
10734SOL     OW33100   0.835   1.685   0.957
10734SOL    HW133101   0.740   1.655   0.950
10734SOL    HW233102   0.866   1.720   0.868
10735SOL     OW33103   0.179   2.354   1.600
10735SOL    HW133104   0.197   2.292   1.676
10735SOL    HW233105   0.134   2.303   1.526
10736SOL     OW33106   2.157   0.111   3.952
10736SOL    HW133107   2.243   0.092   3.904
10736SOL    HW233108   2.177   0.145   4.044
10737SOL     OW33109   0.592   1.882   1.247
10737SOL    HW133110   0.555   1.855   1.336
10737SOL    HW233111   0.577   1.809   1.181
10738SOL     OW33112   3.539   5.856   3.002
10738SOL    HW133113   3.598   5.789   3.047
10738SOL    HW233114   3.517   5.929   3.066
10739SOL     OW33115   1.403   2.654   1.137
10739SOL    HW133116   1.452   2.648   1.224
10739SOL    HW233117   1.430   2.737   1.089
10740SOL     OW33118   5.977   4.836   5.397
10740SOL    HW133119   5.960   4.855   5.301
10740SOL    HW233120   5.938   4.909   5.453
10741SOL     OW33121   4.327   1.315   2.083
10741SOL    HW133122   4.261   1.390   2.083
10741SOL    HW233123   4.385   1.321   2.165
10742SOL     OW33124   5.933   5.771   1.502
10742SOL    HW133125   5.917   5.686   1.553
10742SOL    HW233126   6.024   5.806   1.523
10743SOL     OW33127   1.835   2.131   4.157
10743SOL    HW133128   1.885   2.055   4.199
10743SOL    HW233129   1.900   2.201   4.127
10744SOL     OW33130   3.017   1.646   1.093
10744SOL    HW133131   2.946   1.657   1.024
10744SOL    HW233132   2.979   1.602   1.174
10745SOL     OW33133   0.042   5.184   5.356
10745SOL    HW133134   0.100   5.157   5.433
10745SOL    HW233135   6.998   5.108   5.333
10746SOL     OW33136   1.211   3.750   6.062
10746SOL    HW133137   1.296   3.726   6.015
10746SOL    HW233138   1.183   3.674   6.120
10747SOL     OW33139   2.914   0.984   4.510
10747SOL    HW133140   2.891   1.070   4.463
10747SOL    HW233141   2.932   0.913   4.442
10748SOL     OW33142   6.315   1.731   2.332
10748SOL    HW133143   6.218   1.746   2.349
10748SOL    HW233144   6.327   1.643   2.285
10749SOL     OW33145   1.109   6.107   5.352
10749SOL    HW133146   1.109   6.068   5.260
10749SOL    HW233147   1.152   6.043   5.416
10750SOL     OW33148   4.135   0.422   5.039
10750SOL    HW133149   4.172   0.388   5.126
10750SOL    HW233150   4.040   0.451   5.053
10751SOL     OW33151   1.896   4.643   4.219
10751SOL    HW133152   1.949   4.695   4.151
10751SOL    HW233153   1.948   4.563   4.247
10752SOL     OW33154   5.476   4.589   5.124
10752SOL    HW133155   5.489   4.537   5.208
10752SOL    HW233156   5.415   4.666   5.142
10753SOL     OW33157   0.196   3.807   4.158
10753SOL    HW133158   0.168   3.807   4.062
10753SOL    HW233159   0.156   3.886   4.204
10754SOL     OW33160   0.776   0.264   2.879
10754SOL    HW133161   0.761   0.356   2.914
10754SOL    HW233162   0.849   0.219   2.931
10755SOL     OW33163   6.817   6.956   1.751
10755SOL    HW133164   6.781   6.963   1.658
10755SOL    HW233165   6.823   6.860   1.777
10756SOL     OW33166   6.984   5.553   5.136
10756SOL    HW133167   6.967   5.537   5.039
10756SOL    HW233168   0.046   5.611   5.147
10757SOL     OW33169   2.470   2.730   6.675
10757SOL    HW133170   2.528   2.729   6.757
10757SOL    HW233171   2.411   2.811   6.676
10758SOL     OW33172   0.591   6.075   3.355
10758SOL    HW133173   0.653   6.154   3.351
10758SOL    HW233174   0.631   5.998   3.306
10759SOL     OW33175   1.055   2.878   0.466
10759SOL    HW133176   1.122   2.843   0.532
10759SOL    HW233177   0.993   2.804   0.440
10760SOL     OW33178   5.676   0.871   3.366
10760SOL    HW133179   5.626   0.823   3.295
10760SOL    HW233180   5.657   0.829   3.455
10761SOL     OW33181   1.974   5.438   5.940
10761SOL    HW133182   1.911   5.363   5.958
10761SOL    HW233183   2.066   5.402   5.925
10762SOL     OW33184   3.251   0.274   4.937
10762SOL    HW133185   3.274   0.278   4.839
10762SOL    HW233186   3.240   0.366   4.973
10763SOL     OW33187   4.012   0.326   3.529
10763SOL    HW133188   3.977   0.306   3.620
10763SOL    HW233189   3.942   0.375   3.476
10764SOL     OW33190   5.106   1.258   4.674
10764SOL    HW133191   5.047   1.178   4.667
10764SOL    HW233192   5.051   1.341   4.676
10765SOL     OW33193   5.254   3.295   0.925
10765SOL    HW133194   5.257   3.198   0.951
10765SOL    HW233195   5.160   3.322   0.908
10766SOL     OW33196   4.085   4.696   0.603
10766SOL    HW133197   4.127   4.738   0.522
10766SOL    HW233198   4.013   4.633   0.573
10767SOL     OW33199   2.628   0.235   1.395
10767SOL    HW133200   2.711   0.279   1.363
10767SOL    HW233201   2.563   0.226   1.320
10768SOL     OW33202   6.197   5.162   1.163
10768SOL    HW133203   6.285   5.114   1.170
10768SOL    HW233204   6.194   5.212   1.077
10769SOL     OW33205   1.730   3.412   5.899
10769SOL    HW133206   1.804   3.466   5.938
10769SOL    HW233207   1.756   3.382   5.807
10770SOL     OW33208   4.942   5.579   3.515
10770SOL    HW133209   5.033   5.541   3.535
10770SOL    HW233210   4.946   5.629   3.428
10771SOL     OW33211   4.338   6.784   3.922
10771SOL    HW133212   4.337   6.832   4.009
10771SOL    HW233213   4.265   6.715   3.921
10772SOL     OW33214   6.718   5.516   3.761
10772SOL    HW133215   6.740   5.439   3.820
10772SOL    HW233216   6.794   5.531   3.697
10773SOL     OW33217   5.660   4.141   5.468
10773SOL    HW133218   5.722   4.204   5.514
10773SOL    HW233219   5.576   4.133   5.521
10774SOL     OW33220   1.735   1.142   4.162
10774SOL    HW133221   1.722   1.175   4.256
10774SOL    HW233222   1.653   1.164   4.108
10775SOL     OW33223   0.836   3.971   1.576
10775SOL    HW133224   0.782   3.901   1.623
10775SOL    HW233225   0.839   4.053   1.633
10776SOL     OW33226   1.368   0.850   6.444
10776SOL    HW133227   1.377   0.792   6.363
10776SOL    HW233228   1.272   0.872   6.460
10777SOL     OW33229   3.610   5.223   1.071
10777SOL    HW133230   3.660   5.306   1.094
10777SOL    HW233231   3.514   5.246   1.054
10778SOL     OW33232   5.290   6.671   3.998
10778SOL    HW133233   5.224   6.744   4.014
10778SOL    HW233234   5.305   6.659   3.900
10779SOL     OW33235   5.965   2.843   3.181
10779SOL    HW133236   5.911   2.775   3.230
10779SOL    HW233237   5.920   2.867   3.095
10780SOL     OW33238   1.163   0.953   4.091
10780SOL    HW133239   1.076   0.943   4.043
10780SOL    HW233240   1.236   0.911   4.037
10781SOL     OW33241   3.838   0.512   4.084
10781SOL    HW133242   3.813   0.429   4.133
10781SOL    HW233243   3.788   0.590   4.121
10782SOL     OW33244   6.270   6.630   3.692
10782SOL    HW133245   6.333   6.553   3.681
10782SOL    HW233246   6.239   6.660   3.602
10783SOL     OW33247   0.214   2.680   2.373
10783SOL    HW133248   0.185   2.667   2.467
10783SOL    HW233249   0.193   2.773   2.343
10784SOL     OW33250   2.514   1.013   3.686
10784SOL    HW133251   2.523   0.928   3.635
10784SOL    HW233252   2.437   1.066   3.650
10785SOL     OW33253   1.169   3.970   0.047
10785SOL    HW133254   1.096   3.964   6.997
10785SOL    HW233255   1.255   3.993   0.002
10786SOL     OW33256   5.653   6.047   3.354
10786SOL    HW133257   5.612   6.027   3.442
10786SOL    HW233258   5.745   6.007   3.350
10787SOL     OW33259   0.324   0.226   5.493
10787SOL    HW133260   0.293   0.261   5.581
10787SOL    HW233261   0.317   0.126   5.493
10788SOL     OW33262   0.752   3.970   0.208
10788SOL    HW133263   0.730   4.024   0.127
10788SOL    HW233264   0.718   4.017   0.289
10789SOL     OW33265   6.922   2.753   0.008
10789SOL    HW133266   6.947   2.825   0.072
10789SOL    HW233267   6.919   2.790   6.933
10790SOL     OW33268   0.425   6.844   1.869
10790SOL    HW133269   0.439   6.783   1.948
10790SOL    HW233270   0.441   6.792   1.785
10791SOL     OW33271   6.275   6.433   2.217
10791SOL    HW133272   6.348   6.374   2.184
10791SOL    HW233273   6.310   6.494   2.288
10792SOL     OW33274   3.753   3.690   5.171
10792SOL    HW133275   3.795   3.628   5.238
10792SOL    HW233276   3.798   3.779   5.174
10793SOL     OW33277   5.363   3.204   5.433
10793SOL    HW133278   5.413   3.238   5.353
10793SOL    HW233279   5.270   3.180   5.406
10794SOL     OW33280   3.780   4.050   4.274
10794SOL    HW133281   3.744   4.087   4.189
10794SOL    HW233282   3.706   4.036   4.339
10795SOL     OW33283   0.941   4.246   2.804
10795SOL    HW133284   0.898   4.159   2.781
10795SOL    HW233285   1.028   4.229   2.851
10796SOL     OW33286   0.291   6.029   5.874
10796SOL    HW133287   0.272   5.975   5.955
10796SOL    HW233288   0.255   6.122   5.886
10797SOL     OW33289   3.568   3.053   0.420
10797SOL    HW133290   3.620   3.093   0.496
10797SOL    HW233291   3.604   2.962   0.400
10798SOL     OW33292   2.325   1.692   0.607
10798SOL    HW133293   2.227   1.702   0.624
10798SOL    HW233294   2.375   1.750   0.671
10799SOL     OW33295   3.985   0.562   3.182
10799SOL    HW133296   4.082   0.548   3.199
10799SOL    HW233297   3.961   0.657   3.200
10800SOL     OW33298   0.817   6.011   0.110
10800SOL    HW133299   0.850   6.048   0.023
10800SOL    HW233300   0.837   6.077   0.184
10801SOL     OW33301   1.681   0.710   0.550
10801SOL    HW133302   1.647   0.804   0.551
10801SOL    HW233303   1.701   0.681   0.643
10802SOL     OW33304   6.580   6.835   3.725
10802SOL    HW133305   6.555   6.922   3.768
10802SOL    HW233306   6.500   6.775   3.721
10803SOL     OW33307   1.701   5.548   6.572
10803SOL    HW133308   1.618   5.602   6.580
10803SOL    HW233309   1.781   5.607   6.584
10804SOL     OW33310   0.080   2.893   3.399
10804SOL    HW133311   0.007   2.961   3.405
10804SOL    HW233312   0.062   2.818   3.463
10805SOL     OW33313   5.938   1.056   4.971
10805SOL    HW133314   5.927   1.052   5.070
10805SOL    HW233315   5.935   1.151   4.941
10806SOL     OW33316   2.699   5.097   6.770
10806SOL    HW133317   2.632   5.131   6.835
10806SOL    HW233318   2.755   5.173   6.737
10807SOL     OW33319   2.469   5.900   3.671
10807SOL    HW133320   2.370   5.918   3.673
10807SOL    HW233321   2.518   5.984   3.649
10808SOL     OW33322   0.057   2.415   6.626
10808SOL    HW133323   0.021   2.358   6.700
10808SOL    HW233324   0.155   2.427   6.637
10809SOL     OW33325   2.286   4.359   4.462
10809SOL    HW133326   2.253   4.369   4.555
10809SOL    HW233327   2.372   4.410   4.450
10810SOL     OW33328   0.517   0.357   3.821
10810SOL    HW133329   0.562   0.357   3.732
10810SOL    HW233330   0.432   0.303   3.816
10811SOL     OW33331   4.725   5.263   4.668
10811SOL    HW133332   4.758   5.357   4.657
10811SOL    HW233333   4.797   5.199   4.642
10812SOL     OW33334   0.191   2.839   6.557
10812SOL    HW133335   0.173   2.930   6.593
10812SOL    HW233336   0.105   2.796   6.530
10813SOL     OW33337   0.580   3.651   6.012
10813SOL    HW133338   0.575   3.707   5.929
10813SOL    HW233339   0.674   3.622   6.027
10814SOL     OW33340   1.913   0.049   0.501
10814SOL    HW133341   2.012   0.033   0.505
10814SOL    HW233342   1.887   0.117   0.569
10815SOL     OW33343   4.880   1.683   3.773
10815SOL    HW133344   4.896   1.584   3.776
10815SOL    HW233345   4.941   1.724   3.706
10816SOL     OW33346   4.023   3.250   3.337
10816SOL    HW133347   4.080   3.273   3.259
10816SOL    HW233348   3.952   3.186   3.309
10817SOL     OW33349   3.200   0.007   3.376
10817SOL    HW133350   3.171   6.968   3.299
10817SOL    HW233351   3.142   0.088   3.381
10818SOL     OW33352   5.292   5.559   6.075
10818SOL    HW133353   5.262   5.504   6.153
10818SOL    HW233354   5.233   5.638   6.064
10819SOL     OW33355   6.985   5.369   6.226
10819SOL    HW133356   6.889   5.345   6.243
10819SOL    HW233357   6.994   5.469   6.225
10820SOL     OW33358   1.181   5.602   5.327
10820SOL    HW133359   1.218   5.509   5.318
10820SOL    HW233360   1.247   5.668   5.291
10821SOL     OW33361   4.469   5.413   2.538
10821SOL    HW133362   4.400   5.355   2.582
10821SOL    HW233363   4.426   5.469   2.467
10822SOL     OW33364   5.423   2.862   0.787
10822SOL    HW133365   5.520   2.839   0.779
10822SOL    HW233366   5.382   2.865   0.696
10823SOL     OW33367   6.863   6.657   2.948
10823SOL    HW133368   6.878   6.559   2.965
10823SOL    HW233369   6.934   6.710   2.993
10824SOL     OW33370   1.425   1.072   4.401
10824SOL    HW133371   1.387   1.013   4.472
10824SOL    HW233372   1.504   1.028   4.359
10825SOL     OW33373   1.219   1.871   0.501
10825SOL    HW133374   1.308   1.908   0.524
10825SOL    HW233375   1.186   1.914   0.417
10826SOL     OW33376   1.221   2.306   2.947
10826SOL    HW133377   1.299   2.302   2.885
10826SOL    HW233378   1.178   2.216   2.951
10827SOL     OW33379   6.163   3.852   4.962
10827SOL    HW133380   6.099   3.899   4.901
10827SOL    HW233381   6.257   3.869   4.931
10828SOL     OW33382   6.335   3.477   7.017
10828SOL    HW133383   6.281   3.541   0.053
10828SOL    HW233384   6.287   3.456   6.932
10829SOL     OW33385   4.796   3.366   6.968
10829SOL    HW133386   4.804   3.465   6.977
10829SOL    HW233387   4.888   3.326   6.965
10830SOL     OW33388   4.568   1.620   3.633
10830SOL    HW133389   4.663   1.596   3.655
10830SOL    HW233390   4.510   1.598   3.712
10831SOL     OW33391   4.103   1.123   2.645
10831SOL    HW133392   4.017   1.159   2.680
10831SOL    HW233393   4.088   1.033   2.605
10832SOL     OW33394   0.035   3.302   6.951
10832SOL    HW133395   6.997   3.284   0.013
10832SOL    HW233396   6.995   3.313   6.871
10833SOL     OW33397   0.588   1.557   0.936
10833SOL    HW133398   0.538   1.595   0.858
10833SOL    HW233399   0.552   1.466   0.957
10834SOL     OW33400   6.411   6.593   0.404
10834SOL    HW133401   6.483   6.588   0.473
10834SOL    HW233402   6.389   6.688   0.386
10835SOL     OW33403   5.670   3.339   6.896
10835SOL    HW133404   5.694   3.277   6.970
10835SOL    HW233405   5.637   3.286   6.818
10836SOL     OW33406   1.139   1.276   2.758
10836SOL    HW133407   1.072   1.331   2.808
10836SOL    HW233408   1.211   1.335   2.722
10837SOL     OW33409   6.525   4.536   2.126
10837SOL    HW133410   6.484   4.453   2.164
10837SOL    HW233411   6.458   4.610   2.127
10838SOL     OW33412   5.693   5.629   3.470
10838SOL    HW133413   5.623   5.560   3.489
10838SOL    HW233414   5.768   5.619   3.536
10839SOL     OW33415   4.506   3.653   0.535
10839SOL    HW133416   4.428   3.590   0.531
10839SOL    HW233417   4.511   3.705   0.450
10840SOL     OW33418   3.029   0.282   1.322
10840SOL    HW133419   3.119   0.292   1.279
10840SOL    HW233420   3.037   0.221   1.401
10841SOL     OW33421   0.938   5.252   4.784
10841SOL    HW133422   0.981   5.287   4.701
10841SOL    HW233423   0.844   5.224   4.763
10842SOL     OW33424   4.925   3.981   1.302
10842SOL    HW133425   4.931   3.904   1.365
10842SOL    HW233426   5.015   4.022   1.290
10843SOL     OW33427   1.966   1.218   1.384
10843SOL    HW133428   1.987   1.265   1.299
10843SOL    HW233429   1.868   1.228   1.405
10844SOL     OW33430   1.255   5.769   4.673
10844SOL    HW133431   1.291   5.675   4.676
10844SOL    HW233432   1.197   5.786   4.752
10845SOL     OW33433   4.296   6.095   5.071
10845SOL    HW133434   4.367   6.077   5.140
10845SOL    HW233435   4.332   6.075   4.980
10846SOL     OW33436   5.513   6.331   0.074
10846SOL    HW133437   5.526   6.266   7.018
10846SOL    HW233438   5.417   6.362   0.075
10847SOL     OW33439   2.063   1.994   6.995
10847SOL    HW133440   2.146   2.044   0.003
10847SOL    HW233441   1.989   2.058   6.980
10848SOL     OW33442   1.921   4.048   1.383
10848SOL    HW133443   1.841   3.993   1.404
10848SOL    HW233444   1.954   4.094   1.465
10849SOL     OW33445   2.932   5.174   3.911
10849SOL    HW133446   2.928   5.259   3.859
10849SOL    HW233447   2.996   5.111   3.866
10850SOL     OW33448   4.617   6.346   0.355
10850SOL    HW133449   4.575   6.406   0.423
10850SOL    HW233450   4.554   6.272   0.332
10851SOL     OW33451   2.656   4.421   1.713
10851SOL    HW133452   2.743   4.439   1.759
10851SOL    HW233453   2.664   4.337   1.659
10852SOL     OW33454   1.949   1.864   0.821
10852SOL    HW133455   1.900   1.825   0.900
10852SOL    HW233456   1.992   1.950   0.848
10853SOL     OW33457   2.283   2.313   6.156
10853SOL    HW133458   2.326   2.263   6.231
10853SOL    HW233459   2.273   2.253   6.077
10854SOL     OW33460   4.078   6.269   5.007
10854SOL    HW133461   4.034   6.203   4.946
10854SOL    HW233462   4.160   6.228   5.047
10855SOL     OW33463   3.139   1.490   0.532
10855SOL    HW133464   3.151   1.579   0.576
10855SOL    HW233465   3.154   1.418   0.599
10856SOL     OW33466   0.298   0.809   6.999
10856SOL    HW133467   0.301   0.848   6.907
10856SOL    HW233468   0.392   0.796   0.015
10857SOL     OW33469   6.767   1.509   2.129
10857SOL    HW133470   6.790   1.512   2.226
10857SOL    HW233471   6.748   1.601   2.096
10858SOL     OW33472   2.434   6.021   1.714
10858SOL    HW133473   2.496   6.016   1.793
10858SOL    HW233474   2.448   5.941   1.655
10859SOL     OW33475   0.185   5.068   4.180
10859SOL    HW133476   0.219   5.133   4.112
10859SOL    HW233477   0.261   5.014   4.216
10860SOL     OW33478   6.632   3.038   2.698
10860SOL    HW133479   6.588   3.017   2.786
10860SOL    HW233480   6.613   2.965   2.633
10861SOL     OW33481   3.330   2.892   3.928
10861SOL    HW133482   3.295   2.805   3.892
10861SOL    HW233483   3.425   2.905   3.899
10862SOL     OW33484   2.017   6.881   5.148
10862SOL    HW133485   2.083   6.936   5.097
10862SOL    HW233486   1.990   6.802   5.093
10863SOL     OW33487   2.996   6.315   4.969
10863SOL    HW133488   3.058   6.322   4.890
10863SOL    HW233489   2.902   6.304   4.936
10864SOL     OW33490   3.150   6.400   2.318
10864SOL    HW133491   3.184   6.391   2.224
10864SOL    HW233492   3.067   6.455   2.319
10865SOL     OW33493   5.686   1.309   6.714
10865SOL    HW133494   5.694   1.364   6.797
10865SOL    HW233495   5.626   1.354   6.649
10866SOL     OW33496   5.493   4.380   0.289
10866SOL    HW133497   5.509   4.290   0.330
10866SOL    HW233498   5.534   4.451   0.346
10867SOL     OW33499   3.557   4.128   0.594
10867SOL    HW133500   3.507   4.215   0.596
10867SOL    HW233501   3.518   4.065   0.661
10868SOL     OW33502   3.987   1.636   3.560
10868SOL    HW133503   3.904   1.683   3.533
10868SOL    HW233504   4.062   1.702   3.567
10869NA      NA33505   5.950   2.231   5.635
10870NA      NA33506   4.352   4.672   5.202
10871NA      NA33507   1.985   3.604   1.566
10872NA      NA33508   4.838   3.870   5.381
10873NA      NA33509   4.453   2.377   5.114
10874NA      NA33510   3.774   4.805   1.776
10875NA      NA33511   6.833   5.542   5.320
10876NA      NA33512   3.567   3.588   5.048
10877NA      NA33513   4.918   6.599   6.575
10878NA      NA33514   3.693   6.836   5.526
10879NA      NA33515   6.704   5.075   1.941
10880NA      NA33516   2.290   0.493   3.885
10881NA      NA33517   3.698   5.042   1.188
10882NA      NA33518   3.327   3.502   2.537
   7.01823   7.01823   7.01823
