Generated by trjconv : CNT in water t=  72.00000
33518
    1C        C    1   2.844   2.767   4.747
    1C        C    2   2.898   2.718   4.868
    1C        C    3   2.839   2.772   4.983
    1C        C    4   2.855   2.778   4.257
    1C        C    5   2.905   2.729   4.380
    1C        C    6   2.849   2.775   4.501
    1C        C    7   3.013   2.641   4.621
    1C        C    8   2.899   2.725   4.624
    1C        C    9   3.075   2.606   4.743
    1C        C   10   3.007   2.629   4.865
    1C        C   11   3.181   2.489   4.974
    1C        C   12   3.061   2.561   4.975
    1C        C   13   2.853   2.773   3.769
    1C        C   14   2.907   2.729   3.892
    1C        C   15   2.853   2.778   4.013
    1C        C   16   3.020   2.645   4.136
    1C        C   17   2.906   2.729   4.134
    1C        C   18   3.083   2.611   4.258
    1C        C   19   3.020   2.647   4.379
    1C        C   20   3.208   2.551   4.504
    1C        C   21   3.078   2.606   4.501
    1C        C   22   3.275   2.531   4.626
    1C        C   23   3.205   2.550   4.748
    1C        C   24   3.412   2.479   4.865
    1C        C   25   3.270   2.498   4.863
    1C        C   26   3.487   2.479   4.984
    1C        C   27   2.847   2.767   3.280
    1C        C   28   2.906   2.726   3.402
    1C        C   29   2.849   2.770   3.524
    1C        C   30   3.015   2.638   3.649
    1C        C   31   2.901   2.721   3.646
    1C        C   32   3.077   2.602   3.771
    1C        C   33   3.017   2.641   3.892
    1C        C   34   3.206   2.545   4.014
    1C        C   35   3.078   2.604   4.014
    1C        C   36   3.276   2.528   4.136
    1C        C   37   3.212   2.553   4.260
    1C        C   38   3.417   2.507   4.381
    1C        C   39   3.277   2.530   4.383
    1C        C   40   3.485   2.496   4.504
    1C        C   41   3.413   2.499   4.625
    1C        C   42   3.628   2.482   4.742
    1C        C   43   3.486   2.477   4.744
    1C        C   44   3.703   2.487   4.862
    1C        C   45   3.626   2.475   4.978
    1C        C   46   2.837   2.754   2.794
    1C        C   47   2.893   2.712   2.916
    1C        C   48   2.840   2.760   3.038
    1C        C   49   3.017   2.639   3.158
    1C        C   50   2.902   2.721   3.159
    1C        C   51   3.076   2.600   3.280
    1C        C   52   3.018   2.640   3.403
    1C        C   53   3.205   2.549   3.524
    1C        C   54   3.074   2.600   3.526
    1C        C   55   3.275   2.529   3.645
    1C        C   56   3.208   2.549   3.768
    1C        C   57   3.413   2.504   3.892
    1C        C   58   3.274   2.527   3.892
    1C        C   59   3.485   2.497   4.014
    1C        C   60   3.415   2.501   4.136
    1C        C   61   3.627   2.500   4.258
    1C        C   62   3.486   2.498   4.258
    1C        C   63   3.698   2.508   4.380
    1C        C   64   3.627   2.500   4.501
    1C        C   65   3.837   2.536   4.621
    1C        C   66   3.700   2.503   4.622
    1C        C   67   3.908   2.560   4.741
    1C        C   68   3.839   2.527   4.860
    1C        C   69   4.050   2.582   4.977
    1C        C   70   3.920   2.529   4.974
    1C        C   71   2.820   2.732   2.308
    1C        C   72   2.884   2.696   2.428
    1C        C   73   2.831   2.745   2.550
    1C        C   74   3.002   2.621   2.673
    1C        C   75   2.886   2.701   2.672
    1C        C   76   3.070   2.592   2.793
    1C        C   77   3.009   2.630   2.915
    1C        C   78   3.207   2.546   3.038
    1C        C   79   3.076   2.601   3.035
    1C        C   80   3.274   2.527   3.161
    1C        C   81   3.207   2.547   3.283
    1C        C   82   3.413   2.492   3.403
    1C        C   83   3.276   2.525   3.404
    1C        C   84   3.485   2.493   3.525
    1C        C   85   3.414   2.503   3.647
    1C        C   86   3.624   2.498   3.769
    1C        C   87   3.483   2.498   3.770
    1C        C   88   3.694   2.511   3.892
    1C        C   89   3.626   2.504   4.015
    1C        C   90   3.835   2.546   4.133
    1C        C   91   3.699   2.509   4.136
    1C        C   92   3.902   2.562   4.256
    1C        C   93   3.837   2.535   4.378
    1C        C   94   4.025   2.634   4.498
    1C        C   95   3.904   2.562   4.500
    1C        C   96   4.090   2.670   4.618
    1C        C   97   4.032   2.628   4.740
    1C        C   98   4.199   2.755   4.860
    1C        C   99   4.102   2.650   4.862
    1C        C  100   4.216   2.837   4.973
    1C        C  101   2.824   2.732   2.072
    1C        C  102   2.990   2.589   2.192
    1C        C  103   2.876   2.676   2.189
    1C        C  104   3.060   2.570   2.314
    1C        C  105   2.999   2.614   2.433
    1C        C  106   3.199   2.533   2.551
    1C        C  107   3.067   2.584   2.553
    1C        C  108   3.269   2.511   2.672
    1C        C  109   3.200   2.537   2.793
    1C        C  110   3.408   2.493   2.913
    1C        C  111   3.270   2.522   2.915
    1C        C  112   3.481   2.488   3.034
    1C        C  113   3.413   2.500   3.157
    1C        C  114   3.623   2.495   3.278
    1C        C  115   3.482   2.488   3.280
    1C        C  116   3.693   2.509   3.400
    1C        C  117   3.626   2.504   3.524
    1C        C  118   3.833   2.542   3.644
    1C        C  119   3.695   2.510   3.647
    1C        C  120   3.897   2.569   3.767
    1C        C  121   3.832   2.542   3.890
    1C        C  122   4.026   2.633   4.013
    1C        C  123   3.901   2.567   4.010
    1C        C  124   4.085   2.672   4.136
    1C        C  125   4.025   2.632   4.258
    1C        C  126   4.194   2.767   4.377
    1C        C  127   4.086   2.675   4.378
    1C        C  128   4.243   2.817   4.500
    1C        C  129   4.196   2.764   4.622
    1C        C  130   4.324   2.937   4.738
    1C        C  131   4.247   2.818   4.742
    1C        C  132   4.353   3.004   4.859
    1C        C  133   4.287   2.957   4.973
    1C        C  134   3.175   2.465   2.081
    1C        C  135   3.042   2.510   2.084
    1C        C  136   3.259   2.474   2.193
    1C        C  137   3.193   2.520   2.309
    1C        C  138   3.406   2.487   2.428
    1C        C  139   3.266   2.507   2.429
    1C        C  140   3.480   2.478   2.548
    1C        C  141   3.409   2.491   2.669
    1C        C  142   3.621   2.491   2.791
    1C        C  143   3.480   2.488   2.791
    1C        C  144   3.692   2.509   2.912
    1C        C  145   3.622   2.494   3.034
    1C        C  146   3.830   2.534   3.152
    1C        C  147   3.693   2.502   3.156
    1C        C  148   3.896   2.560   3.275
    1C        C  149   3.831   2.539   3.399
    1C        C  150   4.027   2.619   3.520
    1C        C  151   3.900   2.558   3.521
    1C        C  152   4.085   2.661   3.642
    1C        C  153   4.024   2.631   3.766
    1C        C  154   4.189   2.762   3.888
    1C        C  155   4.079   2.674   3.889
    1C        C  156   4.240   2.812   4.011
    1C        C  157   4.194   2.761   4.134
    1C        C  158   4.337   2.920   4.250
    1C        C  159   4.251   2.808   4.255
    1C        C  160   4.370   2.984   4.372
    1C        C  161   4.326   2.931   4.495
    1C        C  162   4.436   3.116   4.611
    1C        C  163   4.366   2.994   4.615
    1C        C  164   4.462   3.182   4.733
    1C        C  165   4.433   3.120   4.857
    1C        C  166   4.513   3.319   4.968
    1C        C  167   4.476   3.185   4.973
    1C        C  168   3.476   2.436   2.074
    1C        C  169   3.400   2.461   2.189
    1C        C  170   3.619   2.473   2.305
    1C        C  171   3.477   2.474   2.306
    1C        C  172   3.694   2.485   2.424
    1C        C  173   3.621   2.481   2.545
    1C        C  174   3.826   2.534   2.666
    1C        C  175   3.690   2.499   2.667
    1C        C  176   3.897   2.557   2.787
    1C        C  177   3.831   2.534   2.909
    1C        C  178   4.023   2.622   3.030
    1C        C  179   3.900   2.553   3.031
    1C        C  180   4.081   2.662   3.153
    1C        C  181   4.021   2.625   3.276
    1C        C  182   4.196   2.746   3.400
    1C        C  183   4.084   2.660   3.397
    1C        C  184   4.249   2.797   3.521
    1C        C  185   4.194   2.751   3.643
    1C        C  186   4.334   2.912   3.762
    1C        C  187   4.242   2.804   3.764
    1C        C  188   4.373   2.973   3.884
    1C        C  189   4.332   2.919   4.008
    1C        C  190   4.446   3.102   4.125
    1C        C  191   4.376   2.979   4.128
    1C        C  192   4.468   3.168   4.248
    1C        C  193   4.440   3.107   4.372
    1C        C  194   4.496   3.320   4.488
    1C        C  195   4.466   3.181   4.489
    1C        C  196   4.510   3.389   4.610
    1C        C  197   4.507   3.317   4.732
    1C        C  198   4.557   3.532   4.850
    1C        C  199   4.536   3.391   4.850
    1C        C  200   4.580   3.617   4.962
    1C        C  201   3.615   2.418   2.072
    1C        C  202   3.827   2.512   2.181
    1C        C  203   3.692   2.464   2.183
    1C        C  204   3.899   2.537   2.301
    1C        C  205   3.833   2.510   2.423
    1C        C  206   4.020   2.615   2.542
    1C        C  207   3.892   2.554   2.543
    1C        C  208   4.084   2.652   2.662
    1C        C  209   4.022   2.622   2.785
    1C        C  210   4.196   2.742   2.905
    1C        C  211   4.085   2.655   2.907
    1C        C  212   4.247   2.789   3.029
    1C        C  213   4.196   2.745   3.153
    1C        C  214   4.332   2.903   3.271
    1C        C  215   4.245   2.793   3.276
    1C        C  216   4.369   2.967   3.392
    1C        C  217   4.336   2.908   3.516
    1C        C  218   4.432   3.096   3.637
    1C        C  219   4.375   2.966   3.638
    1C        C  220   4.458   3.165   3.757
    1C        C  221   4.435   3.100   3.881
    1C        C  222   4.497   3.305   4.001
    1C        C  223   4.467   3.166   4.001
    1C        C  224   4.506   3.376   4.122
    1C        C  225   4.496   3.306   4.245
    1C        C  226   4.513   3.525   4.364
    1C        C  227   4.506   3.383   4.363
    1C        C  228   4.518   3.598   4.484
    1C        C  229   4.524   3.530   4.608
    1C        C  230   4.500   3.741   4.726
    1C        C  231   4.536   3.603   4.728
    1C        C  232   4.492   3.820   4.843
    1C        C  233   4.542   3.752   4.954
    1C        C  234   4.019   2.605   2.060
    1C        C  235   3.893   2.545   2.062
    1C        C  236   4.084   2.645   2.178
    1C        C  237   4.023   2.607   2.299
    1C        C  238   4.200   2.729   2.418
    1C        C  239   4.083   2.648   2.420
    1C        C  240   4.249   2.785   2.539
    1C        C  241   4.197   2.737   2.661
    1C        C  242   4.336   2.898   2.783
    1C        C  243   4.250   2.786   2.783
    1C        C  244   4.372   2.957   2.906
    1C        C  245   4.332   2.901   3.029
    1C        C  246   4.436   3.089   3.146
    1C        C  247   4.375   2.962   3.150
    1C        C  248   4.459   3.158   3.267
    1C        C  249   4.429   3.095   3.390
    1C        C  250   4.493   3.296   3.510
    1C        C  251   4.450   3.161   3.513
    1C        C  252   4.510   3.366   3.632
    1C        C  253   4.496   3.301   3.756
    1C        C  254   4.513   3.513   3.876
    1C        C  255   4.507   3.372   3.877
    1C        C  256   4.509   3.588   3.996
    1C        C  257   4.508   3.517   4.119
    1C        C  258   4.481   3.730   4.242
    1C        C  259   4.504   3.591   4.239
    1C        C  260   4.466   3.803   4.363
    1C        C  261   4.485   3.735   4.485
    1C        C  262   4.427   3.942   4.602
    1C        C  263   4.475   3.809   4.605
    1C        C  264   4.400   4.012   4.722
    1C        C  265   4.435   3.949   4.843
    1C        C  266   4.320   4.132   4.961
    1C        C  267   4.391   4.013   4.960
    1C        C  268   4.264   2.772   2.060
    1C        C  269   4.198   2.728   2.176
    1C        C  270   4.346   2.885   2.295
    1C        C  271   4.255   2.776   2.297
    1C        C  272   4.387   2.946   2.416
    1C        C  273   4.340   2.892   2.538
    1C        C  274   4.441   3.080   2.660
    1C        C  275   4.375   2.955   2.659
    1C        C  276   4.468   3.149   2.781
    1C        C  277   4.441   3.080   2.902
    1C        C  278   4.502   3.286   3.022
    1C        C  279   4.467   3.150   3.022
    1C        C  280   4.507   3.360   3.142
    1C        C  281   4.491   3.296   3.267
    1C        C  282   4.506   3.509   3.387
    1C        C  283   4.498   3.368   3.388
    1C        C  284   4.511   3.580   3.510
    1C        C  285   4.510   3.507   3.631
    1C        C  286   4.489   3.720   3.750
    1C        C  287   4.509   3.580   3.752
    1C        C  288   4.475   3.792   3.871
    1C        C  289   4.488   3.727   3.996
    1C        C  290   4.416   3.927   4.115
    1C        C  291   4.470   3.797   4.118
    1C        C  292   4.391   3.997   4.235
    1C        C  293   4.422   3.937   4.358
    1C        C  294   4.321   4.125   4.478
    1C        C  295   4.392   4.003   4.479
    1C        C  296   4.280   4.188   4.597
    1C        C  297   4.322   4.131   4.719
    1C        C  298   4.195   4.307   4.839
    1C        C  299   4.280   4.191   4.841
    1C        C  300   4.165   4.395   4.947
    1C        C  301   4.354   2.878   2.057
    1C        C  302   4.466   3.067   2.172
    1C        C  303   4.392   2.944   2.174
    1C        C  304   4.478   3.137   2.295
    1C        C  305   4.447   3.074   2.417
    1C        C  306   4.503   3.281   2.535
    1C        C  307   4.471   3.143   2.538
    1C        C  308   4.503   3.356   2.655
    1C        C  309   4.495   3.287   2.778
    1C        C  310   4.511   3.498   2.898
    1C        C  311   4.512   3.357   2.900
    1C        C  312   4.512   3.571   3.019
    1C        C  313   4.510   3.501   3.142
    1C        C  314   4.482   3.714   3.262
    1C        C  315   4.505   3.575   3.262
    1C        C  316   4.474   3.786   3.383
    1C        C  317   4.490   3.719   3.507
    1C        C  318   4.422   3.922   3.626
    1C        C  319   4.469   3.789   3.628
    1C        C  320   4.390   3.985   3.749
    1C        C  321   4.422   3.922   3.872
    1C        C  322   4.313   4.110   3.989
    1C        C  323   4.386   3.989   3.991
    1C        C  324   4.275   4.171   4.110
    1C        C  325   4.319   4.119   4.234
    1C        C  326   4.182   4.281   4.354
    1C        C  327   4.282   4.182   4.354
    1C        C  328   4.135   4.340   4.474
    1C        C  329   4.188   4.295   4.597
    1C        C  330   4.020   4.432   4.713
    1C        C  331   4.132   4.344   4.717
    1C        C  332   3.969   4.491   4.831
    1C        C  333   4.050   4.476   4.945
    1C        C  334   4.549   3.268   2.059
    1C        C  335   4.533   3.129   2.062
    1C        C  336   4.534   3.346   2.175
    1C        C  337   4.510   3.276   2.295
    1C        C  338   4.526   3.493   2.413
    1C        C  339   4.516   3.353   2.414
    1C        C  340   4.523   3.568   2.533
    1C        C  341   4.520   3.496   2.654
    1C        C  342   4.494   3.708   2.775
    1C        C  343   4.513   3.568   2.775
    1C        C  344   4.478   3.780   2.895
    1C        C  345   4.493   3.711   3.018
    1C        C  346   4.424   3.914   3.138
    1C        C  347   4.472   3.782   3.138
    1C        C  348   4.392   3.981   3.259
    1C        C  349   4.423   3.918   3.381
    1C        C  350   4.317   4.102   3.499
    1C        C  351   4.397   3.986   3.502
    1C        C  352   4.275   4.163   3.619
    1C        C  353   4.318   4.106   3.742
    1C        C  354   4.176   4.265   3.865
    1C        C  355   4.271   4.160   3.863
    1C        C  356   4.124   4.318   3.985
    1C        C  357   4.178   4.274   4.108
    1C        C  358   4.008   4.399   4.226
    1C        C  359   4.127   4.323   4.231
    1C        C  360   3.952   4.446   4.347
    1C        C  361   4.018   4.419   4.469
    1C        C  362   3.826   4.513   4.591
    1C        C  363   3.956   4.457   4.590
    1C        C  364   3.761   4.551   4.710
    1C        C  365   3.838   4.543   4.828
    1C        C  366   3.629   4.588   4.947
    1C        C  367   3.765   4.560   4.947
    1C        C  368   4.513   3.560   2.051
    1C        C  369   4.526   3.487   2.170
    1C        C  370   4.501   3.702   2.289
    1C        C  371   4.521   3.562   2.289
    1C        C  372   4.484   3.775   2.408
    1C        C  373   4.504   3.708   2.531
    1C        C  374   4.431   3.909   2.650
    1C        C  375   4.480   3.777   2.652
    1C        C  376   4.398   3.977   2.770
    1C        C  377   4.428   3.912   2.892
    1C        C  378   4.322   4.096   3.011
    1C        C  379   4.393   3.975   3.014
    1C        C  380   4.273   4.151   3.132
    1C        C  381   4.316   4.100   3.256
    1C        C  382   4.177   4.263   3.376
    1C        C  383   4.271   4.157   3.377
    1C        C  384   4.121   4.310   3.497
    1C        C  385   4.174   4.261   3.619
    1C        C  386   4.006   4.387   3.744
    1C        C  387   4.121   4.306   3.742
    1C        C  388   3.942   4.429   3.864
    1C        C  389   4.005   4.394   3.985
    1C        C  390   3.815   4.493   4.107
    1C        C  391   3.944   4.435   4.105
    1C        C  392   3.748   4.512   4.230
    1C        C  393   3.820   4.496   4.350
    1C        C  394   3.615   4.556   4.473
    1C        C  395   3.753   4.527   4.471
    1C        C  396   3.545   4.575   4.594
    1C        C  397   3.622   4.571   4.713
    1C        C  398   3.409   4.552   4.839
    1C        C  399   3.548   4.575   4.834
    1C        C  400   3.338   4.515   4.954
    1C        C  401   4.500   3.699   2.051
    1C        C  402   4.448   3.910   2.167
    1C        C  403   4.486   3.774   2.168
    1C        C  404   4.411   3.974   2.288
    1C        C  405   4.434   3.907   2.410
    1C        C  406   4.325   4.095   2.525
    1C        C  407   4.400   3.975   2.529
    1C        C  408   4.280   4.152   2.646
    1C        C  409   4.316   4.092   2.768
    1C        C  410   4.172   4.249   2.887
    1C        C  411   4.272   4.149   2.889
    1C        C  412   4.116   4.292   3.010
    1C        C  413   4.175   4.253   3.132
    1C        C  414   4.005   4.382   3.251
    1C        C  415   4.123   4.304   3.253
    1C        C  416   3.942   4.414   3.373
    1C        C  417   4.004   4.389   3.498
    1C        C  418   3.814   4.475   3.619
    1C        C  419   3.945   4.422   3.622
    1C        C  420   3.743   4.498   3.739
    1C        C  421   3.810   4.479   3.862
    1C        C  422   3.607   4.536   3.986
    1C        C  423   3.745   4.508   3.985
    1C        C  424   3.537   4.540   4.108
    1C        C  425   3.610   4.539   4.229
    1C        C  426   3.400   4.541   4.357
    1C        C  427   3.541   4.550   4.352
    1C        C  428   3.330   4.543   4.480
    1C        C  429   3.405   4.561   4.598
    1C        C  430   3.195   4.521   4.719
    1C        C  431   3.334   4.554   4.720
    1C        C  432   3.124   4.496   4.840
    1C        C  433   3.200   4.498   4.957
    1C        C  434   4.383   4.121   2.051
    1C        C  435   4.452   3.999   2.059
    1C        C  436   4.301   4.158   2.162
    1C        C  437   4.333   4.093   2.284
    1C        C  438   4.179   4.247   2.403
    1C        C  439   4.283   4.151   2.403
    1C        C  440   4.122   4.294   2.524
    1C        C  441   4.178   4.250   2.646
    1C        C  442   4.005   4.379   2.765
    1C        C  443   4.123   4.301   2.766
    1C        C  444   3.942   4.416   2.885
    1C        C  445   3.999   4.372   3.007
    1C        C  446   3.811   4.468   3.129
    1C        C  447   3.942   4.415   3.129
    1C        C  448   3.743   4.490   3.251
    1C        C  449   3.811   4.469   3.373
    1C        C  450   3.609   4.523   3.496
    1C        C  451   3.748   4.496   3.496
    1C        C  452   3.538   4.536   3.617
    1C        C  453   3.606   4.530   3.741
    1C        C  454   3.395   4.540   3.864
    1C        C  455   3.536   4.543   3.863
    1C        C  456   3.328   4.529   3.988
    1C        C  457   3.396   4.533   4.112
    1C        C  458   3.189   4.509   4.237
    1C        C  459   3.328   4.534   4.236
    1C        C  460   3.120   4.485   4.358
    1C        C  461   3.191   4.515   4.476
    1C        C  462   2.998   4.434   4.602
    1C        C  463   3.125   4.495   4.599
    1C        C  464   2.930   4.398   4.720
    1C        C  465   2.992   4.440   4.841
    1C        C  466   2.800   4.338   4.957
    1C        C  467   2.903   4.433   4.954
    1C        C  468   4.119   4.278   2.042
    1C        C  469   4.185   4.242   2.160
    1C        C  470   4.003   4.363   2.277
    1C        C  471   4.124   4.288   2.280
    1C        C  472   3.940   4.402   2.397
    1C        C  473   4.006   4.375   2.519
    1C        C  474   3.811   4.458   2.642
    1C        C  475   3.942   4.407   2.641
    1C        C  476   3.742   4.481   2.763
    1C        C  477   3.811   4.469   2.886
    1C        C  478   3.604   4.521   3.009
    1C        C  479   3.742   4.491   3.007
    1C        C  480   3.533   4.532   3.130
    1C        C  481   3.604   4.515   3.251
    1C        C  482   3.395   4.533   3.374
    1C        C  483   3.536   4.525   3.375
    1C        C  484   3.324   4.530   3.496
    1C        C  485   3.396   4.542   3.617
    1C        C  486   3.193   4.491   3.745
    1C        C  487   3.328   4.532   3.740
    1C        C  488   3.127   4.470   3.868
    1C        C  489   3.190   4.496   3.991
    1C        C  490   3.001   4.410   4.115
    1C        C  491   3.124   4.479   4.115
    1C        C  492   2.938   4.381   4.238
    1C        C  493   2.992   4.426   4.360
    1C        C  494   2.826   4.299   4.481
    1C        C  495   2.933   4.391   4.484
    1C        C  496   2.770   4.257   4.604
    1C        C  497   2.815   4.314   4.724
    1C        C  498   2.656   4.169   4.844
    1C        C  499   2.747   4.277   4.842
    1C        C  500   2.596   4.111   4.957
    1C        C  501   4.000   4.350   2.037
    1C        C  502   3.813   4.457   2.152
    1C        C  503   3.938   4.392   2.155
    1C        C  504   3.745   4.485   2.273
    1C        C  505   3.811   4.459   2.395
    1C        C  506   3.605   4.504   2.519
    1C        C  507   3.743   4.474   2.518
    1C        C  508   3.533   4.516   2.640
    1C        C  509   3.604   4.511   2.762
    1C        C  510   3.395   4.531   2.882
    1C        C  511   3.536   4.528   2.885
    1C        C  512   3.324   4.525   3.004
    1C        C  513   3.392   4.531   3.127
    1C        C  514   3.187   4.497   3.252
    1C        C  515   3.325   4.527   3.252
    1C        C  516   3.120   4.471   3.374
    1C        C  517   3.187   4.495   3.496
    1C        C  518   2.999   4.412   3.623
    1C        C  519   3.126   4.473   3.621
    1C        C  520   2.942   4.370   3.745
    1C        C  521   3.001   4.405   3.869
    1C        C  522   2.832   4.283   3.992
    1C        C  523   2.940   4.373   3.993
    1C        C  524   2.782   4.238   4.117
    1C        C  525   2.829   4.291   4.239
    1C        C  526   2.693   4.129   4.364
    1C        C  527   2.780   4.240   4.361
    1C        C  528   2.646   4.078   4.487
    1C        C  529   2.678   4.149   4.605
    1C        C  530   2.584   3.960   4.731
    1C        C  531   2.633   4.094   4.727
    1C        C  532   2.540   3.898   4.851
    1C        C  533   2.524   3.991   4.959
    1C        C  534   3.619   4.560   2.038
    1C        C  535   3.751   4.512   2.039
    1C        C  536   3.536   4.538   2.153
    1C        C  537   3.605   4.508   2.274
    1C        C  538   3.394   4.518   2.398
    1C        C  539   3.535   4.512   2.397
    1C        C  540   3.324   4.508   2.520
    1C        C  541   3.392   4.514   2.644
    1C        C  542   3.181   4.486   2.763
    1C        C  543   3.318   4.520   2.764
    1C        C  544   3.118   4.461   2.887
    1C        C  545   3.188   4.485   3.008
    1C        C  546   2.994   4.405   3.133
    1C        C  547   3.120   4.468   3.131
    1C        C  548   2.938   4.366   3.257
    1C        C  549   2.997   4.402   3.381
    1C        C  550   2.827   4.278   3.504
    1C        C  551   2.937   4.367   3.504
    1C        C  552   2.779   4.228   3.627
    1C        C  553   2.836   4.277   3.747
    1C        C  554   2.696   4.120   3.876
    1C        C  555   2.787   4.227   3.870
    1C        C  556   2.655   4.063   3.999
    1C        C  557   2.700   4.123   4.119
    1C        C  558   2.592   3.943   4.244
    1C        C  559   2.656   4.069   4.242
    1C        C  560   2.564   3.881   4.367
    1C        C  561   2.586   3.950   4.488
    1C        C  562   2.530   3.749   4.613
    1C        C  563   2.564   3.886   4.612
    1C        C  564   2.506   3.681   4.734
    1C        C  565   2.515   3.757   4.854
    1C        C  566   2.529   3.546   4.972
    1C        C  567   2.528   3.685   4.974
    1C        C  568   3.325   4.474   2.044
    1C        C  569   3.397   4.513   2.158
    1C        C  570   3.183   4.476   2.277
    1C        C  571   3.320   4.512   2.278
    1C        C  572   3.117   4.452   2.400
    1C        C  573   3.185   4.483   2.520
    1C        C  574   2.986   4.405   2.646
    1C        C  575   3.114   4.465   2.640
    1C        C  576   2.929   4.362   2.767
    1C        C  577   2.991   4.400   2.889
    1C        C  578   2.825   4.274   3.015
    1C        C  579   2.932   4.365   3.012
    1C        C  580   2.782   4.222   3.139
    1C        C  581   2.833   4.272   3.261
    1C        C  582   2.693   4.112   3.382
    1C        C  583   2.782   4.222   3.383
    1C        C  584   2.660   4.053   3.506
    1C        C  585   2.699   4.112   3.628
    1C        C  586   2.597   3.933   3.752
    1C        C  587   2.657   4.061   3.753
    1C        C  588   2.576   3.869   3.876
    1C        C  589   2.602   3.933   3.999
    1C        C  590   2.535   3.736   4.127
    1C        C  591   2.574   3.871   4.123
    1C        C  592   2.522   3.669   4.251
    1C        C  593   2.530   3.743   4.370
    1C        C  594   2.513   3.533   4.496
    1C        C  595   2.520   3.674   4.493
    1C        C  596   2.518   3.463   4.619
    1C        C  597   2.508   3.539   4.737
    1C        C  598   2.527   3.325   4.860
    1C        C  599   2.518   3.466   4.858
    1C        C  600   2.529   3.247   4.976
    1C        C  601   3.190   4.444   2.039
    1C        C  602   2.979   4.400   2.158
    1C        C  603   3.114   4.448   2.156
    1C        C  604   2.923   4.357   2.281
    1C        C  605   2.989   4.392   2.401
    1C        C  606   2.822   4.267   2.525
    1C        C  607   2.928   4.361   2.525
    1C        C  608   2.772   4.219   2.648
    1C        C  609   2.823   4.269   2.770
    1C        C  610   2.692   4.106   2.894
    1C        C  611   2.777   4.219   2.893
    1C        C  612   2.651   4.051   3.018
    1C        C  613   2.691   4.114   3.138
    1C        C  614   2.589   3.927   3.264
    1C        C  615   2.651   4.054   3.260
    1C        C  616   2.564   3.862   3.387
    1C        C  617   2.596   3.927   3.508
    1C        C  618   2.529   3.728   3.637
    1C        C  619   2.571   3.863   3.632
    1C        C  620   2.517   3.661   3.761
    1C        C  621   2.531   3.735   3.881
    1C        C  622   2.509   3.527   4.007
    1C        C  623   2.518   3.668   4.004
    1C        C  624   2.521   3.458   4.130
    1C        C  625   2.518   3.528   4.253
    1C        C  626   2.536   3.319   4.376
    1C        C  627   2.516   3.459   4.376
    1C        C  628   2.552   3.250   4.499
    1C        C  629   2.538   3.323   4.619
    1C        C  630   2.597   3.120   4.743
    1C        C  631   2.547   3.252   4.741
    1C        C  632   2.617   3.050   4.865
    1C        C  633   2.561   3.111   4.982
    1C        C  634   2.782   4.305   2.051
    1C        C  635   2.892   4.392   2.045
    1C        C  636   2.747   4.231   2.164
    1C        C  637   2.812   4.269   2.284
    1C        C  638   2.679   4.104   2.407
    1C        C  639   2.767   4.215   2.406
    1C        C  640   2.643   4.045   2.530
    1C        C  641   2.687   4.106   2.650
    1C        C  642   2.587   3.921   2.776
    1C        C  643   2.652   4.046   2.773
    1C        C  644   2.563   3.854   2.898
    1C        C  645   2.589   3.924   3.018
    1C        C  646   2.527   3.725   3.148
    1C        C  647   2.564   3.861   3.142
    1C        C  648   2.514   3.655   3.270
    1C        C  649   2.535   3.724   3.391
    1C        C  650   2.510   3.516   3.518
    1C        C  651   2.520   3.657   3.515
    1C        C  652   2.516   3.448   3.642
    1C        C  653   2.511   3.520   3.763
    1C        C  654   2.535   3.313   3.889
    1C        C  655   2.511   3.452   3.887
    1C        C  656   2.554   3.246   4.012
    1C        C  657   2.540   3.318   4.133
    1C        C  658   2.601   3.115   4.259
    1C        C  659   2.555   3.249   4.255
    1C        C  660   2.628   3.050   4.381
    1C        C  661   2.600   3.118   4.501
    1C        C  662   2.710   2.936   4.625
    1C        C  663   2.632   3.054   4.623
    1C        C  664   2.753   2.877   4.745
    1C        C  665   2.693   2.929   4.863
    1C        C  666   2.737   2.867   4.981
    1C        C  667   2.680   4.024   2.051
    1C        C  668   2.685   4.104   2.166
    1C        C  669   2.591   3.909   2.290
    1C        C  670   2.647   4.039   2.286
    1C        C  671   2.557   3.847   2.412
    1C        C  672   2.584   3.917   2.532
    1C        C  673   2.519   3.717   2.660
    1C        C  674   2.556   3.854   2.655
    1C        C  675   2.513   3.646   2.781
    1C        C  676   2.532   3.716   2.902
    1C        C  677   2.507   3.511   3.029
    1C        C  678   2.523   3.651   3.027
    1C        C  679   2.504   3.440   3.151
    1C        C  680   2.497   3.514   3.271
    1C        C  681   2.531   3.308   3.396
    1C        C  682   2.504   3.447   3.395
    1C        C  683   2.549   3.240   3.518
    1C        C  684   2.537   3.308   3.642
    1C        C  685   2.600   3.111   3.770
    1C        C  686   2.550   3.243   3.766
    1C        C  687   2.631   3.049   3.893
    1C        C  688   2.600   3.113   4.016
    1C        C  689   2.713   2.934   4.138
    1C        C  690   2.631   3.049   4.138
    1C        C  691   2.755   2.878   4.260
    1C        C  692   2.708   2.933   4.381
    1C        C  693   2.750   2.876   4.503
    1C        C  694   2.637   3.890   2.055
    1C        C  695   2.532   3.702   2.176
    1C        C  696   2.585   3.832   2.172
    1C        C  697   2.504   3.636   2.298
    1C        C  698   2.519   3.711   2.416
    1C        C  699   2.488   3.505   2.542
    1C        C  700   2.497   3.646   2.540
    1C        C  701   2.501   3.433   2.663
    1C        C  702   2.499   3.506   2.784
    1C        C  703   2.521   3.298   2.908
    1C        C  704   2.501   3.438   2.908
    1C        C  705   2.540   3.229   3.030
    1C        C  706   2.526   3.301   3.151
    1C        C  707   2.593   3.103   3.278
    1C        C  708   2.546   3.236   3.275
    1C        C  709   2.630   3.044   3.401
    1C        C  710   2.602   3.110   3.523
    1C        C  711   2.712   2.932   3.647
    1C        C  712   2.635   3.051   3.647
    1C        C  713   2.759   2.879   3.769
    1C        C  714   2.716   2.936   3.891
    1C        C  715   2.755   2.880   4.014
    1C        C  716   2.446   3.498   2.064
    1C        C  717   2.496   3.629   2.062
    1C        C  718   2.462   3.420   2.183
    1C        C  719   2.479   3.496   2.302
    1C        C  720   2.514   3.289   2.424
    1C        C  721   2.484   3.427   2.425
    1C        C  722   2.528   3.219   2.546
    1C        C  723   2.514   3.292   2.666
    1C        C  724   2.586   3.094   2.789
    1C        C  725   2.532   3.224   2.789
    1C        C  726   2.618   3.031   2.912
    1C        C  727   2.587   3.096   3.033
    1C        C  728   2.702   2.921   3.158
    1C        C  729   2.621   3.037   3.157
    1C        C  730   2.748   2.868   3.281
    1C        C  731   2.708   2.926   3.403
    1C        C  732   2.749   2.870   3.526
    1C        C  733   2.488   3.197   2.068
    1C        C  734   2.485   3.279   2.182
    1C        C  735   2.579   3.085   2.306
    1C        C  736   2.521   3.215   2.304
    1C        C  737   2.608   3.017   2.426
    1C        C  738   2.581   3.088   2.545
    1C        C  739   2.694   2.910   2.668
    1C        C  740   2.615   3.027   2.668
    1C        C  741   2.740   2.856   2.791
    1C        C  742   2.698   2.915   2.912
    1C        C  743   2.744   2.863   3.036
    1C        C  744   2.543   3.069   2.073
    1C        C  745   2.686   2.899   2.185
    1C        C  746   2.608   3.017   2.186
    1C        C  747   2.724   2.836   2.305
    1C        C  748   2.681   2.896   2.426
    1C        C  749   2.731   2.845   2.548
    1C        C  750   2.734   2.838   2.068
    1C        C  751   3.663   2.307   1.988
    1C        O  752   3.721   2.203   2.030
    1C        O  753   3.609   2.291   1.859
    1C        C  754   4.623   3.053   1.973
    1C        O  755   4.608   3.048   1.848
    1C        O  756   4.759   3.039   2.004
    1C        C  757   4.478   4.224   2.003
    1C        O  758   4.540   4.312   2.068
    1C        O  759   4.465   4.266   1.870
    1C        C  760   3.590   4.666   1.939
    1C        O  761   3.616   4.788   1.955
    1C        O  762   3.602   4.652   1.800
    1C        C  763   2.879   4.512   1.959
    1C        O  764   2.887   4.487   1.836
    1C        O  765   2.798   4.622   1.988
    1C        C  766   2.335   3.479   1.968
    1C        O  767   2.353   3.443   1.849
    1C        O  768   2.202   3.521   1.985
    1C        C  769   4.686   3.599   5.065
    1C        O  770   4.672   3.653   5.178
    1C        O  771   4.818   3.625   5.029
    1C        C  772   4.272   4.439   5.039
    1C        O  773   4.266   4.419   5.164
    1C        O  774   4.395   4.483   4.989
    1C        C  775   4.137   2.540   5.089
    1C        O  776   4.160   2.418   5.111
    1C        O  777   4.108   2.598   5.214
    1C        C  778   2.880   4.547   5.045
    1C        O  779   2.813   4.646   5.005
    1C        O  780   2.945   4.576   5.165
    1C        C  781   2.465   3.035   5.066
    1C        O  782   2.371   2.966   5.017
    1C        O  783   2.469   3.031   5.204
    1C        C  784   2.405   4.000   5.047
    1C        O  785   2.292   4.030   5.000
    1C        O  786   2.418   3.981   5.185
    1C        C  787   2.948   2.435   1.999
    1C        O  788   2.949   2.445   1.873
    1C        O  789   2.889   2.320   2.050
    1C        C  790   3.176   2.353   5.032
    1C        O  791   3.126   2.252   4.975
    1C        O  792   3.180   2.321   5.168
    1C        H  793   4.269   3.026   5.052
    1C        H  794   4.164   2.809   5.062
    1C        H  795   4.485   3.135   5.067
    1C        H  796   4.535   3.364   5.063
    1C        H  797   4.552   3.815   5.040
    1C        H  798   4.432   3.980   5.053
    1C        H  799   4.260   4.151   5.048
    1C        H  800   4.052   4.565   5.004
    1C        H  801   3.808   4.523   5.038
    1C        H  802   3.595   4.655   5.024
    1C        H  803   3.391   4.485   5.042
    1C        H  804   3.153   4.535   5.046
    1C        H  805   3.893   2.472   5.060
    1C        H  806   3.674   2.414   5.051
    1C        H  807   3.023   2.579   5.074
    1C        H  808   3.438   2.462   5.077
    1C        H  809   2.862   2.732   5.079
    1C        H  810   2.729   2.927   5.069
    1C        H  811   2.477   3.288   5.061
    1C        H  812   2.578   3.501   5.056
    1C        H  813   2.545   3.738   5.065
    1C        H  814   2.570   4.182   5.033
    1C        H  815   2.761   4.307   5.051
    1C        H  816   2.700   2.872   1.972
    1C        H  817   2.873   2.701   1.982
    1C        H  818   3.201   2.403   1.998
    1C        H  819   3.421   2.427   1.983
    1C        H  820   3.868   2.488   1.975
    1C        H  821   4.080   2.596   1.973
    1C        H  822   4.264   2.714   1.970
    1C        H  823   4.388   2.904   1.959
    1C        H  824   4.555   3.318   1.964
    1C        H  825   4.492   3.504   1.963
    1C        H  826   4.497   3.740   1.953
    1C        H  827   3.802   4.512   1.945
    1C        H  828   4.001   4.422   1.958
    1C        H  829   4.179   4.287   1.954
    1C        H  830   4.534   3.983   1.992
    1C        H  831   2.662   3.828   1.972
    1C        H  832   2.692   4.073   1.957
    1C        H  833   2.715   4.306   1.968
    1C        H  834   3.388   4.450   1.961
    1C        H  835   3.165   4.368   1.968
    1C        H  836   2.500   3.003   2.002
    1C        H  837   2.429   3.232   1.986
    1C        H  838   2.501   3.677   1.966
    2V3OU   H29  839   2.813   3.554   1.106
    2V3OU   C27  840   2.782   3.499   1.198
    2V3OU   H27  841   2.716   3.558   1.267
    2V3OU   H28  842   2.724   3.406   1.174
    2V3OU   O11  843   2.909   3.471   1.257
    2V3OU   C15  844   2.921   3.391   1.370
    2V3OU   C13  845   3.048   3.375   1.430
    2V3OU   C14  846   3.073   3.271   1.519
    2V3OU   C16  847   2.968   3.185   1.551
    2V3OU    H6  848   2.987   3.110   1.629
    2V3OU   C12  849   3.210   3.228   1.554
    2V3OU    O2  850   3.245   3.124   1.615
    2V3OU   C10  851   3.324   3.311   1.512
    2V3OU    C8  852   3.457   3.274   1.526
    2V3OU   O10  853   3.490   3.155   1.583
    2V3OU   H26  854   3.403   3.113   1.599
    2V3OU    C6  855   3.566   3.351   1.478
    2V3OU    C5  856   3.537   3.472   1.415
    2V3OU    C4  857   3.702   3.291   1.469
    2V3OU    H4  858   3.722   3.221   1.556
    2V3OU    H5  859   3.715   3.229   1.375
    2V3OU    C2  860   3.811   3.398   1.476
    2V3OU    O6  861   3.798   3.478   1.594
    2V3OU   H21  862   3.757   3.556   1.553
    2V3OU    C3  863   3.784   3.497   1.363
    2V3OU    H2  864   3.864   3.574   1.358
    2V3OU    H3  865   3.782   3.437   1.268
    2V3OU   C25  866   3.949   3.333   1.466
    2V3OU    O7  867   3.998   3.295   1.360
    2V3OU   C26  868   4.028   3.290   1.589
    2V3OU   H22  869   4.054   3.386   1.641
    2V3OU   H23  870   4.119   3.233   1.557
    2V3OU    O8  871   3.969   3.204   1.685
    2V3OU   H24  872   3.927   3.270   1.743
    2V3OU    C1  873   3.648   3.564   1.376
    2V3OU    H1  874   3.623   3.615   1.278
    2V3OU    O3  875   3.659   3.657   1.485
    2V3OU   C19  876   3.616   3.791   1.459
    2V3OU    H9  877   3.521   3.796   1.397
    2V3OU    O4  878   3.710   3.842   1.367
    2V3OU   C20  879   3.836   3.874   1.425
    2V3OU   H10  880   3.888   3.777   1.447
    2V3OU   C24  881   3.612   3.857   1.597
    2V3OU   H16  882   3.551   3.792   1.665
    2V3OU   H17  883   3.567   3.959   1.597
    2V3OU   C23  884   3.750   3.874   1.660
    2V3OU   H15  885   3.795   3.770   1.671
    2V3OU    N1  886   3.741   3.950   1.783
    2V3OU   H19  887   3.807   3.922   1.852
    2V3OU   H20  888   3.650   3.934   1.821
    2V3OU   C21  889   3.845   3.947   1.559
    2V3OU   H11  890   3.950   3.925   1.594
    2V3OU    O5  891   3.828   4.088   1.564
    2V3OU   H18  892   3.782   4.101   1.649
    2V3OU   C22  893   3.909   3.948   1.314
    2V3OU   H12  894   3.859   4.047   1.298
    2V3OU   H13  895   3.906   3.886   1.221
    2V3OU   H14  896   4.019   3.956   1.335
    2V3OU   C11  897   3.157   3.471   1.406
    2V3OU    O1  898   3.141   3.581   1.350
    2V3OU    C9  899   3.295   3.431   1.441
    2V3OU    C7  900   3.400   3.507   1.391
    2V3OU    O9  901   3.385   3.620   1.314
    2V3OU   H25  902   3.288   3.629   1.312
    2V3OU   C17  903   2.815   3.308   1.412
    2V3OU    H7  904   2.713   3.343   1.397
    2V3OU   C18  905   2.839   3.204   1.501
    2V3OU    H8  906   2.756   3.146   1.543
    3SOL     OW  907   1.339   2.844   0.674
    3SOL    HW1  908   1.344   2.844   0.774
    3SOL    HW2  909   1.349   2.938   0.641
    4SOL     OW  910   5.733   0.351   1.710
    4SOL    HW1  911   5.668   0.427   1.715
    4SOL    HW2  912   5.801   0.369   1.639
    5SOL     OW  913   3.426   2.562   1.267
    5SOL    HW1  914   3.440   2.494   1.339
    5SOL    HW2  915   3.365   2.634   1.300
    6SOL     OW  916   3.126   1.835   1.331
    6SOL    HW1  917   3.064   1.868   1.260
    6SOL    HW2  918   3.075   1.778   1.396
    7SOL     OW  919   5.952   1.399   1.832
    7SOL    HW1  920   5.859   1.424   1.806
    7SOL    HW2  921   5.963   1.299   1.824
    8SOL     OW  922   2.366   1.239   4.281
    8SOL    HW1  923   2.324   1.314   4.331
    8SOL    HW2  924   2.460   1.263   4.258
    9SOL     OW  925   1.418   3.567   5.677
    9SOL    HW1  926   1.337   3.614   5.713
    9SOL    HW2  927   1.464   3.626   5.611
   10SOL     OW  928   0.461   3.675   7.000
   10SOL    HW1  929   0.524   3.615   6.951
   10SOL    HW2  930   0.501   3.702   0.067
   11SOL     OW  931   3.922   6.575   0.086
   11SOL    HW1  932   3.914   6.491   0.032
   11SOL    HW2  933   3.841   6.586   0.143
   12SOL     OW  934   5.578   6.411   2.443
   12SOL    HW1  935   5.482   6.410   2.413
   12SOL    HW2  936   5.600   6.322   2.483
   13SOL     OW  937   2.427   6.448   3.663
   13SOL    HW1  938   2.343   6.438   3.717
   13SOL    HW2  939   2.430   6.539   3.622
   14SOL     OW  940   3.351   6.106   1.142
   14SOL    HW1  941   3.376   6.056   1.059
   14SOL    HW2  942   3.255   6.133   1.138
   15SOL     OW  943   1.529   6.399   6.590
   15SOL    HW1  944   1.512   6.365   6.683
   15SOL    HW2  945   1.615   6.451   6.590
   16SOL     OW  946   6.377   1.891   5.944
   16SOL    HW1  947   6.370   1.991   5.944
   16SOL    HW2  948   6.373   1.857   5.851
   17SOL     OW  949   5.132   6.685   4.460
   17SOL    HW1  950   5.228   6.666   4.481
   17SOL    HW2  951   5.127   6.750   4.384
   18SOL     OW  952   1.492   1.252   6.420
   18SOL    HW1  953   1.416   1.251   6.355
   18SOL    HW2  954   1.530   1.345   6.424
   19SOL     OW  955   0.759   0.110   2.066
   19SOL    HW1  956   0.796   0.198   2.096
   19SOL    HW2  957   0.826   0.063   2.008
   20SOL     OW  958   3.041   1.698   4.304
   20SOL    HW1  959   2.981   1.711   4.383
   20SOL    HW2  960   3.128   1.744   4.320
   21SOL     OW  961   2.953   2.853   1.063
   21SOL    HW1  962   2.971   2.823   1.156
   21SOL    HW2  963   2.971   2.778   1.000
   22SOL     OW  964   1.337   0.041   5.953
   22SOL    HW1  965   1.281   0.101   5.896
   22SOL    HW2  966   1.388   6.997   5.894
   23SOL     OW  967   3.584   6.410   4.643
   23SOL    HW1  968   3.550   6.332   4.695
   23SOL    HW2  969   3.679   6.394   4.617
   24SOL     OW  970   4.179   1.400   4.741
   24SOL    HW1  971   4.262   1.454   4.731
   24SOL    HW2  972   4.201   1.303   4.737
   25SOL     OW  973   3.486   5.706   0.901
   25SOL    HW1  974   3.577   5.672   0.876
   25SOL    HW2  975   3.466   5.788   0.846
   26SOL     OW  976   6.439   1.760   2.202
   26SOL    HW1  977   6.475   1.673   2.236
   26SOL    HW2  978   6.422   1.822   2.279
   27SOL     OW  979   6.228   6.426   2.508
   27SOL    HW1  980   6.223   6.493   2.583
   27SOL    HW2  981   6.317   6.432   2.464
   28SOL     OW  982   3.770   0.444   0.082
   28SOL    HW1  983   3.717   0.407   0.158
   28SOL    HW2  984   3.769   0.380   0.005
   29SOL     OW  985   4.516   2.253   1.804
   29SOL    HW1  986   4.469   2.327   1.756
   29SOL    HW2  987   4.577   2.205   1.740
   30SOL     OW  988   3.502   0.517   4.584
   30SOL    HW1  989   3.445   0.452   4.534
   30SOL    HW2  990   3.462   0.534   4.674
   31SOL     OW  991   0.340   0.709   5.380
   31SOL    HW1  992   0.297   0.638   5.324
   31SOL    HW2  993   0.330   0.687   5.477
   32SOL     OW  994   0.379   1.831   1.298
   32SOL    HW1  995   0.338   1.817   1.388
   32SOL    HW2  996   0.362   1.751   1.241
   33SOL     OW  997   1.767   2.133   5.818
   33SOL    HW1  998   1.698   2.170   5.880
   33SOL    HW2  999   1.762   2.034   5.817
   34SOL     OW 1000   1.228   0.445   4.794
   34SOL    HW1 1001   1.259   0.358   4.755
   34SOL    HW2 1002   1.220   0.435   4.893
   35SOL     OW 1003   4.397   1.766   6.259
   35SOL    HW1 1004   4.493   1.756   6.284
   35SOL    HW2 1005   4.349   1.679   6.274
   36SOL     OW 1006   1.385   2.205   6.065
   36SOL    HW1 1007   1.406   2.262   6.145
   36SOL    HW2 1008   1.406   2.110   6.086
   37SOL     OW 1009   3.005   6.642   1.923
   37SOL    HW1 1010   3.050   6.728   1.950
   37SOL    HW2 1011   2.946   6.611   1.998
   38SOL     OW 1012   6.883   6.482   3.142
   38SOL    HW1 1013   6.946   6.451   3.070
   38SOL    HW2 1014   6.793   6.498   3.102
   39SOL     OW 1015   6.986   3.476   5.117
   39SOL    HW1 1016   6.897   3.469   5.161
   39SOL    HW2 1017   6.977   3.454   5.020
   40SOL     OW 1018   6.976   0.639   1.608
   40SOL    HW1 1019   6.965   0.600   1.699
   40SOL    HW2 1020   6.939   0.577   1.539
   41SOL     OW 1021   1.062   6.752   5.527
   41SOL    HW1 1022   1.143   6.699   5.553
   41SOL    HW2 1023   1.090   6.834   5.478
   42SOL     OW 1024   3.532   0.631   0.051
   42SOL    HW1 1025   3.500   0.639   0.146
   42SOL    HW2 1026   3.632   0.632   0.050
   43SOL     OW 1027   5.434   5.798   5.100
   43SOL    HW1 1028   5.418   5.712   5.053
   43SOL    HW2 1029   5.373   5.806   5.179
   44SOL     OW 1030   0.829   3.189   6.390
   44SOL    HW1 1031   0.890   3.132   6.335
   44SOL    HW2 1032   0.879   3.270   6.422
   45SOL     OW 1033   2.707   0.486   2.212
   45SOL    HW1 1034   2.721   0.405   2.155
   45SOL    HW2 1035   2.687   0.457   2.306
   46SOL     OW 1036   1.565   3.982   4.083
   46SOL    HW1 1037   1.565   4.049   4.158
   46SOL    HW2 1038   1.517   4.020   4.004
   47SOL     OW 1039   6.254   4.860   3.441
   47SOL    HW1 1040   6.316   4.904   3.506
   47SOL    HW2 1041   6.199   4.930   3.395
   48SOL     OW 1042   0.604   2.591   5.658
   48SOL    HW1 1043   0.627   2.688   5.673
   48SOL    HW2 1044   0.515   2.571   5.698
   49SOL     OW 1045   4.795   1.991   0.827
   49SOL    HW1 1046   4.805   1.978   0.925
   49SOL    HW2 1047   4.709   1.951   0.796
   50SOL     OW 1048   6.857   3.781   4.358
   50SOL    HW1 1049   6.953   3.804   4.374
   50SOL    HW2 1050   6.799   3.845   4.409
   51SOL     OW 1051   3.741   5.153   2.636
   51SOL    HW1 1052   3.747   5.166   2.735
   51SOL    HW2 1053   3.757   5.056   2.615
   52SOL     OW 1054   1.598   2.008   1.724
   52SOL    HW1 1055   1.642   2.068   1.657
   52SOL    HW2 1056   1.646   2.015   1.811
   53SOL     OW 1057   4.993   0.446   4.009
   53SOL    HW1 1058   5.007   0.362   4.062
   53SOL    HW2 1059   5.081   0.492   3.997
   54SOL     OW 1060   3.853   5.608   5.466
   54SOL    HW1 1061   3.946   5.620   5.431
   54SOL    HW2 1062   3.857   5.574   5.560
   55SOL     OW 1063   4.227   1.826   0.378
   55SOL    HW1 1064   4.321   1.795   0.378
   55SOL    HW2 1065   4.225   1.926   0.383
   56SOL     OW 1066   1.211   0.197   1.786
   56SOL    HW1 1067   1.178   0.200   1.881
   56SOL    HW2 1068   1.191   0.284   1.741
   57SOL     OW 1069   5.860   0.573   0.291
   57SOL    HW1 1070   5.833   0.609   0.381
   57SOL    HW2 1071   5.956   0.596   0.274
   58SOL     OW 1072   0.073   6.276   0.106
   58SOL    HW1 1073   0.083   6.271   0.206
   58SOL    HW2 1074   0.053   6.370   0.079
   59SOL     OW 1075   1.061   6.992   5.339
   59SOL    HW1 1076   1.129   0.044   5.344
   59SOL    HW2 1077   1.094   6.918   5.281
   60SOL     OW 1078   4.530   6.802   4.846
   60SOL    HW1 1079   4.520   6.768   4.752
   60SOL    HW2 1080   4.440   6.809   4.889
   61SOL     OW 1081   4.464   0.358   4.307
   61SOL    HW1 1082   4.540   0.294   4.291
   61SOL    HW2 1083   4.501   0.450   4.317
   62SOL     OW 1084   1.486   0.529   4.379
   62SOL    HW1 1085   1.496   0.597   4.452
   62SOL    HW2 1086   1.465   0.576   4.293
   63SOL     OW 1087   0.085   3.089   3.295
   63SOL    HW1 1088   0.037   3.162   3.343
   63SOL    HW2 1089   0.022   3.044   3.232
   64SOL     OW 1090   6.905   3.726   5.798
   64SOL    HW1 1091   6.997   3.763   5.803
   64SOL    HW2 1092   6.880   3.710   5.703
   65SOL     OW 1093   6.489   4.637   5.915
   65SOL    HW1 1094   6.504   4.735   5.925
   65SOL    HW2 1095   6.412   4.621   5.853
   66SOL     OW 1096   2.732   1.073   0.410
   66SOL    HW1 1097   2.729   1.055   0.311
   66SOL    HW2 1098   2.712   1.170   0.426
   67SOL     OW 1099   5.308   6.041   4.559
   67SOL    HW1 1100   5.334   6.013   4.466
   67SOL    HW2 1101   5.259   6.128   4.555
   68SOL     OW 1102   5.691   1.921   5.555
   68SOL    HW1 1103   5.737   1.836   5.582
   68SOL    HW2 1104   5.758   1.994   5.551
   69SOL     OW 1105   2.867   3.450   6.393
   69SOL    HW1 1106   2.936   3.518   6.417
   69SOL    HW2 1107   2.890   3.409   6.304
   70SOL     OW 1108   0.004   5.346   2.009
   70SOL    HW1 1109   6.961   5.296   2.068
   70SOL    HW2 1110   0.053   5.283   1.949
   71SOL     OW 1111   1.341   2.475   3.206
   71SOL    HW1 1112   1.348   2.479   3.107
   71SOL    HW2 1113   1.267   2.534   3.238
   72SOL     OW 1114   3.003   5.590   4.043
   72SOL    HW1 1115   3.079   5.651   4.063
   72SOL    HW2 1116   2.972   5.546   4.127
   73SOL     OW 1117   4.435   2.482   0.168
   73SOL    HW1 1118   4.367   2.503   0.238
   73SOL    HW2 1119   4.441   2.558   0.103
   74SOL     OW 1120   5.167   5.877   5.986
   74SOL    HW1 1121   5.134   5.837   5.900
   74SOL    HW2 1122   5.108   5.847   6.061
   75SOL     OW 1123   3.926   5.691   5.943
   75SOL    HW1 1124   3.928   5.781   5.987
   75SOL    HW2 1125   3.921   5.620   6.014
   76SOL     OW 1126   2.490   2.939   1.687
   76SOL    HW1 1127   2.447   3.028   1.701
   76SOL    HW2 1128   2.590   2.949   1.690
   77SOL     OW 1129   5.643   5.542   6.474
   77SOL    HW1 1130   5.712   5.550   6.403
   77SOL    HW2 1131   5.562   5.495   6.438
   78SOL     OW 1132   6.337   6.246   6.075
   78SOL    HW1 1133   6.327   6.260   5.977
   78SOL    HW2 1134   6.429   6.214   6.095
   79SOL     OW 1135   2.842   6.954   0.089
   79SOL    HW1 1136   2.926   6.926   0.043
   79SOL    HW2 1137   2.764   6.908   0.047
   80SOL     OW 1138   0.196   1.480   3.977
   80SOL    HW1 1139   0.196   1.558   4.039
   80SOL    HW2 1140   0.115   1.424   3.993
   81SOL     OW 1141   1.390   0.581   3.371
   81SOL    HW1 1142   1.469   0.532   3.406
   81SOL    HW2 1143   1.420   0.649   3.304
   82SOL     OW 1144   0.057   4.778   5.120
   82SOL    HW1 1145   0.084   4.692   5.161
   82SOL    HW2 1146   0.117   4.851   5.152
   83SOL     OW 1147   0.132   6.848   0.576
   83SOL    HW1 1148   0.109   6.935   0.531
   83SOL    HW2 1149   0.063   6.829   0.646
   84SOL     OW 1150   5.996   3.973   1.451
   84SOL    HW1 1151   6.032   3.949   1.541
   84SOL    HW2 1152   6.056   4.040   1.408
   85SOL     OW 1153   0.554   2.778   5.352
   85SOL    HW1 1154   0.520   2.697   5.400
   85SOL    HW2 1155   0.481   2.847   5.347
   86SOL     OW 1156   0.715   0.775   5.901
   86SOL    HW1 1157   0.662   0.783   5.985
   86SOL    HW2 1158   0.800   0.829   5.910
   87SOL     OW 1159   4.076   1.012   1.000
   87SOL    HW1 1160   4.047   1.039   1.092
   87SOL    HW2 1161   3.996   1.008   0.939
   88SOL     OW 1162   5.411   1.014   0.493
   88SOL    HW1 1163   5.382   1.110   0.490
   88SOL    HW2 1164   5.489   1.006   0.554
   89SOL     OW 1165   1.544   2.908   6.203
   89SOL    HW1 1166   1.564   3.001   6.172
   89SOL    HW2 1167   1.484   2.863   6.137
   90SOL     OW 1168   5.820   6.567   3.912
   90SOL    HW1 1169   5.765   6.489   3.939
   90SOL    HW2 1170   5.768   6.626   3.850
   91SOL     OW 1171   4.632   4.752   4.724
   91SOL    HW1 1172   4.719   4.786   4.761
   91SOL    HW2 1173   4.640   4.654   4.706
   92SOL     OW 1174   3.401   5.112   1.746
   92SOL    HW1 1175   3.352   5.027   1.725
   92SOL    HW2 1176   3.338   5.189   1.739
   93SOL     OW 1177   3.197   5.086   5.692
   93SOL    HW1 1178   3.190   5.004   5.635
   93SOL    HW2 1179   3.275   5.076   5.755
   94SOL     OW 1180   2.757   5.741   0.754
   94SOL    HW1 1181   2.728   5.779   0.842
   94SOL    HW2 1182   2.691   5.767   0.683
   95SOL     OW 1183   6.905   0.480   4.755
   95SOL    HW1 1184   6.953   0.496   4.669
   95SOL    HW2 1185   6.832   0.548   4.765
   96SOL     OW 1186   1.861   0.145   5.571
   96SOL    HW1 1187   1.922   0.159   5.650
   96SOL    HW2 1188   1.799   0.223   5.564
   97SOL     OW 1189   6.179   3.072   4.992
   97SOL    HW1 1190   6.237   3.118   5.059
   97SOL    HW2 1191   6.084   3.074   5.023
   98SOL     OW 1192   6.016   2.367   5.930
   98SOL    HW1 1193   6.114   2.351   5.928
   98SOL    HW2 1194   5.999   2.465   5.938
   99SOL     OW 1195   4.478   1.933   1.042
   99SOL    HW1 1196   4.447   1.838   1.051
   99SOL    HW2 1197   4.402   1.995   1.063
  100SOL     OW 1198   6.903   5.301   6.110
  100SOL    HW1 1199   6.853   5.383   6.139
  100SOL    HW2 1200   6.893   5.229   6.178
  101SOL     OW 1201   1.654   6.420   3.996
  101SOL    HW1 1202   1.693   6.384   3.912
  101SOL    HW2 1203   1.557   6.440   3.982
  102SOL     OW 1204   4.453   0.158   3.839
  102SOL    HW1 1205   4.442   0.132   3.743
  102SOL    HW2 1206   4.413   0.248   3.854
  103SOL     OW 1207   4.058   1.679   1.312
  103SOL    HW1 1208   4.136   1.732   1.346
  103SOL    HW2 1209   4.011   1.731   1.241
  104SOL     OW 1210   0.337   6.085   2.598
  104SOL    HW1 1211   0.396   6.064   2.677
  104SOL    HW2 1212   0.263   6.018   2.594
  105SOL     OW 1213   4.957   0.768   6.310
  105SOL    HW1 1214   4.909   0.812   6.385
  105SOL    HW2 1215   5.040   0.819   6.288
  106SOL     OW 1216   2.715   6.545   6.358
  106SOL    HW1 1217   2.734   6.518   6.453
  106SOL    HW2 1218   2.772   6.491   6.296
  107SOL     OW 1219   2.447   3.199   1.159
  107SOL    HW1 1220   2.348   3.196   1.174
  107SOL    HW2 1221   2.470   3.283   1.111
  108SOL     OW 1222   5.022   4.338   5.706
  108SOL    HW1 1223   5.010   4.405   5.780
  108SOL    HW2 1224   5.046   4.386   5.622
  109SOL     OW 1225   6.131   0.784   1.094
  109SOL    HW1 1226   6.106   0.743   1.182
  109SOL    HW2 1227   6.092   0.728   1.020
  110SOL     OW 1228   3.889   5.762   5.047
  110SOL    HW1 1229   3.974   5.815   5.049
  110SOL    HW2 1230   3.879   5.711   5.132
  111SOL     OW 1231   3.581   0.734   3.269
  111SOL    HW1 1232   3.539   0.768   3.352
  111SOL    HW2 1233   3.550   0.641   3.251
  112SOL     OW 1234   7.013   0.110   6.285
  112SOL    HW1 1235   6.999   0.051   6.364
  112SOL    HW2 1236   6.929   0.113   6.230
  113SOL     OW 1237   0.193   5.175   3.358
  113SOL    HW1 1238   0.233   5.117   3.288
  113SOL    HW2 1239   0.111   5.130   3.396
  114SOL     OW 1240   0.617   7.000   6.783
  114SOL    HW1 1241   0.616   0.080   6.777
  114SOL    HW2 1242   0.548   6.962   6.722
  115SOL     OW 1243   5.241   1.334   4.732
  115SOL    HW1 1244   5.288   1.306   4.816
  115SOL    HW2 1245   5.183   1.413   4.750
  116SOL     OW 1246   6.377   4.620   2.229
  116SOL    HW1 1247   6.460   4.670   2.202
  116SOL    HW2 1248   6.304   4.685   2.250
  117SOL     OW 1249   1.471   6.977   6.355
  117SOL    HW1 1250   1.481   7.009   6.261
  117SOL    HW2 1251   1.496   6.880   6.360
  118SOL     OW 1252   0.805   0.398   2.474
  118SOL    HW1 1253   0.738   0.439   2.536
  118SOL    HW2 1254   0.841   0.467   2.412
  119SOL     OW 1255   6.714   3.096   6.305
  119SOL    HW1 1256   6.812   3.077   6.304
  119SOL    HW2 1257   6.686   3.125   6.397
  120SOL     OW 1258   5.882   6.689   1.001
  120SOL    HW1 1259   5.871   6.600   1.044
  120SOL    HW2 1260   5.904   6.677   0.904
  121SOL     OW 1261   2.499   3.518   5.758
  121SOL    HW1 1262   2.464   3.580   5.829
  121SOL    HW2 1263   2.598   3.525   5.754
  122SOL     OW 1264   1.088   2.708   4.313
  122SOL    HW1 1265   1.004   2.679   4.359
  122SOL    HW2 1266   1.139   2.772   4.372
  123SOL     OW 1267   0.804   1.948   1.233
  123SOL    HW1 1268   0.846   1.927   1.322
  123SOL    HW2 1269   0.867   1.926   1.160
  124SOL     OW 1270   4.867   3.146   1.274
  124SOL    HW1 1271   4.815   3.070   1.315
  124SOL    HW2 1272   4.806   3.203   1.220
  125SOL     OW 1273   1.806   3.349   1.751
  125SOL    HW1 1274   1.853   3.291   1.818
  125SOL    HW2 1275   1.860   3.432   1.735
  126SOL     OW 1276   3.370   4.829   1.385
  126SOL    HW1 1277   3.361   4.744   1.438
  126SOL    HW2 1278   3.425   4.894   1.437
  127SOL     OW 1279   0.016   6.179   6.335
  127SOL    HW1 1280   7.019   6.188   6.237
  127SOL    HW2 1281   7.017   6.086   6.364
  128SOL     OW 1282   4.722   2.453   1.552
  128SOL    HW1 1283   4.746   2.397   1.631
  128SOL    HW2 1284   4.773   2.539   1.555
  129SOL     OW 1285   2.864   3.672   6.763
  129SOL    HW1 1286   2.777   3.721   6.757
  129SOL    HW2 1287   2.915   3.703   6.844
  130SOL     OW 1288   1.385   1.800   4.312
  130SOL    HW1 1289   1.463   1.855   4.282
  130SOL    HW2 1290   1.308   1.816   4.251
  131SOL     OW 1291   4.909   1.717   2.786
  131SOL    HW1 1292   4.858   1.788   2.834
  131SOL    HW2 1293   4.907   1.633   2.839
  132SOL     OW 1294   1.185   2.465   0.856
  132SOL    HW1 1295   1.181   2.555   0.812
  132SOL    HW2 1296   1.118   2.462   0.930
  133SOL     OW 1297   6.462   5.792   2.383
  133SOL    HW1 1298   6.465   5.811   2.285
  133SOL    HW2 1299   6.546   5.745   2.410
  134SOL     OW 1300   0.005   3.540   2.771
  134SOL    HW1 1301   7.015   3.510   2.866
  134SOL    HW2 1302   6.935   3.563   2.734
  135SOL     OW 1303   4.788   1.842   4.073
  135SOL    HW1 1304   4.762   1.757   4.119
  135SOL    HW2 1305   4.736   1.918   4.111
  136SOL     OW 1306   5.630   4.984   5.172
  136SOL    HW1 1307   5.618   4.965   5.075
  136SOL    HW2 1308   5.726   5.003   5.191
  137SOL     OW 1309   3.811   0.041   5.496
  137SOL    HW1 1310   3.746   0.010   5.427
  137SOL    HW2 1311   3.903   0.043   5.456
  138SOL     OW 1312   6.762   5.423   4.778
  138SOL    HW1 1313   6.799   5.349   4.721
  138SOL    HW2 1314   6.763   5.394   4.874
  139SOL     OW 1315   3.566   4.781   5.440
  139SOL    HW1 1316   3.618   4.832   5.508
  139SOL    HW2 1317   3.533   4.696   5.481
  140SOL     OW 1318   6.480   4.494   4.616
  140SOL    HW1 1319   6.520   4.480   4.706
  140SOL    HW2 1320   6.476   4.592   4.595
  141SOL     OW 1321   1.334   2.211   4.058
  141SOL    HW1 1322   1.361   2.189   4.151
  141SOL    HW2 1323   1.413   2.201   3.997
  142SOL     OW 1324   1.914   5.469   1.283
  142SOL    HW1 1325   1.934   5.556   1.237
  142SOL    HW2 1326   1.993   5.409   1.274
  143SOL     OW 1327   5.928   4.149   1.677
  143SOL    HW1 1328   5.844   4.136   1.729
  143SOL    HW2 1329   5.935   4.079   1.607
  144SOL     OW 1330   2.551   6.741   0.087
  144SOL    HW1 1331   2.570   6.815   0.151
  144SOL    HW2 1332   2.477   6.768   0.025
  145SOL     OW 1333   0.219   5.629   0.501
  145SOL    HW1 1334   0.129   5.617   0.541
  145SOL    HW2 1335   0.212   5.627   0.401
  146SOL     OW 1336   5.422   5.089   0.808
  146SOL    HW1 1337   5.458   5.088   0.901
  146SOL    HW2 1338   5.407   4.995   0.777
  147SOL     OW 1339   6.336   2.172   1.179
  147SOL    HW1 1340   6.314   2.239   1.108
  147SOL    HW2 1341   6.311   2.208   1.268
  148SOL     OW 1342   0.968   5.442   5.526
  148SOL    HW1 1343   0.893   5.439   5.460
  148SOL    HW2 1344   0.932   5.463   5.617
  149SOL     OW 1345   3.106   1.020   4.917
  149SOL    HW1 1346   3.169   1.098   4.913
  149SOL    HW2 1347   3.021   1.042   4.868
  150SOL     OW 1348   0.132   5.198   6.645
  150SOL    HW1 1349   0.067   5.172   6.716
  150SOL    HW2 1350   0.190   5.272   6.678
  151SOL     OW 1351   4.078   1.855   1.662
  151SOL    HW1 1352   4.133   1.884   1.740
  151SOL    HW2 1353   4.007   1.792   1.692
  152SOL     OW 1354   2.981   0.828   4.239
  152SOL    HW1 1355   3.036   0.873   4.309
  152SOL    HW2 1356   2.889   0.812   4.274
  153SOL     OW 1357   1.990   1.610   3.403
  153SOL    HW1 1358   2.019   1.692   3.452
  153SOL    HW2 1359   2.070   1.552   3.384
  154SOL     OW 1360   6.641   2.222   2.339
  154SOL    HW1 1361   6.693   2.216   2.425
  154SOL    HW2 1362   6.666   2.307   2.292
  155SOL     OW 1363   6.848   1.107   3.083
  155SOL    HW1 1364   6.920   1.158   3.130
  155SOL    HW2 1365   6.835   1.145   2.991
  156SOL     OW 1366   6.252   2.410   1.039
  156SOL    HW1 1367   6.215   2.482   0.981
  156SOL    HW2 1368   6.310   2.450   1.110
  157SOL     OW 1369   5.936   3.876   2.698
  157SOL    HW1 1370   5.854   3.828   2.731
  157SOL    HW2 1371   5.966   3.941   2.767
  158SOL     OW 1372   1.977   1.143   2.765
  158SOL    HW1 1373   2.035   1.154   2.685
  158SOL    HW2 1374   1.881   1.140   2.736
  159SOL     OW 1375   4.902   4.085   2.142
  159SOL    HW1 1376   4.856   4.153   2.200
  159SOL    HW2 1377   5.001   4.096   2.151
  160SOL     OW 1378   6.531   4.325   5.752
  160SOL    HW1 1379   6.512   4.412   5.706
  160SOL    HW2 1380   6.520   4.250   5.688
  161SOL     OW 1381   2.590   4.981   4.921
  161SOL    HW1 1382   2.673   4.949   4.969
  161SOL    HW2 1383   2.510   4.958   4.976
  162SOL     OW 1384   4.411   5.456   1.588
  162SOL    HW1 1385   4.430   5.548   1.555
  162SOL    HW2 1386   4.347   5.460   1.665
  163SOL     OW 1387   4.671   0.792   2.469
  163SOL    HW1 1388   4.699   0.730   2.542
  163SOL    HW2 1389   4.581   0.831   2.490
  164SOL     OW 1390   5.831   3.265   0.837
  164SOL    HW1 1391   5.865   3.172   0.830
  164SOL    HW2 1392   5.753   3.277   0.775
  165SOL     OW 1393   5.120   3.103   6.390
  165SOL    HW1 1394   5.032   3.126   6.348
  165SOL    HW2 1395   5.115   3.119   6.489
  166SOL     OW 1396   1.002   0.184   2.442
  166SOL    HW1 1397   0.945   0.105   2.418
  166SOL    HW2 1398   0.948   0.267   2.437
  167SOL     OW 1399   6.092   2.745   0.140
  167SOL    HW1 1400   6.139   2.825   0.102
  167SOL    HW2 1401   6.134   2.719   0.226
  168SOL     OW 1402   2.445   5.388   0.941
  168SOL    HW1 1403   2.369   5.390   0.875
  168SOL    HW2 1404   2.532   5.394   0.892
  169SOL     OW 1405   2.097   6.608   1.739
  169SOL    HW1 1406   2.102   6.630   1.642
  169SOL    HW2 1407   2.161   6.665   1.790
  170SOL     OW 1408   0.502   1.687   3.025
  170SOL    HW1 1409   0.569   1.631   3.075
  170SOL    HW2 1410   0.533   1.782   3.024
  171SOL     OW 1411   3.426   3.699   0.028
  171SOL    HW1 1412   3.428   3.760   6.969
  171SOL    HW2 1413   3.337   3.705   0.073
  172SOL     OW 1414   0.278   2.884   5.744
  172SOL    HW1 1415   0.187   2.872   5.705
  172SOL    HW2 1416   0.336   2.806   5.720
  173SOL     OW 1417   0.270   6.462   5.457
  173SOL    HW1 1418   0.327   6.543   5.471
  173SOL    HW2 1419   0.239   6.427   5.546
  174SOL     OW 1420   2.572   5.403   3.859
  174SOL    HW1 1421   2.526   5.466   3.796
  174SOL    HW2 1422   2.665   5.387   3.827
  175SOL     OW 1423   1.107   5.604   3.010
  175SOL    HW1 1424   1.012   5.612   2.980
  175SOL    HW2 1425   1.113   5.627   3.108
  176SOL     OW 1426   2.410   4.699   0.919
  176SOL    HW1 1427   2.326   4.748   0.897
  176SOL    HW2 1428   2.410   4.675   1.016
  177SOL     OW 1429   4.627   1.697   2.757
  177SOL    HW1 1430   4.602   1.652   2.672
  177SOL    HW2 1431   4.726   1.697   2.767
  178SOL     OW 1432   5.159   5.031   6.590
  178SOL    HW1 1433   5.221   5.000   6.518
  178SOL    HW2 1434   5.211   5.080   6.660
  179SOL     OW 1435   3.055   0.383   0.277
  179SOL    HW1 1436   2.958   0.387   0.251
  179SOL    HW2 1437   3.066   0.421   0.369
  180SOL     OW 1438   0.498   2.013   6.977
  180SOL    HW1 1439   0.477   2.024   0.054
  180SOL    HW2 1440   0.547   2.094   6.944
  181SOL     OW 1441   3.288   3.332   5.463
  181SOL    HW1 1442   3.375   3.372   5.492
  181SOL    HW2 1443   3.305   3.248   5.411
  182SOL     OW 1444   4.151   2.230   4.847
  182SOL    HW1 1445   4.061   2.203   4.812
  182SOL    HW2 1446   4.139   2.300   4.918
  183SOL     OW 1447   5.113   1.254   1.737
  183SOL    HW1 1448   5.035   1.210   1.780
  183SOL    HW2 1449   5.157   1.189   1.674
  184SOL     OW 1450   0.039   4.583   2.660
  184SOL    HW1 1451   7.014   4.494   2.650
  184SOL    HW2 1452   0.138   4.569   2.663
  185SOL     OW 1453   1.676   4.170   6.050
  185SOL    HW1 1454   1.663   4.244   6.116
  185SOL    HW2 1455   1.757   4.117   6.076
  186SOL     OW 1456   5.567   0.023   3.133
  186SOL    HW1 1457   5.548   0.001   3.228
  186SOL    HW2 1458   5.534   6.969   3.074
  187SOL     OW 1459   5.864   1.331   4.078
  187SOL    HW1 1460   5.885   1.273   3.999
  187SOL    HW2 1461   5.882   1.427   4.054
  188SOL     OW 1462   6.544   2.350   3.364
  188SOL    HW1 1463   6.501   2.440   3.358
  188SOL    HW2 1464   6.474   2.280   3.367
  189SOL     OW 1465   2.415   4.510   2.797
  189SOL    HW1 1466   2.399   4.417   2.830
  189SOL    HW2 1467   2.438   4.507   2.700
  190SOL     OW 1468   3.566   0.869   5.743
  190SOL    HW1 1469   3.490   0.934   5.751
  190SOL    HW2 1470   3.533   0.778   5.770
  191SOL     OW 1471   5.217   5.988   6.405
  191SOL    HW1 1472   5.188   5.897   6.374
  191SOL    HW2 1473   5.141   6.033   6.452
  192SOL     OW 1474   6.949   0.908   1.585
  192SOL    HW1 1475   6.964   0.810   1.574
  192SOL    HW2 1476   0.017   0.954   1.594
  193SOL     OW 1477   5.351   3.957   6.949
  193SOL    HW1 1478   5.425   3.912   6.999
  193SOL    HW2 1479   5.378   3.971   6.854
  194SOL     OW 1480   3.420   0.333   3.395
  194SOL    HW1 1481   3.396   0.414   3.342
  194SOL    HW2 1482   3.338   0.300   3.444
  195SOL     OW 1483   0.467   5.701   3.452
  195SOL    HW1 1484   0.498   5.696   3.547
  195SOL    HW2 1485   0.430   5.612   3.424
  196SOL     OW 1486   0.828   1.955   0.509
  196SOL    HW1 1487   0.908   1.995   0.554
  196SOL    HW2 1488   0.852   1.930   0.415
  197SOL     OW 1489   1.729   0.538   0.911
  197SOL    HW1 1490   1.654   0.602   0.890
  197SOL    HW2 1491   1.816   0.584   0.894
  198SOL     OW 1492   3.357   2.086   3.746
  198SOL    HW1 1493   3.298   2.115   3.671
  198SOL    HW2 1494   3.308   2.095   3.832
  199SOL     OW 1495   1.243   2.469   4.382
  199SOL    HW1 1496   1.199   2.553   4.350
  199SOL    HW2 1497   1.262   2.409   4.304
  200SOL     OW 1498   6.641   2.603   0.149
  200SOL    HW1 1499   6.677   2.584   0.241
  200SOL    HW2 1500   6.689   2.546   0.082
  201SOL     OW 1501   0.533   0.813   6.795
  201SOL    HW1 1502   0.499   0.722   6.817
  201SOL    HW2 1503   0.456   0.876   6.784
  202SOL     OW 1504   4.620   6.605   0.304
  202SOL    HW1 1505   4.674   6.689   0.300
  202SOL    HW2 1506   4.659   6.537   0.243
  203SOL     OW 1507   5.943   2.652   5.973
  203SOL    HW1 1508   5.955   2.651   5.873
  203SOL    HW2 1509   5.909   2.742   6.000
  204SOL     OW 1510   6.227   1.253   5.837
  204SOL    HW1 1511   6.231   1.310   5.755
  204SOL    HW2 1512   6.262   1.161   5.816
  205SOL     OW 1513   1.199   3.076   2.431
  205SOL    HW1 1514   1.150   3.111   2.512
  205SOL    HW2 1515   1.262   3.147   2.398
  206SOL     OW 1516   0.399   3.628   0.474
  206SOL    HW1 1517   0.470   3.672   0.420
  206SOL    HW2 1518   0.351   3.696   0.529
  207SOL     OW 1519   5.743   2.061   4.505
  207SOL    HW1 1520   5.829   2.091   4.466
  207SOL    HW2 1521   5.733   2.098   4.597
  208SOL     OW 1522   1.213   4.411   4.326
  208SOL    HW1 1523   1.305   4.406   4.364
  208SOL    HW2 1524   1.153   4.347   4.375
  209SOL     OW 1525   6.408   4.220   2.736
  209SOL    HW1 1526   6.421   4.225   2.835
  209SOL    HW2 1527   6.497   4.212   2.691
  210SOL     OW 1528   4.704   2.771   6.916
  210SOL    HW1 1529   4.786   2.741   6.964
  210SOL    HW2 1530   4.727   2.794   6.821
  211SOL     OW 1531   0.356   1.732   2.577
  211SOL    HW1 1532   0.370   1.814   2.521
  211SOL    HW2 1533   0.259   1.707   2.576
  212SOL     OW 1534   2.150   3.569   2.914
  212SOL    HW1 1535   2.123   3.618   2.831
  212SOL    HW2 1536   2.245   3.541   2.907
  213SOL     OW 1537   1.791   5.066   1.008
  213SOL    HW1 1538   1.755   4.974   1.023
  213SOL    HW2 1539   1.835   5.099   1.092
  214SOL     OW 1540   4.798   6.280   2.076
  214SOL    HW1 1541   4.762   6.187   2.074
  214SOL    HW2 1542   4.816   6.311   1.982
  215SOL     OW 1543   2.476   4.966   2.901
  215SOL    HW1 1544   2.512   4.914   2.979
  215SOL    HW2 1545   2.433   4.903   2.836
  216SOL     OW 1546   1.098   6.833   2.525
  216SOL    HW1 1547   1.169   6.771   2.558
  216SOL    HW2 1548   1.115   6.853   2.428
  217SOL     OW 1549   1.454   4.473   6.334
  217SOL    HW1 1550   1.454   4.462   6.433
  217SOL    HW2 1551   1.541   4.441   6.297
  218SOL     OW 1552   1.424   1.714   4.838
  218SOL    HW1 1553   1.465   1.623   4.836
  218SOL    HW2 1554   1.496   1.783   4.828
  219SOL     OW 1555   4.336   1.774   0.758
  219SOL    HW1 1556   4.244   1.755   0.793
  219SOL    HW2 1557   4.344   1.871   0.736
  220SOL     OW 1558   2.964   6.832   0.587
  220SOL    HW1 1559   2.866   6.843   0.605
  220SOL    HW2 1560   2.985   6.735   0.574
  221SOL     OW 1561   4.433   5.901   1.948
  221SOL    HW1 1562   4.375   5.877   2.025
  221SOL    HW2 1563   4.514   5.843   1.948
  222SOL     OW 1564   2.536   4.809   6.495
  222SOL    HW1 1565   2.543   4.821   6.594
  222SOL    HW2 1566   2.453   4.758   6.473
  223SOL     OW 1567   6.229   2.854   5.351
  223SOL    HW1 1568   6.325   2.825   5.354
  223SOL    HW2 1569   6.212   2.919   5.426
  224SOL     OW 1570   2.422   1.331   6.238
  224SOL    HW1 1571   2.358   1.289   6.302
  224SOL    HW2 1572   2.386   1.417   6.205
  225SOL     OW 1573   4.381   5.299   5.250
  225SOL    HW1 1574   4.334   5.216   5.279
  225SOL    HW2 1575   4.479   5.283   5.245
  226SOL     OW 1576   0.992   2.269   6.826
  226SOL    HW1 1577   0.898   2.250   6.800
  226SOL    HW2 1578   1.001   2.366   6.850
  227SOL     OW 1579   1.014   3.686   1.585
  227SOL    HW1 1580   1.086   3.655   1.647
  227SOL    HW2 1581   0.995   3.614   1.518
  228SOL     OW 1582   1.634   6.843   2.980
  228SOL    HW1 1583   1.689   6.770   2.940
  228SOL    HW2 1584   1.550   6.854   2.927
  229SOL     OW 1585   4.197   5.731   6.114
  229SOL    HW1 1586   4.205   5.799   6.041
  229SOL    HW2 1587   4.138   5.768   6.186
  230SOL     OW 1588   4.740   5.873   4.742
  230SOL    HW1 1589   4.657   5.866   4.686
  230SOL    HW2 1590   4.768   5.781   4.771
  231SOL     OW 1591   5.564   1.440   0.024
  231SOL    HW1 1592   5.641   1.452   0.086
  231SOL    HW2 1593   5.547   1.525   6.994
  232SOL     OW 1594   1.722   2.549   5.814
  232SOL    HW1 1595   1.813   2.590   5.807
  232SOL    HW2 1596   1.666   2.580   5.737
  233SOL     OW 1597   2.731   1.540   3.278
  233SOL    HW1 1598   2.663   1.612   3.291
  233SOL    HW2 1599   2.728   1.478   3.357
  234SOL     OW 1600   4.575   0.851   0.124
  234SOL    HW1 1601   4.522   0.767   0.110
  234SOL    HW2 1602   4.584   0.869   0.222
  235SOL     OW 1603   4.679   2.706   3.235
  235SOL    HW1 1604   4.708   2.691   3.140
  235SOL    HW2 1605   4.603   2.644   3.256
  236SOL     OW 1606   4.662   4.685   6.133
  236SOL    HW1 1607   4.693   4.643   6.048
  236SOL    HW2 1608   4.564   4.705   6.127
  237SOL     OW 1609   6.315   3.723   2.864
  237SOL    HW1 1610   6.252   3.746   2.937
  237SOL    HW2 1611   6.389   3.790   2.860
  238SOL     OW 1612   6.300   1.552   0.820
  238SOL    HW1 1613   6.306   1.595   0.730
  238SOL    HW2 1614   6.324   1.619   0.890
  239SOL     OW 1615   1.459   3.806   0.217
  239SOL    HW1 1616   1.364   3.825   0.242
  239SOL    HW2 1617   1.463   3.769   0.125
  240SOL     OW 1618   5.496   3.188   3.001
  240SOL    HW1 1619   5.471   3.111   2.943
  240SOL    HW2 1620   5.415   3.244   3.018
  241SOL     OW 1621   3.117   1.787   3.943
  241SOL    HW1 1622   3.017   1.784   3.941
  241SOL    HW2 1623   3.153   1.762   3.853
  242SOL     OW 1624   3.253   3.665   3.207
  242SOL    HW1 1625   3.316   3.619   3.270
  242SOL    HW2 1626   3.216   3.747   3.251
  243SOL     OW 1627   4.522   2.437   5.808
  243SOL    HW1 1628   4.450   2.465   5.872
  243SOL    HW2 1629   4.607   2.485   5.829
  244SOL     OW 1630   4.903   3.488   5.255
  244SOL    HW1 1631   5.000   3.510   5.244
  244SOL    HW2 1632   4.851   3.524   5.178
  245SOL     OW 1633   3.297   1.823   2.956
  245SOL    HW1 1634   3.331   1.917   2.954
  245SOL    HW2 1635   3.248   1.803   2.871
  246SOL     OW 1636   6.654   1.149   2.347
  246SOL    HW1 1637   6.698   1.166   2.259
  246SOL    HW2 1638   6.556   1.137   2.334
  247SOL     OW 1639   1.791   1.586   1.200
  247SOL    HW1 1640   1.734   1.574   1.119
  247SOL    HW2 1641   1.887   1.580   1.174
  248SOL     OW 1642   1.618   2.489   2.422
  248SOL    HW1 1643   1.539   2.441   2.383
  248SOL    HW2 1644   1.657   2.549   2.353
  249SOL     OW 1645   5.564   6.679   5.087
  249SOL    HW1 1646   5.588   6.769   5.123
  249SOL    HW2 1647   5.640   6.616   5.102
  250SOL     OW 1648   4.515   2.460   1.081
  250SOL    HW1 1649   4.569   2.403   1.019
  250SOL    HW2 1650   4.554   2.552   1.083
  251SOL     OW 1651   4.123   3.997   5.618
  251SOL    HW1 1652   4.131   3.901   5.645
  251SOL    HW2 1653   4.138   4.005   5.519
  252SOL     OW 1654   5.952   6.040   5.461
  252SOL    HW1 1655   5.892   6.021   5.384
  252SOL    HW2 1656   6.020   5.967   5.470
  253SOL     OW 1657   3.784   6.305   6.213
  253SOL    HW1 1658   3.727   6.253   6.276
  253SOL    HW2 1659   3.841   6.242   6.160
  254SOL     OW 1660   5.973   2.936   5.110
  254SOL    HW1 1661   5.880   2.972   5.104
  254SOL    HW2 1662   5.995   2.917   5.206
  255SOL     OW 1663   1.973   4.167   5.853
  255SOL    HW1 1664   2.008   4.215   5.772
  255SOL    HW2 1665   1.963   4.069   5.831
  256SOL     OW 1666   4.952   2.438   4.779
  256SOL    HW1 1667   5.035   2.388   4.755
  256SOL    HW2 1668   4.952   2.455   4.878
  257SOL     OW 1669   5.023   6.607   2.296
  257SOL    HW1 1670   5.009   6.600   2.197
  257SOL    HW2 1671   5.116   6.638   2.315
  258SOL     OW 1672   1.931   3.505   5.645
  258SOL    HW1 1673   2.031   3.508   5.632
  258SOL    HW2 1674   1.910   3.484   5.740
  259SOL     OW 1675   3.629   0.224   4.063
  259SOL    HW1 1676   3.713   0.277   4.054
  259SOL    HW2 1677   3.562   0.276   4.116
  260SOL     OW 1678   3.632   5.564   3.674
  260SOL    HW1 1679   3.677   5.485   3.630
  260SOL    HW2 1680   3.546   5.534   3.716
  261SOL     OW 1681   4.088   4.944   6.954
  261SOL    HW1 1682   4.018   4.913   7.019
  261SOL    HW2 1683   4.071   4.903   6.864
  262SOL     OW 1684   1.949   3.741   6.510
  262SOL    HW1 1685   1.904   3.654   6.529
  262SOL    HW2 1686   1.900   3.815   6.555
  263SOL     OW 1687   1.239   5.852   4.188
  263SOL    HW1 1688   1.274   5.840   4.095
  263SOL    HW2 1689   1.208   5.764   4.223
  264SOL     OW 1690   0.024   3.891   6.419
  264SOL    HW1 1691   7.004   3.805   6.387
  264SOL    HW2 1692   0.021   3.958   6.345
  265SOL     OW 1693   6.472   0.004   4.319
  265SOL    HW1 1694   6.568   0.029   4.335
  265SOL    HW2 1695   6.446   0.031   4.226
  266SOL     OW 1696   3.608   1.296   5.987
  266SOL    HW1 1697   3.572   1.238   5.913
  266SOL    HW2 1698   3.689   1.253   6.027
  267SOL     OW 1699   1.275   0.693   4.675
  267SOL    HW1 1700   1.272   0.611   4.732
  267SOL    HW2 1701   1.256   0.774   4.731
  268SOL     OW 1702   3.223   1.377   1.382
  268SOL    HW1 1703   3.255   1.301   1.438
  268SOL    HW2 1704   3.154   1.429   1.432
  269SOL     OW 1705   3.910   1.650   0.275
  269SOL    HW1 1706   3.872   1.560   0.254
  269SOL    HW2 1707   3.837   1.717   0.280
  270SOL     OW 1708   6.478   6.608   0.666
  270SOL    HW1 1709   6.534   6.545   0.613
  270SOL    HW2 1710   6.491   6.701   0.632
  271SOL     OW 1711   1.190   3.052   6.307
  271SOL    HW1 1712   1.285   3.041   6.280
  271SOL    HW2 1713   1.185   3.104   6.392
  272SOL     OW 1714   2.454   6.588   3.937
  272SOL    HW1 1715   2.424   6.562   3.845
  272SOL    HW2 1716   2.501   6.676   3.934
  273SOL     OW 1717   1.729   4.940   6.099
  273SOL    HW1 1718   1.673   4.868   6.140
  273SOL    HW2 1719   1.803   4.898   6.045
  274SOL     OW 1720   4.343   1.551   3.571
  274SOL    HW1 1721   4.425   1.606   3.556
  274SOL    HW2 1722   4.276   1.570   3.499
  275SOL     OW 1723   6.798   6.613   2.450
  275SOL    HW1 1724   6.799   6.520   2.486
  275SOL    HW2 1725   6.765   6.676   2.520
  276SOL     OW 1726   0.673   0.988   4.568
  276SOL    HW1 1727   0.684   0.893   4.599
  276SOL    HW2 1728   0.720   1.049   4.632
  277SOL     OW 1729   2.268   3.746   0.680
  277SOL    HW1 1730   2.261   3.836   0.723
  277SOL    HW2 1731   2.184   3.695   0.696
  278SOL     OW 1732   0.337   2.506   2.011
  278SOL    HW1 1733   0.287   2.446   2.074
  278SOL    HW2 1734   0.324   2.601   2.039
  279SOL     OW 1735   6.193   2.354   4.227
  279SOL    HW1 1736   6.173   2.435   4.282
  279SOL    HW2 1737   6.227   2.382   4.137
  280SOL     OW 1738   1.756   4.603   1.816
  280SOL    HW1 1739   1.731   4.660   1.738
  280SOL    HW2 1740   1.852   4.575   1.807
  281SOL     OW 1741   2.381   4.438   0.816
  281SOL    HW1 1742   2.467   4.395   0.841
  281SOL    HW2 1743   2.384   4.535   0.839
  282SOL     OW 1744   3.121   2.324   5.929
  282SOL    HW1 1745   3.061   2.245   5.916
  282SOL    HW2 1746   3.114   2.357   6.022
  283SOL     OW 1747   4.835   2.580   5.620
  283SOL    HW1 1748   4.927   2.544   5.604
  283SOL    HW2 1749   4.800   2.545   5.707
  284SOL     OW 1750   1.400   3.529   4.205
  284SOL    HW1 1751   1.333   3.504   4.135
  284SOL    HW2 1752   1.388   3.626   4.228
  285SOL     OW 1753   5.226   4.652   4.328
  285SOL    HW1 1754   5.210   4.748   4.304
  285SOL    HW2 1755   5.147   4.598   4.300
  286SOL     OW 1756   3.003   3.677   6.520
  286SOL    HW1 1757   2.972   3.687   6.614
  286SOL    HW2 1758   3.084   3.618   6.518
  287SOL     OW 1759   2.022   3.526   6.881
  287SOL    HW1 1760   1.981   3.438   6.858
  287SOL    HW2 1761   2.114   3.532   6.841
  288SOL     OW 1762   4.946   2.681   7.016
  288SOL    HW1 1763   5.003   2.644   6.942
  288SOL    HW2 1764   4.933   2.611   0.066
  289SOL     OW 1765   2.977   4.702   6.231
  289SOL    HW1 1766   3.017   4.679   6.320
  289SOL    HW2 1767   3.038   4.670   6.159
  290SOL     OW 1768   0.405   2.294   5.615
  290SOL    HW1 1769   0.366   2.317   5.526
  290SOL    HW2 1770   0.389   2.368   5.679
  291SOL     OW 1771   0.042   2.257   2.368
  291SOL    HW1 1772   6.965   2.250   2.394
  291SOL    HW2 1773   0.080   2.341   2.406
  292SOL     OW 1774   1.923   0.217   3.993
  292SOL    HW1 1775   2.015   0.188   4.018
  292SOL    HW2 1776   1.856   0.165   4.047
  293SOL     OW 1777   3.732   5.319   3.594
  293SOL    HW1 1778   3.660   5.256   3.622
  293SOL    HW2 1779   3.746   5.312   3.495
  294SOL     OW 1780   4.438   6.739   6.448
  294SOL    HW1 1781   4.416   6.755   6.544
  294SOL    HW2 1782   4.434   6.826   6.398
  295SOL     OW 1783   5.050   0.345   4.277
  295SOL    HW1 1784   5.057   0.299   4.365
  295SOL    HW2 1785   5.121   0.415   4.270
  296SOL     OW 1786   2.362   1.854   3.904
  296SOL    HW1 1787   2.368   1.944   3.948
  296SOL    HW2 1788   2.269   1.818   3.914
  297SOL     OW 1789   2.067   4.462   2.871
  297SOL    HW1 1790   2.117   4.531   2.818
  297SOL    HW2 1791   1.973   4.493   2.886
  298SOL     OW 1792   5.748   5.044   1.070
  298SOL    HW1 1793   5.837   5.019   1.032
  298SOL    HW2 1794   5.760   5.072   1.165
  299SOL     OW 1795   6.769   2.636   4.628
  299SOL    HW1 1796   6.767   2.718   4.570
  299SOL    HW2 1797   6.827   2.652   4.707
  300SOL     OW 1798   5.969   6.884   2.587
  300SOL    HW1 1799   5.948   6.791   2.556
  300SOL    HW2 1800   5.928   6.950   2.524
  301SOL     OW 1801   5.305   3.780   5.899
  301SOL    HW1 1802   5.233   3.848   5.889
  301SOL    HW2 1803   5.394   3.826   5.904
  302SOL     OW 1804   1.225   6.948   3.709
  302SOL    HW1 1805   1.145   6.930   3.765
  302SOL    HW2 1806   1.265   0.016   3.735
  303SOL     OW 1807   5.715   7.004   3.902
  303SOL    HW1 1808   5.691   6.915   3.862
  303SOL    HW2 1809   5.767   0.037   3.836
  304SOL     OW 1810   3.247   0.109   3.158
  304SOL    HW1 1811   3.208   0.176   3.094
  304SOL    HW2 1812   3.214   0.018   3.135
  305SOL     OW 1813   1.211   3.331   1.527
  305SOL    HW1 1814   1.180   3.364   1.616
  305SOL    HW2 1815   1.160   3.378   1.455
  306SOL     OW 1816   2.102   0.487   3.317
  306SOL    HW1 1817   2.032   0.548   3.353
  306SOL    HW2 1818   2.171   0.541   3.268
  307SOL     OW 1819   3.556   0.516   0.943
  307SOL    HW1 1820   3.485   0.562   0.889
  307SOL    HW2 1821   3.566   0.563   1.031
  308SOL     OW 1822   0.612   5.181   4.206
  308SOL    HW1 1823   0.637   5.271   4.169
  308SOL    HW2 1824   0.525   5.188   4.254
  309SOL     OW 1825   4.158   5.321   4.961
  309SOL    HW1 1826   4.204   5.250   4.907
  309SOL    HW2 1827   4.063   5.329   4.931
  310SOL     OW 1828   0.799   6.689   6.271
  310SOL    HW1 1829   0.807   6.789   6.261
  310SOL    HW2 1830   0.785   6.666   6.367
  311SOL     OW 1831   0.696   0.343   1.490
  311SOL    HW1 1832   0.755   0.377   1.417
  311SOL    HW2 1833   0.664   0.251   1.466
  312SOL     OW 1834   3.629   1.660   4.815
  312SOL    HW1 1835   3.713   1.706   4.844
  312SOL    HW2 1836   3.595   1.702   4.732
  313SOL     OW 1837   0.729   4.584   1.709
  313SOL    HW1 1838   0.630   4.588   1.726
  313SOL    HW2 1839   0.746   4.554   1.615
  314SOL     OW 1840   3.474   6.273   1.393
  314SOL    HW1 1841   3.445   6.229   1.308
  314SOL    HW2 1842   3.395   6.286   1.453
  315SOL     OW 1843   1.329   3.047   3.282
  315SOL    HW1 1844   1.337   2.947   3.289
  315SOL    HW2 1845   1.420   3.088   3.289
  316SOL     OW 1846   2.469   2.687   4.078
  316SOL    HW1 1847   2.401   2.690   4.005
  316SOL    HW2 1848   2.554   2.647   4.043
  317SOL     OW 1849   6.621   1.834   0.017
  317SOL    HW1 1850   6.675   1.828   0.101
  317SOL    HW2 1851   6.565   1.751   0.008
  318SOL     OW 1852   2.822   5.465   0.963
  318SOL    HW1 1853   2.826   5.371   0.997
  318SOL    HW2 1854   2.782   5.524   1.034
  319SOL     OW 1855   1.234   6.804   0.777
  319SOL    HW1 1856   1.251   6.749   0.695
  319SOL    HW2 1857   1.281   6.892   0.768
  320SOL     OW 1858   5.180   4.110   0.326
  320SOL    HW1 1859   5.157   4.156   0.241
  320SOL    HW2 1860   5.278   4.118   0.343
  321SOL     OW 1861   2.069   1.274   1.228
  321SOL    HW1 1862   2.039   1.360   1.186
  321SOL    HW2 1863   2.150   1.292   1.284
  322SOL     OW 1864   3.830   2.952   4.687
  322SOL    HW1 1865   3.820   3.049   4.711
  322SOL    HW2 1866   3.843   2.944   4.588
  323SOL     OW 1867   0.337   4.101   2.062
  323SOL    HW1 1868   0.420   4.137   2.103
  323SOL    HW2 1869   0.326   4.005   2.087
  324SOL     OW 1870   0.553   3.108   4.343
  324SOL    HW1 1871   0.498   3.090   4.425
  324SOL    HW2 1872   0.578   3.021   4.300
  325SOL     OW 1873   2.429   2.561   2.866
  325SOL    HW1 1874   2.411   2.515   2.954
  325SOL    HW2 1875   2.527   2.570   2.852
  326SOL     OW 1876   2.320   4.704   6.279
  326SOL    HW1 1877   2.242   4.738   6.330
  326SOL    HW2 1878   2.365   4.631   6.331
  327SOL     OW 1879   6.190   5.500   5.940
  327SOL    HW1 1880   6.144   5.422   5.898
  327SOL    HW2 1881   6.121   5.562   5.978
  328SOL     OW 1882   2.475   5.814   2.161
  328SOL    HW1 1883   2.482   5.914   2.157
  328SOL    HW2 1884   2.513   5.782   2.248
  329SOL     OW 1885   3.515   3.262   2.391
  329SOL    HW1 1886   3.529   3.178   2.338
  329SOL    HW2 1887   3.497   3.239   2.486
  330SOL     OW 1888   3.756   1.179   1.964
  330SOL    HW1 1889   3.822   1.171   1.889
  330SOL    HW2 1890   3.805   1.177   2.052
  331SOL     OW 1891   5.266   4.965   6.349
  331SOL    HW1 1892   5.216   5.046   6.316
  331SOL    HW2 1893   5.361   4.970   6.318
  332SOL     OW 1894   3.782   2.145   3.262
  332SOL    HW1 1895   3.770   2.055   3.222
  332SOL    HW2 1896   3.704   2.203   3.240
  333SOL     OW 1897   3.889   6.346   6.958
  333SOL    HW1 1898   3.853   6.387   6.874
  333SOL    HW2 1899   3.958   6.276   6.934
  334SOL     OW 1900   4.687   6.783   2.467
  334SOL    HW1 1901   4.744   6.712   2.509
  334SOL    HW2 1902   4.729   6.812   2.381
  335SOL     OW 1903   3.535   6.702   3.170
  335SOL    HW1 1904   3.615   6.746   3.211
  335SOL    HW2 1905   3.505   6.626   3.228
  336SOL     OW 1906   2.892   0.831   4.751
  336SOL    HW1 1907   2.933   0.814   4.841
  336SOL    HW2 1908   2.792   0.837   4.761
  337SOL     OW 1909   0.143   3.959   1.237
  337SOL    HW1 1910   0.195   3.902   1.173
  337SOL    HW2 1911   0.191   3.962   1.324
  338SOL     OW 1912   3.349   2.793   1.382
  338SOL    HW1 1913   3.312   2.835   1.465
  338SOL    HW2 1914   3.430   2.843   1.353
  339SOL     OW 1915   4.626   0.080   2.834
  339SOL    HW1 1916   4.584   0.055   2.746
  339SOL    HW2 1917   4.565   0.052   2.908
  340SOL     OW 1918   5.221   3.725   4.309
  340SOL    HW1 1919   5.202   3.815   4.349
  340SOL    HW2 1920   5.221   3.732   4.209
  341SOL     OW 1921   5.392   5.076   5.281
  341SOL    HW1 1922   5.427   5.131   5.357
  341SOL    HW2 1923   5.469   5.044   5.225
  342SOL     OW 1924   5.712   3.527   0.127
  342SOL    HW1 1925   5.697   3.503   0.223
  342SOL    HW2 1926   5.810   3.532   0.109
  343SOL     OW 1927   2.422   0.276   3.033
  343SOL    HW1 1928   2.454   0.269   2.938
  343SOL    HW2 1929   2.381   0.189   3.060
  344SOL     OW 1930   3.435   5.187   0.464
  344SOL    HW1 1931   3.407   5.142   0.549
  344SOL    HW2 1932   3.373   5.161   0.390
  345SOL     OW 1933   0.669   6.403   5.987
  345SOL    HW1 1934   0.687   6.335   6.058
  345SOL    HW2 1935   0.753   6.456   5.970
  346SOL     OW 1936   2.182   0.087   3.977
  346SOL    HW1 1937   2.135   0.096   3.890
  346SOL    HW2 1938   2.280   0.073   3.960
  347SOL     OW 1939   5.386   6.202   5.958
  347SOL    HW1 1940   5.425   6.163   6.041
  347SOL    HW2 1941   5.286   6.197   5.963
  348SOL     OW 1942   3.174   6.071   2.838
  348SOL    HW1 1943   3.234   5.999   2.873
  348SOL    HW2 1944   3.181   6.074   2.738
  349SOL     OW 1945   2.008   4.507   1.753
  349SOL    HW1 1946   1.940   4.452   1.703
  349SOL    HW2 1947   2.100   4.476   1.729
  350SOL     OW 1948   4.510   2.875   1.429
  350SOL    HW1 1949   4.448   2.814   1.381
  350SOL    HW2 1950   4.511   2.852   1.526
  351SOL     OW 1951   3.443   1.585   0.028
  351SOL    HW1 1952   3.345   1.607   0.024
  351SOL    HW2 1953   3.473   1.550   6.960
  352SOL     OW 1954   3.426   1.207   6.507
  352SOL    HW1 1955   3.453   1.114   6.482
  352SOL    HW2 1956   3.494   1.272   6.474
  353SOL     OW 1957   1.990   6.809   1.152
  353SOL    HW1 1958   2.089   6.810   1.168
  353SOL    HW2 1959   1.948   6.886   1.200
  354SOL     OW 1960   4.669   1.380   1.702
  354SOL    HW1 1961   4.585   1.393   1.755
  354SOL    HW2 1962   4.720   1.466   1.699
  355SOL     OW 1963   1.864   1.469   2.182
  355SOL    HW1 1964   1.853   1.389   2.241
  355SOL    HW2 1965   1.775   1.498   2.148
  356SOL     OW 1966   3.836   6.095   3.048
  356SOL    HW1 1967   3.897   6.161   3.003
  356SOL    HW2 1968   3.809   6.131   3.138
  357SOL     OW 1969   1.222   4.661   5.512
  357SOL    HW1 1970   1.294   4.593   5.520
  357SOL    HW2 1971   1.251   4.747   5.556
  358SOL     OW 1972   5.124   1.522   1.766
  358SOL    HW1 1973   5.168   1.500   1.853
  358SOL    HW2 1974   5.105   1.437   1.716
  359SOL     OW 1975   1.629   1.504   2.082
  359SOL    HW1 1976   1.564   1.445   2.129
  359SOL    HW2 1977   1.580   1.572   2.027
  360SOL     OW 1978   4.405   6.158   1.019
  360SOL    HW1 1979   4.502   6.184   1.022
  360SOL    HW2 1980   4.350   6.230   1.061
  361SOL     OW 1981   4.174   0.605   3.358
  361SOL    HW1 1982   4.251   0.570   3.305
  361SOL    HW2 1983   4.165   0.554   3.443
  362SOL     OW 1984   2.955   3.781   0.902
  362SOL    HW1 1985   2.953   3.851   0.830
  362SOL    HW2 1986   2.862   3.750   0.921
  363SOL     OW 1987   4.520   4.477   4.495
  363SOL    HW1 1988   4.488   4.477   4.400
  363SOL    HW2 1989   4.458   4.531   4.551
  364SOL     OW 1990   1.871   5.947   5.765
  364SOL    HW1 1991   1.912   5.856   5.769
  364SOL    HW2 1992   1.905   6.002   5.841
  365SOL     OW 1993   4.901   6.716   2.798
  365SOL    HW1 1994   4.855   6.658   2.731
  365SOL    HW2 1995   4.976   6.766   2.755
  366SOL     OW 1996   5.024   6.323   0.191
  366SOL    HW1 1997   5.042   6.226   0.205
  366SOL    HW2 1998   4.944   6.334   0.131
  367SOL     OW 1999   5.135   2.012   1.619
  367SOL    HW1 2000   5.086   2.019   1.532
  367SOL    HW2 2001   5.202   1.938   1.613
  368SOL     OW 2002   1.656   4.856   5.393
  368SOL    HW1 2003   1.746   4.813   5.389
  368SOL    HW2 2004   1.632   4.892   5.303
  369SOL     OW 2005   0.652   3.631   1.533
  369SOL    HW1 2006   0.592   3.551   1.535
  369SOL    HW2 2007   0.735   3.609   1.483
  370SOL     OW 2008   3.585   1.361   6.331
  370SOL    HW1 2009   3.678   1.330   6.353
  370SOL    HW2 2010   3.547   1.304   6.258
  371SOL     OW 2011   3.884   2.754   6.506
  371SOL    HW1 2012   3.785   2.765   6.496
  371SOL    HW2 2013   3.926   2.748   6.415
  372SOL     OW 2014   1.542   5.118   6.323
  372SOL    HW1 2015   1.444   5.096   6.326
  372SOL    HW2 2016   1.588   5.051   6.264
  373SOL     OW 2017   6.535   6.872   0.617
  373SOL    HW1 2018   6.618   6.929   0.614
  373SOL    HW2 2019   6.459   6.922   0.575
  374SOL     OW 2020   3.954   1.391   1.008
  374SOL    HW1 2021   4.026   1.458   0.993
  374SOL    HW2 2022   3.947   1.371   1.106
  375SOL     OW 2023   6.701   4.447   2.110
  375SOL    HW1 2024   6.657   4.471   2.196
  375SOL    HW2 2025   6.662   4.502   2.036
  376SOL     OW 2026   2.051   2.941   4.589
  376SOL    HW1 2027   1.982   3.013   4.603
  376SOL    HW2 2028   2.005   2.854   4.571
  377SOL     OW 2029   5.057   1.569   4.477
  377SOL    HW1 2030   5.059   1.604   4.570
  377SOL    HW2 2031   4.962   1.550   4.451
  378SOL     OW 2032   4.680   2.576   4.513
  378SOL    HW1 2033   4.684   2.672   4.542
  378SOL    HW2 2034   4.589   2.539   4.530
  379SOL     OW 2035   6.898   3.326   1.486
  379SOL    HW1 2036   6.903   3.263   1.564
  379SOL    HW2 2037   6.814   3.380   1.492
  380SOL     OW 2038   1.236   1.932   0.107
  380SOL    HW1 2039   1.215   1.991   0.185
  380SOL    HW2 2040   1.171   1.949   0.033
  381SOL     OW 2041   3.320   3.900   0.315
  381SOL    HW1 2042   3.292   3.888   0.220
  381SOL    HW2 2043   3.290   3.990   0.347
  382SOL     OW 2044   2.547   5.065   1.162
  382SOL    HW1 2045   2.483   5.132   1.125
  382SOL    HW2 2046   2.607   5.110   1.228
  383SOL     OW 2047   6.468   2.057   6.993
  383SOL    HW1 2048   6.494   2.054   6.897
  383SOL    HW2 2049   6.496   1.972   0.018
  384SOL     OW 2050   2.072   5.528   4.872
  384SOL    HW1 2051   2.090   5.625   4.891
  384SOL    HW2 2052   2.158   5.477   4.873
  385SOL     OW 2053   4.880   5.067   1.416
  385SOL    HW1 2054   4.791   5.023   1.407
  385SOL    HW2 2055   4.912   5.097   1.327
  386SOL     OW 2056   2.877   6.628   5.140
  386SOL    HW1 2057   2.822   6.695   5.091
  386SOL    HW2 2058   2.941   6.584   5.077
  387SOL     OW 2059   6.973   0.324   5.976
  387SOL    HW1 2060   0.012   0.345   5.898
  387SOL    HW2 2061   6.878   0.323   5.947
  388SOL     OW 2062   0.408   2.494   5.372
  388SOL    HW1 2063   0.499   2.462   5.347
  388SOL    HW2 2064   0.342   2.421   5.358
  389SOL     OW 2065   4.809   4.468   1.644
  389SOL    HW1 2066   4.710   4.454   1.637
  389SOL    HW2 2067   4.838   4.453   1.738
  390SOL     OW 2068   3.731   2.346   0.276
  390SOL    HW1 2069   3.683   2.278   0.333
  390SOL    HW2 2070   3.825   2.315   0.260
  391SOL     OW 2071   3.692   4.078   3.543
  391SOL    HW1 2072   3.751   4.001   3.521
  391SOL    HW2 2073   3.611   4.076   3.484
  392SOL     OW 2074   1.425   4.020   1.120
  392SOL    HW1 2075   1.419   4.039   1.218
  392SOL    HW2 2076   1.366   3.942   1.098
  393SOL     OW 2077   1.335   5.106   1.135
  393SOL    HW1 2078   1.387   5.191   1.141
  393SOL    HW2 2079   1.251   5.122   1.084
  394SOL     OW 2080   6.277   1.191   6.382
  394SOL    HW1 2081   6.200   1.157   6.437
  394SOL    HW2 2082   6.267   1.290   6.370
  395SOL     OW 2083   5.911   4.450   0.898
  395SOL    HW1 2084   6.002   4.490   0.908
  395SOL    HW2 2085   5.859   4.503   0.830
  396SOL     OW 2086   1.667   6.670   1.439
  396SOL    HW1 2087   1.741   6.729   1.471
  396SOL    HW2 2088   1.651   6.597   1.506
  397SOL     OW 2089   3.869   1.802   4.844
  397SOL    HW1 2090   3.898   1.864   4.771
  397SOL    HW2 2091   3.888   1.844   4.933
  398SOL     OW 2092   0.984   0.566   3.143
  398SOL    HW1 2093   1.027   0.656   3.142
  398SOL    HW2 2094   1.054   0.496   3.158
  399SOL     OW 2095   5.582   5.758   3.917
  399SOL    HW1 2096   5.499   5.725   3.872
  399SOL    HW2 2097   5.587   5.722   4.010
  400SOL     OW 2098   5.939   6.937   4.015
  400SOL    HW1 2099   5.935   6.991   4.099
  400SOL    HW2 2100   5.860   6.960   3.957
  401SOL     OW 2101   0.711   5.794   5.347
  401SOL    HW1 2102   0.633   5.788   5.284
  401SOL    HW2 2103   0.776   5.720   5.327
  402SOL     OW 2104   5.375   1.832   3.720
  402SOL    HW1 2105   5.283   1.871   3.710
  402SOL    HW2 2106   5.370   1.732   3.715
  403SOL     OW 2107   2.778   1.675   5.662
  403SOL    HW1 2108   2.785   1.623   5.747
  403SOL    HW2 2109   2.856   1.654   5.603
  404SOL     OW 2110   3.378   5.723   3.439
  404SOL    HW1 2111   3.316   5.707   3.516
  404SOL    HW2 2112   3.328   5.709   3.353
  405SOL     OW 2113   2.739   4.805   4.184
  405SOL    HW1 2114   2.762   4.889   4.136
  405SOL    HW2 2115   2.646   4.812   4.220
  406SOL     OW 2116   0.506   0.025   6.019
  406SOL    HW1 2117   0.442   0.101   6.011
  406SOL    HW2 2118   0.480   6.973   5.954
  407SOL     OW 2119   2.329   2.920   4.206
  407SOL    HW1 2120   2.402   2.880   4.152
  407SOL    HW2 2121   2.330   2.881   4.299
  408SOL     OW 2122   2.154   2.188   3.281
  408SOL    HW1 2123   2.110   2.099   3.272
  408SOL    HW2 2124   2.158   2.214   3.378
  409SOL     OW 2125   0.748   3.070   2.267
  409SOL    HW1 2126   0.798   3.018   2.199
  409SOL    HW2 2127   0.704   3.149   2.224
  410SOL     OW 2128   1.726   2.468   1.586
  410SOL    HW1 2129   1.658   2.492   1.517
  410SOL    HW2 2130   1.789   2.546   1.599
  411SOL     OW 2131   6.718   2.084   0.916
  411SOL    HW1 2132   6.629   2.122   0.941
  411SOL    HW2 2133   6.747   2.017   0.984
  412SOL     OW 2134   1.727   5.009   2.757
  412SOL    HW1 2135   1.629   4.991   2.770
  412SOL    HW2 2136   1.763   5.056   2.837
  413SOL     OW 2137   6.117   5.502   1.857
  413SOL    HW1 2138   6.068   5.503   1.770
  413SOL    HW2 2139   6.215   5.503   1.840
  414SOL     OW 2140   1.960   0.055   3.033
  414SOL    HW1 2141   1.882   0.032   3.091
  414SOL    HW2 2142   2.038   7.019   3.057
  415SOL     OW 2143   5.861   1.337   6.539
  415SOL    HW1 2144   5.798   1.317   6.614
  415SOL    HW2 2145   5.940   1.276   6.544
  416SOL     OW 2146   5.770   3.414   5.558
  416SOL    HW1 2147   5.843   3.419   5.489
  416SOL    HW2 2148   5.732   3.505   5.574
  417SOL     OW 2149   2.003   2.190   6.540
  417SOL    HW1 2150   1.935   2.251   6.499
  417SOL    HW2 2151   1.963   2.100   6.553
  418SOL     OW 2152   3.704   0.014   5.045
  418SOL    HW1 2153   3.668   0.078   4.977
  418SOL    HW2 2154   3.653   6.948   5.038
  419SOL     OW 2155   6.378   0.028   0.459
  419SOL    HW1 2156   6.397   7.017   0.365
  419SOL    HW2 2157   6.285   0.064   0.464
  420SOL     OW 2158   3.800   6.968   0.922
  420SOL    HW1 2159   3.823   0.036   0.881
  420SOL    HW2 2160   3.768   6.905   0.851
  421SOL     OW 2161   4.739   4.095   2.704
  421SOL    HW1 2162   4.652   4.130   2.669
  421SOL    HW2 2163   4.729   4.071   2.800
  422SOL     OW 2164   5.032   2.570   1.814
  422SOL    HW1 2165   5.098   2.646   1.821
  422SOL    HW2 2166   4.991   2.553   1.903
  423SOL     OW 2167   2.937   0.954   6.391
  423SOL    HW1 2168   2.987   0.874   6.359
  423SOL    HW2 2169   2.996   1.008   6.452
  424SOL     OW 2170   1.783   3.878   3.934
  424SOL    HW1 2171   1.774   3.782   3.909
  424SOL    HW2 2172   1.705   3.905   3.990
  425SOL     OW 2173   3.843   0.947   0.138
  425SOL    HW1 2174   3.843   0.871   0.073
  425SOL    HW2 2175   3.876   1.030   0.092
  426SOL     OW 2176   3.047   2.063   4.203
  426SOL    HW1 2177   3.056   2.099   4.296
  426SOL    HW2 2178   2.951   2.038   4.187
  427SOL     OW 2179   4.769   1.990   3.289
  427SOL    HW1 2180   4.777   2.020   3.194
  427SOL    HW2 2181   4.748   2.070   3.347
  428SOL     OW 2182   3.028   2.571   6.540
  428SOL    HW1 2183   2.944   2.529   6.505
  428SOL    HW2 2184   3.005   2.654   6.592
  429SOL     OW 2185   6.757   5.912   4.293
  429SOL    HW1 2186   6.663   5.947   4.296
  429SOL    HW2 2187   6.821   5.988   4.296
  430SOL     OW 2188   1.348   6.962   4.385
  430SOL    HW1 2189   1.368   6.925   4.476
  430SOL    HW2 2190   1.430   6.959   4.329
  431SOL     OW 2191   2.755   1.871   1.482
  431SOL    HW1 2192   2.658   1.859   1.460
  431SOL    HW2 2193   2.787   1.957   1.442
  432SOL     OW 2194   4.654   1.642   1.285
  432SOL    HW1 2195   4.635   1.720   1.344
  432SOL    HW2 2196   4.570   1.615   1.238
  433SOL     OW 2197   1.859   4.270   0.734
  433SOL    HW1 2198   1.956   4.248   0.729
  433SOL    HW2 2199   1.827   4.263   0.828
  434SOL     OW 2200   4.524   5.148   3.248
  434SOL    HW1 2201   4.514   5.232   3.302
  434SOL    HW2 2202   4.586   5.165   3.172
  435SOL     OW 2203   3.864   2.855   5.966
  435SOL    HW1 2204   3.808   2.779   5.997
  435SOL    HW2 2205   3.807   2.936   5.954
  436SOL     OW 2206   5.200   6.308   2.025
  436SOL    HW1 2207   5.264   6.384   2.036
  436SOL    HW2 2208   5.167   6.305   1.931
  437SOL     OW 2209   6.400   1.377   5.198
  437SOL    HW1 2210   6.401   1.405   5.295
  437SOL    HW2 2211   6.322   1.316   5.183
  438SOL     OW 2212   0.716   4.760   2.325
  438SOL    HW1 2213   0.726   4.859   2.322
  438SOL    HW2 2214   0.622   4.734   2.303
  439SOL     OW 2215   0.168   1.011   5.190
  439SOL    HW1 2216   0.101   1.057   5.249
  439SOL    HW2 2217   0.237   1.077   5.160
  440SOL     OW 2218   4.131   1.515   0.373
  440SOL    HW1 2219   4.043   1.545   0.336
  440SOL    HW2 2220   4.185   1.596   0.399
  441SOL     OW 2221   0.815   4.715   1.993
  441SOL    HW1 2222   0.890   4.758   2.043
  441SOL    HW2 2223   0.852   4.657   1.920
  442SOL     OW 2224   4.597   3.454   5.314
  442SOL    HW1 2225   4.637   3.537   5.273
  442SOL    HW2 2226   4.669   3.402   5.360
  443SOL     OW 2227   4.794   2.642   2.970
  443SOL    HW1 2228   4.852   2.723   2.975
  443SOL    HW2 2229   4.744   2.642   2.884
  444SOL     OW 2230   4.428   1.823   1.728
  444SOL    HW1 2231   4.377   1.909   1.737
  444SOL    HW2 2232   4.484   1.809   1.809
  445SOL     OW 2233   1.425   4.702   3.017
  445SOL    HW1 2234   1.524   4.686   3.024
  445SOL    HW2 2235   1.404   4.795   3.047
  446SOL     OW 2236   6.251   6.847   1.414
  446SOL    HW1 2237   6.299   6.925   1.456
  446SOL    HW2 2238   6.256   6.854   1.315
  447SOL     OW 2239   5.675   3.883   0.917
  447SOL    HW1 2240   5.656   3.919   1.009
  447SOL    HW2 2241   5.760   3.832   0.918
  448SOL     OW 2242   3.600   6.808   4.240
  448SOL    HW1 2243   3.565   6.757   4.318
  448SOL    HW2 2244   3.675   6.756   4.197
  449SOL     OW 2245   1.594   4.166   4.285
  449SOL    HW1 2246   1.504   4.160   4.241
  449SOL    HW2 2247   1.584   4.202   4.378
  450SOL     OW 2248   6.464   4.687   3.230
  450SOL    HW1 2249   6.427   4.761   3.286
  450SOL    HW2 2250   6.518   4.726   3.156
  451SOL     OW 2251   1.250   2.060   0.798
  451SOL    HW1 2252   1.221   2.124   0.869
  451SOL    HW2 2253   1.284   1.976   0.841
  452SOL     OW 2254   4.413   5.459   2.882
  452SOL    HW1 2255   4.464   5.373   2.883
  452SOL    HW2 2256   4.315   5.441   2.874
  453SOL     OW 2257   3.847   1.205   0.012
  453SOL    HW1 2258   3.916   1.269   6.995
  453SOL    HW2 2259   3.764   1.256   0.035
  454SOL     OW 2260   0.549   3.720   5.186
  454SOL    HW1 2261   0.468   3.706   5.128
  454SOL    HW2 2262   0.594   3.632   5.203
  455SOL     OW 2263   5.175   5.184   6.220
  455SOL    HW1 2264   5.132   5.171   6.131
  455SOL    HW2 2265   5.274   5.197   6.207
  456SOL     OW 2266   2.499   1.001   2.641
  456SOL    HW1 2267   2.501   1.100   2.655
  456SOL    HW2 2268   2.581   0.973   2.591
  457SOL     OW 2269   2.431   6.639   6.844
  457SOL    HW1 2270   2.522   6.621   6.879
  457SOL    HW2 2271   2.391   6.555   6.808
  458SOL     OW 2272   3.451   1.189   3.013
  458SOL    HW1 2273   3.485   1.147   2.928
  458SOL    HW2 2274   3.519   1.254   3.047
  459SOL     OW 2275   3.336   0.669   3.446
  459SOL    HW1 2276   3.284   0.673   3.531
  459SOL    HW2 2277   3.278   0.631   3.374
  460SOL     OW 2278   0.554   1.433   6.218
  460SOL    HW1 2279   0.641   1.395   6.186
  460SOL    HW2 2280   0.534   1.394   6.308
  461SOL     OW 2281   1.049   6.000   5.743
  461SOL    HW1 2282   1.001   5.916   5.717
  461SOL    HW2 2283   0.999   6.047   5.815
  462SOL     OW 2284   2.999   3.760   4.681
  462SOL    HW1 2285   3.090   3.717   4.685
  462SOL    HW2 2286   2.995   3.835   4.747
  463SOL     OW 2287   5.483   6.372   3.783
  463SOL    HW1 2288   5.423   6.426   3.841
  463SOL    HW2 2289   5.527   6.301   3.838
  464SOL     OW 2290   4.490   5.450   5.577
  464SOL    HW1 2291   4.545   5.511   5.634
  464SOL    HW2 2292   4.439   5.387   5.634
  465SOL     OW 2293   0.539   4.407   0.173
  465SOL    HW1 2294   0.572   4.496   0.142
  465SOL    HW2 2295   0.568   4.336   0.109
  466SOL     OW 2296   4.110   4.796   3.947
  466SOL    HW1 2297   4.103   4.821   3.851
  466SOL    HW2 2298   4.118   4.879   4.003
  467SOL     OW 2299   6.168   0.118   2.290
  467SOL    HW1 2300   6.126   0.204   2.261
  467SOL    HW2 2301   6.152   0.048   2.220
  468SOL     OW 2302   2.256   6.112   6.258
  468SOL    HW1 2303   2.288   6.043   6.192
  468SOL    HW2 2304   2.186   6.071   6.317
  469SOL     OW 2305   2.848   4.891   5.037
  469SOL    HW1 2306   2.945   4.905   5.057
  469SOL    HW2 2307   2.831   4.795   5.019
  470SOL     OW 2308   2.009   4.902   2.911
  470SOL    HW1 2309   2.047   4.856   2.831
  470SOL    HW2 2310   2.079   4.912   2.981
  471SOL     OW 2311   1.768   2.179   4.158
  471SOL    HW1 2312   1.722   2.240   4.094
  471SOL    HW2 2313   1.847   2.226   4.198
  472SOL     OW 2314   5.365   3.872   6.424
  472SOL    HW1 2315   5.453   3.873   6.376
  472SOL    HW2 2316   5.296   3.917   6.367
  473SOL     OW 2317   5.233   3.578   2.435
  473SOL    HW1 2318   5.280   3.492   2.417
  473SOL    HW2 2319   5.135   3.561   2.442
  474SOL     OW 2320   4.605   5.286   4.187
  474SOL    HW1 2321   4.509   5.307   4.170
  474SOL    HW2 2322   4.618   5.187   4.188
  475SOL     OW 2323   5.913   1.346   0.801
  475SOL    HW1 2324   5.947   1.405   0.728
  475SOL    HW2 2325   5.832   1.297   0.768
  476SOL     OW 2326   1.545   4.090   6.683
  476SOL    HW1 2327   1.517   4.001   6.720
  476SOL    HW2 2328   1.463   4.143   6.660
  477SOL     OW 2329   1.135   5.316   2.872
  477SOL    HW1 2330   1.121   5.408   2.909
  477SOL    HW2 2331   1.167   5.256   2.945
  478SOL     OW 2332   5.973   6.304   3.156
  478SOL    HW1 2333   6.021   6.256   3.229
  478SOL    HW2 2334   6.038   6.361   3.106
  479SOL     OW 2335   2.873   3.471   2.785
  479SOL    HW1 2336   2.944   3.537   2.810
  479SOL    HW2 2337   2.883   3.388   2.840
  480SOL     OW 2338   0.893   0.739   2.637
  480SOL    HW1 2339   0.856   0.827   2.665
  480SOL    HW2 2340   0.910   0.682   2.718
  481SOL     OW 2341   6.254   0.190   1.214
  481SOL    HW1 2342   6.184   0.208   1.145
  481SOL    HW2 2343   6.297   0.102   1.196
  482SOL     OW 2344   4.192   5.110   2.706
  482SOL    HW1 2345   4.248   5.172   2.651
  482SOL    HW2 2346   4.100   5.106   2.668
  483SOL     OW 2347   5.685   1.672   4.034
  483SOL    HW1 2348   5.619   1.599   4.021
  483SOL    HW2 2349   5.646   1.760   4.006
  484SOL     OW 2350   1.934   5.041   3.612
  484SOL    HW1 2351   1.877   4.960   3.608
  484SOL    HW2 2352   1.877   5.123   3.606
  485SOL     OW 2353   5.600   2.021   1.167
  485SOL    HW1 2354   5.625   2.117   1.184
  485SOL    HW2 2355   5.680   1.963   1.179
  486SOL     OW 2356   5.795   6.557   5.765
  486SOL    HW1 2357   5.798   6.654   5.791
  486SOL    HW2 2358   5.869   6.538   5.699
  487SOL     OW 2359   0.337   0.515   6.752
  487SOL    HW1 2360   0.391   0.431   6.765
  487SOL    HW2 2361   0.292   0.512   6.663
  488SOL     OW 2362   1.966   6.217   3.286
  488SOL    HW1 2363   2.029   6.172   3.349
  488SOL    HW2 2364   1.970   6.172   3.197
  489SOL     OW 2365   2.377   5.867   5.368
  489SOL    HW1 2366   2.395   5.909   5.279
  489SOL    HW2 2367   2.375   5.937   5.438
  490SOL     OW 2368   1.476   3.421   4.464
  490SOL    HW1 2369   1.413   3.430   4.387
  490SOL    HW2 2370   1.483   3.325   4.491
  491SOL     OW 2371   6.434   2.940   1.017
  491SOL    HW1 2372   6.414   3.028   1.060
  491SOL    HW2 2373   6.402   2.941   0.922
  492SOL     OW 2374   1.592   2.871   5.572
  492SOL    HW1 2375   1.626   2.831   5.657
  492SOL    HW2 2376   1.514   2.818   5.540
  493SOL     OW 2377   1.700   5.379   4.328
  493SOL    HW1 2378   1.759   5.392   4.249
  493SOL    HW2 2379   1.717   5.290   4.368
  494SOL     OW 2380   2.322   0.963   4.364
  494SOL    HW1 2381   2.401   0.909   4.334
  494SOL    HW2 2382   2.323   1.052   4.318
  495SOL     OW 2383   3.660   4.036   6.784
  495SOL    HW1 2384   3.662   4.114   6.721
  495SOL    HW2 2385   3.614   4.063   6.868
  496SOL     OW 2386   5.295   1.066   2.978
  496SOL    HW1 2387   5.228   1.022   2.919
  496SOL    HW2 2388   5.276   1.041   3.074
  497SOL     OW 2389   4.501   1.908   0.465
  497SOL    HW1 2390   4.516   1.848   0.544
  497SOL    HW2 2391   4.458   1.993   0.495
  498SOL     OW 2392   0.480   0.726   1.154
  498SOL    HW1 2393   0.453   0.685   1.242
  498SOL    HW2 2394   0.413   0.795   1.128
  499SOL     OW 2395   3.051   6.361   0.298
  499SOL    HW1 2396   3.058   6.268   0.263
  499SOL    HW2 2397   3.133   6.383   0.351
  500SOL     OW 2398   5.403   1.763   6.544
  500SOL    HW1 2399   5.333   1.712   6.594
  500SOL    HW2 2400   5.415   1.723   6.453
  501SOL     OW 2401   1.436   1.614   5.182
  501SOL    HW1 2402   1.517   1.592   5.127
  501SOL    HW2 2403   1.364   1.649   5.121
  502SOL     OW 2404   2.288   4.318   6.820
  502SOL    HW1 2405   2.228   4.260   6.875
  502SOL    HW2 2406   2.376   4.273   6.808
  503SOL     OW 2407   3.502   5.695   1.478
  503SOL    HW1 2408   3.568   5.687   1.403
  503SOL    HW2 2409   3.506   5.788   1.516
  504SOL     OW 2410   6.464   6.214   1.442
  504SOL    HW1 2411   6.499   6.300   1.406
  504SOL    HW2 2412   6.375   6.194   1.400
  505SOL     OW 2413   5.879   5.129   5.152
  505SOL    HW1 2414   5.900   5.194   5.225
  505SOL    HW2 2415   5.815   5.171   5.088
  506SOL     OW 2416   3.166   5.141   3.082
  506SOL    HW1 2417   3.205   5.051   3.097
  506SOL    HW2 2418   3.168   5.162   2.984
  507SOL     OW 2419   3.320   0.697   1.821
  507SOL    HW1 2420   3.332   0.614   1.765
  507SOL    HW2 2421   3.282   0.672   1.910
  508SOL     OW 2422   0.024   4.761   3.340
  508SOL    HW1 2423   0.005   4.664   3.326
  508SOL    HW2 2424   0.092   4.771   3.413
  509SOL     OW 2425   4.289   6.786   5.997
  509SOL    HW1 2426   4.216   6.741   6.048
  509SOL    HW2 2427   4.252   6.864   5.947
  510SOL     OW 2428   6.692   4.000   0.502
  510SOL    HW1 2429   6.636   4.035   0.577
  510SOL    HW2 2430   6.712   4.075   0.438
  511SOL     OW 2431   0.586   1.313   0.103
  511SOL    HW1 2432   0.575   1.213   0.102
  511SOL    HW2 2433   0.681   1.336   0.083
  512SOL     OW 2434   0.354   2.536   4.349
  512SOL    HW1 2435   0.301   2.503   4.270
  512SOL    HW2 2436   0.370   2.634   4.339
  513SOL     OW 2437   5.400   6.822   3.096
  513SOL    HW1 2438   5.431   6.732   3.068
  513SOL    HW2 2439   5.300   6.825   3.097
  514SOL     OW 2440   4.660   1.095   5.407
  514SOL    HW1 2441   4.646   1.174   5.466
  514SOL    HW2 2442   4.649   1.123   5.311
  515SOL     OW 2443   3.513   0.735   0.306
  515SOL    HW1 2444   3.602   0.706   0.341
  515SOL    HW2 2445   3.504   0.834   0.315
  516SOL     OW 2446   1.783   6.105   2.268
  516SOL    HW1 2447   1.838   6.063   2.197
  516SOL    HW2 2448   1.753   6.035   2.333
  517SOL     OW 2449   3.781   5.265   1.818
  517SOL    HW1 2450   3.710   5.322   1.862
  517SOL    HW2 2451   3.741   5.177   1.793
  518SOL     OW 2452   1.843   5.344   4.101
  518SOL    HW1 2453   1.852   5.244   4.095
  518SOL    HW2 2454   1.803   5.379   4.017
  519SOL     OW 2455   6.938   6.721   2.250
  519SOL    HW1 2456   6.889   6.684   2.329
  519SOL    HW2 2457   6.877   6.781   2.198
  520SOL     OW 2458   2.677   4.580   0.465
  520SOL    HW1 2459   2.661   4.593   0.563
  520SOL    HW2 2460   2.617   4.508   0.431
  521SOL     OW 2461   6.134   5.862   5.556
  521SOL    HW1 2462   6.224   5.906   5.561
  521SOL    HW2 2463   6.138   5.787   5.491
  522SOL     OW 2464   3.900   4.630   0.332
  522SOL    HW1 2465   3.901   4.536   0.298
  522SOL    HW2 2466   3.862   4.691   0.262
  523SOL     OW 2467   1.570   6.807   6.842
  523SOL    HW1 2468   1.646   6.868   6.819
  523SOL    HW2 2469   1.501   6.811   6.769
  524SOL     OW 2470   0.183   1.315   0.937
  524SOL    HW1 2471   0.242   1.306   0.856
  524SOL    HW2 2472   0.233   1.284   1.018
  525SOL     OW 2473   0.934   3.234   3.824
  525SOL    HW1 2474   0.922   3.262   3.919
  525SOL    HW2 2475   0.955   3.137   3.820
  526SOL     OW 2476   4.128   0.318   4.066
  526SOL    HW1 2477   4.182   0.255   4.122
  526SOL    HW2 2478   4.160   0.412   4.079
  527SOL     OW 2479   0.469   1.560   1.022
  527SOL    HW1 2480   0.557   1.586   1.061
  527SOL    HW2 2481   0.435   1.478   1.069
  528SOL     OW 2482   0.121   2.867   4.502
  528SOL    HW1 2483   0.084   2.939   4.443
  528SOL    HW2 2484   0.221   2.872   4.503
  529SOL     OW 2485   1.462   0.366   6.660
  529SOL    HW1 2486   1.374   0.357   6.613
  529SOL    HW2 2487   1.533   0.318   6.607
  530SOL     OW 2488   3.364   4.541   1.473
  530SOL    HW1 2489   3.304   4.492   1.409
  530SOL    HW2 2490   3.416   4.474   1.527
  531SOL     OW 2491   1.494   6.864   0.108
  531SOL    HW1 2492   1.518   6.944   0.163
  531SOL    HW2 2493   1.531   6.875   0.015
  532SOL     OW 2494   2.098   1.221   6.000
  532SOL    HW1 2495   2.117   1.319   6.000
  532SOL    HW2 2496   1.999   1.207   5.996
  533SOL     OW 2497   3.882   0.562   3.787
  533SOL    HW1 2498   3.925   0.517   3.709
  533SOL    HW2 2499   3.945   0.629   3.826
  534SOL     OW 2500   1.646   3.930   1.629
  534SOL    HW1 2501   1.565   3.910   1.685
  534SOL    HW2 2502   1.722   3.956   1.688
  535SOL     OW 2503   5.332   3.445   4.463
  535SOL    HW1 2504   5.268   3.495   4.405
  535SOL    HW2 2505   5.301   3.449   4.558
  536SOL     OW 2506   6.183   6.679   1.839
  536SOL    HW1 2507   6.118   6.711   1.908
  536SOL    HW2 2508   6.270   6.725   1.853
  537SOL     OW 2509   3.181   1.492   2.353
  537SOL    HW1 2510   3.135   1.499   2.441
  537SOL    HW2 2511   3.120   1.523   2.280
  538SOL     OW 2512   3.674   4.982   4.905
  538SOL    HW1 2513   3.596   4.960   4.847
  538SOL    HW2 2514   3.754   4.930   4.874
  539SOL     OW 2515   1.913   0.503   6.650
  539SOL    HW1 2516   1.982   0.430   6.653
  539SOL    HW2 2517   1.944   0.576   6.590
  540SOL     OW 2518   1.614   0.927   5.278
  540SOL    HW1 2519   1.538   0.945   5.215
  540SOL    HW2 2520   1.686   0.878   5.229
  541SOL     OW 2521   5.108   6.231   3.809
  541SOL    HW1 2522   5.192   6.177   3.809
  541SOL    HW2 2523   5.038   6.183   3.861
  542SOL     OW 2524   3.668   6.856   6.290
  542SOL    HW1 2525   3.735   6.790   6.325
  542SOL    HW2 2526   3.691   6.948   6.321
  543SOL     OW 2527   6.153   2.561   3.526
  543SOL    HW1 2528   6.173   2.470   3.489
  543SOL    HW2 2529   6.067   2.594   3.488
  544SOL     OW 2530   1.215   3.168   1.189
  544SOL    HW1 2531   1.237   3.266   1.184
  544SOL    HW2 2532   1.137   3.148   1.130
  545SOL     OW 2533   6.563   5.745   0.823
  545SOL    HW1 2534   6.605   5.808   0.888
  545SOL    HW2 2535   6.615   5.659   0.821
  546SOL     OW 2536   0.478   3.848   1.628
  546SOL    HW1 2537   0.541   3.913   1.669
  546SOL    HW2 2538   0.530   3.780   1.576
  547SOL     OW 2539   5.054   7.009   6.588
  547SOL    HW1 2540   5.029   6.992   6.492
  547SOL    HW2 2541   4.999   6.951   6.647
  548SOL     OW 2542   3.845   2.863   0.350
  548SOL    HW1 2543   3.843   2.919   0.433
  548SOL    HW2 2544   3.794   2.908   0.278
  549SOL     OW 2545   5.250   1.490   2.004
  549SOL    HW1 2546   5.264   1.567   2.067
  549SOL    HW2 2547   5.312   1.415   2.029
  550SOL     OW 2548   6.998   5.916   3.046
  550SOL    HW1 2549   6.987   5.878   2.954
  550SOL    HW2 2550   6.927   5.985   3.062
  551SOL     OW 2551   5.948   0.266   0.224
  551SOL    HW1 2552   5.875   0.329   0.197
  551SOL    HW2 2553   6.036   0.302   0.194
  552SOL     OW 2554   0.627   6.951   5.047
  552SOL    HW1 2555   0.613   6.959   5.145
  552SOL    HW2 2556   0.722   6.924   5.029
  553SOL     OW 2557   3.550   2.656   6.714
  553SOL    HW1 2558   3.545   2.610   6.625
  553SOL    HW2 2559   3.599   2.598   6.779
  554SOL     OW 2560   6.306   5.809   0.710
  554SOL    HW1 2561   6.274   5.722   0.673
  554SOL    HW2 2562   6.405   5.805   0.725
  555SOL     OW 2563   2.347   3.774   5.329
  555SOL    HW1 2564   2.248   3.779   5.341
  555SOL    HW2 2565   2.377   3.848   5.268
  556SOL     OW 2566   5.981   6.850   3.605
  556SOL    HW1 2567   5.979   6.920   3.533
  556SOL    HW2 2568   5.897   6.796   3.601
  557SOL     OW 2569   5.661   4.211   6.394
  557SOL    HW1 2570   5.664   4.308   6.370
  557SOL    HW2 2571   5.752   4.171   6.383
  558SOL     OW 2572   3.201   3.442   2.512
  558SOL    HW1 2573   3.106   3.469   2.527
  558SOL    HW2 2574   3.208   3.342   2.519
  559SOL     OW 2575   6.752   0.772   6.386
  559SOL    HW1 2576   6.748   0.672   6.382
  559SOL    HW2 2577   6.697   0.810   6.311
  560SOL     OW 2578   6.789   2.976   4.140
  560SOL    HW1 2579   6.719   2.907   4.118
  560SOL    HW2 2580   6.759   3.065   4.107
  561SOL     OW 2581   0.477   3.363   0.552
  561SOL    HW1 2582   0.441   3.447   0.512
  561SOL    HW2 2583   0.565   3.383   0.597
  562SOL     OW 2584   4.138   6.690   4.080
  562SOL    HW1 2585   4.175   6.768   4.030
  562SOL    HW2 2586   4.130   6.713   4.177
  563SOL     OW 2587   1.436   0.765   4.189
  563SOL    HW1 2588   1.340   0.792   4.197
  563SOL    HW2 2589   1.483   0.829   4.130
  564SOL     OW 2590   5.937   2.191   6.266
  564SOL    HW1 2591   6.032   2.217   6.249
  564SOL    HW2 2592   5.877   2.259   6.222
  565SOL     OW 2593   3.462   3.430   3.321
  565SOL    HW1 2594   3.498   3.347   3.279
  565SOL    HW2 2595   3.395   3.405   3.391
  566SOL     OW 2596   2.934   0.734   3.557
  566SOL    HW1 2597   2.863   0.726   3.627
  566SOL    HW2 2598   2.900   0.790   3.482
  567SOL     OW 2599   3.005   2.730   5.338
  567SOL    HW1 2600   3.025   2.780   5.423
  567SOL    HW2 2601   3.079   2.665   5.320
  568SOL     OW 2602   0.749   6.266   0.091
  568SOL    HW1 2603   0.797   6.319   0.021
  568SOL    HW2 2604   0.716   6.180   0.052
  569SOL     OW 2605   5.711   3.339   6.944
  569SOL    HW1 2606   5.777   3.372   6.876
  569SOL    HW2 2607   5.697   3.410   7.013
  570SOL     OW 2608   3.411   0.663   5.626
  570SOL    HW1 2609   3.480   0.614   5.679
  570SOL    HW2 2610   3.455   0.709   5.549
  571SOL     OW 2611   2.335   4.314   1.451
  571SOL    HW1 2612   2.346   4.365   1.536
  571SOL    HW2 2613   2.418   4.263   1.431
  572SOL     OW 2614   2.177   0.929   4.575
  572SOL    HW1 2615   2.122   1.013   4.579
  572SOL    HW2 2616   2.243   0.936   4.500
  573SOL     OW 2617   0.722   1.002   5.479
  573SOL    HW1 2618   0.645   0.951   5.516
  573SOL    HW2 2619   0.690   1.086   5.437
  574SOL     OW 2620   1.828   1.308   6.131
  574SOL    HW1 2621   1.884   1.366   6.190
  574SOL    HW2 2622   1.815   1.352   6.043
  575SOL     OW 2623   4.026   4.156   0.036
  575SOL    HW1 2624   4.057   4.069   0.075
  575SOL    HW2 2625   4.105   4.216   0.020
  576SOL     OW 2626   2.073   1.415   2.772
  576SOL    HW1 2627   1.990   1.448   2.728
  576SOL    HW2 2628   2.067   1.316   2.785
  577SOL     OW 2629   0.366   1.086   1.845
  577SOL    HW1 2630   0.439   1.048   1.789
  577SOL    HW2 2631   0.290   1.114   1.786
  578SOL     OW 2632   3.667   6.761   6.980
  578SOL    HW1 2633   3.707   6.688   6.925
  578SOL    HW2 2634   3.739   6.805   0.015
  579SOL     OW 2635   1.700   3.694   2.001
  579SOL    HW1 2636   1.793   3.657   1.997
  579SOL    HW2 2637   1.637   3.632   1.956
  580SOL     OW 2638   4.779   5.100   4.992
  580SOL    HW1 2639   4.817   5.192   5.001
  580SOL    HW2 2640   4.789   5.068   4.897
  581SOL     OW 2641   1.976   2.639   4.517
  581SOL    HW1 2642   1.900   2.648   4.581
  581SOL    HW2 2643   2.055   2.599   4.564
  582SOL     OW 2644   5.648   4.816   4.232
  582SOL    HW1 2645   5.591   4.765   4.168
  582SOL    HW2 2646   5.739   4.775   4.234
  583SOL     OW 2647   3.996   6.172   5.882
  583SOL    HW1 2648   3.985   6.269   5.860
  583SOL    HW2 2649   3.919   6.120   5.845
  584SOL     OW 2650   3.783   0.673   5.584
  584SOL    HW1 2651   3.817   0.724   5.505
  584SOL    HW2 2652   3.840   0.690   5.664
  585SOL     OW 2653   3.716   6.782   1.525
  585SOL    HW1 2654   3.705   6.694   1.571
  585SOL    HW2 2655   3.805   6.785   1.480
  586SOL     OW 2656   3.874   0.194   0.708
  586SOL    HW1 2657   3.945   0.188   0.638
  586SOL    HW2 2658   3.792   0.236   0.669
  587SOL     OW 2659   4.671   1.695   2.082
  587SOL    HW1 2660   4.728   1.768   2.046
  587SOL    HW2 2661   4.728   1.615   2.102
  588SOL     OW 2662   1.539   4.453   2.841
  588SOL    HW1 2663   1.584   4.536   2.810
  588SOL    HW2 2664   1.470   4.476   2.910
  589SOL     OW 2665   3.081   5.249   0.772
  589SOL    HW1 2666   3.060   5.300   0.689
  589SOL    HW2 2667   3.175   5.266   0.800
  590SOL     OW 2668   3.134   2.094   7.007
  590SOL    HW1 2669   3.201   2.168   6.998
  590SOL    HW2 2670   3.180   2.010   0.014
  591SOL     OW 2671   3.085   5.935   3.734
  591SOL    HW1 2672   3.136   5.980   3.661
  591SOL    HW2 2673   3.144   5.921   3.813
  592SOL     OW 2674   4.001   1.925   4.645
  592SOL    HW1 2675   3.968   1.859   4.578
  592SOL    HW2 2676   3.990   2.018   4.609
  593SOL     OW 2677   1.939   1.945   6.617
  593SOL    HW1 2678   1.875   1.971   6.690
  593SOL    HW2 2679   2.010   1.885   6.655
  594SOL     OW 2680   4.530   1.063   2.719
  594SOL    HW1 2681   4.540   1.022   2.810
  594SOL    HW2 2682   4.617   1.053   2.670
  595SOL     OW 2683   6.326   5.319   3.064
  595SOL    HW1 2684   6.404   5.273   3.021
  595SOL    HW2 2685   6.251   5.326   2.999
  596SOL     OW 2686   6.311   5.008   4.288
  596SOL    HW1 2687   6.282   5.077   4.222
  596SOL    HW2 2688   6.340   4.926   4.240
  597SOL     OW 2689   3.353   1.207   6.770
  597SOL    HW1 2690   3.393   1.132   6.822
  597SOL    HW2 2691   3.382   1.200   6.674
  598SOL     OW 2692   3.217   4.095   3.595
  598SOL    HW1 2693   3.254   4.134   3.680
  598SOL    HW2 2694   3.141   4.035   3.616
  599SOL     OW 2695   1.775   5.272   1.514
  599SOL    HW1 2696   1.824   5.300   1.431
  599SOL    HW2 2697   1.768   5.350   1.577
  600SOL     OW 2698   6.889   3.705   5.506
  600SOL    HW1 2699   6.828   3.776   5.471
  600SOL    HW2 2700   6.968   3.696   5.445
  601SOL     OW 2701   0.415   6.330   5.848
  601SOL    HW1 2702   0.495   6.373   5.891
  601SOL    HW2 2703   0.446   6.270   5.774
  602SOL     OW 2704   1.572   0.373   3.499
  602SOL    HW1 2705   1.484   0.360   3.545
  602SOL    HW2 2706   1.569   0.332   3.408
  603SOL     OW 2707   1.995   1.416   3.993
  603SOL    HW1 2708   1.993   1.433   4.091
  603SOL    HW2 2709   1.910   1.451   3.951
  604SOL     OW 2710   6.228   3.208   0.904
  604SOL    HW1 2711   6.215   3.145   0.827
  604SOL    HW2 2712   6.219   3.157   0.990
  605SOL     OW 2713   6.698   6.377   1.182
  605SOL    HW1 2714   6.764   6.452   1.194
  605SOL    HW2 2715   6.616   6.396   1.236
  606SOL     OW 2716   3.864   6.722   5.069
  606SOL    HW1 2717   3.903   6.635   5.037
  606SOL    HW2 2718   3.764   6.716   5.063
  607SOL     OW 2719   1.791   3.117   5.917
  607SOL    HW1 2720   1.730   3.087   5.843
  607SOL    HW2 2721   1.866   3.051   5.926
  608SOL     OW 2722   3.305   1.087   6.005
  608SOL    HW1 2723   3.335   1.036   5.924
  608SOL    HW2 2724   3.377   1.086   6.074
  609SOL     OW 2725   3.764   2.884   2.073
  609SOL    HW1 2726   3.773   2.787   2.094
  609SOL    HW2 2727   3.757   2.897   1.974
  610SOL     OW 2728   4.616   3.610   1.697
  610SOL    HW1 2729   4.704   3.630   1.741
  610SOL    HW2 2730   4.632   3.590   1.600
  611SOL     OW 2731   4.007   1.276   3.148
  611SOL    HW1 2732   3.973   1.368   3.169
  611SOL    HW2 2733   4.093   1.260   3.195
  612SOL     OW 2734   4.524   4.920   3.883
  612SOL    HW1 2735   4.527   5.010   3.840
  612SOL    HW2 2736   4.463   4.923   3.962
  613SOL     OW 2737   3.769   4.637   5.839
  613SOL    HW1 2738   3.864   4.661   5.819
  613SOL    HW2 2739   3.712   4.719   5.833
  614SOL     OW 2740   2.642   6.221   6.309
  614SOL    HW1 2741   2.633   6.128   6.272
  614SOL    HW2 2742   2.575   6.234   6.382
  615SOL     OW 2743   0.322   4.647   2.650
  615SOL    HW1 2744   0.356   4.736   2.679
  615SOL    HW2 2745   0.278   4.655   2.561
  616SOL     OW 2746   5.964   3.097   3.555
  616SOL    HW1 2747   6.029   3.056   3.619
  616SOL    HW2 2748   5.941   3.031   3.484
  617SOL     OW 2749   3.247   6.754   6.082
  617SOL    HW1 2750   3.217   6.808   6.003
  617SOL    HW2 2751   3.190   6.673   6.090
  618SOL     OW 2752   1.471   1.130   3.205
  618SOL    HW1 2753   1.454   1.224   3.177
  618SOL    HW2 2754   1.463   1.069   3.126
  619SOL     OW 2755   1.072   2.026   6.931
  619SOL    HW1 2756   0.985   2.007   6.887
  619SOL    HW2 2757   1.098   2.121   6.913
  620SOL     OW 2758   4.231   3.578   1.397
  620SOL    HW1 2759   4.233   3.589   1.496
  620SOL    HW2 2760   4.311   3.527   1.367
  621SOL     OW 2761   0.348   5.530   1.174
  621SOL    HW1 2762   0.335   5.443   1.222
  621SOL    HW2 2763   0.421   5.520   1.107
  622SOL     OW 2764   0.957   0.505   6.549
  622SOL    HW1 2765   0.996   0.420   6.511
  622SOL    HW2 2766   1.031   0.561   6.585
  623SOL     OW 2767   0.477   5.113   5.568
  623SOL    HW1 2768   0.516   5.021   5.572
  623SOL    HW2 2769   0.378   5.106   5.557
  624SOL     OW 2770   1.371   1.633   0.837
  624SOL    HW1 2771   1.337   1.702   0.772
  624SOL    HW2 2772   1.324   1.547   0.822
  625SOL     OW 2773   1.633   1.456   2.944
  625SOL    HW1 2774   1.727   1.440   2.975
  625SOL    HW2 2775   1.634   1.523   2.870
  626SOL     OW 2776   3.143   6.730   4.648
  626SOL    HW1 2777   3.059   6.752   4.698
  626SOL    HW2 2778   3.148   6.787   4.566
  627SOL     OW 2779   5.201   0.486   0.010
  627SOL    HW1 2780   5.210   0.429   6.949
  627SOL    HW2 2781   5.276   0.466   0.074
  628SOL     OW 2782   5.399   4.040   3.349
  628SOL    HW1 2783   5.376   4.092   3.268
  628SOL    HW2 2784   5.493   4.060   3.376
  629SOL     OW 2785   1.623   6.772   0.799
  629SOL    HW1 2786   1.557   6.846   0.804
  629SOL    HW2 2787   1.707   6.799   0.847
  630SOL     OW 2788   3.652   2.083   1.193
  630SOL    HW1 2789   3.556   2.072   1.220
  630SOL    HW2 2790   3.657   2.153   1.121
  631SOL     OW 2791   2.380   7.019   4.881
  631SOL    HW1 2792   2.464   0.040   4.846
  631SOL    HW2 2793   2.311   7.019   4.809
  632SOL     OW 2794   2.459   0.506   0.806
  632SOL    HW1 2795   2.479   0.436   0.874
  632SOL    HW2 2796   2.441   0.462   0.718
  633SOL     OW 2797   2.424   6.637   5.554
  633SOL    HW1 2798   2.459   6.587   5.633
  633SOL    HW2 2799   2.325   6.623   5.547
  634SOL     OW 2800   2.899   5.843   2.011
  634SOL    HW1 2801   2.933   5.749   2.004
  634SOL    HW2 2802   2.913   5.876   2.104
  635SOL     OW 2803   2.670   0.437   2.471
  635SOL    HW1 2804   2.718   0.500   2.532
  635SOL    HW2 2805   2.572   0.455   2.474
  636SOL     OW 2806   5.102   5.408   0.207
  636SOL    HW1 2807   5.037   5.476   0.242
  636SOL    HW2 2808   5.136   5.352   0.282
  637SOL     OW 2809   5.612   4.486   7.016
  637SOL    HW1 2810   5.633   4.558   6.951
  637SOL    HW2 2811   5.662   4.403   6.991
  638SOL     OW 2812   5.405   1.049   2.614
  638SOL    HW1 2813   5.461   1.062   2.695
  638SOL    HW2 2814   5.457   0.998   2.545
  639SOL     OW 2815   4.816   3.873   2.556
  639SOL    HW1 2816   4.772   3.943   2.612
  639SOL    HW2 2817   4.820   3.787   2.606
  640SOL     OW 2818   2.606   3.891   5.775
  640SOL    HW1 2819   2.551   3.831   5.834
  640SOL    HW2 2820   2.596   3.986   5.806
  641SOL     OW 2821   0.252   5.692   5.855
  641SOL    HW1 2822   0.314   5.649   5.920
  641SOL    HW2 2823   0.172   5.633   5.841
  642SOL     OW 2824   0.955   4.930   5.935
  642SOL    HW1 2825   1.003   4.990   5.999
  642SOL    HW2 2826   0.946   4.839   5.976
  643SOL     OW 2827   6.284   6.065   5.199
  643SOL    HW1 2828   6.359   6.026   5.252
  643SOL    HW2 2829   6.201   6.066   5.254
  644SOL     OW 2830   2.486   5.571   2.353
  644SOL    HW1 2831   2.553   5.608   2.417
  644SOL    HW2 2832   2.394   5.599   2.382
  645SOL     OW 2833   6.946   2.879   3.007
  645SOL    HW1 2834   6.969   2.972   2.981
  645SOL    HW2 2835   6.865   2.849   2.956
  646SOL     OW 2836   1.147   2.220   4.322
  646SOL    HW1 2837   1.228   2.187   4.274
  646SOL    HW2 2838   1.160   2.210   4.421
  647SOL     OW 2839   5.295   3.059   0.208
  647SOL    HW1 2840   5.375   3.018   0.165
  647SOL    HW2 2841   5.248   3.119   0.143
  648SOL     OW 2842   4.728   2.143   3.761
  648SOL    HW1 2843   4.702   2.232   3.725
  648SOL    HW2 2844   4.708   2.072   3.693
  649SOL     OW 2845   4.427   4.509   2.279
  649SOL    HW1 2846   4.465   4.440   2.216
  649SOL    HW2 2847   4.462   4.491   2.371
  650SOL     OW 2848   5.094   3.558   0.654
  650SOL    HW1 2849   5.103   3.657   0.655
  650SOL    HW2 2850   5.164   3.518   0.596
  651SOL     OW 2851   0.777   6.344   6.439
  651SOL    HW1 2852   0.710   6.356   6.366
  651SOL    HW2 2853   0.809   6.434   6.471
  652SOL     OW 2854   5.244   1.513   2.469
  652SOL    HW1 2855   5.332   1.530   2.424
  652SOL    HW2 2856   5.171   1.557   2.416
  653SOL     OW 2857   3.377   4.940   3.359
  653SOL    HW1 2858   3.290   4.910   3.319
  653SOL    HW2 2859   3.405   4.876   3.431
  654SOL     OW 2860   6.713   5.256   6.785
  654SOL    HW1 2861   6.672   5.165   6.777
  654SOL    HW2 2862   6.728   5.295   6.694
  655SOL     OW 2863   6.904   1.349   6.636
  655SOL    HW1 2864   6.841   1.425   6.623
  655SOL    HW2 2865   6.855   1.263   6.623
  656SOL     OW 2866   2.578   6.014   1.574
  656SOL    HW1 2867   2.577   6.018   1.474
  656SOL    HW2 2868   2.595   5.919   1.603
  657SOL     OW 2869   3.932   1.221   6.521
  657SOL    HW1 2870   3.921   1.251   6.427
  657SOL    HW2 2871   3.904   1.295   6.583
  658SOL     OW 2872   3.861   4.946   6.007
  658SOL    HW1 2873   3.912   4.936   6.093
  658SOL    HW2 2874   3.919   4.989   5.939
  659SOL     OW 2875   3.174   0.364   6.256
  659SOL    HW1 2876   3.100   0.431   6.253
  659SOL    HW2 2877   3.226   0.375   6.341
  660SOL     OW 2878   3.546   5.891   3.195
  660SOL    HW1 2879   3.500   5.854   3.276
  660SOL    HW2 2880   3.477   5.924   3.130
  661SOL     OW 2881   6.123   5.863   3.037
  661SOL    HW1 2882   6.174   5.805   2.974
  661SOL    HW2 2883   6.183   5.932   3.077
  662SOL     OW 2884   3.791   1.367   0.773
  662SOL    HW1 2885   3.737   1.285   0.796
  662SOL    HW2 2886   3.857   1.384   0.847
  663SOL     OW 2887   1.778   4.711   4.346
  663SOL    HW1 2888   1.856   4.769   4.371
  663SOL    HW2 2889   1.770   4.637   4.413
  664SOL     OW 2890   5.803   0.599   6.688
  664SOL    HW1 2891   5.901   0.584   6.681
  664SOL    HW2 2892   5.785   0.694   6.714
  665SOL     OW 2893   1.697   4.408   2.234
  665SOL    HW1 2894   1.628   4.464   2.188
  665SOL    HW2 2895   1.764   4.376   2.167
  666SOL     OW 2896   4.327   1.444   0.929
  666SOL    HW1 2897   4.320   1.535   0.968
  666SOL    HW2 2898   4.293   1.376   0.995
  667SOL     OW 2899   1.162   6.832   2.252
  667SOL    HW1 2900   1.151   6.732   2.254
  667SOL    HW2 2901   1.086   6.873   2.200
  668SOL     OW 2902   5.537   3.706   0.748
  668SOL    HW1 2903   5.510   3.785   0.803
  668SOL    HW2 2904   5.633   3.716   0.721
  669SOL     OW 2905   4.724   1.923   2.321
  669SOL    HW1 2906   4.641   1.868   2.311
  669SOL    HW2 2907   4.770   1.931   2.233
  670SOL     OW 2908   3.190   2.118   3.189
  670SOL    HW1 2909   3.272   2.114   3.245
  670SOL    HW2 2910   3.115   2.158   3.243
  671SOL     OW 2911   2.629   6.261   1.652
  671SOL    HW1 2912   2.539   6.300   1.673
  671SOL    HW2 2913   2.620   6.163   1.637
  672SOL     OW 2914   1.274   6.612   2.656
  672SOL    HW1 2915   1.215   6.565   2.722
  672SOL    HW2 2916   1.289   6.553   2.577
  673SOL     OW 2917   5.538   6.569   0.591
  673SOL    HW1 2918   5.455   6.599   0.543
  673SOL    HW2 2919   5.594   6.648   0.614
  674SOL     OW 2920   5.680   0.798   4.006
  674SOL    HW1 2921   5.764   0.852   4.013
  674SOL    HW2 2922   5.606   0.856   3.972
  675SOL     OW 2923   0.227   3.753   3.389
  675SOL    HW1 2924   0.241   3.679   3.454
  675SOL    HW2 2925   0.232   3.841   3.436
  676SOL     OW 2926   2.659   6.540   5.891
  676SOL    HW1 2927   2.608   6.496   5.817
  676SOL    HW2 2928   2.597   6.602   5.941
  677SOL     OW 2929   5.775   1.794   1.115
  677SOL    HW1 2930   5.698   1.796   1.051
  677SOL    HW2 2931   5.777   1.705   1.161
  678SOL     OW 2932   0.954   5.200   3.414
  678SOL    HW1 2933   0.974   5.283   3.362
  678SOL    HW2 2934   1.040   5.154   3.438
  679SOL     OW 2935   4.711   2.069   5.284
  679SOL    HW1 2936   4.656   2.039   5.207
  679SOL    HW2 2937   4.741   1.990   5.337
  680SOL     OW 2938   5.981   6.404   4.218
  680SOL    HW1 2939   6.078   6.425   4.207
  680SOL    HW2 2940   5.963   6.383   4.314
  681SOL     OW 2941   4.747   4.731   3.075
  681SOL    HW1 2942   4.712   4.641   3.100
  681SOL    HW2 2943   4.675   4.799   3.084
  682SOL     OW 2944   0.306   1.454   2.916
  682SOL    HW1 2945   0.298   1.499   3.005
  682SOL    HW2 2946   0.400   1.421   2.904
  683SOL     OW 2947   3.458   4.212   1.499
  683SOL    HW1 2948   3.554   4.198   1.522
  683SOL    HW2 2949   3.452   4.264   1.413
  684SOL     OW 2950   6.443   1.275   5.629
  684SOL    HW1 2951   6.505   1.326   5.569
  684SOL    HW2 2952   6.495   1.230   5.701
  685SOL     OW 2953   2.882   6.956   2.676
  685SOL    HW1 2954   2.920   6.965   2.585
  685SOL    HW2 2955   2.865   6.860   2.696
  686SOL     OW 2956   3.871   0.457   5.115
  686SOL    HW1 2957   3.966   0.488   5.120
  686SOL    HW2 2958   3.813   0.532   5.084
  687SOL     OW 2959   0.327   1.880   3.435
  687SOL    HW1 2960   0.230   1.856   3.436
  687SOL    HW2 2961   0.382   1.796   3.443
  688SOL     OW 2962   6.179   1.477   6.830
  688SOL    HW1 2963   6.186   1.577   6.829
  688SOL    HW2 2964   6.084   1.451   6.851
  689SOL     OW 2965   1.897   5.766   6.702
  689SOL    HW1 2966   1.971   5.725   6.755
  689SOL    HW2 2967   1.905   5.866   6.704
  690SOL     OW 2968   5.496   3.617   3.429
  690SOL    HW1 2969   5.494   3.716   3.415
  690SOL    HW2 2970   5.499   3.598   3.527
  691SOL     OW 2971   5.936   1.416   1.057
  691SOL    HW1 2972   5.849   1.429   1.104
  691SOL    HW2 2973   5.920   1.373   0.968
  692SOL     OW 2974   1.640   0.246   4.890
  692SOL    HW1 2975   1.721   0.187   4.881
  692SOL    HW2 2976   1.660   0.335   4.850
  693SOL     OW 2977   5.909   5.950   3.229
  693SOL    HW1 2978   5.824   6.002   3.238
  693SOL    HW2 2979   5.927   5.932   3.132
  694SOL     OW 2980   4.595   5.743   5.538
  694SOL    HW1 2981   4.686   5.742   5.496
  694SOL    HW2 2982   4.597   5.691   5.623
  695SOL     OW 2983   4.547   6.923   4.117
  695SOL    HW1 2984   4.475   6.896   4.181
  695SOL    HW2 2985   4.570   7.019   4.133
  696SOL     OW 2986   5.526   4.104   2.826
  696SOL    HW1 2987   5.480   4.109   2.738
  696SOL    HW2 2988   5.624   4.120   2.814
  697SOL     OW 2989   1.043   6.189   2.209
  697SOL    HW1 2990   1.036   6.116   2.277
  697SOL    HW2 2991   1.011   6.156   2.121
  698SOL     OW 2992   5.550   6.299   6.718
  698SOL    HW1 2993   5.589   6.267   6.805
  698SOL    HW2 2994   5.459   6.260   6.706
  699SOL     OW 2995   3.235   3.282   1.172
  699SOL    HW1 2996   3.229   3.194   1.125
  699SOL    HW2 2997   3.258   3.353   1.105
  700SOL     OW 2998   4.048   0.145   4.363
  700SOL    HW1 2999   3.963   0.163   4.412
  700SOL    HW2 3000   4.115   0.217   4.384
  701SOL     OW 3001   4.993   5.219   1.621
  701SOL    HW1 3002   4.947   5.188   1.538
  701SOL    HW2 3003   4.930   5.275   1.674
  702SOL     OW 3004   3.926   0.754   4.468
  702SOL    HW1 3005   3.973   0.670   4.440
  702SOL    HW2 3006   3.870   0.788   4.393
  703SOL     OW 3007   2.958   2.212   6.832
  703SOL    HW1 3008   3.009   2.175   6.909
  703SOL    HW2 3009   3.018   2.218   6.752
  704SOL     OW 3010   2.965   1.732   5.410
  704SOL    HW1 3011   3.038   1.699   5.350
  704SOL    HW2 3012   2.965   1.832   5.409
  705SOL     OW 3013   0.198   6.801   5.152
  705SOL    HW1 3014   0.248   6.771   5.070
  705SOL    HW2 3015   0.178   6.721   5.209
  706SOL     OW 3016   3.763   1.231   4.327
  706SOL    HW1 3017   3.714   1.172   4.390
  706SOL    HW2 3018   3.848   1.187   4.298
  707SOL     OW 3019   3.218   5.175   4.152
  707SOL    HW1 3020   3.142   5.232   4.121
  707SOL    HW2 3021   3.289   5.233   4.192
  708SOL     OW 3022   5.055   5.924   3.658
  708SOL    HW1 3023   5.030   5.976   3.575
  708SOL    HW2 3024   5.121   5.853   3.634
  709SOL     OW 3025   2.405   0.345   1.013
  709SOL    HW1 3026   2.440   0.320   1.104
  709SOL    HW2 3027   2.334   0.280   0.986
  710SOL     OW 3028   4.946   3.182   1.926
  710SOL    HW1 3029   5.014   3.113   1.901
  710SOL    HW2 3030   4.863   3.136   1.958
  711SOL     OW 3031   6.941   1.996   0.171
  711SOL    HW1 3032   6.979   2.063   0.235
  711SOL    HW2 3033   6.846   2.019   0.151
  712SOL     OW 3034   4.811   3.809   6.801
  712SOL    HW1 3035   4.727   3.797   6.854
  712SOL    HW2 3036   4.865   3.724   6.804
  713SOL     OW 3037   4.467   3.376   5.546
  713SOL    HW1 3038   4.514   3.385   5.458
  713SOL    HW2 3039   4.476   3.281   5.578
  714SOL     OW 3040   5.488   5.774   3.445
  714SOL    HW1 3041   5.586   5.775   3.467
  714SOL    HW2 3042   5.473   5.716   3.365
  715SOL     OW 3043   6.403   4.768   5.157
  715SOL    HW1 3044   6.438   4.820   5.079
  715SOL    HW2 3045   6.478   4.742   5.217
  716SOL     OW 3046   2.596   2.071   3.393
  716SOL    HW1 3047   2.496   2.073   3.389
  716SOL    HW2 3048   2.629   2.142   3.456
  717SOL     OW 3049   5.032   5.133   4.247
  717SOL    HW1 3050   5.032   5.231   4.268
  717SOL    HW2 3051   5.115   5.091   4.284
  718SOL     OW 3052   5.096   2.405   5.302
  718SOL    HW1 3053   5.049   2.334   5.355
  718SOL    HW2 3054   5.144   2.466   5.364
  719SOL     OW 3055   4.865   6.805   3.784
  719SOL    HW1 3056   4.943   6.858   3.750
  719SOL    HW2 3057   4.874   6.710   3.756
  720SOL     OW 3058   2.211   0.792   0.961
  720SOL    HW1 3059   2.235   0.698   0.937
  720SOL    HW2 3060   2.134   0.822   0.905
  721SOL     OW 3061   6.674   2.442   2.207
  721SOL    HW1 3062   6.767   2.467   2.232
  721SOL    HW2 3063   6.670   2.419   2.110
  722SOL     OW 3064   4.933   6.274   0.815
  722SOL    HW1 3065   4.969   6.296   0.724
  722SOL    HW2 3066   4.845   6.227   0.805
  723SOL     OW 3067   2.261   0.502   4.345
  723SOL    HW1 3068   2.323   0.463   4.277
  723SOL    HW2 3069   2.177   0.449   4.348
  724SOL     OW 3070   0.894   2.131   4.062
  724SOL    HW1 3071   0.907   2.032   4.052
  724SOL    HW2 3072   0.877   2.172   3.973
  725SOL     OW 3073   1.642   4.229   2.733
  725SOL    HW1 3074   1.646   4.181   2.821
  725SOL    HW2 3075   1.586   4.311   2.741
  726SOL     OW 3076   1.709   3.477   0.814
  726SOL    HW1 3077   1.623   3.461   0.862
  726SOL    HW2 3078   1.775   3.405   0.838
  727SOL     OW 3079   3.887   5.323   4.903
  727SOL    HW1 3080   3.833   5.284   4.977
  727SOL    HW2 3081   3.890   5.260   4.826
  728SOL     OW 3082   6.500   3.165   3.818
  728SOL    HW1 3083   6.543   3.085   3.775
  728SOL    HW2 3084   6.404   3.170   3.791
  729SOL     OW 3085   0.418   4.100   0.937
  729SOL    HW1 3086   0.449   4.152   1.017
  729SOL    HW2 3087   0.358   4.026   0.967
  730SOL     OW 3088   3.854   0.832   3.291
  730SOL    HW1 3089   3.850   0.929   3.267
  730SOL    HW2 3090   3.765   0.790   3.276
  731SOL     OW 3091   4.445   5.392   4.712
  731SOL    HW1 3092   4.512   5.466   4.708
  731SOL    HW2 3093   4.353   5.431   4.711
  732SOL     OW 3094   3.818   1.182   5.193
  732SOL    HW1 3095   3.748   1.251   5.212
  732SOL    HW2 3096   3.801   1.140   5.104
  733SOL     OW 3097   6.336   5.692   3.181
  733SOL    HW1 3098   6.325   5.713   3.084
  733SOL    HW2 3099   6.431   5.708   3.208
  734SOL     OW 3100   6.234   6.928   2.728
  734SOL    HW1 3101   6.193   6.999   2.785
  734SOL    HW2 3102   6.162   6.872   2.688
  735SOL     OW 3103   4.788   0.068   2.380
  735SOL    HW1 3104   4.855   7.019   2.406
  735SOL    HW2 3105   4.713   0.025   2.330
  736SOL     OW 3106   2.176   1.350   3.781
  736SOL    HW1 3107   2.112   1.301   3.721
  736SOL    HW2 3108   2.126   1.386   3.860
  737SOL     OW 3109   3.673   0.784   6.093
  737SOL    HW1 3110   3.586   0.740   6.119
  737SOL    HW2 3111   3.745   0.715   6.091
  738SOL     OW 3112   2.372   4.871   0.456
  738SOL    HW1 3113   2.447   4.911   0.508
  738SOL    HW2 3114   2.314   4.816   0.516
  739SOL     OW 3115   2.589   6.838   3.869
  739SOL    HW1 3116   2.584   6.831   3.769
  739SOL    HW2 3117   2.684   6.848   3.898
  740SOL     OW 3118   4.919   3.171   2.802
  740SOL    HW1 3119   4.968   3.157   2.716
  740SOL    HW2 3120   4.913   3.085   2.852
  741SOL     OW 3121   2.780   0.617   2.660
  741SOL    HW1 3122   2.734   0.611   2.749
  741SOL    HW2 3123   2.774   0.711   2.626
  742SOL     OW 3124   2.136   6.201   1.998
  742SOL    HW1 3125   2.192   6.284   1.996
  742SOL    HW2 3126   2.046   6.222   1.959
  743SOL     OW 3127   0.419   6.832   3.119
  743SOL    HW1 3128   0.453   6.831   3.025
  743SOL    HW2 3129   0.328   6.874   3.122
  744SOL     OW 3130   5.026   1.943   7.005
  744SOL    HW1 3131   4.971   2.024   6.985
  744SOL    HW2 3132   5.041   1.936   0.083
  745SOL     OW 3133   1.858   0.086   4.824
  745SOL    HW1 3134   1.950   0.050   4.844
  745SOL    HW2 3135   1.858   0.129   4.734
  746SOL     OW 3136   0.508   4.800   5.271
  746SOL    HW1 3137   0.573   4.779   5.198
  746SOL    HW2 3138   0.436   4.860   5.236
  747SOL     OW 3139   4.803   5.857   2.561
  747SOL    HW1 3140   4.811   5.771   2.510
  747SOL    HW2 3141   4.763   5.927   2.502
  748SOL     OW 3142   5.403   5.244   1.678
  748SOL    HW1 3143   5.390   5.343   1.677
  748SOL    HW2 3144   5.319   5.200   1.712
  749SOL     OW 3145   4.821   4.113   4.983
  749SOL    HW1 3146   4.774   4.141   4.899
  749SOL    HW2 3147   4.876   4.031   4.964
  750SOL     OW 3148   2.712   1.936   2.273
  750SOL    HW1 3149   2.764   2.016   2.304
  750SOL    HW2 3150   2.658   1.900   2.349
  751SOL     OW 3151   3.335   0.542   0.378
  751SOL    HW1 3152   3.400   0.618   0.377
  751SOL    HW2 3153   3.368   0.469   0.317
  752SOL     OW 3154   3.684   2.636   5.272
  752SOL    HW1 3155   3.755   2.687   5.224
  752SOL    HW2 3156   3.594   2.662   5.236
  753SOL     OW 3157   3.440   3.862   4.072
  753SOL    HW1 3158   3.457   3.881   3.976
  753SOL    HW2 3159   3.364   3.796   4.080
  754SOL     OW 3160   5.599   0.648   0.190
  754SOL    HW1 3161   5.698   0.631   0.190
  754SOL    HW2 3162   5.550   0.566   0.161
  755SOL     OW 3163   4.349   4.264   5.363
  755SOL    HW1 3164   4.314   4.308   5.281
  755SOL    HW2 3165   4.278   4.206   5.404
  756SOL     OW 3166   2.426   5.171   6.198
  756SOL    HW1 3167   2.443   5.212   6.108
  756SOL    HW2 3168   2.432   5.242   6.268
  757SOL     OW 3169   2.168   6.249   2.380
  757SOL    HW1 3170   2.116   6.227   2.462
  757SOL    HW2 3171   2.159   6.175   2.313
  758SOL     OW 3172   4.676   0.622   4.326
  758SOL    HW1 3173   4.682   0.581   4.235
  758SOL    HW2 3174   4.589   0.670   4.335
  759SOL     OW 3175   1.014   3.574   3.705
  759SOL    HW1 3176   1.083   3.502   3.714
  759SOL    HW2 3177   0.934   3.537   3.657
  760SOL     OW 3178   6.792   5.334   3.418
  760SOL    HW1 3179   6.732   5.306   3.343
  760SOL    HW2 3180   6.887   5.330   3.389
  761SOL     OW 3181   4.195   4.455   6.353
  761SOL    HW1 3182   4.169   4.512   6.275
  761SOL    HW2 3183   4.226   4.366   6.320
  762SOL     OW 3184   3.191   6.144   3.528
  762SOL    HW1 3185   3.276   6.094   3.514
  762SOL    HW2 3186   3.148   6.161   3.439
  763SOL     OW 3187   5.292   0.657   0.352
  763SOL    HW1 3188   5.245   0.745   0.343
  763SOL    HW2 3189   5.386   0.666   0.317
  764SOL     OW 3190   5.209   6.501   5.649
  764SOL    HW1 3191   5.159   6.524   5.566
  764SOL    HW2 3192   5.144   6.477   5.721
  765SOL     OW 3193   6.771   0.029   0.684
  765SOL    HW1 3194   6.819   0.111   0.715
  765SOL    HW2 3195   6.824   6.968   0.707
  766SOL     OW 3196   2.365   2.232   4.463
  766SOL    HW1 3197   2.364   2.158   4.530
  766SOL    HW2 3198   2.458   2.270   4.456
  767SOL     OW 3199   6.502   5.303   4.549
  767SOL    HW1 3200   6.475   5.208   4.532
  767SOL    HW2 3201   6.592   5.319   4.510
  768SOL     OW 3202   1.684   5.106   3.109
  768SOL    HW1 3203   1.638   5.193   3.127
  768SOL    HW2 3204   1.771   5.123   3.062
  769SOL     OW 3205   3.021   2.050   5.428
  769SOL    HW1 3206   3.035   2.139   5.471
  769SOL    HW2 3207   3.060   2.051   5.336
  770SOL     OW 3208   1.053   5.112   6.164
  770SOL    HW1 3209   0.987   5.136   6.235
  770SOL    HW2 3210   1.145   5.139   6.193
  771SOL     OW 3211   1.452   4.980   2.745
  771SOL    HW1 3212   1.365   4.953   2.787
  771SOL    HW2 3213   1.434   5.047   2.672
  772SOL     OW 3214   6.118   3.963   0.227
  772SOL    HW1 3215   6.057   3.918   0.292
  772SOL    HW2 3216   6.183   4.020   0.276
  773SOL     OW 3217   1.770   4.300   3.812
  773SOL    HW1 3218   1.843   4.284   3.878
  773SOL    HW2 3219   1.810   4.305   3.720
  774SOL     OW 3220   2.214   0.786   3.440
  774SOL    HW1 3221   2.237   0.752   3.349
  774SOL    HW2 3222   2.225   0.885   3.442
  775SOL     OW 3223   1.222   4.575   2.887
  775SOL    HW1 3224   1.296   4.641   2.904
  775SOL    HW2 3225   1.240   4.527   2.801
  776SOL     OW 3226   2.339   5.317   5.765
  776SOL    HW1 3227   2.312   5.372   5.845
  776SOL    HW2 3228   2.436   5.295   5.771
  777SOL     OW 3229   2.262   4.022   6.220
  777SOL    HW1 3230   2.220   4.082   6.151
  777SOL    HW2 3231   2.250   3.927   6.193
  778SOL     OW 3232   2.787   5.984   6.939
  778SOL    HW1 3233   2.885   5.988   6.921
  778SOL    HW2 3234   2.761   6.057   7.002
  779SOL     OW 3235   6.195   2.588   2.745
  779SOL    HW1 3236   6.211   2.496   2.709
  779SOL    HW2 3237   6.102   2.617   2.723
  780SOL     OW 3238   6.689   2.182   4.857
  780SOL    HW1 3239   6.687   2.265   4.802
  780SOL    HW2 3240   6.597   2.162   4.891
  781SOL     OW 3241   0.064   4.610   6.410
  781SOL    HW1 3242   0.030   4.610   6.504
  781SOL    HW2 3243   7.010   4.579   6.349
  782SOL     OW 3244   1.636   3.569   4.815
  782SOL    HW1 3245   1.548   3.535   4.782
  782SOL    HW2 3246   1.653   3.661   4.778
  783SOL     OW 3247   6.506   4.838   6.950
  783SOL    HW1 3248   6.418   4.801   6.982
  783SOL    HW2 3249   6.526   4.922   7.001
  784SOL     OW 3250   2.307   6.130   0.536
  784SOL    HW1 3251   2.240   6.141   0.462
  784SOL    HW2 3252   2.270   6.166   0.621
  785SOL     OW 3253   0.633   1.054   4.202
  785SOL    HW1 3254   0.673   0.970   4.164
  785SOL    HW2 3255   0.536   1.039   4.222
  786SOL     OW 3256   6.158   0.629   4.208
  786SOL    HW1 3257   6.187   0.565   4.137
  786SOL    HW2 3258   6.062   0.612   4.231
  787SOL     OW 3259   2.464   6.870   1.083
  787SOL    HW1 3260   2.544   6.923   1.111
  787SOL    HW2 3261   2.426   6.908   0.999
  788SOL     OW 3262   1.843   2.491   1.883
  788SOL    HW1 3263   1.926   2.448   1.919
  788SOL    HW2 3264   1.827   2.460   1.789
  789SOL     OW 3265   4.296   4.751   2.724
  789SOL    HW1 3266   4.326   4.772   2.631
  789SOL    HW2 3267   4.351   4.675   2.759
  790SOL     OW 3268   0.815   2.922   2.014
  790SOL    HW1 3269   0.885   2.993   2.022
  790SOL    HW2 3270   0.857   2.832   2.022
  791SOL     OW 3271   2.755   6.558   4.009
  791SOL    HW1 3272   2.796   6.605   3.931
  791SOL    HW2 3273   2.661   6.531   3.986
  792SOL     OW 3274   1.889   0.268   6.902
  792SOL    HW1 3275   1.876   0.179   6.859
  792SOL    HW2 3276   1.826   0.334   6.860
  793SOL     OW 3277   2.622   6.476   4.441
  793SOL    HW1 3278   2.670   6.414   4.379
  793SOL    HW2 3279   2.673   6.484   4.526
  794SOL     OW 3280   2.886   3.371   2.517
  794SOL    HW1 3281   2.857   3.406   2.606
  794SOL    HW2 3282   2.917   3.277   2.526
  795SOL     OW 3283   4.484   0.966   6.045
  795SOL    HW1 3284   4.513   0.963   5.949
  795SOL    HW2 3285   4.462   0.874   6.076
  796SOL     OW 3286   0.420   2.478   0.553
  796SOL    HW1 3287   0.502   2.501   0.605
  796SOL    HW2 3288   0.384   2.561   0.510
  797SOL     OW 3289   3.664   6.890   1.174
  797SOL    HW1 3290   3.720   6.916   1.096
  797SOL    HW2 3291   3.572   6.864   1.143
  798SOL     OW 3292   5.458   5.450   1.396
  798SOL    HW1 3293   5.533   5.516   1.384
  798SOL    HW2 3294   5.401   5.477   1.473
  799SOL     OW 3295   2.703   2.434   5.581
  799SOL    HW1 3296   2.771   2.495   5.539
  799SOL    HW2 3297   2.707   2.443   5.680
  800SOL     OW 3298   5.425   2.984   3.272
  800SOL    HW1 3299   5.456   2.890   3.286
  800SOL    HW2 3300   5.505   3.044   3.265
  801SOL     OW 3301   1.839   6.217   6.525
  801SOL    HW1 3302   1.850   6.301   6.471
  801SOL    HW2 3303   1.752   6.175   6.503
  802SOL     OW 3304   4.894   1.997   6.610
  802SOL    HW1 3305   4.828   2.000   6.685
  802SOL    HW2 3306   4.934   1.906   6.605
  803SOL     OW 3307   2.355   1.794   4.340
  803SOL    HW1 3308   2.306   1.876   4.312
  803SOL    HW2 3309   2.335   1.774   4.436
  804SOL     OW 3310   5.158   0.525   2.798
  804SOL    HW1 3311   5.132   0.524   2.895
  804SOL    HW2 3312   5.080   0.496   2.743
  805SOL     OW 3313   3.347   0.445   3.982
  805SOL    HW1 3314   3.414   0.436   4.055
  805SOL    HW2 3315   3.317   0.541   3.976
  806SOL     OW 3316   3.098   6.256   5.280
  806SOL    HW1 3317   3.041   6.339   5.285
  806SOL    HW2 3318   3.158   6.262   5.201
  807SOL     OW 3319   1.054   6.405   5.929
  807SOL    HW1 3320   0.993   6.369   5.858
  807SOL    HW2 3321   1.011   6.483   5.974
  808SOL     OW 3322   5.359   2.604   5.964
  808SOL    HW1 3323   5.371   2.671   5.891
  808SOL    HW2 3324   5.261   2.590   5.979
  809SOL     OW 3325   2.817   5.321   0.228
  809SOL    HW1 3326   2.865   5.245   0.184
  809SOL    HW2 3327   2.781   5.291   0.317
  810SOL     OW 3328   3.643   3.603   0.200
  810SOL    HW1 3329   3.679   3.525   0.149
  810SOL    HW2 3330   3.577   3.652   0.143
  811SOL     OW 3331   6.309   5.283   4.775
  811SOL    HW1 3332   6.393   5.269   4.723
  811SOL    HW2 3333   6.332   5.304   4.870
  812SOL     OW 3334   0.792   3.768   1.730
  812SOL    HW1 3335   0.724   3.728   1.668
  812SOL    HW2 3336   0.883   3.751   1.695
  813SOL     OW 3337   1.617   1.654   5.672
  813SOL    HW1 3338   1.598   1.723   5.602
  813SOL    HW2 3339   1.708   1.616   5.657
  814SOL     OW 3340   0.539   4.447   2.633
  814SOL    HW1 3341   0.573   4.475   2.723
  814SOL    HW2 3342   0.465   4.508   2.605
  815SOL     OW 3343   4.182   1.780   4.828
  815SOL    HW1 3344   4.122   1.853   4.797
  815SOL    HW2 3345   4.188   1.782   4.928
  816SOL     OW 3346   5.924   3.830   6.452
  816SOL    HW1 3347   5.943   3.928   6.436
  816SOL    HW2 3348   5.832   3.819   6.489
  817SOL     OW 3349   0.465   5.165   6.893
  817SOL    HW1 3350   0.429   5.115   6.815
  817SOL    HW2 3351   0.427   5.126   6.977
  818SOL     OW 3352   0.131   2.489   5.173
  818SOL    HW1 3353   0.230   2.494   5.158
  818SOL    HW2 3354   0.099   2.397   5.148
  819SOL     OW 3355   4.697   3.221   1.651
  819SOL    HW1 3356   4.765   3.286   1.684
  819SOL    HW2 3357   4.667   3.162   1.726
  820SOL     OW 3358   2.481   1.975   5.399
  820SOL    HW1 3359   2.542   1.953   5.475
  820SOL    HW2 3360   2.468   1.894   5.342
  821SOL     OW 3361   5.187   3.333   6.796
  821SOL    HW1 3362   5.259   3.398   6.771
  821SOL    HW2 3363   5.185   3.259   6.730
  822SOL     OW 3364   0.347   4.794   3.157
  822SOL    HW1 3365   0.369   4.701   3.129
  822SOL    HW2 3366   0.248   4.804   3.167
  823SOL     OW 3367   1.507   3.004   5.072
  823SOL    HW1 3368   1.598   2.968   5.090
  823SOL    HW2 3369   1.439   2.935   5.097
  824SOL     OW 3370   5.219   0.368   6.483
  824SOL    HW1 3371   5.151   0.330   6.421
  824SOL    HW2 3372   5.177   0.386   6.572
  825SOL     OW 3373   6.082   6.329   0.987
  825SOL    HW1 3374   5.986   6.328   0.961
  825SOL    HW2 3375   6.090   6.306   1.084
  826SOL     OW 3376   3.434   2.167   0.205
  826SOL    HW1 3377   3.498   2.173   0.281
  826SOL    HW2 3378   3.355   2.111   0.232
  827SOL     OW 3379   3.647   3.688   5.348
  827SOL    HW1 3380   3.580   3.743   5.300
  827SOL    HW2 3381   3.717   3.747   5.388
  828SOL     OW 3382   0.134   6.660   6.366
  828SOL    HW1 3383   0.061   6.593   6.361
  828SOL    HW2 3384   0.113   6.738   6.307
  829SOL     OW 3385   3.832   3.394   2.316
  829SOL    HW1 3386   3.739   3.407   2.351
  829SOL    HW2 3387   3.868   3.481   2.282
  830SOL     OW 3388   6.704   4.331   6.788
  830SOL    HW1 3389   6.716   4.424   6.823
  830SOL    HW2 3390   6.743   4.266   6.853
  831SOL     OW 3391   5.008   0.686   1.998
  831SOL    HW1 3392   5.070   0.688   2.076
  831SOL    HW2 3393   5.013   0.774   1.949
  832SOL     OW 3394   2.884   1.444   4.809
  832SOL    HW1 3395   2.823   1.386   4.864
  832SOL    HW2 3396   2.978   1.410   4.816
  833SOL     OW 3397   3.964   2.650   0.029
  833SOL    HW1 3398   4.016   2.715   6.994
  833SOL    HW2 3399   3.991   2.658   0.125
  834SOL     OW 3400   5.899   2.425   0.629
  834SOL    HW1 3401   5.991   2.386   0.623
  834SOL    HW2 3402   5.898   2.515   0.586
  835SOL     OW 3403   0.065   0.046   5.018
  835SOL    HW1 3404   0.142   0.108   5.027
  835SOL    HW2 3405   0.090   6.975   5.052
  836SOL     OW 3406   4.889   0.891   5.074
  836SOL    HW1 3407   4.936   0.923   4.993
  836SOL    HW2 3408   4.795   0.927   5.075
  837SOL     OW 3409   1.651   0.552   0.043
  837SOL    HW1 3410   1.671   0.499   6.981
  837SOL    HW2 3411   1.562   0.525   0.079
  838SOL     OW 3412   1.142   5.803   3.536
  838SOL    HW1 3413   1.088   5.872   3.585
  838SOL    HW2 3414   1.153   5.723   3.595
  839SOL     OW 3415   1.504   2.082   0.234
  839SOL    HW1 3416   1.584   2.088   0.294
  839SOL    HW2 3417   1.425   2.050   0.286
  840SOL     OW 3418   4.514   4.983   0.436
  840SOL    HW1 3419   4.601   4.987   0.387
  840SOL    HW2 3420   4.475   4.891   0.426
  841SOL     OW 3421   3.047   5.179   0.188
  841SOL    HW1 3422   3.079   5.206   0.279
  841SOL    HW2 3423   3.063   5.081   0.175
  842SOL     OW 3424   4.419   5.365   1.158
  842SOL    HW1 3425   4.403   5.463   1.158
  842SOL    HW2 3426   4.382   5.324   1.241
  843SOL     OW 3427   1.374   0.400   2.136
  843SOL    HW1 3428   1.297   0.454   2.103
  843SOL    HW2 3429   1.348   0.351   2.219
  844SOL     OW 3430   0.045   0.353   1.286
  844SOL    HW1 3431   7.001   0.425   1.256
  844SOL    HW2 3432   0.047   0.280   1.217
  845SOL     OW 3433   3.132   1.794   2.725
  845SOL    HW1 3434   3.071   1.870   2.750
  845SOL    HW2 3435   3.104   1.756   2.637
  846SOL     OW 3436   2.851   2.063   0.744
  846SOL    HW1 3437   2.879   2.075   0.839
  846SOL    HW2 3438   2.852   2.152   0.698
  847SOL     OW 3439   2.708   3.633   1.502
  847SOL    HW1 3440   2.798   3.643   1.460
  847SOL    HW2 3441   2.715   3.576   1.584
  848SOL     OW 3442   6.695   6.431   0.473
  848SOL    HW1 3443   6.762   6.440   0.547
  848SOL    HW2 3444   6.615   6.381   0.506
  849SOL     OW 3445   5.908   3.298   6.758
  849SOL    HW1 3446   5.949   3.207   6.753
  849SOL    HW2 3447   5.886   3.330   6.666
  850SOL     OW 3448   1.194   1.202   4.964
  850SOL    HW1 3449   1.285   1.224   5.001
  850SOL    HW2 3450   1.132   1.181   5.040
  851SOL     OW 3451   5.523   3.340   5.768
  851SOL    HW1 3452   5.616   3.306   5.758
  851SOL    HW2 3453   5.482   3.300   5.850
  852SOL     OW 3454   0.302   3.805   2.084
  852SOL    HW1 3455   0.386   3.781   2.133
  852SOL    HW2 3456   0.225   3.803   2.148
  853SOL     OW 3457   2.698   3.081   0.688
  853SOL    HW1 3458   2.652   2.999   0.655
  853SOL    HW2 3459   2.724   3.068   0.784
  854SOL     OW 3460   5.866   6.035   5.727
  854SOL    HW1 3461   5.935   6.019   5.657
  854SOL    HW2 3462   5.893   6.114   5.783
  855SOL     OW 3463   5.895   1.541   6.951
  855SOL    HW1 3464   5.915   1.555   0.027
  855SOL    HW2 3465   5.863   1.626   6.910
  856SOL     OW 3466   2.088   4.950   1.763
  856SOL    HW1 3467   2.013   4.917   1.822
  856SOL    HW2 3468   2.164   4.979   1.821
  857SOL     OW 3469   6.888   5.962   4.988
  857SOL    HW1 3470   6.851   6.043   4.941
  857SOL    HW2 3471   6.820   5.888   4.986
  858SOL     OW 3472   4.313   3.566   0.116
  858SOL    HW1 3473   4.293   3.492   0.181
  858SOL    HW2 3474   4.232   3.624   0.106
  859SOL     OW 3475   5.275   6.208   4.954
  859SOL    HW1 3476   5.300   6.126   4.902
  859SOL    HW2 3477   5.184   6.197   4.992
  860SOL     OW 3478   4.975   2.712   6.527
  860SOL    HW1 3479   4.969   2.613   6.517
  860SOL    HW2 3480   5.048   2.735   6.591
  861SOL     OW 3481   1.787   5.554   1.657
  861SOL    HW1 3482   1.705   5.610   1.668
  861SOL    HW2 3483   1.789   5.483   1.727
  862SOL     OW 3484   0.530   4.286   3.880
  862SOL    HW1 3485   0.579   4.249   3.800
  862SOL    HW2 3486   0.450   4.337   3.849
  863SOL     OW 3487   6.028   0.608   1.728
  863SOL    HW1 3488   6.097   0.673   1.761
  863SOL    HW2 3489   6.068   0.516   1.726
  864SOL     OW 3490   5.788   6.663   3.537
  864SOL    HW1 3491   5.690   6.667   3.521
  864SOL    HW2 3492   5.820   6.568   3.532
  865SOL     OW 3493   1.597   6.036   5.498
  865SOL    HW1 3494   1.689   6.074   5.512
  865SOL    HW2 3495   1.548   6.089   5.429
  866SOL     OW 3496   3.660   0.145   1.893
  866SOL    HW1 3497   3.599   0.150   1.972
  866SOL    HW2 3498   3.747   0.189   1.915
  867SOL     OW 3499   6.090   1.759   5.759
  867SOL    HW1 3500   6.120   1.722   5.671
  867SOL    HW2 3501   6.102   1.689   5.830
  868SOL     OW 3502   0.147   2.388   1.592
  868SOL    HW1 3503   0.098   2.444   1.658
  868SOL    HW2 3504   0.235   2.429   1.571
  869SOL     OW 3505   0.178   3.788   3.862
  869SOL    HW1 3506   0.221   3.875   3.839
  869SOL    HW2 3507   0.080   3.792   3.840
  870SOL     OW 3508   3.725   5.125   2.115
  870SOL    HW1 3509   3.698   5.114   2.019
  870SOL    HW2 3510   3.694   5.214   2.148
  871SOL     OW 3511   4.831   1.496   3.210
  871SOL    HW1 3512   4.782   1.574   3.250
  871SOL    HW2 3513   4.922   1.524   3.182
  872SOL     OW 3514   1.106   2.316   4.910
  872SOL    HW1 3515   1.116   2.283   4.815
  872SOL    HW2 3516   1.150   2.405   4.919
  873SOL     OW 3517   4.302   0.406   6.001
  873SOL    HW1 3518   4.375   0.463   6.040
  873SOL    HW2 3519   4.341   0.344   5.933
  874SOL     OW 3520   4.922   3.668   1.560
  874SOL    HW1 3521   4.994   3.732   1.532
  874SOL    HW2 3522   4.909   3.599   1.488
  875SOL     OW 3523   4.776   5.456   1.433
  875SOL    HW1 3524   4.740   5.528   1.374
  875SOL    HW2 3525   4.701   5.395   1.461
  876SOL     OW 3526   7.013   0.234   0.762
  876SOL    HW1 3527   0.068   0.177   0.795
  876SOL    HW2 3528   6.961   0.268   0.841
  877SOL     OW 3529   2.170   3.611   6.392
  877SOL    HW1 3530   2.143   3.514   6.397
  877SOL    HW2 3531   2.123   3.662   6.465
  878SOL     OW 3532   3.817   6.378   4.541
  878SOL    HW1 3533   3.862   6.397   4.454
  878SOL    HW2 3534   3.882   6.391   4.616
  879SOL     OW 3535   5.562   0.114   0.417
  879SOL    HW1 3536   5.512   0.028   0.413
  879SOL    HW2 3537   5.660   0.097   0.401
  880SOL     OW 3538   2.823   3.436   2.250
  880SOL    HW1 3539   2.829   3.535   2.256
  880SOL    HW2 3540   2.829   3.396   2.341
  881SOL     OW 3541   4.432   1.554   0.278
  881SOL    HW1 3542   4.528   1.570   0.254
  881SOL    HW2 3543   4.421   1.558   0.377
  882SOL     OW 3544   1.540   3.199   4.589
  882SOL    HW1 3545   1.502   3.157   4.671
  882SOL    HW2 3546   1.635   3.169   4.577
  883SOL     OW 3547   2.634   0.034   3.045
  883SOL    HW1 3548   2.691   0.085   3.109
  883SOL    HW2 3549   2.689   6.982   3.002
  884SOL     OW 3550   4.045   3.576   5.563
  884SOL    HW1 3551   3.969   3.520   5.594
  884SOL    HW2 3552   4.117   3.518   5.525
  885SOL     OW 3553   4.160   2.691   6.498
  885SOL    HW1 3554   4.162   2.658   6.404
  885SOL    HW2 3555   4.082   2.751   6.511
  886SOL     OW 3556   3.544   0.657   6.708
  886SOL    HW1 3557   3.574   0.750   6.728
  886SOL    HW2 3558   3.590   0.593   6.769
  887SOL     OW 3559   4.957   1.737   4.801
  887SOL    HW1 3560   5.019   1.787   4.740
  887SOL    HW2 3561   4.905   1.802   4.857
  888SOL     OW 3562   6.707   6.728   3.046
  888SOL    HW1 3563   6.736   6.742   2.951
  888SOL    HW2 3564   6.707   6.815   3.095
  889SOL     OW 3565   0.770   4.038   6.837
  889SOL    HW1 3566   0.758   4.067   6.742
  889SOL    HW2 3567   0.855   3.985   6.845
  890SOL     OW 3568   2.459   5.222   4.061
  890SOL    HW1 3569   2.362   5.244   4.057
  890SOL    HW2 3570   2.509   5.279   3.994
  891SOL     OW 3571   4.876   5.902   1.612
  891SOL    HW1 3572   4.831   5.828   1.563
  891SOL    HW2 3573   4.930   5.864   1.688
  892SOL     OW 3574   2.923   4.475   0.730
  892SOL    HW1 3575   2.868   4.555   0.753
  892SOL    HW2 3576   2.946   4.424   0.813
  893SOL     OW 3577   1.778   6.388   2.341
  893SOL    HW1 3578   1.843   6.432   2.279
  893SOL    HW2 3579   1.771   6.291   2.319
  894SOL     OW 3580   0.766   4.204   1.185
  894SOL    HW1 3581   0.808   4.267   1.250
  894SOL    HW2 3582   0.673   4.236   1.164
  895SOL     OW 3583   0.423   5.765   4.210
  895SOL    HW1 3584   0.448   5.844   4.153
  895SOL    HW2 3585   0.329   5.775   4.241
  896SOL     OW 3586   0.166   0.311   6.365
  896SOL    HW1 3587   0.113   0.230   6.337
  896SOL    HW2 3588   0.224   0.287   6.442
  897SOL     OW 3589   5.014   0.693   0.069
  897SOL    HW1 3590   5.105   0.669   0.102
  897SOL    HW2 3591   5.003   0.663   6.994
  898SOL     OW 3592   4.434   6.492   3.363
  898SOL    HW1 3593   4.502   6.420   3.381
  898SOL    HW2 3594   4.420   6.545   3.446
  899SOL     OW 3595   0.056   4.845   0.359
  899SOL    HW1 3596   0.015   4.927   0.401
  899SOL    HW2 3597   7.013   4.768   0.368
  900SOL     OW 3598   5.264   5.266   0.681
  900SOL    HW1 3599   5.333   5.211   0.729
  900SOL    HW2 3600   5.302   5.356   0.660
  901SOL     OW 3601   1.393   0.754   2.498
  901SOL    HW1 3602   1.476   0.701   2.481
  901SOL    HW2 3603   1.317   0.713   2.446
  902SOL     OW 3604   6.025   3.611   1.615
  902SOL    HW1 3605   5.935   3.591   1.576
  902SOL    HW2 3606   6.025   3.585   1.712
  903SOL     OW 3607   0.266   2.279   0.805
  903SOL    HW1 3608   0.210   2.196   0.794
  903SOL    HW2 3609   0.342   2.276   0.741
  904SOL     OW 3610   3.069   1.373   1.783
  904SOL    HW1 3611   3.134   1.405   1.852
  904SOL    HW2 3612   3.074   1.432   1.702
  905SOL     OW 3613   6.113   2.970   6.330
  905SOL    HW1 3614   6.212   2.957   6.340
  905SOL    HW2 3615   6.070   2.881   6.310
  906SOL     OW 3616   5.901   3.387   6.492
  906SOL    HW1 3617   5.817   3.413   6.446
  906SOL    HW2 3618   5.945   3.312   6.442
  907SOL     OW 3619   5.041   3.971   6.645
  907SOL    HW1 3620   4.999   4.043   6.700
  907SOL    HW2 3621   4.972   3.904   6.619
  908SOL     OW 3622   1.271   4.448   2.653
  908SOL    HW1 3623   1.215   4.380   2.701
  908SOL    HW2 3624   1.248   4.447   2.555
  909SOL     OW 3625   5.458   5.166   6.277
  909SOL    HW1 3626   5.508   5.165   6.191
  909SOL    HW2 3627   5.450   5.260   6.309
  910SOL     OW 3628   2.780   4.475   1.110
  910SOL    HW1 3629   2.737   4.404   1.054
  910SOL    HW2 3630   2.860   4.437   1.156
  911SOL     OW 3631   0.837   5.211   6.426
  911SOL    HW1 3632   0.774   5.264   6.483
  911SOL    HW2 3633   0.922   5.196   6.476
  912SOL     OW 3634   5.106   1.902   3.617
  912SOL    HW1 3635   5.088   1.909   3.519
  912SOL    HW2 3636   5.019   1.888   3.666
  913SOL     OW 3637   5.373   6.674   2.790
  913SOL    HW1 3638   5.338   6.585   2.760
  913SOL    HW2 3639   5.317   6.708   2.866
  914SOL     OW 3640   3.140   0.050   6.600
  914SOL    HW1 3641   3.191   0.082   6.520
  914SOL    HW2 3642   3.189   0.076   6.683
  915SOL     OW 3643   5.115   5.546   0.874
  915SOL    HW1 3644   5.163   5.615   0.820
  915SOL    HW2 3645   5.069   5.481   0.813
  916SOL     OW 3646   1.678   2.440   2.688
  916SOL    HW1 3647   1.772   2.463   2.715
  916SOL    HW2 3648   1.660   2.474   2.596
  917SOL     OW 3649   6.832   6.197   0.798
  917SOL    HW1 3650   6.892   6.187   0.877
  917SOL    HW2 3651   6.737   6.205   0.829
  918SOL     OW 3652   2.561   5.649   0.329
  918SOL    HW1 3653   2.567   5.551   0.344
  918SOL    HW2 3654   2.473   5.670   0.285
  919SOL     OW 3655   6.062   2.037   4.807
  919SOL    HW1 3656   6.047   2.136   4.815
  919SOL    HW2 3657   5.976   1.989   4.826
  920SOL     OW 3658   2.977   5.138   2.600
  920SOL    HW1 3659   3.049   5.165   2.537
  920SOL    HW2 3660   2.980   5.039   2.616
  921SOL     OW 3661   4.644   5.224   5.219
  921SOL    HW1 3662   4.648   5.165   5.138
  921SOL    HW2 3663   4.700   5.305   5.205
  922SOL     OW 3664   3.806   3.052   3.597
  922SOL    HW1 3665   3.877   2.998   3.552
  922SOL    HW2 3666   3.716   3.025   3.562
  923SOL     OW 3667   2.277   3.515   5.321
  923SOL    HW1 3668   2.334   3.597   5.324
  923SOL    HW2 3669   2.319   3.447   5.261
  924SOL     OW 3670   0.037   3.568   2.367
  924SOL    HW1 3671   0.112   3.542   2.305
  924SOL    HW2 3672   7.020   3.486   2.409
  925SOL     OW 3673   0.243   1.735   0.299
  925SOL    HW1 3674   0.150   1.722   0.331
  925SOL    HW2 3675   0.245   1.734   0.199
  926SOL     OW 3676   1.728   1.782   2.254
  926SOL    HW1 3677   1.649   1.727   2.279
  926SOL    HW2 3678   1.808   1.750   2.304
  927SOL     OW 3679   6.392   3.474   4.296
  927SOL    HW1 3680   6.355   3.516   4.379
  927SOL    HW2 3681   6.406   3.545   4.226
  928SOL     OW 3682   3.635   4.416   6.336
  928SOL    HW1 3683   3.649   4.342   6.403
  928SOL    HW2 3684   3.668   4.502   6.374
  929SOL     OW 3685   0.359   1.583   5.022
  929SOL    HW1 3686   0.298   1.655   5.055
  929SOL    HW2 3687   0.305   1.505   4.990
  930SOL     OW 3688   5.144   5.069   5.454
  930SOL    HW1 3689   5.065   5.063   5.516
  930SOL    HW2 3690   5.155   5.164   5.424
  931SOL     OW 3691   6.653   1.670   2.958
  931SOL    HW1 3692   6.732   1.671   2.896
  931SOL    HW2 3693   6.685   1.681   3.052
  932SOL     OW 3694   3.953   0.543   3.510
  932SOL    HW1 3695   3.999   0.612   3.454
  932SOL    HW2 3696   3.876   0.505   3.459
  933SOL     OW 3697   1.259   5.629   2.054
  933SOL    HW1 3698   1.310   5.601   2.136
  933SOL    HW2 3699   1.297   5.715   2.019
  934SOL     OW 3700   1.820   3.733   0.138
  934SOL    HW1 3701   1.771   3.813   0.172
  934SOL    HW2 3702   1.789   3.712   0.045
  935SOL     OW 3703   6.129   2.909   4.449
  935SOL    HW1 3704   6.048   2.902   4.507
  935SOL    HW2 3705   6.140   3.004   4.419
  936SOL     OW 3706   1.579   0.049   6.103
  936SOL    HW1 3707   1.639   0.126   6.082
  936SOL    HW2 3708   1.493   0.060   6.054
  937SOL     OW 3709   3.551   2.256   6.095
  937SOL    HW1 3710   3.489   2.271   6.172
  937SOL    HW2 3711   3.556   2.339   6.040
  938SOL     OW 3712   6.076   5.610   4.490
  938SOL    HW1 3713   6.010   5.684   4.506
  938SOL    HW2 3714   6.167   5.649   4.475
  939SOL     OW 3715   0.146   6.409   6.059
  939SOL    HW1 3716   0.227   6.463   6.034
  939SOL    HW2 3717   0.101   6.451   6.137
  940SOL     OW 3718   2.227   4.947   0.003
  940SOL    HW1 3719   2.196   4.887   0.077
  940SOL    HW2 3720   2.177   4.924   6.939
  941SOL     OW 3721   3.609   6.983   0.391
  941SOL    HW1 3722   3.690   0.008   0.354
  941SOL    HW2 3723   3.584   0.006   0.478
  942SOL     OW 3724   0.163   5.335   0.470
  942SOL    HW1 3725   0.172   5.326   0.569
  942SOL    HW2 3726   0.072   5.303   0.442
  943SOL     OW 3727   3.551   5.789   1.805
  943SOL    HW1 3728   3.500   5.715   1.760
  943SOL    HW2 3729   3.492   5.868   1.817
  944SOL     OW 3730   6.116   6.628   4.413
  944SOL    HW1 3731   6.040   6.655   4.353
  944SOL    HW2 3732   6.190   6.693   4.404
  945SOL     OW 3733   0.669   5.199   0.217
  945SOL    HW1 3734   0.745   5.233   0.161
  945SOL    HW2 3735   0.585   5.246   0.192
  946SOL     OW 3736   5.412   2.238   4.547
  946SOL    HW1 3737   5.422   2.139   4.533
  946SOL    HW2 3738   5.490   2.285   4.507
  947SOL     OW 3739   3.660   4.120   4.096
  947SOL    HW1 3740   3.576   4.165   4.126
  947SOL    HW2 3741   3.663   4.119   3.996
  948SOL     OW 3742   3.749   0.411   2.968
  948SOL    HW1 3743   3.693   0.398   2.886
  948SOL    HW2 3744   3.822   0.477   2.948
  949SOL     OW 3745   3.560   6.873   5.912
  949SOL    HW1 3746   3.648   6.839   5.945
  949SOL    HW2 3747   3.527   6.945   5.973
  950SOL     OW 3748   6.777   6.916   2.151
  950SOL    HW1 3749   6.788   6.984   2.224
  950SOL    HW2 3750   6.698   6.940   2.094
  951SOL     OW 3751   1.751   0.001   3.232
  951SOL    HW1 3752   1.704   6.936   3.212
  951SOL    HW2 3753   1.825   7.005   3.297
  952SOL     OW 3754   3.226   0.793   3.077
  952SOL    HW1 3755   3.309   0.819   3.126
  952SOL    HW2 3756   3.228   0.832   2.985
  953SOL     OW 3757   6.826   4.424   5.385
  953SOL    HW1 3758   6.903   4.367   5.413
  953SOL    HW2 3759   6.848   4.470   5.299
  954SOL     OW 3760   4.713   6.022   2.381
  954SOL    HW1 3761   4.672   6.112   2.396
  954SOL    HW2 3762   4.651   5.966   2.326
  955SOL     OW 3763   2.165   4.761   0.618
  955SOL    HW1 3764   2.122   4.683   0.574
  955SOL    HW2 3765   2.151   4.756   0.717
  956SOL     OW 3766   4.762   0.631   1.032
  956SOL    HW1 3767   4.783   0.548   0.980
  956SOL    HW2 3768   4.824   0.704   1.004
  957SOL     OW 3769   5.932   1.231   3.083
  957SOL    HW1 3770   5.895   1.163   3.019
  957SOL    HW2 3771   5.900   1.211   3.175
  958SOL     OW 3772   5.374   6.927   1.427
  958SOL    HW1 3773   5.276   6.943   1.439
  958SOL    HW2 3774   5.414   7.003   1.376
  959SOL     OW 3775   4.591   6.829   3.599
  959SOL    HW1 3776   4.622   6.758   3.536
  959SOL    HW2 3777   4.621   6.806   3.692
  960SOL     OW 3778   1.545   6.733   6.390
  960SOL    HW1 3779   1.569   6.681   6.308
  960SOL    HW2 3780   1.628   6.755   6.441
  961SOL     OW 3781   3.523   0.138   3.169
  961SOL    HW1 3782   3.532   0.235   3.191
  961SOL    HW2 3783   3.427   0.110   3.177
  962SOL     OW 3784   6.800   0.919   4.530
  962SOL    HW1 3785   6.829   0.957   4.618
  962SOL    HW2 3786   6.700   0.924   4.523
  963SOL     OW 3787   5.499   2.649   1.197
  963SOL    HW1 3788   5.431   2.718   1.170
  963SOL    HW2 3789   5.481   2.563   1.150
  964SOL     OW 3790   4.474   5.196   4.965
  964SOL    HW1 3791   4.485   5.210   4.867
  964SOL    HW2 3792   4.434   5.278   5.006
  965SOL     OW 3793   5.857   2.266   3.219
  965SOL    HW1 3794   5.787   2.285   3.288
  965SOL    HW2 3795   5.865   2.167   3.207
  966SOL     OW 3796   4.413   1.315   4.216
  966SOL    HW1 3797   4.505   1.333   4.180
  966SOL    HW2 3798   4.362   1.401   4.220
  967SOL     OW 3799   4.389   4.008   6.594
  967SOL    HW1 3800   4.424   4.086   6.542
  967SOL    HW2 3801   4.465   3.955   6.630
  968SOL     OW 3802   4.061   0.905   1.432
  968SOL    HW1 3803   3.989   0.869   1.491
  968SOL    HW2 3804   4.022   0.974   1.370
  969SOL     OW 3805   3.128   4.307   6.224
  969SOL    HW1 3806   3.069   4.319   6.144
  969SOL    HW2 3807   3.074   4.321   6.307
  970SOL     OW 3808   5.267   0.246   5.980
  970SOL    HW1 3809   5.325   0.201   6.048
  970SOL    HW2 3810   5.255   0.186   5.901
  971SOL     OW 3811   5.680   3.364   3.936
  971SOL    HW1 3812   5.582   3.357   3.917
  971SOL    HW2 3813   5.731   3.337   3.854
  972SOL     OW 3814   0.046   2.765   0.210
  972SOL    HW1 3815   0.134   2.810   0.193
  972SOL    HW2 3816   0.023   2.707   0.132
  973SOL     OW 3817   0.269   3.457   5.960
  973SOL    HW1 3818   0.272   3.358   5.955
  973SOL    HW2 3819   0.262   3.495   5.867
  974SOL     OW 3820   0.221   4.704   2.376
  974SOL    HW1 3821   0.206   4.803   2.375
  974SOL    HW2 3822   0.141   4.658   2.337
  975SOL     OW 3823   3.120   0.652   2.177
  975SOL    HW1 3824   3.083   0.696   2.095
  975SOL    HW2 3825   3.097   0.707   2.257
  976SOL     OW 3826   7.013   3.522   3.518
  976SOL    HW1 3827   6.923   3.501   3.478
  976SOL    HW2 3828   0.065   3.484   3.460
  977SOL     OW 3829   6.424   0.763   2.139
  977SOL    HW1 3830   6.522   0.770   2.123
  977SOL    HW2 3831   6.378   0.843   2.099
  978SOL     OW 3832   5.468   2.864   1.893
  978SOL    HW1 3833   5.406   2.793   1.857
  978SOL    HW2 3834   5.466   2.944   1.833
  979SOL     OW 3835   0.201   4.444   6.925
  979SOL    HW1 3836   0.284   4.407   6.968
  979SOL    HW2 3837   0.227   4.504   6.850
  980SOL     OW 3838   3.778   0.787   4.711
  980SOL    HW1 3839   3.835   0.844   4.769
  980SOL    HW2 3840   3.829   0.761   4.629
  981SOL     OW 3841   0.183   6.990   5.724
  981SOL    HW1 3842   0.234   6.908   5.751
  981SOL    HW2 3843   0.102   6.962   5.672
  982SOL     OW 3844   6.282   1.457   6.017
  982SOL    HW1 3845   6.289   1.368   5.974
  982SOL    HW2 3846   6.207   1.457   6.083
  983SOL     OW 3847   0.394   4.626   3.706
  983SOL    HW1 3848   0.344   4.689   3.765
  983SOL    HW2 3849   0.484   4.608   3.745
  984SOL     OW 3850   0.756   3.451   3.608
  984SOL    HW1 3851   0.698   3.447   3.689
  984SOL    HW2 3852   0.702   3.478   3.528
  985SOL     OW 3853   6.555   5.167   5.027
  985SOL    HW1 3854   6.642   5.193   5.069
  985SOL    HW2 3855   6.498   5.248   5.016
  986SOL     OW 3856   4.761   5.274   1.773
  986SOL    HW1 3857   4.706   5.282   1.689
  986SOL    HW2 3858   4.736   5.348   1.835
  987SOL     OW 3859   4.803   3.939   4.335
  987SOL    HW1 3860   4.855   3.911   4.416
  987SOL    HW2 3861   4.857   3.921   4.253
  988SOL     OW 3862   2.593   4.683   2.141
  988SOL    HW1 3863   2.630   4.713   2.229
  988SOL    HW2 3864   2.667   4.651   2.083
  989SOL     OW 3865   1.849   2.352   0.789
  989SOL    HW1 3866   1.944   2.363   0.819
  989SOL    HW2 3867   1.793   2.422   0.833
  990SOL     OW 3868   3.423   0.110   4.658
  990SOL    HW1 3869   3.416   0.030   4.598
  990SOL    HW2 3870   3.336   0.123   4.706
  991SOL     OW 3871   6.975   5.495   4.223
  991SOL    HW1 3872   6.916   5.492   4.303
  991SOL    HW2 3873   6.944   5.567   4.161
  992SOL     OW 3874   0.268   2.247   0.088
  992SOL    HW1 3875   0.190   2.236   0.027
  992SOL    HW2 3876   0.307   2.157   0.110
  993SOL     OW 3877   1.371   4.994   0.046
  993SOL    HW1 3878   1.304   4.959   0.111
  993SOL    HW2 3879   1.433   5.057   0.093
  994SOL     OW 3880   3.423   6.017   0.353
  994SOL    HW1 3881   3.453   6.076   0.428
  994SOL    HW2 3882   3.437   6.065   0.266
  995SOL     OW 3883   6.510   4.332   6.020
  995SOL    HW1 3884   6.508   4.336   5.920
  995SOL    HW2 3885   6.417   4.327   6.055
  996SOL     OW 3886   3.973   5.910   4.007
  996SOL    HW1 3887   3.913   5.934   4.083
  996SOL    HW2 3888   4.068   5.909   4.038
  997SOL     OW 3889   1.487   6.640   3.887
  997SOL    HW1 3890   1.426   6.629   3.809
  997SOL    HW2 3891   1.565   6.696   3.859
  998SOL     OW 3892   4.679   6.976   6.443
  998SOL    HW1 3893   4.608   6.963   6.374
  998SOL    HW2 3894   4.751   0.015   6.405
  999SOL     OW 3895   4.869   3.219   2.434
  999SOL    HW1 3896   4.799   3.160   2.476
  999SOL    HW2 3897   4.899   3.179   2.348
 1000SOL     OW 3898   5.294   2.365   1.776
 1000SOL    HW1 3899   5.229   2.367   1.852
 1000SOL    HW2 3900   5.286   2.278   1.728
 1001SOL     OW 3901   2.785   6.794   2.280
 1001SOL    HW1 3902   2.861   6.859   2.288
 1001SOL    HW2 3903   2.814   6.714   2.229
 1002SOL     OW 3904   5.006   2.431   1.282
 1002SOL    HW1 3905   5.105   2.423   1.295
 1002SOL    HW2 3906   4.965   2.470   1.364
 1003SOL     OW 3907   0.839   0.131   3.131
 1003SOL    HW1 3908   0.753   0.089   3.161
 1003SOL    HW2 3909   0.916   0.078   3.166
 1004SOL     OW 3910   5.290   1.397   4.144
 1004SOL    HW1 3911   5.260   1.489   4.117
 1004SOL    HW2 3912   5.274   1.385   4.242
 1005SOL     OW 3913   1.318   4.841   2.030
 1005SOL    HW1 3914   1.307   4.822   1.932
 1005SOL    HW2 3915   1.276   4.929   2.052
 1006SOL     OW 3916   2.635   3.935   1.532
 1006SOL    HW1 3917   2.568   3.895   1.595
 1006SOL    HW2 3918   2.692   3.862   1.494
 1007SOL     OW 3919   4.726   0.840   6.482
 1007SOL    HW1 3920   4.699   0.821   6.576
 1007SOL    HW2 3921   4.735   0.939   6.468
 1008SOL     OW 3922   0.873   4.879   5.294
 1008SOL    HW1 3923   0.901   4.785   5.316
 1008SOL    HW2 3924   0.800   4.878   5.227
 1009SOL     OW 3925   6.819   5.688   5.646
 1009SOL    HW1 3926   6.910   5.682   5.685
 1009SOL    HW2 3927   6.753   5.646   5.709
 1010SOL     OW 3928   3.154   3.526   0.559
 1010SOL    HW1 3929   3.161   3.440   0.609
 1010SOL    HW2 3930   3.065   3.532   0.514
 1011SOL     OW 3931   7.006   5.769   2.802
 1011SOL    HW1 3932   0.034   5.832   2.740
 1011SOL    HW2 3933   6.910   5.764   2.775
 1012SOL     OW 3934   5.284   6.417   3.201
 1012SOL    HW1 3935   5.223   6.467   3.140
 1012SOL    HW2 3936   5.373   6.407   3.158
 1013SOL     OW 3937   6.727   0.005   6.470
 1013SOL    HW1 3938   6.820   6.991   6.478
 1013SOL    HW2 3939   6.682   7.020   6.560
 1014SOL     OW 3940   1.120   4.370   5.185
 1014SOL    HW1 3941   1.143   4.465   5.203
 1014SOL    HW2 3942   1.028   4.365   5.146
 1015SOL     OW 3943   2.460   6.332   0.205
 1015SOL    HW1 3944   2.525   6.279   0.259
 1015SOL    HW2 3945   2.455   6.426   0.241
 1016SOL     OW 3946   6.363   3.883   1.264
 1016SOL    HW1 3947   6.354   3.885   1.165
 1016SOL    HW2 3948   6.402   3.795   1.293
 1017SOL     OW 3949   2.187   1.731   1.901
 1017SOL    HW1 3950   2.142   1.694   1.820
 1017SOL    HW2 3951   2.238   1.659   1.948
 1018SOL     OW 3952   6.440   6.482   5.008
 1018SOL    HW1 3953   6.367   6.445   4.950
 1018SOL    HW2 3954   6.483   6.407   5.059
 1019SOL     OW 3955   6.563   3.893   1.035
 1019SOL    HW1 3956   6.611   3.979   1.057
 1019SOL    HW2 3957   6.625   3.816   1.051
 1020SOL     OW 3958   5.338   1.545   0.751
 1020SOL    HW1 3959   5.419   1.512   0.800
 1020SOL    HW2 3960   5.301   1.625   0.799
 1021SOL     OW 3961   1.155   6.462   0.828
 1021SOL    HW1 3962   1.158   6.368   0.863
 1021SOL    HW2 3963   1.205   6.523   0.890
 1022SOL     OW 3964   2.586   5.840   6.476
 1022SOL    HW1 3965   2.536   5.899   6.540
 1022SOL    HW2 3966   2.665   5.800   6.523
 1023SOL     OW 3967   0.372   0.978   3.035
 1023SOL    HW1 3968   0.344   0.962   3.130
 1023SOL    HW2 3969   0.468   0.952   3.024
 1024SOL     OW 3970   1.746   1.726   4.204
 1024SOL    HW1 3971   1.696   1.813   4.206
 1024SOL    HW2 3972   1.689   1.654   4.245
 1025SOL     OW 3973   4.934   4.237   0.224
 1025SOL    HW1 3974   4.936   4.137   0.222
 1025SOL    HW2 3975   4.847   4.267   0.264
 1026SOL     OW 3976   2.960   2.710   1.663
 1026SOL    HW1 3977   3.015   2.641   1.711
 1026SOL    HW2 3978   3.020   2.772   1.613
 1027SOL     OW 3979   0.572   6.831   0.210
 1027SOL    HW1 3980   0.589   6.899   0.281
 1027SOL    HW2 3981   0.578   6.740   0.249
 1028SOL     OW 3982   1.263   6.003   2.671
 1028SOL    HW1 3983   1.250   5.904   2.672
 1028SOL    HW2 3984   1.238   6.041   2.760
 1029SOL     OW 3985   0.942   1.111   5.671
 1029SOL    HW1 3986   0.870   1.050   5.638
 1029SOL    HW2 3987   0.971   1.082   5.763
 1030SOL     OW 3988   3.836   3.357   0.824
 1030SOL    HW1 3989   3.898   3.408   0.883
 1030SOL    HW2 3990   3.810   3.414   0.745
 1031SOL     OW 3991   3.645   3.300   1.020
 1031SOL    HW1 3992   3.684   3.214   1.054
 1031SOL    HW2 3993   3.699   3.333   0.943
 1032SOL     OW 3994   1.968   1.566   0.070
 1032SOL    HW1 3995   1.972   1.519   7.002
 1032SOL    HW2 3996   1.961   1.498   0.143
 1033SOL     OW 3997   0.292   6.761   2.614
 1033SOL    HW1 3998   0.315   6.845   2.565
 1033SOL    HW2 3999   0.375   6.710   2.634
 1034SOL     OW 4000   3.086   0.699   4.601
 1034SOL    HW1 4001   3.000   0.730   4.641
 1034SOL    HW2 4002   3.163   0.741   4.650
 1035SOL     OW 4003   1.474   1.461   0.180
 1035SOL    HW1 4004   1.449   1.367   0.157
 1035SOL    HW2 4005   1.479   1.516   0.097
 1036SOL     OW 4006   4.865   1.094   1.415
 1036SOL    HW1 4007   4.897   1.184   1.442
 1036SOL    HW2 4008   4.856   1.091   1.315
 1037SOL     OW 4009   1.610   3.147   1.678
 1037SOL    HW1 4010   1.682   3.212   1.700
 1037SOL    HW2 4011   1.552   3.185   1.606
 1038SOL     OW 4012   2.415   5.901   7.010
 1038SOL    HW1 4013   2.490   5.836   6.995
 1038SOL    HW2 4014   2.416   5.931   0.085
 1039SOL     OW 4015   3.688   3.475   2.653
 1039SOL    HW1 4016   3.783   3.491   2.682
 1039SOL    HW2 4017   3.669   3.377   2.655
 1040SOL     OW 4018   3.413   2.088   3.356
 1040SOL    HW1 4019   3.443   2.075   3.262
 1040SOL    HW2 4020   3.491   2.081   3.418
 1041SOL     OW 4021   6.082   5.391   6.641
 1041SOL    HW1 4022   6.133   5.363   6.560
 1041SOL    HW2 4023   5.993   5.347   6.641
 1042SOL     OW 4024   5.009   4.380   2.999
 1042SOL    HW1 4025   4.994   4.293   2.952
 1042SOL    HW2 4026   5.083   4.370   3.065
 1043SOL     OW 4027   2.776   2.346   3.734
 1043SOL    HW1 4028   2.872   2.325   3.718
 1043SOL    HW2 4029   2.720   2.265   3.714
 1044SOL     OW 4030   6.093   4.611   1.704
 1044SOL    HW1 4031   6.012   4.553   1.711
 1044SOL    HW2 4032   6.117   4.647   1.794
 1045SOL     OW 4033   2.069   0.476   1.858
 1045SOL    HW1 4034   1.972   0.463   1.876
 1045SOL    HW2 4035   2.103   0.404   1.798
 1046SOL     OW 4036   3.366   2.021   1.250
 1046SOL    HW1 4037   3.339   2.104   1.299
 1046SOL    HW2 4038   3.340   1.941   1.304
 1047SOL     OW 4039   3.590   6.674   3.619
 1047SOL    HW1 4040   3.494   6.681   3.647
 1047SOL    HW2 4041   3.648   6.677   3.700
 1048SOL     OW 4042   1.155   6.250   2.615
 1048SOL    HW1 4043   1.188   6.308   2.541
 1048SOL    HW2 4044   1.211   6.167   2.621
 1049SOL     OW 4045   4.558   6.309   5.097
 1049SOL    HW1 4046   4.503   6.321   5.180
 1049SOL    HW2 4047   4.530   6.377   5.029
 1050SOL     OW 4048   2.899   6.104   3.902
 1050SOL    HW1 4049   2.863   6.179   3.845
 1050SOL    HW2 4050   2.965   6.051   3.850
 1051SOL     OW 4051   1.001   0.902   6.020
 1051SOL    HW1 4052   1.031   0.997   6.029
 1051SOL    HW2 4053   1.008   0.873   5.924
 1052SOL     OW 4054   3.572   0.998   0.087
 1052SOL    HW1 4055   3.648   0.933   0.089
 1052SOL    HW2 4056   3.551   1.028   0.180
 1053SOL     OW 4057   5.121   1.802   4.319
 1053SOL    HW1 4058   5.083   1.714   4.347
 1053SOL    HW2 4059   5.060   1.876   4.349
 1054SOL     OW 4060   3.708   5.055   6.285
 1054SOL    HW1 4061   3.683   5.058   6.189
 1054SOL    HW2 4062   3.781   5.122   6.303
 1055SOL     OW 4063   4.525   5.617   6.535
 1055SOL    HW1 4064   4.484   5.647   6.449
 1055SOL    HW2 4065   4.574   5.532   6.520
 1056SOL     OW 4066   3.000   3.937   0.241
 1056SOL    HW1 4067   2.987   4.001   0.317
 1056SOL    HW2 4068   2.982   3.984   0.155
 1057SOL     OW 4069   2.861   2.755   0.311
 1057SOL    HW1 4070   2.853   2.658   0.334
 1057SOL    HW2 4071   2.903   2.765   0.221
 1058SOL     OW 4072   2.859   2.183   2.294
 1058SOL    HW1 4073   2.884   2.230   2.378
 1058SOL    HW2 4074   2.894   2.234   2.215
 1059SOL     OW 4075   2.380   6.368   1.661
 1059SOL    HW1 4076   2.337   6.286   1.626
 1059SOL    HW2 4077   2.333   6.397   1.745
 1060SOL     OW 4078   6.297   0.442   5.892
 1060SOL    HW1 4079   6.361   0.513   5.861
 1060SOL    HW2 4080   6.207   0.459   5.853
 1061SOL     OW 4081   6.856   3.606   6.235
 1061SOL    HW1 4082   6.843   3.531   6.300
 1061SOL    HW2 4083   6.938   3.589   6.181
 1062SOL     OW 4084   3.464   6.058   4.414
 1062SOL    HW1 4085   3.399   6.134   4.418
 1062SOL    HW2 4086   3.556   6.091   4.438
 1063SOL     OW 4087   3.668   6.494   5.087
 1063SOL    HW1 4088   3.603   6.420   5.103
 1063SOL    HW2 4089   3.703   6.526   5.175
 1064SOL     OW 4090   1.872   3.583   0.387
 1064SOL    HW1 4091   1.793   3.535   0.425
 1064SOL    HW2 4092   1.842   3.642   0.312
 1065SOL     OW 4093   5.521   0.797   4.469
 1065SOL    HW1 4094   5.438   0.842   4.503
 1065SOL    HW2 4095   5.515   0.699   4.488
 1066SOL     OW 4096   5.158   6.694   1.165
 1066SOL    HW1 4097   5.241   6.749   1.158
 1066SOL    HW2 4098   5.138   6.675   1.261
 1067SOL     OW 4099   2.922   1.428   0.385
 1067SOL    HW1 4100   2.852   1.382   0.439
 1067SOL    HW2 4101   2.978   1.360   0.338
 1068SOL     OW 4102   6.872   2.851   1.570
 1068SOL    HW1 4103   6.849   2.792   1.492
 1068SOL    HW2 4104   6.881   2.795   1.652
 1069SOL     OW 4105   6.281   3.341   1.990
 1069SOL    HW1 4106   6.198   3.350   1.935
 1069SOL    HW2 4107   6.317   3.248   1.980
 1070SOL     OW 4108   0.792   6.999   2.343
 1070SOL    HW1 4109   0.769   6.968   2.251
 1070SOL    HW2 4110   0.728   0.050   2.371
 1071SOL     OW 4111   0.455   3.081   5.732
 1071SOL    HW1 4112   0.364   3.048   5.708
 1071SOL    HW2 4113   0.463   3.088   5.831
 1072SOL     OW 4114   1.475   1.770   2.318
 1072SOL    HW1 4115   1.424   1.809   2.242
 1072SOL    HW2 4116   1.425   1.691   2.354
 1073SOL     OW 4117   5.026   2.232   3.139
 1073SOL    HW1 4118   5.003   2.233   3.236
 1073SOL    HW2 4119   4.961   2.289   3.088
 1074SOL     OW 4120   2.865   4.907   1.669
 1074SOL    HW1 4121   2.926   4.873   1.740
 1074SOL    HW2 4122   2.786   4.847   1.662
 1075SOL     OW 4123   6.126   4.466   5.888
 1075SOL    HW1 4124   6.202   4.520   5.854
 1075SOL    HW2 4125   6.117   4.480   5.987
 1076SOL     OW 4126   1.695   4.692   4.765
 1076SOL    HW1 4127   1.694   4.760   4.838
 1076SOL    HW2 4128   1.674   4.602   4.804
 1077SOL     OW 4129   6.699   6.983   0.146
 1077SOL    HW1 4130   6.753   6.907   0.180
 1077SOL    HW2 4131   6.725   0.047   0.193
 1078SOL     OW 4132   6.300   6.945   4.866
 1078SOL    HW1 4133   6.387   6.982   4.834
 1078SOL    HW2 4134   6.299   6.845   4.854
 1079SOL     OW 4135   1.224   6.692   1.541
 1079SOL    HW1 4136   1.148   6.756   1.543
 1079SOL    HW2 4137   1.282   6.707   1.621
 1080SOL     OW 4138   3.643   6.129   6.619
 1080SOL    HW1 4139   3.712   6.193   6.653
 1080SOL    HW2 4140   3.592   6.091   6.696
 1081SOL     OW 4141   6.621   6.610   4.239
 1081SOL    HW1 4142   6.620   6.628   4.338
 1081SOL    HW2 4143   6.529   6.586   4.209
 1082SOL     OW 4144   4.336   6.843   6.957
 1082SOL    HW1 4145   4.430   6.871   6.976
 1082SOL    HW2 4146   4.299   6.795   0.016
 1083SOL     OW 4147   5.290   4.628   2.147
 1083SOL    HW1 4148   5.251   4.599   2.059
 1083SOL    HW2 4149   5.389   4.632   2.140
 1084SOL     OW 4150   6.412   0.595   5.323
 1084SOL    HW1 4151   6.493   0.558   5.368
 1084SOL    HW2 4152   6.401   0.554   5.233
 1085SOL     OW 4153   2.139   3.831   4.768
 1085SOL    HW1 4154   2.135   3.789   4.677
 1085SOL    HW2 4155   2.192   3.916   4.762
 1086SOL     OW 4156   5.914   5.391   0.841
 1086SOL    HW1 4157   5.837   5.358   0.896
 1086SOL    HW2 4158   5.963   5.462   0.892
 1087SOL     OW 4159   3.467   0.123   5.614
 1087SOL    HW1 4160   3.526   0.051   5.577
 1087SOL    HW2 4161   3.384   0.130   5.558
 1088SOL     OW 4162   6.473   5.168   3.344
 1088SOL    HW1 4163   6.508   5.252   3.304
 1088SOL    HW2 4164   6.377   5.156   3.317
 1089SOL     OW 4165   6.139   4.666   4.076
 1089SOL    HW1 4166   6.235   4.648   4.098
 1089SOL    HW2 4167   6.091   4.697   4.157
 1090SOL     OW 4168   5.206   2.015   5.469
 1090SOL    HW1 4169   5.304   1.998   5.472
 1090SOL    HW2 4170   5.170   1.987   5.381
 1091SOL     OW 4171   2.421   2.394   3.153
 1091SOL    HW1 4172   2.362   2.420   3.229
 1091SOL    HW2 4173   2.390   2.307   3.114
 1092SOL     OW 4174   6.979   5.606   0.621
 1092SOL    HW1 4175   6.922   5.674   0.574
 1092SOL    HW2 4176   6.921   5.542   0.671
 1093SOL     OW 4177   1.585   0.625   2.771
 1093SOL    HW1 4178   1.599   0.537   2.817
 1093SOL    HW2 4179   1.488   0.646   2.770
 1094SOL     OW 4180   0.305   0.403   3.149
 1094SOL    HW1 4181   0.266   0.311   3.152
 1094SOL    HW2 4182   0.268   0.458   3.224
 1095SOL     OW 4183   5.103   3.148   0.713
 1095SOL    HW1 4184   5.090   3.054   0.681
 1095SOL    HW2 4185   5.058   3.211   0.650
 1096SOL     OW 4186   2.338   6.024   1.905
 1096SOL    HW1 4187   2.315   5.953   1.838
 1096SOL    HW2 4188   2.260   6.084   1.920
 1097SOL     OW 4189   2.629   5.850   4.597
 1097SOL    HW1 4190   2.689   5.884   4.670
 1097SOL    HW2 4191   2.555   5.915   4.582
 1098SOL     OW 4192   6.114   4.169   0.463
 1098SOL    HW1 4193   6.173   4.117   0.402
 1098SOL    HW2 4194   6.138   4.149   0.558
 1099SOL     OW 4195   4.782   6.909   5.854
 1099SOL    HW1 4196   4.728   6.827   5.874
 1099SOL    HW2 4197   4.813   6.950   5.940
 1100SOL     OW 4198   3.906   1.725   4.425
 1100SOL    HW1 4199   3.921   1.679   4.512
 1100SOL    HW2 4200   3.872   1.659   4.358
 1101SOL     OW 4201   5.155   3.261   6.136
 1101SOL    HW1 4202   5.127   3.232   6.227
 1101SOL    HW2 4203   5.088   3.230   6.069
 1102SOL     OW 4204   2.755   0.513   2.930
 1102SOL    HW1 4205   2.830   0.478   2.986
 1102SOL    HW2 4206   2.679   0.539   2.989
 1103SOL     OW 4207   3.606   6.687   0.513
 1103SOL    HW1 4208   3.581   6.783   0.496
 1103SOL    HW2 4209   3.635   6.645   0.427
 1104SOL     OW 4210   0.746   2.855   3.715
 1104SOL    HW1 4211   0.657   2.838   3.758
 1104SOL    HW2 4212   0.818   2.814   3.770
 1105SOL     OW 4213   5.189   1.244   6.032
 1105SOL    HW1 4214   5.151   1.164   5.987
 1105SOL    HW2 4215   5.138   1.262   6.117
 1106SOL     OW 4216   6.779   1.321   0.600
 1106SOL    HW1 4217   6.864   1.344   0.553
 1106SOL    HW2 4218   6.781   1.358   0.693
 1107SOL     OW 4219   0.902   1.226   6.477
 1107SOL    HW1 4220   0.824   1.174   6.512
 1107SOL    HW2 4221   0.919   1.305   6.536
 1108SOL     OW 4222   2.413   0.405   4.089
 1108SOL    HW1 4223   2.330   0.458   4.072
 1108SOL    HW2 4224   2.392   0.308   4.086
 1109SOL     OW 4225   4.535   2.130   4.902
 1109SOL    HW1 4226   4.590   2.208   4.875
 1109SOL    HW2 4227   4.557   2.052   4.844
 1110SOL     OW 4228   2.487   0.772   2.345
 1110SOL    HW1 4229   2.582   0.752   2.371
 1110SOL    HW2 4230   2.476   0.871   2.333
 1111SOL     OW 4231   5.955   4.100   6.363
 1111SOL    HW1 4232   5.999   4.179   6.406
 1111SOL    HW2 4233   5.977   4.100   6.265
 1112SOL     OW 4234   5.674   0.839   2.252
 1112SOL    HW1 4235   5.616   0.779   2.197
 1112SOL    HW2 4236   5.722   0.785   2.321
 1113SOL     OW 4237   5.869   3.902   2.385
 1113SOL    HW1 4238   5.919   3.852   2.456
 1113SOL    HW2 4239   5.858   3.998   2.412
 1114SOL     OW 4240   3.789   3.745   4.462
 1114SOL    HW1 4241   3.772   3.807   4.539
 1114SOL    HW2 4242   3.792   3.798   4.377
 1115SOL     OW 4243   2.837   4.471   5.657
 1115SOL    HW1 4244   2.868   4.523   5.578
 1115SOL    HW2 4245   2.786   4.532   5.719
 1116SOL     OW 4246   4.636   6.652   6.949
 1116SOL    HW1 4247   4.566   6.587   6.979
 1116SOL    HW2 4248   4.594   6.742   6.933
 1117SOL     OW 4249   2.287   2.560   1.220
 1117SOL    HW1 4250   2.189   2.580   1.223
 1117SOL    HW2 4251   2.336   2.631   1.270
 1118SOL     OW 4252   4.001   5.935   0.126
 1118SOL    HW1 4253   4.098   5.939   0.103
 1118SOL    HW2 4254   3.968   5.841   0.117
 1119SOL     OW 4255   3.241   5.227   3.710
 1119SOL    HW1 4256   3.184   5.199   3.787
 1119SOL    HW2 4257   3.182   5.262   3.636
 1120SOL     OW 4258   6.732   3.640   1.079
 1120SOL    HW1 4259   6.708   3.601   0.990
 1120SOL    HW2 4260   6.729   3.569   1.149
 1121SOL     OW 4261   0.027   4.867   4.327
 1121SOL    HW1 4262   0.042   4.768   4.330
 1121SOL    HW2 4263   6.959   4.885   4.284
 1122SOL     OW 4264   5.613   2.499   2.091
 1122SOL    HW1 4265   5.613   2.576   2.027
 1122SOL    HW2 4266   5.705   2.486   2.128
 1123SOL     OW 4267   3.988   1.041   3.705
 1123SOL    HW1 4268   3.998   0.944   3.683
 1123SOL    HW2 4269   4.047   1.064   3.782
 1124SOL     OW 4270   1.821   2.332   4.536
 1124SOL    HW1 4271   1.852   2.378   4.619
 1124SOL    HW2 4272   1.898   2.287   4.492
 1125SOL     OW 4273   2.114   3.558   3.575
 1125SOL    HW1 4274   2.092   3.594   3.665
 1125SOL    HW2 4275   2.196   3.602   3.540
 1126SOL     OW 4276   3.914   4.877   4.804
 1126SOL    HW1 4277   3.890   4.790   4.761
 1126SOL    HW2 4278   3.972   4.860   4.884
 1127SOL     OW 4279   6.219   6.726   2.433
 1127SOL    HW1 4280   6.229   6.796   2.504
 1127SOL    HW2 4281   6.304   6.673   2.426
 1128SOL     OW 4282   4.687   1.333   4.134
 1128SOL    HW1 4283   4.675   1.362   4.040
 1128SOL    HW2 4284   4.714   1.236   4.136
 1129SOL     OW 4285   1.431   0.814   0.525
 1129SOL    HW1 4286   1.380   0.899   0.542
 1129SOL    HW2 4287   1.381   0.738   0.566
 1130SOL     OW 4288   2.130   4.577   2.006
 1130SOL    HW1 4289   2.216   4.533   1.983
 1130SOL    HW2 4290   2.072   4.580   1.925
 1131SOL     OW 4291   1.504   5.515   4.109
 1131SOL    HW1 4292   1.553   5.587   4.159
 1131SOL    HW2 4293   1.455   5.457   4.174
 1132SOL     OW 4294   2.369   1.357   2.390
 1132SOL    HW1 4295   2.424   1.372   2.472
 1132SOL    HW2 4296   2.391   1.425   2.321
 1133SOL     OW 4297   0.902   6.968   6.225
 1133SOL    HW1 4298   0.855   7.015   6.151
 1133SOL    HW2 4299   1.001   6.980   6.215
 1134SOL     OW 4300   3.285   6.601   1.467
 1134SOL    HW1 4301   3.275   6.502   1.479
 1134SOL    HW2 4302   3.317   6.641   1.553
 1135SOL     OW 4303   1.993   5.872   3.332
 1135SOL    HW1 4304   2.039   5.940   3.390
 1135SOL    HW2 4305   2.059   5.832   3.268
 1136SOL     OW 4306   1.729   5.127   2.009
 1136SOL    HW1 4307   1.647   5.153   2.060
 1136SOL    HW2 4308   1.807   5.122   2.070
 1137SOL     OW 4309   1.007   5.274   5.159
 1137SOL    HW1 4310   0.949   5.251   5.238
 1137SOL    HW2 4311   1.093   5.313   5.192
 1138SOL     OW 4312   2.137   3.450   4.710
 1138SOL    HW1 4313   2.141   3.383   4.785
 1138SOL    HW2 4314   2.165   3.539   4.745
 1139SOL     OW 4315   2.582   5.419   5.311
 1139SOL    HW1 4316   2.489   5.404   5.279
 1139SOL    HW2 4317   2.580   5.471   5.397
 1140SOL     OW 4318   2.225   2.242   1.123
 1140SOL    HW1 4319   2.260   2.229   1.215
 1140SOL    HW2 4320   2.289   2.296   1.069
 1141SOL     OW 4321   6.959   4.848   6.063
 1141SOL    HW1 4322   6.977   4.771   6.002
 1141SOL    HW2 4323   0.021   4.867   6.117
 1142SOL     OW 4324   1.582   6.256   2.169
 1142SOL    HW1 4325   1.649   6.189   2.201
 1142SOL    HW2 4326   1.502   6.208   2.132
 1143SOL     OW 4327   0.716   3.876   1.979
 1143SOL    HW1 4328   0.711   3.971   2.010
 1143SOL    HW2 4329   0.752   3.874   1.885
 1144SOL     OW 4330   5.732   4.434   0.564
 1144SOL    HW1 4331   5.735   4.518   0.619
 1144SOL    HW2 4332   5.683   4.451   0.479
 1145SOL     OW 4333   5.920   6.905   0.652
 1145SOL    HW1 4334   5.891   6.999   0.633
 1145SOL    HW2 4335   6.019   6.903   0.666
 1146SOL     OW 4336   0.818   1.164   1.365
 1146SOL    HW1 4337   0.908   1.134   1.396
 1146SOL    HW2 4338   0.778   1.094   1.307
 1147SOL     OW 4339   2.323   6.125   1.386
 1147SOL    HW1 4340   2.230   6.145   1.355
 1147SOL    HW2 4341   2.335   6.159   1.479
 1148SOL     OW 4342   4.005   5.994   3.384
 1148SOL    HW1 4343   4.042   6.064   3.324
 1148SOL    HW2 4344   3.984   6.034   3.474
 1149SOL     OW 4345   4.522   3.307   1.427
 1149SOL    HW1 4346   4.444   3.244   1.415
 1149SOL    HW2 4347   4.581   3.272   1.500
 1150SOL     OW 4348   1.338   3.547   0.707
 1150SOL    HW1 4349   1.245   3.583   0.716
 1150SOL    HW2 4350   1.401   3.622   0.687
 1151SOL     OW 4351   6.170   5.469   4.253
 1151SOL    HW1 4352   6.163   5.515   4.341
 1151SOL    HW2 4353   6.191   5.537   4.182
 1152SOL     OW 4354   3.592   6.221   6.370
 1152SOL    HW1 4355   3.607   6.192   6.465
 1152SOL    HW2 4356   3.495   6.214   6.348
 1153SOL     OW 4357   6.016   0.063   1.248
 1153SOL    HW1 4358   6.075   0.026   1.175
 1153SOL    HW2 4359   6.072   0.085   1.328
 1154SOL     OW 4360   1.976   2.942   0.984
 1154SOL    HW1 4361   1.890   2.902   1.014
 1154SOL    HW2 4362   2.051   2.879   1.003
 1155SOL     OW 4363   2.883   6.734   4.482
 1155SOL    HW1 4364   2.813   6.739   4.411
 1155SOL    HW2 4365   2.947   6.660   4.461
 1156SOL     OW 4366   2.729   1.891   3.702
 1156SOL    HW1 4367   2.677   1.820   3.749
 1156SOL    HW2 4368   2.752   1.859   3.610
 1157SOL     OW 4369   3.394   0.951   6.875
 1157SOL    HW1 4370   3.442   0.967   6.961
 1157SOL    HW2 4371   3.302   0.916   6.894
 1158SOL     OW 4372   5.407   4.579   3.082
 1158SOL    HW1 4373   5.424   4.514   3.008
 1158SOL    HW2 4374   5.375   4.666   3.043
 1159SOL     OW 4375   6.509   5.174   0.924
 1159SOL    HW1 4376   6.545   5.107   0.989
 1159SOL    HW2 4377   6.409   5.180   0.933
 1160SOL     OW 4378   5.563   1.694   0.240
 1160SOL    HW1 4379   5.472   1.673   0.205
 1160SOL    HW2 4380   5.594   1.781   0.203
 1161SOL     OW 4381   6.908   5.224   1.144
 1161SOL    HW1 4382   6.903   5.154   1.216
 1161SOL    HW2 4383   6.900   5.180   1.054
 1162SOL     OW 4384   2.951   2.243   4.755
 1162SOL    HW1 4385   2.986   2.254   4.848
 1162SOL    HW2 4386   3.009   2.179   4.705
 1163SOL     OW 4387   5.813   2.992   1.776
 1163SOL    HW1 4388   5.806   2.910   1.719
 1163SOL    HW2 4389   5.842   2.967   1.868
 1164SOL     OW 4390   4.134   2.226   5.756
 1164SOL    HW1 4391   4.115   2.244   5.659
 1164SOL    HW2 4392   4.229   2.199   5.766
 1165SOL     OW 4393   3.774   6.334   3.763
 1165SOL    HW1 4394   3.710   6.387   3.819
 1165SOL    HW2 4395   3.722   6.281   3.696
 1166SOL     OW 4396   3.384   4.449   6.068
 1166SOL    HW1 4397   3.345   4.377   6.126
 1166SOL    HW2 4398   3.324   4.529   6.068
 1167SOL     OW 4399   5.120   4.623   2.487
 1167SOL    HW1 4400   5.176   4.703   2.465
 1167SOL    HW2 4401   5.111   4.615   2.586
 1168SOL     OW 4402   6.228   0.658   3.061
 1168SOL    HW1 4403   6.188   0.596   2.993
 1168SOL    HW2 4404   6.299   0.713   3.018
 1169SOL     OW 4405   5.083   1.103   5.631
 1169SOL    HW1 4406   5.140   1.184   5.649
 1169SOL    HW2 4407   5.129   1.044   5.565
 1170SOL     OW 4408   4.984   6.202   3.498
 1170SOL    HW1 4409   4.956   6.126   3.440
 1170SOL    HW2 4410   5.074   6.234   3.470
 1171SOL     OW 4411   0.942   5.917   1.070
 1171SOL    HW1 4412   0.953   6.001   1.017
 1171SOL    HW2 4413   0.862   5.867   1.037
 1172SOL     OW 4414   6.769   3.378   6.744
 1172SOL    HW1 4415   6.708   3.375   6.823
 1172SOL    HW2 4416   6.792   3.473   6.722
 1173SOL     OW 4417   3.777   1.626   0.560
 1173SOL    HW1 4418   3.829   1.579   0.489
 1173SOL    HW2 4419   3.728   1.704   0.519
 1174SOL     OW 4420   2.643   3.670   0.427
 1174SOL    HW1 4421   2.592   3.633   0.505
 1174SOL    HW2 4422   2.645   3.603   0.353
 1175SOL     OW 4423   3.358   2.940   4.209
 1175SOL    HW1 4424   3.381   3.025   4.256
 1175SOL    HW2 4425   3.440   2.902   4.166
 1176SOL     OW 4426   5.633   3.541   5.922
 1176SOL    HW1 4427   5.686   3.620   5.891
 1176SOL    HW2 4428   5.579   3.504   5.846
 1177SOL     OW 4429   0.255   1.926   4.441
 1177SOL    HW1 4430   0.275   1.849   4.501
 1177SOL    HW2 4431   0.326   1.932   4.370
 1178SOL     OW 4432   3.840   5.477   0.583
 1178SOL    HW1 4433   3.870   5.538   0.509
 1178SOL    HW2 4434   3.758   5.428   0.555
 1179SOL     OW 4435   1.914   5.154   0.051
 1179SOL    HW1 4436   1.869   5.202   0.126
 1179SOL    HW2 4437   2.011   5.180   0.049
 1180SOL     OW 4438   3.465   6.020   0.836
 1180SOL    HW1 4439   3.456   6.116   0.863
 1180SOL    HW2 4440   3.555   6.004   0.797
 1181SOL     OW 4441   0.375   6.474   0.281
 1181SOL    HW1 4442   0.297   6.533   0.303
 1181SOL    HW2 4443   0.455   6.505   0.333
 1182SOL     OW 4444   4.469   4.570   3.092
 1182SOL    HW1 4445   4.465   4.519   3.178
 1182SOL    HW2 4446   4.415   4.654   3.100
 1183SOL     OW 4447   2.371   3.281   5.662
 1183SOL    HW1 4448   2.429   3.209   5.700
 1183SOL    HW2 4449   2.409   3.370   5.685
 1184SOL     OW 4450   0.597   6.800   5.853
 1184SOL    HW1 4451   0.643   6.759   5.932
 1184SOL    HW2 4452   0.661   6.807   5.777
 1185SOL     OW 4453   6.756   1.589   6.642
 1185SOL    HW1 4454   6.662   1.573   6.611
 1185SOL    HW2 4455   6.761   1.573   6.741
 1186SOL     OW 4456   5.304   6.330   4.681
 1186SOL    HW1 4457   5.287   6.322   4.780
 1186SOL    HW2 4458   5.400   6.351   4.665
 1187SOL     OW 4459   6.113   0.704   6.268
 1187SOL    HW1 4460   6.204   0.698   6.226
 1187SOL    HW2 4461   6.053   0.635   6.227
 1188SOL     OW 4462   2.654   0.213   6.221
 1188SOL    HW1 4463   2.721   0.158   6.271
 1188SOL    HW2 4464   2.639   0.174   6.131
 1189SOL     OW 4465   5.524   3.400   3.280
 1189SOL    HW1 4466   5.439   3.354   3.255
 1189SOL    HW2 4467   5.504   3.479   3.338
 1190SOL     OW 4468   2.214   5.797   3.143
 1190SOL    HW1 4469   2.175   5.784   3.052
 1190SOL    HW2 4470   2.297   5.853   3.136
 1191SOL     OW 4471   4.005   5.946   2.803
 1191SOL    HW1 4472   4.056   6.024   2.766
 1191SOL    HW2 4473   3.955   5.976   2.884
 1192SOL     OW 4474   5.685   6.096   3.280
 1192SOL    HW1 4475   5.598   6.121   3.322
 1192SOL    HW2 4476   5.720   6.173   3.227
 1193SOL     OW 4477   6.537   5.294   4.124
 1193SOL    HW1 4478   6.537   5.381   4.174
 1193SOL    HW2 4479   6.443   5.264   4.111
 1194SOL     OW 4480   3.844   0.917   0.891
 1194SOL    HW1 4481   3.839   0.904   0.990
 1194SOL    HW2 4482   3.871   0.831   0.848
 1195SOL     OW 4483   5.476   2.329   3.648
 1195SOL    HW1 4484   5.438   2.253   3.701
 1195SOL    HW2 4485   5.555   2.367   3.697
 1196SOL     OW 4486   6.123   6.395   5.329
 1196SOL    HW1 4487   6.156   6.478   5.285
 1196SOL    HW2 4488   6.062   6.346   5.266
 1197SOL     OW 4489   2.501   5.972   0.671
 1197SOL    HW1 4490   2.553   5.949   0.588
 1197SOL    HW2 4491   2.432   6.041   0.648
 1198SOL     OW 4492   1.253   2.854   0.011
 1198SOL    HW1 4493   1.246   2.755   0.022
 1198SOL    HW2 4494   1.300   2.893   0.090
 1199SOL     OW 4495   5.512   4.051   1.640
 1199SOL    HW1 4496   5.427   4.070   1.591
 1199SOL    HW2 4497   5.586   4.038   1.575
 1200SOL     OW 4498   3.086   3.164   1.914
 1200SOL    HW1 4499   3.068   3.242   1.974
 1200SOL    HW2 4500   3.175   3.176   1.870
 1201SOL     OW 4501   1.953   1.877   4.724
 1201SOL    HW1 4502   1.959   1.868   4.624
 1201SOL    HW2 4503   1.885   1.813   4.759
 1202SOL     OW 4504   0.507   5.341   5.744
 1202SOL    HW1 4505   0.464   5.347   5.834
 1202SOL    HW2 4506   0.500   5.248   5.710
 1203SOL     OW 4507   4.760   5.753   6.059
 1203SOL    HW1 4508   4.679   5.701   6.031
 1203SOL    HW2 4509   4.774   5.829   5.996
 1204SOL     OW 4510   2.047   6.686   2.945
 1204SOL    HW1 4511   2.064   6.766   3.001
 1204SOL    HW2 4512   2.122   6.621   2.956
 1205SOL     OW 4513   5.056   4.349   2.384
 1205SOL    HW1 4514   5.086   4.431   2.433
 1205SOL    HW2 4515   4.967   4.320   2.419
 1206SOL     OW 4516   3.062   3.164   4.739
 1206SOL    HW1 4517   3.086   3.141   4.834
 1206SOL    HW2 4518   2.993   3.237   4.739
 1207SOL     OW 4519   1.302   6.133   2.123
 1207SOL    HW1 4520   1.220   6.156   2.176
 1207SOL    HW2 4521   1.326   6.210   2.064
 1208SOL     OW 4522   3.504   4.087   6.030
 1208SOL    HW1 4523   3.422   4.104   5.976
 1208SOL    HW2 4524   3.542   3.998   6.006
 1209SOL     OW 4525   4.055   6.309   5.457
 1209SOL    HW1 4526   4.124   6.324   5.527
 1209SOL    HW2 4527   4.009   6.222   5.472
 1210SOL     OW 4528   3.237   0.536   2.998
 1210SOL    HW1 4529   3.301   0.565   2.927
 1210SOL    HW2 4530   3.218   0.613   3.060
 1211SOL     OW 4531   1.309   3.669   7.004
 1211SOL    HW1 4532   1.378   3.630   0.045
 1211SOL    HW2 4533   1.220   3.629   0.004
 1212SOL     OW 4534   1.575   6.624   0.402
 1212SOL    HW1 4535   1.533   6.572   0.476
 1212SOL    HW2 4536   1.525   6.710   0.387
 1213SOL     OW 4537   5.699   2.725   1.627
 1213SOL    HW1 4538   5.607   2.687   1.612
 1213SOL    HW2 4539   5.767   2.661   1.592
 1214SOL     OW 4540   6.952   2.408   1.400
 1214SOL    HW1 4541   6.994   2.364   1.479
 1214SOL    HW2 4542   0.002   2.430   1.332
 1215SOL     OW 4543   1.657   5.725   4.222
 1215SOL    HW1 4544   1.744   5.724   4.272
 1215SOL    HW2 4545   1.672   5.758   4.129
 1216SOL     OW 4546   4.618   6.325   1.045
 1216SOL    HW1 4547   4.711   6.360   1.058
 1216SOL    HW2 4548   4.554   6.401   1.034
 1217SOL     OW 4549   3.057   4.031   6.761
 1217SOL    HW1 4550   2.997   4.014   6.683
 1217SOL    HW2 4551   3.096   3.944   6.792
 1218SOL     OW 4552   1.891   4.595   3.448
 1218SOL    HW1 4553   1.903   4.641   3.360
 1218SOL    HW2 4554   1.980   4.584   3.492
 1219SOL     OW 4555   4.635   6.311   2.463
 1219SOL    HW1 4556   4.726   6.308   2.423
 1219SOL    HW2 4557   4.589   6.396   2.436
 1220SOL     OW 4558   0.829   4.723   2.595
 1220SOL    HW1 4559   0.852   4.630   2.625
 1220SOL    HW2 4560   0.758   4.718   2.525
 1221SOL     OW 4561   5.171   3.991   6.241
 1221SOL    HW1 4562   5.238   3.963   6.171
 1221SOL    HW2 4563   5.088   4.024   6.196
 1222SOL     OW 4564   6.407   0.217   6.402
 1222SOL    HW1 4565   6.345   0.179   6.334
 1222SOL    HW2 4566   6.374   0.194   6.494
 1223SOL     OW 4567   3.558   6.202   0.503
 1223SOL    HW1 4568   3.629   6.242   0.446
 1223SOL    HW2 4569   3.511   6.274   0.554
 1224SOL     OW 4570   3.309   0.477   2.059
 1224SOL    HW1 4571   3.398   0.456   2.099
 1224SOL    HW2 4572   3.252   0.522   2.128
 1225SOL     OW 4573   2.804   4.139   6.277
 1225SOL    HW1 4574   2.800   4.205   6.352
 1225SOL    HW2 4575   2.838   4.185   6.195
 1226SOL     OW 4576   2.032   4.464   1.005
 1226SOL    HW1 4577   2.056   4.434   1.097
 1226SOL    HW2 4578   2.046   4.389   0.940
 1227SOL     OW 4579   0.212   3.687   6.090
 1227SOL    HW1 4580   0.243   3.610   6.033
 1227SOL    HW2 4581   0.237   3.669   6.185
 1228SOL     OW 4582   3.451   1.520   5.973
 1228SOL    HW1 4583   3.507   1.439   5.990
 1228SOL    HW2 4584   3.414   1.517   5.880
 1229SOL     OW 4585   3.685   4.198   6.547
 1229SOL    HW1 4586   3.696   4.123   6.483
 1229SOL    HW2 4587   3.587   4.215   6.562
 1230SOL     OW 4588   4.695   6.326   3.360
 1230SOL    HW1 4589   4.751   6.399   3.323
 1230SOL    HW2 4590   4.712   6.318   3.459
 1231SOL     OW 4591   1.472   5.057   4.340
 1231SOL    HW1 4592   1.450   4.980   4.280
 1231SOL    HW2 4593   1.415   5.053   4.423
 1232SOL     OW 4594   1.883   2.465   4.764
 1232SOL    HW1 4595   1.954   2.398   4.788
 1232SOL    HW2 4596   1.803   2.450   4.821
 1233SOL     OW 4597   0.841   2.834   4.403
 1233SOL    HW1 4598   0.881   2.920   4.433
 1233SOL    HW2 4599   0.781   2.850   4.325
 1234SOL     OW 4600   6.739   4.024   4.489
 1234SOL    HW1 4601   6.793   4.096   4.447
 1234SOL    HW2 4602   6.644   4.054   4.498
 1235SOL     OW 4603   6.811   5.693   4.104
 1235SOL    HW1 4604   6.841   5.736   4.019
 1235SOL    HW2 4605   6.803   5.762   4.176
 1236SOL     OW 4606   4.973   0.956   6.644
 1236SOL    HW1 4607   4.909   1.004   6.584
 1236SOL    HW2 4608   4.980   1.006   6.731
 1237SOL     OW 4609   2.998   4.292   6.734
 1237SOL    HW1 4610   3.002   4.193   6.748
 1237SOL    HW2 4611   3.089   4.332   6.746
 1238SOL     OW 4612   1.609   1.548   1.403
 1238SOL    HW1 4613   1.646   1.602   1.328
 1238SOL    HW2 4614   1.618   1.451   1.382
 1239SOL     OW 4615   0.198   6.885   6.190
 1239SOL    HW1 4616   0.287   6.930   6.195
 1239SOL    HW2 4617   0.145   6.924   6.115
 1240SOL     OW 4618   4.228   6.095   1.914
 1240SOL    HW1 4619   4.162   6.070   1.986
 1240SOL    HW2 4620   4.320   6.095   1.953
 1241SOL     OW 4621   6.958   3.237   3.478
 1241SOL    HW1 4622   6.900   3.292   3.418
 1241SOL    HW2 4623   6.908   3.154   3.506
 1242SOL     OW 4624   2.550   3.779   6.183
 1242SOL    HW1 4625   2.626   3.754   6.242
 1242SOL    HW2 4626   2.546   3.878   6.173
 1243SOL     OW 4627   2.758   5.098   5.605
 1243SOL    HW1 4628   2.732   5.002   5.598
 1243SOL    HW2 4629   2.819   5.110   5.683
 1244SOL     OW 4630   0.929   0.824   2.995
 1244SOL    HW1 4631   0.850   0.833   3.055
 1244SOL    HW2 4632   0.918   0.742   2.939
 1245SOL     OW 4633   2.417   3.075   6.089
 1245SOL    HW1 4634   2.382   2.999   6.144
 1245SOL    HW2 4635   2.514   3.088   6.108
 1246SOL     OW 4636   1.121   6.570   2.253
 1246SOL    HW1 4637   1.134   6.512   2.173
 1246SOL    HW2 4638   1.055   6.528   2.315
 1247SOL     OW 4639   1.803   6.583   7.009
 1247SOL    HW1 4640   1.785   6.652   0.059
 1247SOL    HW2 4641   1.717   6.556   6.966
 1248SOL     OW 4642   1.955   6.431   3.457
 1248SOL    HW1 4643   2.054   6.429   3.465
 1248SOL    HW2 4644   1.925   6.360   3.393
 1249SOL     OW 4645   6.424   3.502   3.137
 1249SOL    HW1 4646   6.432   3.407   3.107
 1249SOL    HW2 4647   6.437   3.563   3.059
 1250SOL     OW 4648   0.561   4.263   4.167
 1250SOL    HW1 4649   0.487   4.218   4.217
 1250SOL    HW2 4650   0.523   4.308   4.086
 1251SOL     OW 4651   3.300   6.813   5.489
 1251SOL    HW1 4652   3.294   6.904   5.448
 1251SOL    HW2 4653   3.211   6.788   5.528
 1252SOL     OW 4654   3.369   3.261   6.596
 1252SOL    HW1 4655   3.338   3.212   6.514
 1252SOL    HW2 4656   3.300   3.252   6.668
 1253SOL     OW 4657   4.311   6.181   3.449
 1253SOL    HW1 4658   4.369   6.259   3.474
 1253SOL    HW2 4659   4.220   6.194   3.488
 1254SOL     OW 4660   6.433   1.892   2.484
 1254SOL    HW1 4661   6.509   1.946   2.521
 1254SOL    HW2 4662   6.429   1.804   2.531
 1255SOL     OW 4663   6.065   6.811   0.373
 1255SOL    HW1 4664   6.124   6.852   0.443
 1255SOL    HW2 4665   6.080   6.712   0.371
 1256SOL     OW 4666   4.328   1.660   3.812
 1256SOL    HW1 4667   4.338   1.609   3.727
 1256SOL    HW2 4668   4.388   1.740   3.809
 1257SOL     OW 4669   6.488   1.265   4.256
 1257SOL    HW1 4670   6.539   1.316   4.187
 1257SOL    HW2 4671   6.462   1.176   4.220
 1258SOL     OW 4672   6.878   6.440   4.229
 1258SOL    HW1 4673   6.957   6.465   4.174
 1258SOL    HW2 4674   6.796   6.487   4.195
 1259SOL     OW 4675   4.114   2.280   5.487
 1259SOL    HW1 4676   4.184   2.310   5.422
 1259SOL    HW2 4677   4.104   2.181   5.482
 1260SOL     OW 4678   0.418   1.323   5.697
 1260SOL    HW1 4679   0.385   1.246   5.641
 1260SOL    HW2 4680   0.423   1.405   5.640
 1261SOL     OW 4681   6.230   3.672   0.619
 1261SOL    HW1 4682   6.268   3.665   0.711
 1261SOL    HW2 4683   6.302   3.699   0.555
 1262SOL     OW 4684   5.095   6.269   2.409
 1262SOL    HW1 4685   5.012   6.316   2.378
 1262SOL    HW2 4686   5.074   6.174   2.433
 1263SOL     OW 4687   0.052   2.423   3.674
 1263SOL    HW1 4688   6.989   2.432   3.728
 1263SOL    HW2 4689   0.029   2.404   3.579
 1264SOL     OW 4690   0.854   2.909   5.148
 1264SOL    HW1 4691   0.855   2.898   5.247
 1264SOL    HW2 4692   0.768   2.953   5.120
 1265SOL     OW 4693   5.360   6.405   5.368
 1265SOL    HW1 4694   5.383   6.497   5.335
 1265SOL    HW2 4695   5.408   6.388   5.453
 1266SOL     OW 4696   1.868   1.542   5.649
 1266SOL    HW1 4697   1.902   1.448   5.656
 1266SOL    HW2 4698   1.936   1.598   5.602
 1267SOL     OW 4699   3.581   0.341   2.762
 1267SOL    HW1 4700   3.557   0.367   2.669
 1267SOL    HW2 4701   3.559   0.244   2.777
 1268SOL     OW 4702   4.207   2.669   5.714
 1268SOL    HW1 4703   4.252   2.600   5.657
 1268SOL    HW2 4704   4.274   2.713   5.773
 1269SOL     OW 4705   5.979   2.079   4.053
 1269SOL    HW1 4706   6.073   2.087   4.019
 1269SOL    HW2 4707   5.922   2.033   3.984
 1270SOL     OW 4708   6.502   5.555   2.925
 1270SOL    HW1 4709   6.437   5.629   2.906
 1270SOL    HW2 4710   6.452   5.471   2.945
 1271SOL     OW 4711   1.840   1.316   0.941
 1271SOL    HW1 4712   1.861   1.230   0.894
 1271SOL    HW2 4713   1.878   1.313   1.033
 1272SOL     OW 4714   6.377   2.940   6.445
 1272SOL    HW1 4715   6.389   2.849   6.485
 1272SOL    HW2 4716   6.444   2.953   6.372
 1273SOL     OW 4717   1.156   4.648   5.260
 1273SOL    HW1 4718   1.215   4.716   5.218
 1273SOL    HW2 4719   1.178   4.640   5.357
 1274SOL     OW 4720   0.104   5.103   2.863
 1274SOL    HW1 4721   0.078   5.009   2.884
 1274SOL    HW2 4722   0.195   5.121   2.898
 1275SOL     OW 4723   2.240   1.204   3.132
 1275SOL    HW1 4724   2.162   1.265   3.115
 1275SOL    HW2 4725   2.222   1.151   3.215
 1276SOL     OW 4726   5.433   4.841   3.783
 1276SOL    HW1 4727   5.476   4.930   3.797
 1276SOL    HW2 4728   5.341   4.842   3.822
 1277SOL     OW 4729   0.196   5.982   0.545
 1277SOL    HW1 4730   0.117   6.017   0.495
 1277SOL    HW2 4731   0.262   5.944   0.480
 1278SOL     OW 4732   1.237   6.006   3.231
 1278SOL    HW1 4733   1.240   6.062   3.313
 1278SOL    HW2 4734   1.146   5.964   3.222
 1279SOL     OW 4735   2.768   2.904   1.684
 1279SOL    HW1 4736   2.792   2.955   1.766
 1279SOL    HW2 4737   2.849   2.856   1.651
 1280SOL     OW 4738   2.175   1.999   4.300
 1280SOL    HW1 4739   2.127   2.022   4.215
 1280SOL    HW2 4740   2.224   2.080   4.333
 1281SOL     OW 4741   4.920   6.278   5.462
 1281SOL    HW1 4742   4.983   6.222   5.516
 1281SOL    HW2 4743   4.962   6.367   5.444
 1282SOL     OW 4744   0.554   2.650   1.233
 1282SOL    HW1 4745   0.510   2.740   1.232
 1282SOL    HW2 4746   0.520   2.596   1.156
 1283SOL     OW 4747   6.834   2.838   4.392
 1283SOL    HW1 4748   6.794   2.929   4.383
 1283SOL    HW2 4749   6.929   2.846   4.422
 1284SOL     OW 4750   4.100   2.173   1.868
 1284SOL    HW1 4751   4.025   2.122   1.910
 1284SOL    HW2 4752   4.156   2.213   1.940
 1285SOL     OW 4753   4.247   1.235   5.386
 1285SOL    HW1 4754   4.178   1.201   5.323
 1285SOL    HW2 4755   4.318   1.165   5.399
 1286SOL     OW 4756   5.566   1.443   0.863
 1286SOL    HW1 4757   5.582   1.368   0.798
 1286SOL    HW2 4758   5.614   1.525   0.831
 1287SOL     OW 4759   6.938   4.946   4.714
 1287SOL    HW1 4760   6.887   4.907   4.637
 1287SOL    HW2 4761   6.950   5.044   4.699
 1288SOL     OW 4762   4.605   4.574   6.954
 1288SOL    HW1 4763   4.681   4.632   6.924
 1288SOL    HW2 4764   4.556   4.539   6.874
 1289SOL     OW 4765   0.154   6.754   1.156
 1289SOL    HW1 4766   0.217   6.679   1.139
 1289SOL    HW2 4767   0.063   6.717   1.175
 1290SOL     OW 4768   1.009   6.294   5.239
 1290SOL    HW1 4769   1.045   6.216   5.189
 1290SOL    HW2 4770   0.918   6.272   5.274
 1291SOL     OW 4771   6.359   5.111   3.631
 1291SOL    HW1 4772   6.458   5.115   3.615
 1291SOL    HW2 4773   6.315   5.185   3.580
 1292SOL     OW 4774   1.105   6.807   1.829
 1292SOL    HW1 4775   1.173   6.734   1.835
 1292SOL    HW2 4776   1.086   6.828   1.733
 1293SOL     OW 4777   4.817   1.084   0.244
 1293SOL    HW1 4778   4.895   1.034   0.209
 1293SOL    HW2 4779   4.741   1.021   0.262
 1294SOL     OW 4780   2.045   4.466   4.983
 1294SOL    HW1 4781   1.980   4.417   4.925
 1294SOL    HW2 4782   2.115   4.404   5.016
 1295SOL     OW 4783   6.641   4.419   0.985
 1295SOL    HW1 4784   6.735   4.430   0.955
 1295SOL    HW2 4785   6.583   4.488   0.942
 1296SOL     OW 4786   5.244   0.078   5.756
 1296SOL    HW1 4787   5.335   0.046   5.784
 1296SOL    HW2 4788   5.181   0.000   5.754
 1297SOL     OW 4789   0.423   0.347   1.677
 1297SOL    HW1 4790   0.411   0.269   1.616
 1297SOL    HW2 4791   0.520   0.357   1.701
 1298SOL     OW 4792   5.222   0.764   2.484
 1298SOL    HW1 4793   5.258   0.718   2.565
 1298SOL    HW2 4794   5.298   0.797   2.428
 1299SOL     OW 4795   0.810   3.093   4.139
 1299SOL    HW1 4796   0.826   3.192   4.141
 1299SOL    HW2 4797   0.898   3.046   4.133
 1300SOL     OW 4798   0.835   5.564   1.583
 1300SOL    HW1 4799   0.743   5.583   1.550
 1300SOL    HW2 4800   0.901   5.619   1.533
 1301SOL     OW 4801   6.936   0.244   0.498
 1301SOL    HW1 4802   6.991   0.323   0.473
 1301SOL    HW2 4803   6.953   0.221   0.594
 1302SOL     OW 4804   6.294   6.969   5.310
 1302SOL    HW1 4805   6.271   6.924   5.223
 1302SOL    HW2 4806   6.371   0.011   5.297
 1303SOL     OW 4807   3.281   6.310   1.586
 1303SOL    HW1 4808   3.262   6.351   1.675
 1303SOL    HW2 4809   3.268   6.211   1.591
 1304SOL     OW 4810   0.375   0.522   0.636
 1304SOL    HW1 4811   0.431   0.439   0.643
 1304SOL    HW2 4812   0.373   0.568   0.725
 1305SOL     OW 4813   4.639   3.645   6.169
 1305SOL    HW1 4814   4.559   3.642   6.108
 1305SOL    HW2 4815   4.618   3.704   6.247
 1306SOL     OW 4816   3.222   5.722   4.099
 1306SOL    HW1 4817   3.275   5.638   4.108
 1306SOL    HW2 4818   3.273   5.798   4.139
 1307SOL     OW 4819   2.651   2.443   3.477
 1307SOL    HW1 4820   2.733   2.395   3.506
 1307SOL    HW2 4821   2.647   2.445   3.377
 1308SOL     OW 4822   0.040   4.255   6.274
 1308SOL    HW1 4823   0.127   4.288   6.237
 1308SOL    HW2 4824   0.011   4.175   6.223
 1309SOL     OW 4825   5.689   4.627   6.782
 1309SOL    HW1 4826   5.612   4.629   6.718
 1309SOL    HW2 4827   5.773   4.602   6.733
 1310SOL     OW 4828   1.656   4.563   3.270
 1310SOL    HW1 4829   1.623   4.480   3.226
 1310SOL    HW2 4830   1.646   4.555   3.369
 1311SOL     OW 4831   5.879   4.896   0.748
 1311SOL    HW1 4832   5.939   4.931   0.820
 1311SOL    HW2 4833   5.907   4.803   0.723
 1312SOL     OW 4834   2.849   1.038   5.922
 1312SOL    HW1 4835   2.774   1.036   5.988
 1312SOL    HW2 4836   2.906   0.958   5.934
 1313SOL     OW 4837   6.556   5.524   2.052
 1313SOL    HW1 4838   6.524   5.453   2.115
 1313SOL    HW2 4839   6.576   5.482   1.964
 1314SOL     OW 4840   2.354   1.931   5.004
 1314SOL    HW1 4841   2.383   1.843   4.968
 1314SOL    HW2 4842   2.435   1.988   5.022
 1315SOL     OW 4843   6.234   1.233   3.060
 1315SOL    HW1 4844   6.148   1.261   3.102
 1315SOL    HW2 4845   6.294   1.192   3.128
 1316SOL     OW 4846   5.612   0.447   6.791
 1316SOL    HW1 4847   5.629   0.353   6.764
 1316SOL    HW2 4848   5.671   0.508   6.738
 1317SOL     OW 4849   3.790   3.471   5.604
 1317SOL    HW1 4850   3.808   3.373   5.602
 1317SOL    HW2 4851   3.728   3.496   5.530
 1318SOL     OW 4852   1.572   1.904   6.417
 1318SOL    HW1 4853   1.670   1.922   6.412
 1318SOL    HW2 4854   1.554   1.838   6.491
 1319SOL     OW 4855   6.989   6.944   0.858
 1319SOL    HW1 4856   0.064   6.963   0.884
 1319SOL    HW2 4857   6.947   6.887   0.928
 1320SOL     OW 4858   3.684   3.071   5.955
 1320SOL    HW1 4859   3.676   3.051   5.857
 1320SOL    HW2 4860   3.651   3.163   5.973
 1321SOL     OW 4861   6.744   2.533   0.411
 1321SOL    HW1 4862   6.743   2.607   0.478
 1321SOL    HW2 4863   6.838   2.502   0.395
 1322SOL     OW 4864   3.332   2.557   6.905
 1322SOL    HW1 4865   3.312   2.509   6.820
 1322SOL    HW2 4866   3.409   2.619   6.891
 1323SOL     OW 4867   3.919   6.459   1.079
 1323SOL    HW1 4868   3.843   6.520   1.056
 1323SOL    HW2 4869   3.920   6.382   1.016
 1324SOL     OW 4870   2.116   4.053   6.655
 1324SOL    HW1 4871   2.065   3.979   6.700
 1324SOL    HW2 4872   2.144   4.120   6.724
 1325SOL     OW 4873   2.866   5.817   5.197
 1325SOL    HW1 4874   2.936   5.745   5.198
 1325SOL    HW2 4875   2.775   5.775   5.204
 1326SOL     OW 4876   4.790   2.064   4.635
 1326SOL    HW1 4877   4.753   2.150   4.668
 1326SOL    HW2 4878   4.721   2.017   4.579
 1327SOL     OW 4879   5.142   5.522   2.205
 1327SOL    HW1 4880   5.067   5.466   2.238
 1327SOL    HW2 4881   5.146   5.607   2.258
 1328SOL     OW 4882   1.968   2.663   5.828
 1328SOL    HW1 4883   1.994   2.702   5.740
 1328SOL    HW2 4884   1.965   2.735   5.897
 1329SOL     OW 4885   1.062   2.954   4.180
 1329SOL    HW1 4886   1.070   2.861   4.216
 1329SOL    HW2 4887   1.151   2.998   4.182
 1330SOL     OW 4888   5.714   3.120   2.658
 1330SOL    HW1 4889   5.801   3.116   2.706
 1330SOL    HW2 4890   5.731   3.128   2.560
 1331SOL     OW 4891   4.438   1.962   3.809
 1331SOL    HW1 4892   4.472   2.026   3.878
 1331SOL    HW2 4893   4.505   1.953   3.735
 1332SOL     OW 4894   2.302   5.724   0.236
 1332SOL    HW1 4895   2.311   5.822   0.256
 1332SOL    HW2 4896   2.221   5.710   0.178
 1333SOL     OW 4897   3.026   3.719   2.882
 1333SOL    HW1 4898   3.062   3.754   2.796
 1333SOL    HW2 4899   3.015   3.795   2.947
 1334SOL     OW 4900   6.605   3.323   1.764
 1334SOL    HW1 4901   6.560   3.247   1.811
 1334SOL    HW2 4902   6.698   3.334   1.799
 1335SOL     OW 4903   0.984   3.757   3.126
 1335SOL    HW1 4904   0.993   3.745   3.027
 1335SOL    HW2 4905   0.895   3.799   3.146
 1336SOL     OW 4906   2.498   0.347   5.749
 1336SOL    HW1 4907   2.574   0.316   5.805
 1336SOL    HW2 4908   2.532   0.375   5.659
 1337SOL     OW 4909   6.795   0.417   3.107
 1337SOL    HW1 4910   6.852   0.390   3.184
 1337SOL    HW2 4911   6.789   0.517   3.103
 1338SOL     OW 4912   6.685   4.194   4.850
 1338SOL    HW1 4913   6.625   4.138   4.793
 1338SOL    HW2 4914   6.770   4.144   4.867
 1339SOL     OW 4915   6.785   0.174   0.302
 1339SOL    HW1 4916   6.838   0.189   0.385
 1339SOL    HW2 4917   6.766   0.262   0.258
 1340SOL     OW 4918   4.277   2.738   1.324
 1340SOL    HW1 4919   4.208   2.781   1.383
 1340SOL    HW2 4920   4.237   2.718   1.235
 1341SOL     OW 4921   4.975   5.716   7.000
 1341SOL    HW1 4922   4.913   5.696   0.056
 1341SOL    HW2 4923   5.061   5.752   0.016
 1342SOL     OW 4924   1.984   6.361   1.716
 1342SOL    HW1 4925   1.927   6.347   1.797
 1342SOL    HW2 4926   2.024   6.453   1.719
 1343SOL     OW 4927   6.111   6.187   3.361
 1343SOL    HW1 4928   6.054   6.122   3.412
 1343SOL    HW2 4929   6.186   6.217   3.420
 1344SOL     OW 4930   0.722   0.709   4.608
 1344SOL    HW1 4931   0.821   0.721   4.600
 1344SOL    HW2 4932   0.702   0.630   4.667
 1345SOL     OW 4933   0.482   6.275   0.108
 1345SOL    HW1 4934   0.576   6.308   0.109
 1345SOL    HW2 4935   0.423   6.343   0.151
 1346SOL     OW 4936   3.262   4.954   5.009
 1346SOL    HW1 4937   3.213   4.893   5.072
 1346SOL    HW2 4938   3.300   5.031   5.061
 1347SOL     OW 4939   1.286   0.011   6.538
 1347SOL    HW1 4940   1.218   0.083   6.521
 1347SOL    HW2 4941   1.332   7.007   6.453
 1348SOL     OW 4942   0.389   6.249   5.170
 1348SOL    HW1 4943   0.356   6.231   5.263
 1348SOL    HW2 4944   0.437   6.167   5.136
 1349SOL     OW 4945   4.728   2.760   3.827
 1349SOL    HW1 4946   4.819   2.729   3.852
 1349SOL    HW2 4947   4.735   2.834   3.760
 1350SOL     OW 4948   4.221   4.275   6.760
 1350SOL    HW1 4949   4.254   4.298   6.851
 1350SOL    HW2 4950   4.155   4.343   6.729
 1351SOL     OW 4951   0.586   2.829   5.821
 1351SOL    HW1 4952   0.664   2.862   5.769
 1351SOL    HW2 4953   0.517   2.901   5.829
 1352SOL     OW 4954   6.944   0.527   1.889
 1352SOL    HW1 4955   0.011   0.478   1.884
 1352SOL    HW2 4956   6.950   0.598   1.959
 1353SOL     OW 4957   0.918   0.894   0.273
 1353SOL    HW1 4958   0.954   0.970   0.219
 1353SOL    HW2 4959   0.979   0.815   0.265
 1354SOL     OW 4960   4.494   5.209   2.810
 1354SOL    HW1 4961   4.414   5.167   2.854
 1354SOL    HW2 4962   4.576   5.186   2.862
 1355SOL     OW 4963   5.568   2.868   5.947
 1355SOL    HW1 4964   5.515   2.851   5.864
 1355SOL    HW2 4965   5.507   2.870   6.026
 1356SOL     OW 4966   2.535   3.120   0.021
 1356SOL    HW1 4967   2.576   3.180   6.973
 1356SOL    HW2 4968   2.607   3.075   0.074
 1357SOL     OW 4969   1.342   3.288   5.524
 1357SOL    HW1 4970   1.423   3.237   5.495
 1357SOL    HW2 4971   1.367   3.349   5.599
 1358SOL     OW 4972   2.571   6.934   0.262
 1358SOL    HW1 4973   2.476   6.965   0.263
 1358SOL    HW2 4974   2.622   6.980   0.335
 1359SOL     OW 4975   6.456   4.609   1.299
 1359SOL    HW1 4976   6.526   4.602   1.369
 1359SOL    HW2 4977   6.421   4.518   1.277
 1360SOL     OW 4978   2.100   2.554   0.115
 1360SOL    HW1 4979   2.165   2.496   0.165
 1360SOL    HW2 4980   2.141   2.644   0.101
 1361SOL     OW 4981   6.927   4.523   4.866
 1361SOL    HW1 4982   6.915   4.622   4.880
 1361SOL    HW2 4983   6.884   4.497   4.780
 1362SOL     OW 4984   3.643   3.178   3.032
 1362SOL    HW1 4985   3.701   3.223   2.965
 1362SOL    HW2 4986   3.555   3.155   2.990
 1363SOL     OW 4987   1.055   6.041   4.270
 1363SOL    HW1 4988   0.991   5.993   4.209
 1363SOL    HW2 4989   1.148   6.012   4.248
 1364SOL     OW 4990   4.675   4.324   0.992
 1364SOL    HW1 4991   4.756   4.349   0.938
 1364SOL    HW2 4992   4.625   4.251   0.945
 1365SOL     OW 4993   6.195   3.294   6.658
 1365SOL    HW1 4994   6.146   3.211   6.631
 1365SOL    HW2 4995   6.167   3.322   6.749
 1366SOL     OW 4996   2.975   6.898   5.272
 1366SOL    HW1 4997   3.029   6.861   5.197
 1366SOL    HW2 4998   2.898   6.837   5.291
 1367SOL     OW 4999   2.569   1.220   2.029
 1367SOL    HW1 5000   2.642   1.214   1.961
 1367SOL    HW2 5001   2.487   1.174   1.994
 1368SOL     OW 5002   5.644   6.394   3.312
 1368SOL    HW1 5003   5.571   6.361   3.371
 1368SOL    HW2 5004   5.645   6.494   3.312
 1369SOL     OW 5005   1.158   0.924   2.911
 1369SOL    HW1 5006   1.070   0.888   2.942
 1369SOL    HW2 5007   1.148   0.967   2.821
 1370SOL     OW 5008   2.296   0.491   1.586
 1370SOL    HW1 5009   2.260   0.574   1.545
 1370SOL    HW2 5010   2.221   0.425   1.600
 1371SOL     OW 5011   4.102   0.268   6.908
 1371SOL    HW1 5012   4.173   0.203   6.880
 1371SOL    HW2 5013   4.057   0.305   6.827
 1372SOL     OW 5014   3.059   2.122   2.064
 1372SOL    HW1 5015   3.117   2.144   1.986
 1372SOL    HW2 5016   2.977   2.180   2.063
 1373SOL     OW 5017   1.081   5.944   0.554
 1373SOL    HW1 5018   1.046   6.031   0.521
 1373SOL    HW2 5019   1.181   5.941   0.543
 1374SOL     OW 5020   4.994   3.535   0.275
 1374SOL    HW1 5021   5.042   3.623   0.275
 1374SOL    HW2 5022   4.955   3.519   0.366
 1375SOL     OW 5023   0.875   4.397   5.088
 1375SOL    HW1 5024   0.820   4.321   5.122
 1375SOL    HW2 5025   0.815   4.473   5.061
 1376SOL     OW 5026   4.039   1.671   2.708
 1376SOL    HW1 5027   4.127   1.625   2.702
 1376SOL    HW2 5028   4.025   1.727   2.627
 1377SOL     OW 5029   1.037   4.988   4.843
 1377SOL    HW1 5030   1.045   4.956   4.938
 1377SOL    HW2 5031   1.053   4.911   4.782
 1378SOL     OW 5032   1.664   2.822   6.698
 1378SOL    HW1 5033   1.720   2.742   6.723
 1378SOL    HW2 5034   1.723   2.902   6.690
 1379SOL     OW 5035   4.344   5.888   1.333
 1379SOL    HW1 5036   4.309   5.910   1.423
 1379SOL    HW2 5037   4.432   5.934   1.319
 1380SOL     OW 5038   6.152   6.276   2.751
 1380SOL    HW1 5039   6.167   6.296   2.654
 1380SOL    HW2 5040   6.146   6.361   2.802
 1381SOL     OW 5041   5.897   0.300   1.263
 1381SOL    HW1 5042   5.941   0.210   1.263
 1381SOL    HW2 5043   5.959   0.368   1.223
 1382SOL     OW 5044   6.716   4.852   6.243
 1382SOL    HW1 5045   6.691   4.939   6.286
 1382SOL    HW2 5046   6.797   4.865   6.187
 1383SOL     OW 5047   2.790   0.376   0.095
 1383SOL    HW1 5048   2.785   0.443   0.021
 1383SOL    HW2 5049   2.721   0.305   0.081
 1384SOL     OW 5050   2.463   2.138   2.263
 1384SOL    HW1 5051   2.412   2.175   2.186
 1384SOL    HW2 5052   2.558   2.121   2.236
 1385SOL     OW 5053   5.649   2.916   3.961
 1385SOL    HW1 5054   5.612   2.824   3.950
 1385SOL    HW2 5055   5.576   2.979   3.987
 1386SOL     OW 5056   2.081   2.735   4.087
 1386SOL    HW1 5057   1.997   2.736   4.141
 1386SOL    HW2 5058   2.160   2.737   4.149
 1387SOL     OW 5059   2.263   0.675   4.578
 1387SOL    HW1 5060   2.298   0.653   4.487
 1387SOL    HW2 5061   2.220   0.765   4.576
 1388SOL     OW 5062   6.361   1.174   4.770
 1388SOL    HW1 5063   6.324   1.183   4.678
 1388SOL    HW2 5064   6.458   1.200   4.770
 1389SOL     OW 5065   6.623   0.788   3.954
 1389SOL    HW1 5066   6.573   0.704   3.933
 1389SOL    HW2 5067   6.658   0.828   3.869
 1390SOL     OW 5068   4.393   2.409   2.223
 1390SOL    HW1 5069   4.346   2.449   2.301
 1390SOL    HW2 5070   4.480   2.455   2.209
 1391SOL     OW 5071   5.921   1.515   4.645
 1391SOL    HW1 5072   5.863   1.576   4.590
 1391SOL    HW2 5073   6.017   1.542   4.635
 1392SOL     OW 5074   4.519   5.991   5.370
 1392SOL    HW1 5075   4.564   5.913   5.412
 1392SOL    HW2 5076   4.576   6.073   5.382
 1393SOL     OW 5077   5.222   0.115   6.751
 1393SOL    HW1 5078   5.151   0.081   6.689
 1393SOL    HW2 5079   5.286   0.041   6.773
 1394SOL     OW 5080   4.278   0.563   3.714
 1394SOL    HW1 5081   4.285   0.586   3.811
 1394SOL    HW2 5082   4.255   0.466   3.704
 1395SOL     OW 5083   0.782   5.042   2.348
 1395SOL    HW1 5084   0.882   5.041   2.356
 1395SOL    HW2 5085   0.755   5.120   2.290
 1396SOL     OW 5086   1.272   1.308   3.874
 1396SOL    HW1 5087   1.239   1.248   3.947
 1396SOL    HW2 5088   1.243   1.273   3.786
 1397SOL     OW 5089   0.793   5.156   5.345
 1397SOL    HW1 5090   0.806   5.167   5.443
 1397SOL    HW2 5091   0.789   5.059   5.322
 1398SOL     OW 5092   1.837   6.838   6.447
 1398SOL    HW1 5093   1.885   6.910   6.497
 1398SOL    HW2 5094   1.820   6.869   6.353
 1399SOL     OW 5095   3.937   0.052   6.384
 1399SOL    HW1 5096   3.915   0.080   6.291
 1399SOL    HW2 5097   3.882   0.105   6.449
 1400SOL     OW 5098   6.938   1.308   4.827
 1400SOL    HW1 5099   6.858   1.346   4.871
 1400SOL    HW2 5100   6.955   1.356   4.740
 1401SOL     OW 5101   5.672   0.420   2.542
 1401SOL    HW1 5102   5.634   0.466   2.622
 1401SOL    HW2 5103   5.753   0.367   2.568
 1402SOL     OW 5104   6.930   4.853   2.043
 1402SOL    HW1 5105   0.003   4.817   2.045
 1402SOL    HW2 5106   6.867   4.784   2.079
 1403SOL     OW 5107   3.226   3.265   5.986
 1403SOL    HW1 5108   3.322   3.241   5.994
 1403SOL    HW2 5109   3.198   3.259   5.890
 1404SOL     OW 5110   4.293   6.899   0.924
 1404SOL    HW1 5111   4.214   6.854   0.967
 1404SOL    HW2 5112   4.377   6.866   0.967
 1405SOL     OW 5113   0.832   3.790   0.384
 1405SOL    HW1 5114   0.777   3.854   0.330
 1405SOL    HW2 5115   0.791   3.779   0.474
 1406SOL     OW 5116   2.153   2.882   0.144
 1406SOL    HW1 5117   2.062   2.854   0.112
 1406SOL    HW2 5118   2.143   2.957   0.209
 1407SOL     OW 5119   0.775   2.653   0.996
 1407SOL    HW1 5120   0.734   2.713   0.926
 1407SOL    HW2 5121   0.710   2.642   1.071
 1408SOL     OW 5122   5.493   6.413   0.839
 1408SOL    HW1 5123   5.503   6.435   0.743
 1408SOL    HW2 5124   5.582   6.390   0.878
 1409SOL     OW 5125   6.362   1.766   5.671
 1409SOL    HW1 5126   6.359   1.852   5.621
 1409SOL    HW2 5127   6.294   1.703   5.633
 1410SOL     OW 5128   3.412   0.168   0.031
 1410SOL    HW1 5129   3.347   0.119   0.088
 1410SOL    HW2 5130   3.501   0.123   0.036
 1411SOL     OW 5131   3.505   4.799   6.772
 1411SOL    HW1 5132   3.487   4.770   6.866
 1411SOL    HW2 5133   3.431   4.858   6.741
 1412SOL     OW 5134   2.587   1.951   0.166
 1412SOL    HW1 5135   2.499   1.992   0.192
 1412SOL    HW2 5136   2.579   1.851   0.168
 1413SOL     OW 5137   2.147   1.721   5.322
 1413SOL    HW1 5138   2.078   1.751   5.387
 1413SOL    HW2 5139   2.194   1.801   5.284
 1414SOL     OW 5140   0.964   5.015   1.774
 1414SOL    HW1 5141   1.044   5.061   1.734
 1414SOL    HW2 5142   0.954   4.924   1.732
 1415SOL     OW 5143   3.230   1.824   5.081
 1415SOL    HW1 5144   3.305   1.874   5.124
 1415SOL    HW2 5145   3.211   1.741   5.134
 1416SOL     OW 5146   4.246   0.848   4.830
 1416SOL    HW1 5147   4.195   0.763   4.832
 1416SOL    HW2 5148   4.336   0.835   4.873
 1417SOL     OW 5149   3.329   3.521   4.296
 1417SOL    HW1 5150   3.373   3.598   4.340
 1417SOL    HW2 5151   3.230   3.535   4.295
 1418SOL     OW 5152   3.314   3.546   5.796
 1418SOL    HW1 5153   3.222   3.524   5.764
 1418SOL    HW2 5154   3.374   3.560   5.717
 1419SOL     OW 5155   1.023   5.957   2.368
 1419SOL    HW1 5156   0.998   5.927   2.460
 1419SOL    HW2 5157   1.092   5.896   2.330
 1420SOL     OW 5158   2.891   5.994   2.841
 1420SOL    HW1 5159   2.812   6.053   2.826
 1420SOL    HW2 5160   2.972   6.049   2.858
 1421SOL     OW 5161   2.248   5.326   6.668
 1421SOL    HW1 5162   2.336   5.277   6.672
 1421SOL    HW2 5163   2.265   5.424   6.673
 1422SOL     OW 5164   1.808   3.467   6.626
 1422SOL    HW1 5165   1.729   3.411   6.653
 1422SOL    HW2 5166   1.892   3.422   6.657
 1423SOL     OW 5167   3.740   0.674   4.995
 1423SOL    HW1 5168   3.647   0.706   5.014
 1423SOL    HW2 5169   3.754   0.671   4.896
 1424SOL     OW 5170   6.630   2.655   0.925
 1424SOL    HW1 5171   6.629   2.686   0.830
 1424SOL    HW2 5172   6.601   2.559   0.929
 1425SOL     OW 5173   5.275   0.246   3.821
 1425SOL    HW1 5174   5.266   0.200   3.909
 1425SOL    HW2 5175   5.185   0.270   3.786
 1426SOL     OW 5176   4.516   0.359   6.971
 1426SOL    HW1 5177   4.428   0.406   6.969
 1426SOL    HW2 5178   4.590   0.426   6.967
 1427SOL     OW 5179   1.016   0.630   4.186
 1427SOL    HW1 5180   1.030   0.553   4.124
 1427SOL    HW2 5181   0.960   0.601   4.263
 1428SOL     OW 5182   2.183   3.831   3.876
 1428SOL    HW1 5183   2.152   3.907   3.932
 1428SOL    HW2 5184   2.216   3.757   3.935
 1429SOL     OW 5185   5.930   0.191   1.811
 1429SOL    HW1 5186   5.846   0.228   1.771
 1429SOL    HW2 5187   6.000   0.184   1.740
 1430SOL     OW 5188   2.166   4.043   4.343
 1430SOL    HW1 5189   2.206   3.971   4.287
 1430SOL    HW2 5190   2.224   4.125   4.338
 1431SOL     OW 5191   3.298   1.313   0.470
 1431SOL    HW1 5192   3.248   1.280   0.390
 1431SOL    HW2 5193   3.262   1.402   0.498
 1432SOL     OW 5194   4.389   6.766   2.738
 1432SOL    HW1 5195   4.454   6.839   2.717
 1432SOL    HW2 5196   4.438   6.689   2.781
 1433SOL     OW 5197   3.035   1.221   3.710
 1433SOL    HW1 5198   3.103   1.294   3.700
 1433SOL    HW2 5199   3.055   1.148   3.644
 1434SOL     OW 5200   5.466   4.171   0.436
 1434SOL    HW1 5201   5.491   4.207   0.526
 1434SOL    HW2 5202   5.446   4.248   0.375
 1435SOL     OW 5203   0.773   7.012   4.544
 1435SOL    HW1 5204   0.816   6.964   4.467
 1435SOL    HW2 5205   0.782   6.958   4.627
 1436SOL     OW 5206   5.584   0.952   0.200
 1436SOL    HW1 5207   5.551   0.859   0.186
 1436SOL    HW2 5208   5.629   0.959   0.289
 1437SOL     OW 5209   4.147   1.249   0.352
 1437SOL    HW1 5210   4.151   1.343   0.384
 1437SOL    HW2 5211   4.240   1.213   0.342
 1438SOL     OW 5212   2.182   6.992   2.376
 1438SOL    HW1 5213   2.266   7.015   2.425
 1438SOL    HW2 5214   2.135   0.056   2.349
 1439SOL     OW 5215   0.646   5.402   6.512
 1439SOL    HW1 5216   0.636   5.397   6.611
 1439SOL    HW2 5217   0.683   5.492   6.487
 1440SOL     OW 5218   4.118   3.445   2.471
 1440SOL    HW1 5219   4.092   3.349   2.462
 1440SOL    HW2 5220   4.179   3.471   2.396
 1441SOL     OW 5221   5.955   1.972   5.852
 1441SOL    HW1 5222   6.007   1.896   5.814
 1441SOL    HW2 5223   5.969   1.977   5.951
 1442SOL     OW 5224   5.364   6.119   0.375
 1442SOL    HW1 5225   5.387   6.123   0.278
 1442SOL    HW2 5226   5.435   6.164   0.428
 1443SOL     OW 5227   1.391   2.778   3.320
 1443SOL    HW1 5228   1.327   2.730   3.260
 1443SOL    HW2 5229   1.405   2.724   3.403
 1444SOL     OW 5230   5.332   6.523   5.058
 1444SOL    HW1 5231   5.337   6.444   4.996
 1444SOL    HW2 5232   5.424   6.561   5.069
 1445SOL     OW 5233   6.553   1.603   0.446
 1445SOL    HW1 5234   6.623   1.656   0.495
 1445SOL    HW2 5235   6.466   1.611   0.493
 1446SOL     OW 5236   3.755   6.084   1.519
 1446SOL    HW1 5237   3.759   6.070   1.618
 1446SOL    HW2 5238   3.778   6.179   1.498
 1447SOL     OW 5239   6.521   1.191   5.040
 1447SOL    HW1 5240   6.453   1.172   4.970
 1447SOL    HW2 5241   6.482   1.253   5.108
 1448SOL     OW 5242   5.487   0.728   6.827
 1448SOL    HW1 5243   5.474   0.633   6.857
 1448SOL    HW2 5244   5.581   0.756   6.845
 1449SOL     OW 5245   4.701   5.379   0.995
 1449SOL    HW1 5246   4.611   5.365   1.037
 1449SOL    HW2 5247   4.771   5.379   1.066
 1450SOL     OW 5248   6.259   2.003   3.366
 1450SOL    HW1 5249   6.162   2.022   3.381
 1450SOL    HW2 5250   6.309   2.014   3.452
 1451SOL     OW 5251   1.634   6.234   1.615
 1451SOL    HW1 5252   1.712   6.172   1.604
 1451SOL    HW2 5253   1.605   6.236   1.710
 1452SOL     OW 5254   3.564   0.722   5.400
 1452SOL    HW1 5255   3.606   0.651   5.343
 1452SOL    HW2 5256   3.612   0.727   5.487
 1453SOL     OW 5257   4.746   4.330   4.506
 1453SOL    HW1 5258   4.663   4.383   4.525
 1453SOL    HW2 5259   4.743   4.294   4.413
 1454SOL     OW 5260   4.866   4.399   0.777
 1454SOL    HW1 5261   4.904   4.483   0.818
 1454SOL    HW2 5262   4.787   4.423   0.721
 1455SOL     OW 5263   1.920   2.078   1.852
 1455SOL    HW1 5264   1.975   2.142   1.799
 1455SOL    HW2 5265   1.976   1.999   1.877
 1456SOL     OW 5266   5.691   5.194   4.931
 1456SOL    HW1 5267   5.774   5.155   4.890
 1456SOL    HW2 5268   5.617   5.127   4.926
 1457SOL     OW 5269   2.356   0.283   3.577
 1457SOL    HW1 5270   2.298   0.203   3.595
 1457SOL    HW2 5271   2.335   0.355   3.643
 1458SOL     OW 5272   6.904   5.427   0.398
 1458SOL    HW1 5273   6.877   5.469   0.312
 1458SOL    HW2 5274   6.922   5.498   0.466
 1459SOL     OW 5275   2.726   7.006   1.150
 1459SOL    HW1 5276   2.739   0.085   1.160
 1459SOL    HW2 5277   2.727   6.963   1.240
 1460SOL     OW 5278   0.856   6.601   0.018
 1460SOL    HW1 5279   0.800   6.674   7.000
 1460SOL    HW2 5280   0.863   6.526   6.972
 1461SOL     OW 5281   4.893   5.409   2.558
 1461SOL    HW1 5282   4.886   5.313   2.586
 1461SOL    HW2 5283   4.943   5.460   2.628
 1462SOL     OW 5284   5.075   0.361   5.229
 1462SOL    HW1 5285   5.084   0.274   5.277
 1462SOL    HW2 5286   5.051   0.433   5.295
 1463SOL     OW 5287   0.856   2.234   6.184
 1463SOL    HW1 5288   0.872   2.332   6.194
 1463SOL    HW2 5289   0.784   2.205   6.247
 1464SOL     OW 5290   0.580   0.974   1.719
 1464SOL    HW1 5291   0.643   1.052   1.715
 1464SOL    HW2 5292   0.626   0.892   1.685
 1465SOL     OW 5293   0.642   0.479   3.983
 1465SOL    HW1 5294   0.662   0.521   4.072
 1465SOL    HW2 5295   0.559   0.424   3.991
 1466SOL     OW 5296   5.438   5.147   4.661
 1466SOL    HW1 5297   5.374   5.137   4.585
 1466SOL    HW2 5298   5.528   5.114   4.634
 1467SOL     OW 5299   5.856   3.600   3.579
 1467SOL    HW1 5300   5.887   3.639   3.666
 1467SOL    HW2 5301   5.827   3.506   3.593
 1468SOL     OW 5302   5.059   0.048   2.013
 1468SOL    HW1 5303   5.085   0.010   1.924
 1468SOL    HW2 5304   4.960   0.060   2.016
 1469SOL     OW 5305   1.029   1.014   2.091
 1469SOL    HW1 5306   0.980   1.034   2.006
 1469SOL    HW2 5307   1.123   1.048   2.083
 1470SOL     OW 5308   6.800   0.724   3.202
 1470SOL    HW1 5309   6.797   0.653   3.272
 1470SOL    HW2 5310   6.896   0.751   3.186
 1471SOL     OW 5311   6.030   0.486   1.148
 1471SOL    HW1 5312   5.971   0.545   1.202
 1471SOL    HW2 5313   6.024   0.511   1.052
 1472SOL     OW 5314   4.856   5.538   4.699
 1472SOL    HW1 5315   4.847   5.444   4.666
 1472SOL    HW2 5316   4.864   5.537   4.798
 1473SOL     OW 5317   6.248   4.109   3.125
 1473SOL    HW1 5318   6.282   4.145   3.212
 1473SOL    HW2 5319   6.319   4.117   3.056
 1474SOL     OW 5320   4.825   5.416   3.265
 1474SOL    HW1 5321   4.825   5.508   3.226
 1474SOL    HW2 5322   4.756   5.410   3.337
 1475SOL     OW 5323   6.074   0.830   3.689
 1475SOL    HW1 5324   5.999   0.834   3.623
 1475SOL    HW2 5325   6.137   0.758   3.664
 1476SOL     OW 5326   6.953   2.465   1.019
 1476SOL    HW1 5327   6.969   2.561   1.043
 1476SOL    HW2 5328   6.999   2.445   0.932
 1477SOL     OW 5329   2.207   6.341   3.795
 1477SOL    HW1 5330   2.171   6.385   3.877
 1477SOL    HW2 5331   2.132   6.293   3.749
 1478SOL     OW 5332   0.096   4.090   1.694
 1478SOL    HW1 5333   0.055   4.125   1.778
 1478SOL    HW2 5334   0.055   4.001   1.672
 1479SOL     OW 5335   1.405   4.925   0.639
 1479SOL    HW1 5336   1.440   4.953   0.729
 1479SOL    HW2 5337   1.312   4.890   0.649
 1480SOL     OW 5338   2.571   1.091   0.110
 1480SOL    HW1 5339   2.667   1.077   0.083
 1480SOL    HW2 5340   2.518   1.118   0.030
 1481SOL     OW 5341   0.581   3.316   6.410
 1481SOL    HW1 5342   0.563   3.319   6.508
 1481SOL    HW2 5343   0.674   3.281   6.394
 1482SOL     OW 5344   5.351   0.506   6.260
 1482SOL    HW1 5345   5.313   0.464   6.343
 1482SOL    HW2 5346   5.393   0.593   6.284
 1483SOL     OW 5347   6.523   2.081   6.399
 1483SOL    HW1 5348   6.491   1.996   6.440
 1483SOL    HW2 5349   6.621   2.073   6.378
 1484SOL     OW 5350   6.242   0.018   3.385
 1484SOL    HW1 5351   6.278   7.019   3.475
 1484SOL    HW2 5352   6.210   0.113   3.381
 1485SOL     OW 5353   5.893   3.043   4.073
 1485SOL    HW1 5354   5.867   3.072   4.165
 1485SOL    HW2 5355   5.819   2.990   4.033
 1486SOL     OW 5356   5.698   2.097   1.992
 1486SOL    HW1 5357   5.650   2.157   1.928
 1486SOL    HW2 5358   5.676   2.124   2.086
 1487SOL     OW 5359   6.909   1.067   5.914
 1487SOL    HW1 5360   6.821   1.031   5.945
 1487SOL    HW2 5361   6.964   0.992   5.876
 1488SOL     OW 5362   5.243   2.158   4.220
 1488SOL    HW1 5363   5.148   2.182   4.199
 1488SOL    HW2 5364   5.245   2.095   4.298
 1489SOL     OW 5365   3.797   5.296   4.075
 1489SOL    HW1 5366   3.820   5.302   4.172
 1489SOL    HW2 5367   3.876   5.321   4.020
 1490SOL     OW 5368   2.506   2.758   1.254
 1490SOL    HW1 5369   2.510   2.849   1.297
 1490SOL    HW2 5370   2.569   2.697   1.302
 1491SOL     OW 5371   0.277   2.731   5.447
 1491SOL    HW1 5372   0.304   2.635   5.436
 1491SOL    HW2 5373   0.227   2.761   5.365
 1492SOL     OW 5374   5.840   2.383   1.634
 1492SOL    HW1 5375   5.860   2.365   1.731
 1492SOL    HW2 5376   5.874   2.474   1.610
 1493SOL     OW 5377   6.080   1.737   5.285
 1493SOL    HW1 5378   6.142   1.741   5.207
 1493SOL    HW2 5379   6.006   1.673   5.265
 1494SOL     OW 5380   5.722   1.743   4.722
 1494SOL    HW1 5381   5.638   1.786   4.756
 1494SOL    HW2 5382   5.715   1.730   4.623
 1495SOL     OW 5383   0.999   3.736   2.839
 1495SOL    HW1 5384   0.975   3.640   2.838
 1495SOL    HW2 5385   1.083   3.750   2.786
 1496SOL     OW 5386   0.839   1.163   2.425
 1496SOL    HW1 5387   0.934   1.132   2.419
 1496SOL    HW2 5388   0.795   1.119   2.504
 1497SOL     OW 5389   5.341   4.931   5.571
 1497SOL    HW1 5390   5.423   4.906   5.519
 1497SOL    HW2 5391   5.275   4.975   5.510
 1498SOL     OW 5392   2.273   5.174   0.433
 1498SOL    HW1 5393   2.188   5.122   0.442
 1498SOL    HW2 5394   2.344   5.116   0.392
 1499SOL     OW 5395   1.004   4.186   4.425
 1499SOL    HW1 5396   0.996   4.094   4.464
 1499SOL    HW2 5397   0.995   4.180   4.325
 1500SOL     OW 5398   4.521   6.660   5.232
 1500SOL    HW1 5399   4.495   6.745   5.277
 1500SOL    HW2 5400   4.483   6.582   5.282
 1501SOL     OW 5401   3.978   0.224   0.133
 1501SOL    HW1 5402   4.000   0.220   0.035
 1501SOL    HW2 5403   4.000   0.315   0.168
 1502SOL     OW 5404   6.987   6.230   6.738
 1502SOL    HW1 5405   0.023   6.152   6.709
 1502SOL    HW2 5406   0.006   6.269   6.821
 1503SOL     OW 5407   3.512   4.276   5.186
 1503SOL    HW1 5408   3.611   4.277   5.171
 1503SOL    HW2 5409   3.471   4.203   5.131
 1504SOL     OW 5410   2.709   6.689   4.259
 1504SOL    HW1 5411   2.720   6.666   4.163
 1504SOL    HW2 5412   2.675   6.610   4.309
 1505SOL     OW 5413   4.801   6.807   2.216
 1505SOL    HW1 5414   4.733   6.872   2.183
 1505SOL    HW2 5415   4.810   6.732   2.151
 1506SOL     OW 5416   0.788   6.800   3.219
 1506SOL    HW1 5417   0.821   6.732   3.154
 1506SOL    HW2 5418   0.839   6.792   3.304
 1507SOL     OW 5419   2.803   2.329   0.027
 1507SOL    HW1 5420   2.808   2.278   0.113
 1507SOL    HW2 5421   2.887   2.313   6.995
 1508SOL     OW 5422   4.785   0.049   0.895
 1508SOL    HW1 5423   4.881   0.061   0.919
 1508SOL    HW2 5424   4.773   0.064   0.797
 1509SOL     OW 5425   5.479   1.583   6.821
 1509SOL    HW1 5426   5.476   1.674   6.861
 1509SOL    HW2 5427   5.572   1.565   6.788
 1510SOL     OW 5428   0.040   2.203   2.799
 1510SOL    HW1 5429   0.078   2.137   2.865
 1510SOL    HW2 5430   6.997   2.264   2.847
 1511SOL     OW 5431   0.847   3.157   0.483
 1511SOL    HW1 5432   0.848   3.085   0.552
 1511SOL    HW2 5433   0.912   3.134   0.410
 1512SOL     OW 5434   6.279   1.003   2.024
 1512SOL    HW1 5435   6.192   1.038   2.057
 1512SOL    HW2 5436   6.341   1.080   2.005
 1513SOL     OW 5437   3.253   0.641   2.534
 1513SOL    HW1 5438   3.184   0.621   2.604
 1513SOL    HW2 5439   3.319   0.566   2.529
 1514SOL     OW 5440   4.438   0.712   6.129
 1514SOL    HW1 5441   4.376   0.676   6.199
 1514SOL    HW2 5442   4.515   0.649   6.117
 1515SOL     OW 5443   5.479   5.412   5.065
 1515SOL    HW1 5444   5.569   5.406   5.110
 1515SOL    HW2 5445   5.493   5.425   4.967
 1516SOL     OW 5446   0.864   1.133   0.547
 1516SOL    HW1 5447   0.774   1.154   0.585
 1516SOL    HW2 5448   0.911   1.218   0.524
 1517SOL     OW 5449   3.372   5.412   3.360
 1517SOL    HW1 5450   3.355   5.321   3.399
 1517SOL    HW2 5451   3.359   5.481   3.430
 1518SOL     OW 5452   0.607   4.461   0.930
 1518SOL    HW1 5453   0.653   4.400   0.865
 1518SOL    HW2 5454   0.508   4.459   0.912
 1519SOL     OW 5455   7.005   3.852   1.010
 1519SOL    HW1 5456   0.046   3.915   1.056
 1519SOL    HW2 5457   7.010   3.762   1.053
 1520SOL     OW 5458   1.287   2.466   2.935
 1520SOL    HW1 5459   1.248   2.409   2.862
 1520SOL    HW2 5460   1.371   2.509   2.902
 1521SOL     OW 5461   2.351   4.145   5.402
 1521SOL    HW1 5462   2.357   4.081   5.325
 1521SOL    HW2 5463   2.421   4.216   5.392
 1522SOL     OW 5464   1.100   2.442   6.472
 1522SOL    HW1 5465   1.003   2.452   6.496
 1522SOL    HW2 5466   1.134   2.355   6.507
 1523SOL     OW 5467   5.833   1.112   1.214
 1523SOL    HW1 5468   5.909   1.156   1.261
 1523SOL    HW2 5469   5.850   1.113   1.115
 1524SOL     OW 5470   6.025   0.349   2.313
 1524SOL    HW1 5471   5.991   0.381   2.225
 1524SOL    HW2 5472   6.048   0.427   2.371
 1525SOL     OW 5473   4.641   1.153   6.149
 1525SOL    HW1 5474   4.590   1.236   6.168
 1525SOL    HW2 5475   4.578   1.079   6.126
 1526SOL     OW 5476   6.379   1.111   6.770
 1526SOL    HW1 5477   6.432   1.192   6.746
 1526SOL    HW2 5478   6.389   1.092   6.868
 1527SOL     OW 5479   2.791   1.303   5.839
 1527SOL    HW1 5480   2.829   1.375   5.898
 1527SOL    HW2 5481   2.832   1.215   5.864
 1528SOL     OW 5482   5.544   5.629   4.150
 1528SOL    HW1 5483   5.445   5.615   4.156
 1528SOL    HW2 5484   5.591   5.547   4.183
 1529SOL     OW 5485   2.326   0.365   5.402
 1529SOL    HW1 5486   2.337   0.385   5.305
 1529SOL    HW2 5487   2.414   0.372   5.448
 1530SOL     OW 5488   2.929   6.672   1.666
 1530SOL    HW1 5489   2.955   6.654   1.761
 1530SOL    HW2 5490   2.878   6.594   1.629
 1531SOL     OW 5491   5.583   0.305   6.223
 1531SOL    HW1 5492   5.664   0.322   6.166
 1531SOL    HW2 5493   5.516   0.378   6.207
 1532SOL     OW 5494   3.205   2.527   5.356
 1532SOL    HW1 5495   3.175   2.452   5.298
 1532SOL    HW2 5496   3.152   2.528   5.441
 1533SOL     OW 5497   5.311   2.854   7.013
 1533SOL    HW1 5498   5.313   2.877   6.916
 1533SOL    HW2 5499   5.242   2.909   0.039
 1534SOL     OW 5500   6.449   0.155   2.277
 1534SOL    HW1 5501   6.359   0.158   2.319
 1534SOL    HW2 5502   6.447   0.094   2.198
 1535SOL     OW 5503   5.184   4.214   4.293
 1535SOL    HW1 5504   5.114   4.227   4.222
 1535SOL    HW2 5505   5.275   4.219   4.250
 1536SOL     OW 5506   3.020   5.559   3.296
 1536SOL    HW1 5507   2.945   5.540   3.232
 1536SOL    HW2 5508   3.006   5.648   3.338
 1537SOL     OW 5509   2.954   5.534   4.707
 1537SOL    HW1 5510   2.935   5.582   4.622
 1537SOL    HW2 5511   3.048   5.502   4.707
 1538SOL     OW 5512   3.526   4.993   6.496
 1538SOL    HW1 5513   3.592   5.010   6.422
 1538SOL    HW2 5514   3.576   4.977   6.581
 1539SOL     OW 5515   3.647   6.079   2.112
 1539SOL    HW1 5516   3.563   6.128   2.137
 1539SOL    HW2 5517   3.654   6.075   2.012
 1540SOL     OW 5518   5.936   0.365   5.181
 1540SOL    HW1 5519   6.019   0.312   5.195
 1540SOL    HW2 5520   5.899   0.394   5.269
 1541SOL     OW 5521   4.872   1.222   1.104
 1541SOL    HW1 5522   4.807   1.192   1.034
 1541SOL    HW2 5523   4.860   1.320   1.121
 1542SOL     OW 5524   0.931   5.752   0.744
 1542SOL    HW1 5525   1.004   5.818   0.725
 1542SOL    HW2 5526   0.962   5.688   0.815
 1543SOL     OW 5527   3.418   4.061   2.933
 1543SOL    HW1 5528   3.399   3.968   2.965
 1543SOL    HW2 5529   3.516   4.078   2.938
 1544SOL     OW 5530   3.215   3.149   2.495
 1544SOL    HW1 5531   3.227   3.154   2.396
 1544SOL    HW2 5532   3.270   3.074   2.531
 1545SOL     OW 5533   0.254   0.698   4.340
 1545SOL    HW1 5534   0.240   0.770   4.409
 1545SOL    HW2 5535   0.338   0.648   4.361
 1546SOL     OW 5536   6.375   6.504   6.309
 1546SOL    HW1 5537   6.364   6.597   6.343
 1546SOL    HW2 5538   6.297   6.480   6.250
 1547SOL     OW 5539   3.099   5.835   0.147
 1547SOL    HW1 5540   3.119   5.784   0.063
 1547SOL    HW2 5541   3.078   5.770   0.221
 1548SOL     OW 5542   5.737   3.901   3.902
 1548SOL    HW1 5543   5.667   3.957   3.947
 1548SOL    HW2 5544   5.740   3.810   3.944
 1549SOL     OW 5545   7.008   2.486   0.393
 1549SOL    HW1 5546   7.019   2.585   0.405
 1549SOL    HW2 5547   0.063   2.451   0.337
 1550SOL     OW 5548   2.274   5.239   2.681
 1550SOL    HW1 5549   2.260   5.338   2.677
 1550SOL    HW2 5550   2.255   5.206   2.774
 1551SOL     OW 5551   0.332   3.103   1.655
 1551SOL    HW1 5552   0.397   3.027   1.660
 1551SOL    HW2 5553   0.340   3.148   1.566
 1552SOL     OW 5554   0.647   6.781   2.112
 1552SOL    HW1 5555   0.636   6.704   2.175
 1552SOL    HW2 5556   0.573   6.846   2.127
 1553SOL     OW 5557   5.126   0.984   6.231
 1553SOL    HW1 5558   5.101   1.080   6.244
 1553SOL    HW2 5559   5.199   0.960   6.295
 1554SOL     OW 5560   2.886   2.415   1.301
 1554SOL    HW1 5561   2.882   2.431   1.202
 1554SOL    HW2 5562   2.980   2.426   1.332
 1555SOL     OW 5563   4.018   0.735   0.418
 1555SOL    HW1 5564   4.022   0.833   0.401
 1555SOL    HW2 5565   4.064   0.713   0.504
 1556SOL     OW 5566   3.649   1.939   6.985
 1556SOL    HW1 5567   3.643   2.036   7.008
 1556SOL    HW2 5568   3.737   1.920   6.942
 1557SOL     OW 5569   1.749   3.365   0.537
 1557SOL    HW1 5570   1.744   3.414   0.624
 1557SOL    HW2 5571   1.827   3.303   0.538
 1558SOL     OW 5572   5.193   2.764   6.679
 1558SOL    HW1 5573   5.162   2.677   6.718
 1558SOL    HW2 5574   5.244   2.816   6.748
 1559SOL     OW 5575   2.500   6.149   3.016
 1559SOL    HW1 5576   2.508   6.222   3.084
 1559SOL    HW2 5577   2.419   6.165   2.960
 1560SOL     OW 5578   4.133   2.692   1.062
 1560SOL    HW1 5579   4.083   2.712   0.978
 1560SOL    HW2 5580   4.083   2.626   1.117
 1561SOL     OW 5581   5.786   6.318   0.910
 1561SOL    HW1 5582   5.789   6.397   0.972
 1561SOL    HW2 5583   5.787   6.234   0.964
 1562SOL     OW 5584   3.579   0.516   2.191
 1562SOL    HW1 5585   3.562   0.614   2.183
 1562SOL    HW2 5586   3.674   0.500   2.219
 1563SOL     OW 5587   1.874   2.747   4.248
 1563SOL    HW1 5588   1.930   2.721   4.326
 1563SOL    HW2 5589   1.837   2.839   4.262
 1564SOL     OW 5590   0.894   1.422   2.993
 1564SOL    HW1 5591   0.859   1.371   2.915
 1564SOL    HW2 5592   0.831   1.411   3.070
 1565SOL     OW 5593   4.778   1.686   5.054
 1565SOL    HW1 5594   4.703   1.649   4.999
 1565SOL    HW2 5595   4.803   1.776   5.020
 1566SOL     OW 5596   6.650   4.098   3.721
 1566SOL    HW1 5597   6.627   4.055   3.808
 1566SOL    HW2 5598   6.742   4.071   3.693
 1567SOL     OW 5599   5.312   0.468   5.044
 1567SOL    HW1 5600   5.393   0.494   5.097
 1567SOL    HW2 5601   5.260   0.400   5.096
 1568SOL     OW 5602   2.907   5.164   1.582
 1568SOL    HW1 5603   2.878   5.073   1.611
 1568SOL    HW2 5604   3.003   5.161   1.554
 1569SOL     OW 5605   2.714   1.360   2.700
 1569SOL    HW1 5606   2.723   1.427   2.774
 1569SOL    HW2 5607   2.803   1.349   2.655
 1570SOL     OW 5608   2.916   6.167   6.317
 1570SOL    HW1 5609   2.820   6.186   6.294
 1570SOL    HW2 5610   2.974   6.192   6.239
 1571SOL     OW 5611   0.131   3.472   4.551
 1571SOL    HW1 5612   0.039   3.502   4.523
 1571SOL    HW2 5613   0.198   3.504   4.485
 1572SOL     OW 5614   2.048   5.894   2.893
 1572SOL    HW1 5615   2.098   5.842   2.824
 1572SOL    HW2 5616   2.062   5.992   2.877
 1573SOL     OW 5617   5.150   5.682   0.461
 1573SOL    HW1 5618   5.232   5.653   0.413
 1573SOL    HW2 5619   5.103   5.601   0.498
 1574SOL     OW 5620   1.060   4.240   2.722
 1574SOL    HW1 5621   1.018   4.218   2.810
 1574SOL    HW2 5622   1.120   4.165   2.694
 1575SOL     OW 5623   0.177   2.493   0.168
 1575SOL    HW1 5624   0.233   2.566   0.128
 1575SOL    HW2 5625   0.215   2.404   0.143
 1576SOL     OW 5626   1.789   5.914   1.773
 1576SOL    HW1 5627   1.732   5.837   1.744
 1576SOL    HW2 5628   1.801   5.977   1.696
 1577SOL     OW 5629   3.693   6.009   3.909
 1577SOL    HW1 5630   3.694   5.976   3.815
 1577SOL    HW2 5631   3.715   6.107   3.910
 1578SOL     OW 5632   4.869   1.360   1.484
 1578SOL    HW1 5633   4.942   1.423   1.510
 1578SOL    HW2 5634   4.791   1.371   1.545
 1579SOL     OW 5635   1.483   3.268   1.484
 1579SOL    HW1 5636   1.393   3.306   1.502
 1579SOL    HW2 5637   1.495   3.256   1.385
 1580SOL     OW 5638   3.349   2.928   2.663
 1580SOL    HW1 5639   3.322   2.893   2.574
 1580SOL    HW2 5640   3.267   2.956   2.714
 1581SOL     OW 5641   6.398   4.090   5.002
 1581SOL    HW1 5642   6.341   4.011   5.023
 1581SOL    HW2 5643   6.456   4.069   4.923
 1582SOL     OW 5644   5.032   5.976   4.903
 1582SOL    HW1 5645   4.971   5.996   4.980
 1582SOL    HW2 5646   4.987   6.000   4.817
 1583SOL     OW 5647   1.674   5.674   5.736
 1583SOL    HW1 5648   1.700   5.617   5.657
 1583SOL    HW2 5649   1.614   5.747   5.705
 1584SOL     OW 5650   7.007   3.704   0.345
 1584SOL    HW1 5651   0.035   3.619   0.365
 1584SOL    HW2 5652   6.956   3.693   0.260
 1585SOL     OW 5653   4.542   6.486   3.881
 1585SOL    HW1 5654   4.621   6.464   3.938
 1585SOL    HW2 5655   4.546   6.583   3.855
 1586SOL     OW 5656   2.745   6.095   2.558
 1586SOL    HW1 5657   2.677   6.125   2.624
 1586SOL    HW2 5658   2.763   5.998   2.570
 1587SOL     OW 5659   3.233   6.607   6.785
 1587SOL    HW1 5660   3.269   6.520   6.752
 1587SOL    HW2 5661   3.155   6.634   6.728
 1588SOL     OW 5662   6.526   2.008   3.229
 1588SOL    HW1 5663   6.500   1.995   3.133
 1588SOL    HW2 5664   6.444   2.014   3.285
 1589SOL     OW 5665   6.894   3.531   4.486
 1589SOL    HW1 5666   6.828   3.477   4.539
 1589SOL    HW2 5667   6.850   3.615   4.455
 1590SOL     OW 5668   6.353   1.397   3.421
 1590SOL    HW1 5669   6.451   1.395   3.442
 1590SOL    HW2 5670   6.332   1.480   3.370
 1591SOL     OW 5671   1.446   5.656   0.889
 1591SOL    HW1 5672   1.499   5.610   0.960
 1591SOL    HW2 5673   1.389   5.727   0.931
 1592SOL     OW 5674   0.129   3.835   5.752
 1592SOL    HW1 5675   0.198   3.882   5.806
 1592SOL    HW2 5676   0.096   3.896   5.680
 1593SOL     OW 5677   3.674   6.500   0.307
 1593SOL    HW1 5678   3.709   6.411   0.281
 1593SOL    HW2 5679   3.578   6.508   0.279
 1594SOL     OW 5680   5.479   0.482   2.744
 1594SOL    HW1 5681   5.429   0.568   2.737
 1594SOL    HW2 5682   5.430   0.421   2.806
 1595SOL     OW 5683   0.541   3.158   6.952
 1595SOL    HW1 5684   0.529   3.214   0.014
 1595SOL    HW2 5685   0.532   3.215   6.871
 1596SOL     OW 5686   4.657   4.753   3.469
 1596SOL    HW1 5687   4.601   4.754   3.551
 1596SOL    HW2 5688   4.692   4.661   3.453
 1597SOL     OW 5689   3.120   6.109   0.239
 1597SOL    HW1 5690   3.069   6.039   0.189
 1597SOL    HW2 5691   3.189   6.065   0.297
 1598SOL     OW 5692   0.959   4.772   6.387
 1598SOL    HW1 5693   0.907   4.835   6.330
 1598SOL    HW2 5694   1.051   4.760   6.350
 1599SOL     OW 5695   4.336   5.403   3.549
 1599SOL    HW1 5696   4.346   5.502   3.537
 1599SOL    HW2 5697   4.247   5.374   3.513
 1600SOL     OW 5698   4.189   0.969   1.676
 1600SOL    HW1 5699   4.131   0.931   1.748
 1600SOL    HW2 5700   4.163   0.929   1.588
 1601SOL     OW 5701   6.665   1.428   4.612
 1601SOL    HW1 5702   6.637   1.342   4.655
 1601SOL    HW2 5703   6.761   1.422   4.585
 1602SOL     OW 5704   4.688   5.707   3.999
 1602SOL    HW1 5705   4.610   5.666   3.952
 1602SOL    HW2 5706   4.692   5.805   3.979
 1603SOL     OW 5707   2.882   4.884   2.918
 1603SOL    HW1 5708   2.869   4.837   3.005
 1603SOL    HW2 5709   2.822   4.964   2.915
 1604SOL     OW 5710   4.539   4.900   2.845
 1604SOL    HW1 5711   4.550   4.809   2.804
 1604SOL    HW2 5712   4.627   4.947   2.847
 1605SOL     OW 5713   4.882   4.640   0.522
 1605SOL    HW1 5714   4.927   4.720   0.481
 1605SOL    HW2 5715   4.846   4.666   0.612
 1606SOL     OW 5716   3.056   6.004   4.691
 1606SOL    HW1 5717   3.010   5.940   4.753
 1606SOL    HW2 5718   3.093   6.081   4.743
 1607SOL     OW 5719   4.853   4.458   3.871
 1607SOL    HW1 5720   4.810   4.547   3.855
 1607SOL    HW2 5721   4.817   4.418   3.955
 1608SOL     OW 5722   5.684   2.277   3.449
 1608SOL    HW1 5723   5.622   2.325   3.512
 1608SOL    HW2 5724   5.702   2.185   3.483
 1609SOL     OW 5725   2.358   6.803   1.428
 1609SOL    HW1 5726   2.433   6.737   1.432
 1609SOL    HW2 5727   2.348   6.847   1.517
 1610SOL     OW 5728   5.660   6.803   0.719
 1610SOL    HW1 5729   5.756   6.826   0.708
 1610SOL    HW2 5730   5.608   6.886   0.740
 1611SOL     OW 5731   1.470   4.148   0.273
 1611SOL    HW1 5732   1.408   4.151   0.352
 1611SOL    HW2 5733   1.417   4.133   0.190
 1612SOL     OW 5734   4.174   1.415   2.422
 1612SOL    HW1 5735   4.101   1.433   2.356
 1612SOL    HW2 5736   4.232   1.495   2.431
 1613SOL     OW 5737   6.674   5.654   2.436
 1613SOL    HW1 5738   6.629   5.597   2.505
 1613SOL    HW2 5739   6.714   5.596   2.366
 1614SOL     OW 5740   6.493   1.633   6.014
 1614SOL    HW1 5741   6.457   1.721   6.044
 1614SOL    HW2 5742   6.418   1.568   6.003
 1615SOL     OW 5743   0.023   4.078   5.941
 1615SOL    HW1 5744   0.036   4.150   5.873
 1615SOL    HW2 5745   0.109   4.027   5.952
 1616SOL     OW 5746   0.702   0.248   3.736
 1616SOL    HW1 5747   0.712   0.348   3.732
 1616SOL    HW2 5748   0.654   0.223   3.820
 1617SOL     OW 5749   6.670   5.662   3.296
 1617SOL    HW1 5750   6.604   5.701   3.359
 1617SOL    HW2 5751   6.760   5.657   3.340
 1618SOL     OW 5752   3.384   5.333   3.094
 1618SOL    HW1 5753   3.308   5.269   3.081
 1618SOL    HW2 5754   3.380   5.371   3.187
 1619SOL     OW 5755   0.643   4.598   6.487
 1619SOL    HW1 5756   0.602   4.509   6.468
 1619SOL    HW2 5757   0.698   4.592   6.570
 1620SOL     OW 5758   3.437   6.406   4.247
 1620SOL    HW1 5759   3.402   6.358   4.326
 1620SOL    HW2 5760   3.418   6.354   4.164
 1621SOL     OW 5761   4.609   5.461   0.569
 1621SOL    HW1 5762   4.530   5.420   0.524
 1621SOL    HW2 5763   4.588   5.555   0.595
 1622SOL     OW 5764   6.505   4.076   4.185
 1622SOL    HW1 5765   6.537   4.090   4.278
 1622SOL    HW2 5766   6.409   4.047   4.186
 1623SOL     OW 5767   0.122   2.557   2.905
 1623SOL    HW1 5768   0.109   2.581   3.001
 1623SOL    HW2 5769   0.217   2.527   2.891
 1624SOL     OW 5770   3.857   3.088   0.530
 1624SOL    HW1 5771   3.811   3.163   0.485
 1624SOL    HW2 5772   3.853   3.100   0.629
 1625SOL     OW 5773   0.633   6.800   0.787
 1625SOL    HW1 5774   0.700   6.870   0.763
 1625SOL    HW2 5775   0.549   6.816   0.734
 1626SOL     OW 5776   2.865   1.677   1.723
 1626SOL    HW1 5777   2.830   1.661   1.815
 1626SOL    HW2 5778   2.797   1.645   1.656
 1627SOL     OW 5779   4.040   2.269   6.166
 1627SOL    HW1 5780   4.036   2.296   6.070
 1627SOL    HW2 5781   4.132   2.285   6.201
 1628SOL     OW 5782   5.534   0.027   0.783
 1628SOL    HW1 5783   5.529   0.038   0.683
 1628SOL    HW2 5784   5.445   0.048   0.823
 1629SOL     OW 5785   0.934   0.194   3.528
 1629SOL    HW1 5786   0.944   0.098   3.502
 1629SOL    HW2 5787   0.840   0.211   3.555
 1630SOL     OW 5788   0.340   3.644   6.345
 1630SOL    HW1 5789   0.304   3.574   6.407
 1630SOL    HW2 5790   0.438   3.628   6.330
 1631SOL     OW 5791   6.528   3.467   0.632
 1631SOL    HW1 5792   6.431   3.443   0.633
 1631SOL    HW2 5793   6.573   3.431   0.714
 1632SOL     OW 5794   6.561   5.782   2.103
 1632SOL    HW1 5795   6.566   5.685   2.080
 1632SOL    HW2 5796   6.477   5.820   2.064
 1633SOL     OW 5797   5.395   3.336   4.829
 1633SOL    HW1 5798   5.405   3.236   4.838
 1633SOL    HW2 5799   5.471   3.372   4.776
 1634SOL     OW 5800   0.395   2.841   6.128
 1634SOL    HW1 5801   0.399   2.764   6.064
 1634SOL    HW2 5802   0.488   2.875   6.144
 1635SOL     OW 5803   3.321   6.620   3.731
 1635SOL    HW1 5804   3.299   6.525   3.751
 1635SOL    HW2 5805   3.268   6.680   3.791
 1636SOL     OW 5806   6.462   5.976   1.069
 1636SOL    HW1 5807   6.452   6.071   1.098
 1636SOL    HW2 5808   6.559   5.951   1.069
 1637SOL     OW 5809   1.194   1.277   3.029
 1637SOL    HW1 5810   1.126   1.346   3.006
 1637SOL    HW2 5811   1.166   1.229   3.112
 1638SOL     OW 5812   5.401   2.342   2.201
 1638SOL    HW1 5813   5.483   2.357   2.146
 1638SOL    HW2 5814   5.416   2.265   2.263
 1639SOL     OW 5815   5.230   2.173   1.984
 1639SOL    HW1 5816   5.317   2.152   1.937
 1639SOL    HW2 5817   5.209   2.100   2.048
 1640SOL     OW 5818   5.753   0.623   6.037
 1640SOL    HW1 5819   5.731   0.675   6.120
 1640SOL    HW2 5820   5.793   0.535   6.061
 1641SOL     OW 5821   6.394   1.784   2.956
 1641SOL    HW1 5822   6.489   1.762   2.977
 1641SOL    HW2 5823   6.347   1.700   2.928
 1642SOL     OW 5824   6.874   3.406   6.414
 1642SOL    HW1 5825   6.934   3.326   6.415
 1642SOL    HW2 5826   6.785   3.381   6.452
 1643SOL     OW 5827   2.216   5.287   3.986
 1643SOL    HW1 5828   2.177   5.359   3.929
 1643SOL    HW2 5829   2.164   5.203   3.976
 1644SOL     OW 5830   6.155   2.282   1.773
 1644SOL    HW1 5831   6.093   2.205   1.787
 1644SOL    HW2 5832   6.249   2.249   1.773
 1645SOL     OW 5833   2.195   0.920   5.459
 1645SOL    HW1 5834   2.232   1.013   5.451
 1645SOL    HW2 5835   2.185   0.897   5.556
 1646SOL     OW 5836   1.257   4.843   1.172
 1646SOL    HW1 5837   1.278   4.940   1.168
 1646SOL    HW2 5838   1.333   4.790   1.135
 1647SOL     OW 5839   5.844   2.940   4.527
 1647SOL    HW1 5840   5.822   2.891   4.612
 1647SOL    HW2 5841   5.792   2.900   4.451
 1648SOL     OW 5842   5.737   6.037   1.506
 1648SOL    HW1 5843   5.639   6.018   1.498
 1648SOL    HW2 5844   5.755   6.077   1.596
 1649SOL     OW 5845   3.735   1.628   3.618
 1649SOL    HW1 5846   3.763   1.536   3.588
 1649SOL    HW2 5847   3.789   1.697   3.569
 1650SOL     OW 5848   3.014   3.524   5.416
 1650SOL    HW1 5849   3.039   3.428   5.404
 1650SOL    HW2 5850   3.062   3.580   5.349
 1651SOL     OW 5851   0.769   2.398   3.485
 1651SOL    HW1 5852   0.760   2.456   3.405
 1651SOL    HW2 5853   0.776   2.302   3.457
 1652SOL     OW 5854   0.634   3.434   1.892
 1652SOL    HW1 5855   0.680   3.518   1.921
 1652SOL    HW2 5856   0.659   3.414   1.797
 1653SOL     OW 5857   0.466   4.986   2.027
 1653SOL    HW1 5858   0.552   5.022   2.063
 1653SOL    HW2 5859   0.480   4.892   1.995
 1654SOL     OW 5860   0.340   3.482   1.812
 1654SOL    HW1 5861   0.438   3.477   1.827
 1654SOL    HW2 5862   0.311   3.578   1.813
 1655SOL     OW 5863   0.544   0.814   5.674
 1655SOL    HW1 5864   0.451   0.849   5.683
 1655SOL    HW2 5865   0.578   0.786   5.764
 1656SOL     OW 5866   2.222   3.987   3.171
 1656SOL    HW1 5867   2.165   4.030   3.101
 1656SOL    HW2 5868   2.286   4.054   3.208
 1657SOL     OW 5869   0.057   6.974   5.992
 1657SOL    HW1 5870   0.107   6.996   5.909
 1657SOL    HW2 5871   0.004   0.035   6.021
 1658SOL     OW 5872   5.392   6.461   6.277
 1658SOL    HW1 5873   5.379   6.370   6.238
 1658SOL    HW2 5874   5.374   6.530   6.206
 1659SOL     OW 5875   4.116   6.721   5.689
 1659SOL    HW1 5876   4.042   6.702   5.624
 1659SOL    HW2 5877   4.079   6.769   5.769
 1660SOL     OW 5878   2.321   0.673   2.138
 1660SOL    HW1 5879   2.362   0.596   2.088
 1660SOL    HW2 5880   2.389   0.710   2.202
 1661SOL     OW 5881   4.866   3.859   2.914
 1661SOL    HW1 5882   4.942   3.837   2.853
 1661SOL    HW2 5883   4.823   3.775   2.946
 1662SOL     OW 5884   0.365   2.127   3.755
 1662SOL    HW1 5885   0.369   2.145   3.657
 1662SOL    HW2 5886   0.280   2.165   3.792
 1663SOL     OW 5887   5.167   4.427   0.933
 1663SOL    HW1 5888   5.101   4.500   0.916
 1663SOL    HW2 5889   5.256   4.454   0.895
 1664SOL     OW 5890   1.294   0.524   6.283
 1664SOL    HW1 5891   1.212   0.550   6.232
 1664SOL    HW2 5892   1.346   0.607   6.306
 1665SOL     OW 5893   2.748   4.406   6.792
 1665SOL    HW1 5894   2.794   4.412   6.704
 1665SOL    HW2 5895   2.787   4.331   6.845
 1666SOL     OW 5896   4.740   6.393   6.439
 1666SOL    HW1 5897   4.701   6.476   6.399
 1666SOL    HW2 5898   4.838   6.406   6.454
 1667SOL     OW 5899   6.765   5.726   0.523
 1667SOL    HW1 5900   6.703   5.660   0.564
 1667SOL    HW2 5901   6.728   5.756   0.435
 1668SOL     OW 5902   5.695   3.775   2.210
 1668SOL    HW1 5903   5.756   3.838   2.257
 1668SOL    HW2 5904   5.600   3.806   2.221
 1669SOL     OW 5905   6.598   3.213   5.363
 1669SOL    HW1 5906   6.611   3.203   5.265
 1669SOL    HW2 5907   6.671   3.271   5.401
 1670SOL     OW 5908   2.692   4.647   5.781
 1670SOL    HW1 5909   2.721   4.728   5.833
 1670SOL    HW2 5910   2.629   4.593   5.837
 1671SOL     OW 5911   5.858   2.674   0.525
 1671SOL    HW1 5912   5.836   2.768   0.551
 1671SOL    HW2 5913   5.809   2.650   0.442
 1672SOL     OW 5914   0.539   2.488   0.951
 1672SOL    HW1 5915   0.579   2.403   0.985
 1672SOL    HW2 5916   0.440   2.486   0.967
 1673SOL     OW 5917   1.185   0.395   4.410
 1673SOL    HW1 5918   1.274   0.437   4.431
 1673SOL    HW2 5919   1.160   0.332   4.483
 1674SOL     OW 5920   4.991   1.913   3.065
 1674SOL    HW1 5921   4.910   1.968   3.045
 1674SOL    HW2 5922   5.072   1.961   3.032
 1675SOL     OW 5923   5.059   0.296   1.754
 1675SOL    HW1 5924   5.081   0.299   1.852
 1675SOL    HW2 5925   5.002   0.216   1.735
 1676SOL     OW 5926   0.997   2.527   3.560
 1676SOL    HW1 5927   0.908   2.482   3.561
 1676SOL    HW2 5928   1.053   2.489   3.486
 1677SOL     OW 5929   3.449   3.179   3.231
 1677SOL    HW1 5930   3.371   3.190   3.293
 1677SOL    HW2 5931   3.488   3.087   3.242
 1678SOL     OW 5932   1.532   0.316   0.543
 1678SOL    HW1 5933   1.585   0.316   0.628
 1678SOL    HW2 5934   1.487   0.227   0.532
 1679SOL     OW 5935   6.490   1.534   6.586
 1679SOL    HW1 5936   6.480   1.464   6.657
 1679SOL    HW2 5937   6.442   1.505   6.503
 1680SOL     OW 5938   5.790   2.668   3.221
 1680SOL    HW1 5939   5.766   2.731   3.147
 1680SOL    HW2 5940   5.769   2.574   3.193
 1681SOL     OW 5941   3.418   6.018   5.078
 1681SOL    HW1 5942   3.492   5.973   5.027
 1681SOL    HW2 5943   3.331   6.002   5.031
 1682SOL     OW 5944   3.482   0.419   4.226
 1682SOL    HW1 5945   3.494   0.517   4.242
 1682SOL    HW2 5946   3.426   0.380   4.298
 1683SOL     OW 5947   6.467   3.240   3.100
 1683SOL    HW1 5948   6.544   3.191   3.059
 1683SOL    HW2 5949   6.403   3.175   3.140
 1684SOL     OW 5950   2.675   4.695   1.742
 1684SOL    HW1 5951   2.735   4.641   1.801
 1684SOL    HW2 5952   2.640   4.774   1.794
 1685SOL     OW 5953   6.817   1.599   5.610
 1685SOL    HW1 5954   6.738   1.585   5.671
 1685SOL    HW2 5955   6.809   1.688   5.565
 1686SOL     OW 5956   4.382   5.616   2.659
 1686SOL    HW1 5957   4.437   5.699   2.665
 1686SOL    HW2 5958   4.412   5.551   2.728
 1687SOL     OW 5959   4.986   4.621   0.860
 1687SOL    HW1 5960   4.922   4.685   0.818
 1687SOL    HW2 5961   5.051   4.671   0.917
 1688SOL     OW 5962   1.279   0.192   3.300
 1688SOL    HW1 5963   1.247   0.214   3.392
 1688SOL    HW2 5964   1.247   0.262   3.236
 1689SOL     OW 5965   4.456   0.725   1.578
 1689SOL    HW1 5966   4.407   0.774   1.506
 1689SOL    HW2 5967   4.509   0.651   1.537
 1690SOL     OW 5968   6.625   4.756   3.996
 1690SOL    HW1 5969   6.700   4.695   3.967
 1690SOL    HW2 5970   6.583   4.797   3.915
 1691SOL     OW 5971   4.308   2.728   5.335
 1691SOL    HW1 5972   4.350   2.672   5.406
 1691SOL    HW2 5973   4.238   2.676   5.287
 1692SOL     OW 5974   5.231   4.873   1.386
 1692SOL    HW1 5975   5.153   4.818   1.417
 1692SOL    HW2 5976   5.226   4.886   1.287
 1693SOL     OW 5977   5.544   6.636   6.395
 1693SOL    HW1 5978   5.497   6.556   6.358
 1693SOL    HW2 5979   5.643   6.622   6.388
 1694SOL     OW 5980   4.830   1.802   6.132
 1694SOL    HW1 5981   4.902   1.741   6.100
 1694SOL    HW2 5982   4.865   1.858   6.208
 1695SOL     OW 5983   3.571   0.552   5.827
 1695SOL    HW1 5984   3.660   0.563   5.783
 1695SOL    HW2 5985   3.555   0.455   5.848
 1696SOL     OW 5986   4.232   6.532   0.731
 1696SOL    HW1 5987   4.278   6.565   0.813
 1696SOL    HW2 5988   4.275   6.571   0.649
 1697SOL     OW 5989   4.819   2.811   1.909
 1697SOL    HW1 5990   4.741   2.765   1.866
 1697SOL    HW2 5991   4.794   2.905   1.933
 1698SOL     OW 5992   4.059   1.333   1.292
 1698SOL    HW1 5993   4.032   1.429   1.284
 1698SOL    HW2 5994   4.104   1.319   1.380
 1699SOL     OW 5995   2.286   0.287   0.445
 1699SOL    HW1 5996   2.206   0.336   0.410
 1699SOL    HW2 5997   2.355   0.279   0.373
 1700SOL     OW 5998   5.489   2.652   2.832
 1700SOL    HW1 5999   5.401   2.620   2.866
 1700SOL    HW2 6000   5.485   2.664   2.733
 1701SOL     OW 6001   0.065   6.283   5.146
 1701SOL    HW1 6002   0.110   6.253   5.062
 1701SOL    HW2 6003   6.991   6.307   5.127
 1702SOL     OW 6004   2.101   2.351   6.955
 1702SOL    HW1 6005   2.194   2.314   6.948
 1702SOL    HW2 6006   2.102   2.428   7.019
 1703SOL     OW 6007   1.181   1.614   2.047
 1703SOL    HW1 6008   1.174   1.681   1.973
 1703SOL    HW2 6009   1.115   1.636   2.118
 1704SOL     OW 6010   2.856   2.722   0.005
 1704SOL    HW1 6011   2.844   2.703   6.927
 1704SOL    HW2 6012   2.914   2.652   0.045
 1705SOL     OW 6013   4.388   2.771   0.511
 1705SOL    HW1 6014   4.462   2.793   0.574
 1705SOL    HW2 6015   4.301   2.803   0.549
 1706SOL     OW 6016   6.064   2.153   6.654
 1706SOL    HW1 6017   6.042   2.087   6.726
 1706SOL    HW2 6018   6.111   2.106   6.580
 1707SOL     OW 6019   3.809   1.316   2.397
 1707SOL    HW1 6020   3.799   1.387   2.467
 1707SOL    HW2 6021   3.733   1.251   2.404
 1708SOL     OW 6022   2.924   4.817   2.110
 1708SOL    HW1 6023   2.888   4.731   2.073
 1708SOL    HW2 6024   2.855   4.889   2.100
 1709SOL     OW 6025   5.074   4.943   0.891
 1709SOL    HW1 6026   4.977   4.966   0.885
 1709SOL    HW2 6027   5.111   4.977   0.978
 1710SOL     OW 6028   4.885   3.758   2.287
 1710SOL    HW1 6029   4.822   3.811   2.231
 1710SOL    HW2 6030   4.909   3.811   2.369
 1711SOL     OW 6031   3.941   5.669   0.084
 1711SOL    HW1 6032   3.870   5.645   0.018
 1711SOL    HW2 6033   3.954   5.593   0.148
 1712SOL     OW 6034   0.790   1.587   1.948
 1712SOL    HW1 6035   0.723   1.601   2.021
 1712SOL    HW2 6036   0.850   1.511   1.973
 1713SOL     OW 6037   2.796   1.637   2.795
 1713SOL    HW1 6038   2.796   1.632   2.895
 1713SOL    HW2 6039   2.706   1.668   2.764
 1714SOL     OW 6040   2.907   3.983   1.140
 1714SOL    HW1 6041   2.876   3.915   1.073
 1714SOL    HW2 6042   3.002   4.009   1.120
 1715SOL     OW 6043   1.295   6.180   1.549
 1715SOL    HW1 6044   1.334   6.271   1.564
 1715SOL    HW2 6045   1.307   6.154   1.454
 1716SOL     OW 6046   3.830   1.496   3.174
 1716SOL    HW1 6047   3.805   1.589   3.198
 1716SOL    HW2 6048   3.773   1.464   3.099
 1717SOL     OW 6049   3.435   5.962   4.161
 1717SOL    HW1 6050   3.431   5.978   4.260
 1717SOL    HW2 6051   3.512   5.902   4.140
 1718SOL     OW 6052   1.825   3.051   1.334
 1718SOL    HW1 6053   1.840   2.955   1.355
 1718SOL    HW2 6054   1.883   3.108   1.393
 1719SOL     OW 6055   1.446   5.548   2.558
 1719SOL    HW1 6056   1.536   5.589   2.570
 1719SOL    HW2 6057   1.434   5.473   2.624
 1720SOL     OW 6058   0.988   3.429   5.538
 1720SOL    HW1 6059   1.020   3.497   5.472
 1720SOL    HW2 6060   1.041   3.345   5.526
 1721SOL     OW 6061   2.162   2.903   0.452
 1721SOL    HW1 6062   2.100   2.826   0.469
 1721SOL    HW2 6063   2.163   2.963   0.532
 1722SOL     OW 6064   2.104   2.297   4.439
 1722SOL    HW1 6065   2.116   2.308   4.341
 1722SOL    HW2 6066   2.180   2.242   4.476
 1723SOL     OW 6067   5.700   4.249   1.337
 1723SOL    HW1 6068   5.718   4.308   1.415
 1723SOL    HW2 6069   5.702   4.303   1.252
 1724SOL     OW 6070   5.106   2.188   0.901
 1724SOL    HW1 6071   5.204   2.173   0.916
 1724SOL    HW2 6072   5.086   2.185   0.803
 1725SOL     OW 6073   1.785   6.381   5.833
 1725SOL    HW1 6074   1.818   6.379   5.927
 1725SOL    HW2 6075   1.748   6.472   5.813
 1726SOL     OW 6076   5.013   4.333   2.686
 1726SOL    HW1 6077   4.948   4.278   2.634
 1726SOL    HW2 6078   5.077   4.274   2.735
 1727SOL     OW 6079   3.025   3.944   3.035
 1727SOL    HW1 6080   3.003   4.029   2.987
 1727SOL    HW2 6081   3.097   3.962   3.102
 1728SOL     OW 6082   5.627   2.465   3.990
 1728SOL    HW1 6083   5.710   2.454   4.044
 1728SOL    HW2 6084   5.549   2.430   4.043
 1729SOL     OW 6085   1.368   2.728   2.695
 1729SOL    HW1 6086   1.277   2.766   2.714
 1729SOL    HW2 6087   1.366   2.683   2.605
 1730SOL     OW 6088   2.246   6.318   4.337
 1730SOL    HW1 6089   2.214   6.355   4.424
 1730SOL    HW2 6090   2.260   6.393   4.272
 1731SOL     OW 6091   4.821   4.869   3.712
 1731SOL    HW1 6092   4.721   4.876   3.707
 1731SOL    HW2 6093   4.847   4.823   3.797
 1732SOL     OW 6094   2.882   3.741   5.072
 1732SOL    HW1 6095   2.829   3.710   5.151
 1732SOL    HW2 6096   2.919   3.662   5.024
 1733SOL     OW 6097   1.849   2.853   6.208
 1733SOL    HW1 6098   1.909   2.890   6.279
 1733SOL    HW2 6099   1.755   2.885   6.223
 1734SOL     OW 6100   6.975   2.720   1.089
 1734SOL    HW1 6101   6.905   2.790   1.101
 1734SOL    HW2 6102   7.016   2.700   1.178
 1735SOL     OW 6103   3.570   5.438   6.244
 1735SOL    HW1 6104   3.551   5.365   6.310
 1735SOL    HW2 6105   3.603   5.518   6.293
 1736SOL     OW 6106   5.264   2.396   6.437
 1736SOL    HW1 6107   5.177   2.355   6.462
 1736SOL    HW2 6108   5.323   2.326   6.396
 1737SOL     OW 6109   3.414   0.700   6.006
 1737SOL    HW1 6110   3.488   0.654   5.957
 1737SOL    HW2 6111   3.351   0.742   5.940
 1738SOL     OW 6112   1.996   3.349   2.286
 1738SOL    HW1 6113   2.028   3.443   2.275
 1738SOL    HW2 6114   1.896   3.348   2.288
 1739SOL     OW 6115   5.456   6.322   3.026
 1739SOL    HW1 6116   5.402   6.239   3.021
 1739SOL    HW2 6117   5.553   6.300   3.013
 1740SOL     OW 6118   6.818   3.073   5.095
 1740SOL    HW1 6119   6.722   3.082   5.124
 1740SOL    HW2 6120   6.867   3.017   5.162
 1741SOL     OW 6121   0.724   1.868   4.876
 1741SOL    HW1 6122   0.803   1.929   4.871
 1741SOL    HW2 6123   0.647   1.908   4.827
 1742SOL     OW 6124   6.288   6.532   6.873
 1742SOL    HW1 6125   6.259   6.595   6.945
 1742SOL    HW2 6126   6.210   6.512   6.813
 1743SOL     OW 6127   1.731   2.257   1.941
 1743SOL    HW1 6128   1.774   2.346   1.923
 1743SOL    HW2 6129   1.798   2.185   1.924
 1744SOL     OW 6130   3.459   2.398   5.660
 1744SOL    HW1 6131   3.407   2.317   5.630
 1744SOL    HW2 6132   3.483   2.453   5.580
 1745SOL     OW 6133   6.390   6.251   1.129
 1745SOL    HW1 6134   6.297   6.252   1.165
 1745SOL    HW2 6135   6.426   6.345   1.126
 1746SOL     OW 6136   2.681   4.613   3.372
 1746SOL    HW1 6137   2.737   4.664   3.437
 1746SOL    HW2 6138   2.625   4.546   3.422
 1747SOL     OW 6139   3.916   6.857   2.528
 1747SOL    HW1 6140   3.993   6.886   2.585
 1747SOL    HW2 6141   3.868   6.781   2.573
 1748SOL     OW 6142   6.963   2.333   4.789
 1748SOL    HW1 6143   6.880   2.314   4.737
 1748SOL    HW2 6144   0.023   2.303   4.737
 1749SOL     OW 6145   6.698   5.408   1.534
 1749SOL    HW1 6146   6.739   5.493   1.502
 1749SOL    HW2 6147   6.768   5.337   1.537
 1750SOL     OW 6148   3.229   0.892   0.405
 1750SOL    HW1 6149   3.209   0.828   0.331
 1750SOL    HW2 6150   3.144   0.931   0.439
 1751SOL     OW 6151   5.637   3.277   4.613
 1751SOL    HW1 6152   5.672   3.365   4.580
 1751SOL    HW2 6153   5.542   3.266   4.585
 1752SOL     OW 6154   0.466   0.733   2.448
 1752SOL    HW1 6155   0.446   0.765   2.355
 1752SOL    HW2 6156   0.392   0.673   2.479
 1753SOL     OW 6157   6.946   1.593   1.410
 1753SOL    HW1 6158   7.020   1.649   1.372
 1753SOL    HW2 6159   6.868   1.593   1.348
 1754SOL     OW 6160   2.989   5.152   3.324
 1754SOL    HW1 6161   3.058   5.154   3.251
 1754SOL    HW2 6162   2.898   5.152   3.284
 1755SOL     OW 6163   6.717   0.293   5.917
 1755SOL    HW1 6164   6.645   0.277   5.984
 1755SOL    HW2 6165   6.681   0.280   5.825
 1756SOL     OW 6166   4.569   5.681   0.717
 1756SOL    HW1 6167   4.522   5.762   0.682
 1756SOL    HW2 6168   4.530   5.656   0.806
 1757SOL     OW 6169   2.842   4.579   5.411
 1757SOL    HW1 6170   2.744   4.559   5.422
 1757SOL    HW2 6171   2.870   4.556   5.318
 1758SOL     OW 6172   1.364   6.311   3.986
 1758SOL    HW1 6173   1.425   6.283   4.060
 1758SOL    HW2 6174   1.340   6.407   3.998
 1759SOL     OW 6175   1.083   5.515   0.194
 1759SOL    HW1 6176   1.020   5.521   0.271
 1759SOL    HW2 6177   1.038   5.549   0.111
 1760SOL     OW 6178   6.858   1.726   4.523
 1760SOL    HW1 6179   6.835   1.812   4.567
 1760SOL    HW2 6180   6.934   1.682   4.572
 1761SOL     OW 6181   5.102   1.059   2.607
 1761SOL    HW1 6182   5.089   1.158   2.600
 1761SOL    HW2 6183   5.200   1.037   2.603
 1762SOL     OW 6184   0.547   1.754   5.782
 1762SOL    HW1 6185   0.579   1.697   5.858
 1762SOL    HW2 6186   0.455   1.787   5.801
 1763SOL     OW 6187   1.410   5.255   3.639
 1763SOL    HW1 6188   1.417   5.346   3.680
 1763SOL    HW2 6189   1.465   5.190   3.693
 1764SOL     OW 6190   0.536   6.152   3.629
 1764SOL    HW1 6191   0.513   6.137   3.533
 1764SOL    HW2 6192   0.635   6.148   3.642
 1765SOL     OW 6193   5.703   4.155   1.805
 1765SOL    HW1 6194   5.697   4.122   1.899
 1765SOL    HW2 6195   5.635   4.108   1.749
 1766SOL     OW 6196   4.725   4.367   4.074
 1766SOL    HW1 6197   4.698   4.288   4.129
 1766SOL    HW2 6198   4.666   4.445   4.096
 1767SOL     OW 6199   0.236   4.904   1.504
 1767SOL    HW1 6200   0.219   4.921   1.601
 1767SOL    HW2 6201   0.160   4.852   1.465
 1768SOL     OW 6202   4.800   4.297   2.488
 1768SOL    HW1 6203   4.791   4.302   2.389
 1768SOL    HW2 6204   4.788   4.202   2.519
 1769SOL     OW 6205   5.421   0.441   0.951
 1769SOL    HW1 6206   5.508   0.439   0.902
 1769SOL    HW2 6207   5.438   0.461   1.048
 1770SOL     OW 6208   1.861   4.723   0.415
 1770SOL    HW1 6209   1.885   4.811   0.375
 1770SOL    HW2 6210   1.778   4.732   0.469
 1771SOL     OW 6211   2.024   3.630   5.951
 1771SOL    HW1 6212   1.948   3.679   5.994
 1771SOL    HW2 6213   2.000   3.534   5.939
 1772SOL     OW 6214   2.112   3.702   2.688
 1772SOL    HW1 6215   2.028   3.704   2.635
 1772SOL    HW2 6216   2.154   3.793   2.687
 1773SOL     OW 6217   2.226   6.405   6.150
 1773SOL    HW1 6218   2.243   6.320   6.200
 1773SOL    HW2 6219   2.258   6.482   6.204
 1774SOL     OW 6220   5.863   5.634   1.224
 1774SOL    HW1 6221   5.886   5.694   1.301
 1774SOL    HW2 6222   5.775   5.661   1.186
 1775SOL     OW 6223   2.011   5.252   0.696
 1775SOL    HW1 6224   2.055   5.269   0.784
 1775SOL    HW2 6225   2.078   5.216   0.631
 1776SOL     OW 6226   4.699   2.980   6.119
 1776SOL    HW1 6227   4.654   3.032   6.191
 1776SOL    HW2 6228   4.714   3.040   6.039
 1777SOL     OW 6229   4.348   6.482   7.000
 1777SOL    HW1 6230   4.336   6.553   0.049
 1777SOL    HW2 6231   4.422   6.421   0.009
 1778SOL     OW 6232   5.887   0.223   4.352
 1778SOL    HW1 6233   5.986   0.217   4.337
 1778SOL    HW2 6234   5.838   0.201   4.268
 1779SOL     OW 6235   5.191   0.856   4.855
 1779SOL    HW1 6236   5.115   0.916   4.880
 1779SOL    HW2 6237   5.157   0.763   4.842
 1780SOL     OW 6238   2.322   5.824   5.801
 1780SOL    HW1 6239   2.374   5.743   5.826
 1780SOL    HW2 6240   2.261   5.850   5.876
 1781SOL     OW 6241   3.732   0.992   5.564
 1781SOL    HW1 6242   3.695   0.942   5.643
 1781SOL    HW2 6243   3.730   1.090   5.583
 1782SOL     OW 6244   4.886   1.242   2.379
 1782SOL    HW1 6245   4.946   1.297   2.436
 1782SOL    HW2 6246   4.926   1.151   2.366
 1783SOL     OW 6247   1.664   4.406   6.870
 1783SOL    HW1 6248   1.646   4.399   6.968
 1783SOL    HW2 6249   1.747   4.355   6.847
 1784SOL     OW 6250   2.809   6.453   1.567
 1784SOL    HW1 6251   2.750   6.385   1.611
 1784SOL    HW2 6252   2.893   6.409   1.536
 1785SOL     OW 6253   1.777   6.635   4.525
 1785SOL    HW1 6254   1.718   6.612   4.447
 1785SOL    HW2 6255   1.872   6.611   4.502
 1786SOL     OW 6256   0.713   6.060   1.668
 1786SOL    HW1 6257   0.648   5.989   1.642
 1786SOL    HW2 6258   0.792   6.017   1.714
 1787SOL     OW 6259   1.736   3.342   5.504
 1787SOL    HW1 6260   1.739   3.355   5.405
 1787SOL    HW2 6261   1.816   3.386   5.546
 1788SOL     OW 6262   4.070   3.427   0.673
 1788SOL    HW1 6263   4.140   3.390   0.613
 1788SOL    HW2 6264   4.005   3.354   0.696
 1789SOL     OW 6265   5.974   3.439   2.383
 1789SOL    HW1 6266   6.050   3.376   2.370
 1789SOL    HW2 6267   5.946   3.440   2.479
 1790SOL     OW 6268   1.652   2.412   4.925
 1790SOL    HW1 6269   1.692   2.333   4.972
 1790SOL    HW2 6270   1.581   2.380   4.862
 1791SOL     OW 6271   4.925   0.535   3.472
 1791SOL    HW1 6272   4.881   0.460   3.521
 1791SOL    HW2 6273   4.902   0.622   3.516
 1792SOL     OW 6274   6.803   2.490   6.533
 1792SOL    HW1 6275   6.821   2.570   6.590
 1792SOL    HW2 6276   6.737   2.430   6.579
 1793SOL     OW 6277   6.598   1.886   4.972
 1793SOL    HW1 6278   6.556   1.798   4.948
 1793SOL    HW2 6279   6.536   1.960   4.944
 1794SOL     OW 6280   0.299   1.483   6.554
 1794SOL    HW1 6281   0.288   1.483   6.654
 1794SOL    HW2 6282   0.379   1.428   6.530
 1795SOL     OW 6283   5.469   5.056   1.102
 1795SOL    HW1 6284   5.474   5.084   1.198
 1795SOL    HW2 6285   5.562   5.047   1.065
 1796SOL     OW 6286   6.542   0.209   0.769
 1796SOL    HW1 6287   6.576   0.125   0.728
 1796SOL    HW2 6288   6.531   0.195   0.868
 1797SOL     OW 6289   2.798   5.870   5.628
 1797SOL    HW1 6290   2.838   5.842   5.715
 1797SOL    HW2 6291   2.830   5.808   5.556
 1798SOL     OW 6292   2.218   4.033   5.616
 1798SOL    HW1 6293   2.274   4.051   5.536
 1798SOL    HW2 6294   2.276   4.020   5.696
 1799SOL     OW 6295   2.838   1.279   1.904
 1799SOL    HW1 6296   2.793   1.369   1.912
 1799SOL    HW2 6297   2.922   1.289   1.850
 1800SOL     OW 6298   6.285   3.242   5.718
 1800SOL    HW1 6299   6.270   3.341   5.719
 1800SOL    HW2 6300   6.337   3.215   5.799
 1801SOL     OW 6301   0.480   0.563   2.974
 1801SOL    HW1 6302   0.542   0.592   3.047
 1801SOL    HW2 6303   0.390   0.542   3.014
 1802SOL     OW 6304   6.134   5.011   3.751
 1802SOL    HW1 6305   6.218   5.012   3.696
 1802SOL    HW2 6306   6.129   5.095   3.805
 1803SOL     OW 6307   7.006   0.221   4.063
 1803SOL    HW1 6308   6.921   0.168   4.054
 1803SOL    HW2 6309   6.984   0.318   4.059
 1804SOL     OW 6310   1.789   2.198   6.202
 1804SOL    HW1 6311   1.747   2.262   6.137
 1804SOL    HW2 6312   1.794   2.242   6.292
 1805SOL     OW 6313   6.519   4.613   0.882
 1805SOL    HW1 6314   6.490   4.672   0.957
 1805SOL    HW2 6315   6.494   4.655   0.795
 1806SOL     OW 6316   0.619   1.641   0.795
 1806SOL    HW1 6317   0.549   1.628   0.725
 1806SOL    HW2 6318   0.603   1.578   0.870
 1807SOL     OW 6319   6.285   2.825   2.879
 1807SOL    HW1 6320   6.271   2.736   2.834
 1807SOL    HW2 6321   6.197   2.862   2.907
 1808SOL     OW 6322   5.594   1.185   6.342
 1808SOL    HW1 6323   5.644   1.098   6.341
 1808SOL    HW2 6324   5.617   1.236   6.426
 1809SOL     OW 6325   5.921   0.468   5.424
 1809SOL    HW1 6326   6.016   0.498   5.434
 1809SOL    HW2 6327   5.861   0.529   5.476
 1810SOL     OW 6328   1.186   0.848   4.195
 1810SOL    HW1 6329   1.128   0.775   4.160
 1810SOL    HW2 6330   1.159   0.935   4.152
 1811SOL     OW 6331   3.178   5.955   2.241
 1811SOL    HW1 6332   3.233   5.939   2.158
 1811SOL    HW2 6333   3.186   6.051   2.267
 1812SOL     OW 6334   3.835   6.641   6.782
 1812SOL    HW1 6335   3.917   6.680   6.824
 1812SOL    HW2 6336   3.861   6.564   6.723
 1813SOL     OW 6337   4.796   3.972   1.920
 1813SOL    HW1 6338   4.775   4.039   1.849
 1813SOL    HW2 6339   4.822   4.019   2.005
 1814SOL     OW 6340   6.571   5.960   0.580
 1814SOL    HW1 6341   6.660   6.003   0.570
 1814SOL    HW2 6342   6.579   5.878   0.636
 1815SOL     OW 6343   5.622   5.670   1.382
 1815SOL    HW1 6344   5.689   5.719   1.326
 1815SOL    HW2 6345   5.531   5.706   1.363
 1816SOL     OW 6346   4.399   4.943   5.048
 1816SOL    HW1 6347   4.412   5.035   5.010
 1816SOL    HW2 6348   4.403   4.876   4.974
 1817SOL     OW 6349   0.354   2.464   3.558
 1817SOL    HW1 6350   0.431   2.434   3.614
 1817SOL    HW2 6351   0.268   2.446   3.607
 1818SOL     OW 6352   2.306   0.936   0.484
 1818SOL    HW1 6353   2.374   0.974   0.421
 1818SOL    HW2 6354   2.350   0.915   0.572
 1819SOL     OW 6355   1.296   4.247   1.761
 1819SOL    HW1 6356   1.322   4.195   1.679
 1819SOL    HW2 6357   1.214   4.207   1.802
 1820SOL     OW 6358   3.334   0.336   4.472
 1820SOL    HW1 6359   3.255   0.363   4.526
 1820SOL    HW2 6360   3.374   0.252   4.509
 1821SOL     OW 6361   3.567   1.120   2.770
 1821SOL    HW1 6362   3.521   1.171   2.697
 1821SOL    HW2 6363   3.664   1.146   2.773
 1822SOL     OW 6364   1.513   3.861   3.676
 1822SOL    HW1 6365   1.466   3.798   3.738
 1822SOL    HW2 6366   1.460   3.945   3.668
 1823SOL     OW 6367   3.768   6.762   3.397
 1823SOL    HW1 6368   3.823   6.834   3.439
 1823SOL    HW2 6369   3.695   6.734   3.459
 1824SOL     OW 6370   4.391   3.146   1.738
 1824SOL    HW1 6371   4.413   3.197   1.655
 1824SOL    HW2 6372   4.474   3.127   1.789
 1825SOL     OW 6373   1.168   3.577   6.254
 1825SOL    HW1 6374   1.133   3.655   6.305
 1825SOL    HW2 6375   1.227   3.608   6.180
 1826SOL     OW 6376   4.005   2.307   1.126
 1826SOL    HW1 6377   3.981   2.404   1.123
 1826SOL    HW2 6378   4.094   2.294   1.082
 1827SOL     OW 6379   5.697   4.592   0.296
 1827SOL    HW1 6380   5.609   4.575   0.250
 1827SOL    HW2 6381   5.763   4.626   0.229
 1828SOL     OW 6382   1.593   4.228   4.647
 1828SOL    HW1 6383   1.590   4.322   4.613
 1828SOL    HW2 6384   1.541   4.222   4.733
 1829SOL     OW 6385   2.505   6.081   2.127
 1829SOL    HW1 6386   2.469   6.165   2.169
 1829SOL    HW2 6387   2.465   6.069   2.036
 1830SOL     OW 6388   4.279   1.156   6.156
 1830SOL    HW1 6389   4.327   1.069   6.147
 1830SOL    HW2 6390   4.241   1.183   6.067
 1831SOL     OW 6391   3.304   4.663   0.796
 1831SOL    HW1 6392   3.275   4.678   0.701
 1831SOL    HW2 6393   3.295   4.567   0.819
 1832SOL     OW 6394   1.949   3.372   5.883
 1832SOL    HW1 6395   2.036   3.328   5.862
 1832SOL    HW2 6396   1.878   3.301   5.894
 1833SOL     OW 6397   6.074   0.675   0.051
 1833SOL    HW1 6398   6.157   0.690   7.017
 1833SOL    HW2 6399   6.100   0.644   0.143
 1834SOL     OW 6400   0.788   3.760   6.225
 1834SOL    HW1 6401   0.770   3.846   6.272
 1834SOL    HW2 6402   0.737   3.686   6.269
 1835SOL     OW 6403   0.052   6.277   1.256
 1835SOL    HW1 6404   7.010   6.287   1.333
 1835SOL    HW2 6405   0.141   6.245   1.289
 1836SOL     OW 6406   5.264   1.545   2.774
 1836SOL    HW1 6407   5.345   1.491   2.796
 1836SOL    HW2 6408   5.265   1.568   2.677
 1837SOL     OW 6409   2.559   2.268   6.909
 1837SOL    HW1 6410   2.625   2.296   6.978
 1837SOL    HW2 6411   2.598   2.282   6.818
 1838SOL     OW 6412   4.782   0.749   0.657
 1838SOL    HW1 6413   4.829   0.837   0.649
 1838SOL    HW2 6414   4.689   0.764   0.690
 1839SOL     OW 6415   6.417   0.506   0.053
 1839SOL    HW1 6416   6.448   0.575   0.119
 1839SOL    HW2 6417   6.391   0.551   6.988
 1840SOL     OW 6418   3.979   0.021   4.119
 1840SOL    HW1 6419   4.051   6.984   4.079
 1840SOL    HW2 6420   4.009   0.054   4.208
 1841SOL     OW 6421   1.965   0.648   1.455
 1841SOL    HW1 6422   2.056   0.669   1.490
 1841SOL    HW2 6423   1.954   0.689   1.364
 1842SOL     OW 6424   0.165   5.009   1.241
 1842SOL    HW1 6425   0.209   4.984   1.327
 1842SOL    HW2 6426   0.178   5.106   1.224
 1843SOL     OW 6427   2.339   1.219   0.221
 1843SOL    HW1 6428   2.409   1.152   0.196
 1843SOL    HW2 6429   2.277   1.232   0.144
 1844SOL     OW 6430   5.488   2.798   6.496
 1844SOL    HW1 6431   5.553   2.809   6.421
 1844SOL    HW2 6432   5.396   2.822   6.465
 1845SOL     OW 6433   1.073   2.450   3.848
 1845SOL    HW1 6434   1.044   2.376   3.787
 1845SOL    HW2 6435   1.106   2.527   3.794
 1846SOL     OW 6436   2.958   0.780   1.525
 1846SOL    HW1 6437   3.030   0.811   1.587
 1846SOL    HW2 6438   2.875   0.833   1.540
 1847SOL     OW 6439   2.265   5.736   6.370
 1847SOL    HW1 6440   2.349   5.724   6.317
 1847SOL    HW2 6441   2.286   5.783   6.456
 1848SOL     OW 6442   4.257   6.545   3.566
 1848SOL    HW1 6443   4.270   6.644   3.573
 1848SOL    HW2 6444   4.178   6.518   3.621
 1849SOL     OW 6445   4.780   2.411   2.644
 1849SOL    HW1 6446   4.852   2.374   2.702
 1849SOL    HW2 6447   4.693   2.408   2.694
 1850SOL     OW 6448   4.147   1.919   0.953
 1850SOL    HW1 6449   4.157   1.936   0.854
 1850SOL    HW2 6450   4.191   1.992   1.004
 1851SOL     OW 6451   0.331   4.533   4.277
 1851SOL    HW1 6452   0.348   4.434   4.283
 1851SOL    HW2 6453   0.416   4.583   4.298
 1852SOL     OW 6454   0.604   0.029   3.605
 1852SOL    HW1 6455   0.638   0.039   3.512
 1852SOL    HW2 6456   0.598   0.119   3.648
 1853SOL     OW 6457   0.933   2.186   5.607
 1853SOL    HW1 6458   0.987   2.159   5.687
 1853SOL    HW2 6459   0.837   2.193   5.633
 1854SOL     OW 6460   6.928   0.517   4.005
 1854SOL    HW1 6461   6.955   0.587   3.939
 1854SOL    HW2 6462   6.950   0.548   4.097
 1855SOL     OW 6463   5.755   2.204   5.105
 1855SOL    HW1 6464   5.748   2.127   5.041
 1855SOL    HW2 6465   5.680   2.200   5.171
 1856SOL     OW 6466   4.766   3.377   0.503
 1856SOL    HW1 6467   4.833   3.378   0.577
 1856SOL    HW2 6468   4.701   3.452   0.514
 1857SOL     OW 6469   3.900   0.872   6.624
 1857SOL    HW1 6470   3.829   0.938   6.646
 1857SOL    HW2 6471   3.990   0.917   6.624
 1858SOL     OW 6472   5.603   1.824   4.996
 1858SOL    HW1 6473   5.588   1.826   5.095
 1858SOL    HW2 6474   5.656   1.742   4.972
 1859SOL     OW 6475   6.508   0.784   3.412
 1859SOL    HW1 6476   6.446   0.706   3.416
 1859SOL    HW2 6477   6.516   0.815   3.317
 1860SOL     OW 6478   2.652   1.463   6.217
 1860SOL    HW1 6479   2.589   1.397   6.258
 1860SOL    HW2 6480   2.698   1.515   6.289
 1861SOL     OW 6481   5.982   6.289   5.076
 1861SOL    HW1 6482   5.902   6.242   5.113
 1861SOL    HW2 6483   6.055   6.223   5.058
 1862SOL     OW 6484   3.258   5.708   5.639
 1862SOL    HW1 6485   3.205   5.634   5.680
 1862SOL    HW2 6486   3.337   5.729   5.697
 1863SOL     OW 6487   0.055   1.780   1.157
 1863SOL    HW1 6488   0.056   1.680   1.161
 1863SOL    HW2 6489   0.127   1.812   1.095
 1864SOL     OW 6490   2.598   6.443   2.041
 1864SOL    HW1 6491   2.671   6.376   2.056
 1864SOL    HW2 6492   2.574   6.485   2.128
 1865SOL     OW 6493   6.209   2.146   5.922
 1865SOL    HW1 6494   6.111   2.138   5.904
 1865SOL    HW2 6495   6.260   2.134   5.837
 1866SOL     OW 6496   0.533   5.333   3.771
 1866SOL    HW1 6497   0.588   5.290   3.698
 1866SOL    HW2 6498   0.450   5.371   3.732
 1867SOL     OW 6499   1.224   1.472   1.292
 1867SOL    HW1 6500   1.131   1.479   1.329
 1867SOL    HW2 6501   1.277   1.551   1.323
 1868SOL     OW 6502   5.268   3.439   6.305
 1868SOL    HW1 6503   5.230   3.394   6.224
 1868SOL    HW2 6504   5.347   3.495   6.278
 1869SOL     OW 6505   5.263   0.680   5.314
 1869SOL    HW1 6506   5.197   0.661   5.242
 1869SOL    HW2 6507   5.335   0.740   5.279
 1870SOL     OW 6508   5.964   0.095   6.160
 1870SOL    HW1 6509   5.975   0.025   6.091
 1870SOL    HW2 6510   5.868   0.100   6.187
 1871SOL     OW 6511   0.883   5.887   0.222
 1871SOL    HW1 6512   0.838   5.798   0.212
 1871SOL    HW2 6513   0.870   5.921   0.315
 1872SOL     OW 6514   2.518   3.018   1.352
 1872SOL    HW1 6515   2.504   3.059   1.442
 1872SOL    HW2 6516   2.487   3.082   1.281
 1873SOL     OW 6517   5.850   1.095   1.846
 1873SOL    HW1 6518   5.849   1.017   1.908
 1873SOL    HW2 6519   5.761   1.101   1.799
 1874SOL     OW 6520   1.576   5.879   6.851
 1874SOL    HW1 6521   1.523   5.799   6.878
 1874SOL    HW2 6522   1.525   5.932   6.783
 1875SOL     OW 6523   0.216   6.447   2.105
 1875SOL    HW1 6524   0.235   6.505   2.184
 1875SOL    HW2 6525   0.278   6.368   2.106
 1876SOL     OW 6526   0.330   4.436   0.571
 1876SOL    HW1 6527   0.303   4.489   0.490
 1876SOL    HW2 6528   0.307   4.340   0.557
 1877SOL     OW 6529   1.155   1.774   2.518
 1877SOL    HW1 6530   1.223   1.848   2.520
 1877SOL    HW2 6531   1.082   1.795   2.583
 1878SOL     OW 6532   5.072   3.549   4.494
 1878SOL    HW1 6533   5.042   3.554   4.590
 1878SOL    HW2 6534   5.090   3.642   4.460
 1879SOL     OW 6535   4.298   6.303   4.840
 1879SOL    HW1 6536   4.328   6.366   4.911
 1879SOL    HW2 6537   4.377   6.275   4.785
 1880SOL     OW 6538   0.878   2.269   4.283
 1880SOL    HW1 6539   0.974   2.260   4.309
 1880SOL    HW2 6540   0.865   2.233   4.190
 1881SOL     OW 6541   1.969   1.219   3.687
 1881SOL    HW1 6542   1.904   1.164   3.739
 1881SOL    HW2 6543   1.922   1.298   3.648
 1882SOL     OW 6544   2.943   5.332   0.517
 1882SOL    HW1 6545   2.884   5.269   0.568
 1882SOL    HW2 6546   2.912   5.426   0.534
 1883SOL     OW 6547   2.278   2.598   2.645
 1883SOL    HW1 6548   2.333   2.582   2.726
 1883SOL    HW2 6549   2.258   2.695   2.636
 1884SOL     OW 6550   4.890   0.499   0.509
 1884SOL    HW1 6551   4.915   0.441   0.586
 1884SOL    HW2 6552   4.835   0.576   0.542
 1885SOL     OW 6553   0.336   1.432   0.482
 1885SOL    HW1 6554   0.384   1.516   0.457
 1885SOL    HW2 6555   0.267   1.412   0.413
 1886SOL     OW 6556   3.669   2.656   5.673
 1886SOL    HW1 6557   3.599   2.710   5.626
 1886SOL    HW2 6558   3.684   2.694   5.765
 1887SOL     OW 6559   0.758   6.091   4.942
 1887SOL    HW1 6560   0.844   6.129   4.907
 1887SOL    HW2 6561   0.773   5.998   4.974
 1888SOL     OW 6562   1.758   1.928   6.168
 1888SOL    HW1 6563   1.756   1.908   6.070
 1888SOL    HW2 6564   1.801   2.017   6.183
 1889SOL     OW 6565   2.991   3.512   0.110
 1889SOL    HW1 6566   2.994   3.479   0.015
 1889SOL    HW2 6567   2.900   3.499   0.147
 1890SOL     OW 6568   5.903   6.047   6.628
 1890SOL    HW1 6569   5.876   6.140   6.603
 1890SOL    HW2 6570   5.967   6.050   6.705
 1891SOL     OW 6571   5.174   3.711   6.919
 1891SOL    HW1 6572   5.240   3.660   6.864
 1891SOL    HW2 6573   5.200   3.807   6.923
 1892SOL     OW 6574   3.978   0.199   2.948
 1892SOL    HW1 6575   3.908   0.191   3.018
 1892SOL    HW2 6576   4.006   0.295   2.939
 1893SOL     OW 6577   3.033   0.814   5.985
 1893SOL    HW1 6578   3.115   0.849   5.940
 1893SOL    HW2 6579   3.051   0.800   6.082
 1894SOL     OW 6580   4.855   3.496   1.343
 1894SOL    HW1 6581   4.882   3.471   1.251
 1894SOL    HW2 6582   4.875   3.421   1.406
 1895SOL     OW 6583   4.622   6.013   3.639
 1895SOL    HW1 6584   4.528   6.004   3.672
 1895SOL    HW2 6585   4.645   5.936   3.581
 1896SOL     OW 6586   6.039   2.249   5.232
 1896SOL    HW1 6587   6.091   2.332   5.216
 1896SOL    HW2 6588   5.943   2.272   5.250
 1897SOL     OW 6589   5.481   4.833   2.820
 1897SOL    HW1 6590   5.389   4.821   2.783
 1897SOL    HW2 6591   5.475   4.882   2.907
 1898SOL     OW 6592   5.583   6.886   0.035
 1898SOL    HW1 6593   5.668   6.938   0.046
 1898SOL    HW2 6594   5.604   6.789   0.023
 1899SOL     OW 6595   1.671   2.595   3.856
 1899SOL    HW1 6596   1.735   2.656   3.809
 1899SOL    HW2 6597   1.590   2.646   3.884
 1900SOL     OW 6598   2.222   5.864   1.669
 1900SOL    HW1 6599   2.279   5.856   1.587
 1900SOL    HW2 6600   2.210   5.773   1.709
 1901SOL     OW 6601   1.031   0.837   5.741
 1901SOL    HW1 6602   1.127   0.851   5.720
 1901SOL    HW2 6603   0.985   0.793   5.663
 1902SOL     OW 6604   1.268   2.754   5.023
 1902SOL    HW1 6605   1.289   2.667   5.069
 1902SOL    HW2 6606   1.327   2.763   4.943
 1903SOL     OW 6607   6.419   4.738   4.181
 1903SOL    HW1 6608   6.484   4.742   4.106
 1903SOL    HW2 6609   6.457   4.681   4.255
 1904SOL     OW 6610   0.247   0.334   4.342
 1904SOL    HW1 6611   0.186   0.262   4.307
 1904SOL    HW2 6612   0.194   0.402   4.392
 1905SOL     OW 6613   6.455   3.015   4.302
 1905SOL    HW1 6614   6.445   2.915   4.304
 1905SOL    HW2 6615   6.548   3.039   4.331
 1906SOL     OW 6616   2.913   6.544   5.662
 1906SOL    HW1 6617   2.952   6.614   5.722
 1906SOL    HW2 6618   2.948   6.454   5.691
 1907SOL     OW 6619   4.211   6.497   3.880
 1907SOL    HW1 6620   4.196   6.572   3.944
 1907SOL    HW2 6621   4.307   6.471   3.881
 1908SOL     OW 6622   5.184   5.772   0.719
 1908SOL    HW1 6623   5.231   5.853   0.753
 1908SOL    HW2 6624   5.142   5.792   0.631
 1909SOL     OW 6625   4.635   5.780   3.469
 1909SOL    HW1 6626   4.544   5.745   3.449
 1909SOL    HW2 6627   4.679   5.722   3.538
 1910SOL     OW 6628   5.014   3.190   5.184
 1910SOL    HW1 6629   5.069   3.273   5.187
 1910SOL    HW2 6630   4.943   3.200   5.114
 1911SOL     OW 6631   0.034   3.432   5.506
 1911SOL    HW1 6632   0.096   3.393   5.575
 1911SOL    HW2 6633   0.073   3.518   5.472
 1912SOL     OW 6634   2.894   5.850   3.186
 1912SOL    HW1 6635   2.854   5.941   3.197
 1912SOL    HW2 6636   2.890   5.823   3.090
 1913SOL     OW 6637   1.668   4.525   5.425
 1913SOL    HW1 6638   1.581   4.569   5.403
 1913SOL    HW2 6639   1.739   4.560   5.364
 1914SOL     OW 6640   4.208   1.473   5.516
 1914SOL    HW1 6641   4.226   1.379   5.487
 1914SOL    HW2 6642   4.284   1.532   5.489
 1915SOL     OW 6643   2.765   0.311   5.151
 1915SOL    HW1 6644   2.818   0.250   5.209
 1915SOL    HW2 6645   2.771   0.404   5.187
 1916SOL     OW 6646   4.008   6.226   2.871
 1916SOL    HW1 6647   4.098   6.215   2.914
 1916SOL    HW2 6648   3.995   6.322   2.847
 1917SOL     OW 6649   2.901   3.585   4.522
 1917SOL    HW1 6650   2.870   3.627   4.437
 1917SOL    HW2 6651   2.916   3.655   4.591
 1918SOL     OW 6652   6.748   6.683   5.782
 1918SOL    HW1 6653   6.803   6.712   5.860
 1918SOL    HW2 6654   6.652   6.675   5.810
 1919SOL     OW 6655   6.414   0.204   2.878
 1919SOL    HW1 6656   6.502   0.219   2.923
 1919SOL    HW2 6657   6.402   0.270   2.803
 1920SOL     OW 6658   6.559   5.950   5.072
 1920SOL    HW1 6659   6.469   5.976   5.036
 1920SOL    HW2 6660   6.601   5.882   5.013
 1921SOL     OW 6661   1.846   6.954   6.847
 1921SOL    HW1 6662   1.918   6.901   6.801
 1921SOL    HW2 6663   1.882   6.993   6.931
 1922SOL     OW 6664   4.276   4.024   0.839
 1922SOL    HW1 6665   4.342   3.968   0.890
 1922SOL    HW2 6666   4.203   4.054   0.900
 1923SOL     OW 6667   1.773   3.054   0.374
 1923SOL    HW1 6668   1.753   3.081   0.469
 1923SOL    HW2 6669   1.864   3.014   0.369
 1924SOL     OW 6670   0.517   4.281   1.148
 1924SOL    HW1 6671   0.517   4.381   1.141
 1924SOL    HW2 6672   0.447   4.252   1.214
 1925SOL     OW 6673   3.605   4.366   0.594
 1925SOL    HW1 6674   3.698   4.363   0.630
 1925SOL    HW2 6675   3.544   4.408   0.662
 1926SOL     OW 6676   0.405   0.579   3.553
 1926SOL    HW1 6677   0.357   0.572   3.640
 1926SOL    HW2 6678   0.367   0.513   3.488
 1927SOL     OW 6679   4.649   3.258   1.180
 1927SOL    HW1 6680   4.593   3.289   1.257
 1927SOL    HW2 6681   4.597   3.194   1.125
 1928SOL     OW 6682   0.143   5.827   4.950
 1928SOL    HW1 6683   0.119   5.819   4.854
 1928SOL    HW2 6684   0.060   5.821   5.006
 1929SOL     OW 6685   1.543   6.256   3.351
 1929SOL    HW1 6686   1.627   6.216   3.387
 1929SOL    HW2 6687   1.510   6.202   3.274
 1930SOL     OW 6688   6.727   4.963   6.533
 1930SOL    HW1 6689   6.701   4.928   6.623
 1930SOL    HW2 6690   6.769   4.889   6.480
 1931SOL     OW 6691   0.553   2.242   5.015
 1931SOL    HW1 6692   0.581   2.175   5.083
 1931SOL    HW2 6693   0.623   2.248   4.943
 1932SOL     OW 6694   5.986   3.151   2.762
 1932SOL    HW1 6695   6.050   3.141   2.685
 1932SOL    HW2 6696   5.990   3.244   2.797
 1933SOL     OW 6697   2.589   4.929   0.631
 1933SOL    HW1 6698   2.613   4.997   0.700
 1933SOL    HW2 6699   2.572   4.841   0.676
 1934SOL     OW 6700   6.728   6.432   3.654
 1934SOL    HW1 6701   6.750   6.418   3.558
 1934SOL    HW2 6702   6.714   6.530   3.672
 1935SOL     OW 6703   1.914   0.715   2.956
 1935SOL    HW1 6704   1.870   0.788   3.007
 1935SOL    HW2 6705   2.005   0.699   2.992
 1936SOL     OW 6706   6.741   6.273   5.454
 1936SOL    HW1 6707   6.781   6.365   5.454
 1936SOL    HW2 6708   6.647   6.278   5.418
 1937SOL     OW 6709   3.910   0.937   2.887
 1937SOL    HW1 6710   3.910   0.941   2.787
 1937SOL    HW2 6711   3.924   1.028   2.925
 1938SOL     OW 6712   5.334   1.192   4.409
 1938SOL    HW1 6713   5.427   1.177   4.443
 1938SOL    HW2 6714   5.302   1.282   4.437
 1939SOL     OW 6715   2.577   0.808   4.032
 1939SOL    HW1 6716   2.653   0.873   4.038
 1939SOL    HW2 6717   2.613   0.715   4.039
 1940SOL     OW 6718   6.058   5.156   6.275
 1940SOL    HW1 6719   6.147   5.156   6.230
 1940SOL    HW2 6720   6.061   5.097   6.355
 1941SOL     OW 6721   5.292   5.095   2.570
 1941SOL    HW1 6722   5.388   5.070   2.563
 1941SOL    HW2 6723   5.250   5.044   2.645
 1942SOL     OW 6724   6.644   4.491   3.441
 1942SOL    HW1 6725   6.591   4.509   3.358
 1942SOL    HW2 6726   6.662   4.577   3.489
 1943SOL     OW 6727   2.841   5.492   3.067
 1943SOL    HW1 6728   2.887   5.420   3.014
 1943SOL    HW2 6729   2.859   5.581   3.024
 1944SOL     OW 6730   0.102   0.143   2.169
 1944SOL    HW1 6731   0.199   0.153   2.147
 1944SOL    HW2 6732   0.071   0.223   2.220
 1945SOL     OW 6733   3.387   4.920   3.655
 1945SOL    HW1 6734   3.353   4.941   3.746
 1945SOL    HW2 6735   3.483   4.946   3.648
 1946SOL     OW 6736   1.504   6.278   6.940
 1946SOL    HW1 6737   1.475   6.279   0.015
 1946SOL    HW2 6738   1.523   6.372   6.910
 1947SOL     OW 6739   4.772   0.110   3.832
 1947SOL    HW1 6740   4.782   0.106   3.931
 1947SOL    HW2 6741   4.679   0.138   3.808
 1948SOL     OW 6742   6.736   3.600   5.261
 1948SOL    HW1 6743   6.753   3.608   5.359
 1948SOL    HW2 6744   6.700   3.686   5.226
 1949SOL     OW 6745   5.002   4.165   6.462
 1949SOL    HW1 6746   5.049   4.092   6.512
 1949SOL    HW2 6747   4.949   4.125   6.387
 1950SOL     OW 6748   3.158   5.345   1.247
 1950SOL    HW1 6749   3.102   5.427   1.260
 1950SOL    HW2 6750   3.228   5.364   1.178
 1951SOL     OW 6751   6.570   2.910   0.374
 1951SOL    HW1 6752   6.535   2.838   0.434
 1951SOL    HW2 6753   6.546   2.889   0.279
 1952SOL     OW 6754   3.608   3.190   4.891
 1952SOL    HW1 6755   3.636   3.215   4.799
 1952SOL    HW2 6756   3.584   3.093   4.893
 1953SOL     OW 6757   0.408   2.781   4.728
 1953SOL    HW1 6758   0.432   2.779   4.631
 1953SOL    HW2 6759   0.327   2.838   4.741
 1954SOL     OW 6760   2.924   2.169   3.570
 1954SOL    HW1 6761   3.023   2.180   3.563
 1954SOL    HW2 6762   2.903   2.104   3.644
 1955SOL     OW 6763   6.299   4.977   1.937
 1955SOL    HW1 6764   6.366   5.050   1.923
 1955SOL    HW2 6765   6.207   5.013   1.921
 1956SOL     OW 6766   5.258   5.856   2.020
 1956SOL    HW1 6767   5.178   5.857   2.079
 1956SOL    HW2 6768   5.302   5.947   2.023
 1957SOL     OW 6769   0.645   6.552   5.556
 1957SOL    HW1 6770   0.555   6.582   5.587
 1957SOL    HW2 6771   0.709   6.630   5.557
 1958SOL     OW 6772   4.646   3.192   5.692
 1958SOL    HW1 6773   4.647   3.240   5.779
 1958SOL    HW2 6774   4.557   3.149   5.679
 1959SOL     OW 6775   2.432   1.469   0.185
 1959SOL    HW1 6776   2.355   1.532   0.185
 1959SOL    HW2 6777   2.403   1.381   0.224
 1960SOL     OW 6778   5.618   6.159   2.482
 1960SOL    HW1 6779   5.700   6.103   2.481
 1960SOL    HW2 6780   5.570   6.150   2.395
 1961SOL     OW 6781   6.216   4.895   5.300
 1961SOL    HW1 6782   6.284   4.831   5.265
 1961SOL    HW2 6783   6.171   4.941   5.223
 1962SOL     OW 6784   6.696   6.704   3.694
 1962SOL    HW1 6785   6.650   6.793   3.694
 1962SOL    HW2 6786   6.795   6.718   3.699
 1963SOL     OW 6787   2.802   0.174   3.207
 1963SOL    HW1 6788   2.743   0.255   3.213
 1963SOL    HW2 6789   2.897   0.201   3.226
 1964SOL     OW 6790   5.967   3.853   1.956
 1964SOL    HW1 6791   6.008   3.913   2.026
 1964SOL    HW2 6792   5.873   3.831   1.982
 1965SOL     OW 6793   2.664   5.842   3.673
 1965SOL    HW1 6794   2.576   5.881   3.700
 1965SOL    HW2 6795   2.716   5.817   3.755
 1966SOL     OW 6796   6.145   6.378   6.596
 1966SOL    HW1 6797   6.067   6.400   6.655
 1966SOL    HW2 6798   6.133   6.423   6.508
 1967SOL     OW 6799   4.900   3.237   4.818
 1967SOL    HW1 6800   4.926   3.331   4.840
 1967SOL    HW2 6801   4.980   3.178   4.822
 1968SOL     OW 6802   3.843   5.590   4.827
 1968SOL    HW1 6803   3.877   5.654   4.897
 1968SOL    HW2 6804   3.845   5.497   4.863
 1969SOL     OW 6805   6.994   1.877   1.601
 1969SOL    HW1 6806   0.045   1.842   1.662
 1969SOL    HW2 6807   6.915   1.816   1.603
 1970SOL     OW 6808   1.614   0.228   3.794
 1970SOL    HW1 6809   1.517   0.213   3.773
 1970SOL    HW2 6810   1.626   0.320   3.831
 1971SOL     OW 6811   0.280   0.914   5.734
 1971SOL    HW1 6812   0.180   0.914   5.723
 1971SOL    HW2 6813   0.303   0.899   5.830
 1972SOL     OW 6814   1.624   6.291   3.683
 1972SOL    HW1 6815   1.680   6.238   3.621
 1972SOL    HW2 6816   1.585   6.231   3.753
 1973SOL     OW 6817   2.612   2.846   6.798
 1973SOL    HW1 6818   2.560   2.842   6.883
 1973SOL    HW2 6819   2.610   2.757   6.753
 1974SOL     OW 6820   5.550   6.927   4.227
 1974SOL    HW1 6821   5.596   6.961   4.309
 1974SOL    HW2 6822   5.539   7.002   4.162
 1975SOL     OW 6823   2.617   0.239   3.701
 1975SOL    HW1 6824   2.683   0.313   3.693
 1975SOL    HW2 6825   2.541   0.255   3.638
 1976SOL     OW 6826   6.899   4.391   6.597
 1976SOL    HW1 6827   6.841   4.322   6.639
 1976SOL    HW2 6828   6.983   4.349   6.562
 1977SOL     OW 6829   2.759   2.169   5.551
 1977SOL    HW1 6830   2.776   2.131   5.460
 1977SOL    HW2 6831   2.746   2.268   5.544
 1978SOL     OW 6832   6.391   2.177   5.720
 1978SOL    HW1 6833   6.484   2.179   5.755
 1978SOL    HW2 6834   6.388   2.126   5.634
 1979SOL     OW 6835   5.995   4.388   2.774
 1979SOL    HW1 6836   5.946   4.453   2.716
 1979SOL    HW2 6837   6.080   4.429   2.806
 1980SOL     OW 6838   3.313   1.147   1.497
 1980SOL    HW1 6839   3.220   1.113   1.506
 1980SOL    HW2 6840   3.357   1.104   1.418
 1981SOL     OW 6841   4.869   3.409   1.791
 1981SOL    HW1 6842   4.905   3.339   1.853
 1981SOL    HW2 6843   4.863   3.496   1.839
 1982SOL     OW 6844   6.609   6.832   5.618
 1982SOL    HW1 6845   6.578   6.763   5.552
 1982SOL    HW2 6846   6.665   6.788   5.688
 1983SOL     OW 6847   0.576   4.421   2.241
 1983SOL    HW1 6848   0.662   4.467   2.218
 1983SOL    HW2 6849   0.586   4.376   2.330
 1984SOL     OW 6850   4.380   0.739   5.385
 1984SOL    HW1 6851   4.292   0.715   5.426
 1984SOL    HW2 6852   4.447   0.669   5.409
 1985SOL     OW 6853   2.116   6.634   1.453
 1985SOL    HW1 6854   2.058   6.714   1.437
 1985SOL    HW2 6855   2.212   6.663   1.457
 1986SOL     OW 6856   0.307   1.862   6.858
 1986SOL    HW1 6857   0.372   1.930   6.892
 1986SOL    HW2 6858   0.336   1.830   6.768
 1987SOL     OW 6859   3.005   3.962   0.664
 1987SOL    HW1 6860   3.082   3.900   0.650
 1987SOL    HW2 6861   2.995   4.021   0.583
 1988SOL     OW 6862   4.755   3.117   0.759
 1988SOL    HW1 6863   4.817   3.074   0.825
 1988SOL    HW2 6864   4.798   3.198   0.720
 1989SOL     OW 6865   2.627   1.262   4.213
 1989SOL    HW1 6866   2.663   1.355   4.204
 1989SOL    HW2 6867   2.661   1.206   4.138
 1990SOL     OW 6868   2.159   1.249   2.564
 1990SOL    HW1 6869   2.186   1.169   2.509
 1990SOL    HW2 6870   2.240   1.289   2.607
 1991SOL     OW 6871   5.081   5.899   3.174
 1991SOL    HW1 6872   5.007   5.886   3.108
 1991SOL    HW2 6873   5.145   5.823   3.168
 1992SOL     OW 6874   2.436   6.331   5.464
 1992SOL    HW1 6875   2.497   6.383   5.404
 1992SOL    HW2 6876   2.479   6.244   5.488
 1993SOL     OW 6877   3.321   3.240   4.230
 1993SOL    HW1 6878   3.260   3.188   4.170
 1993SOL    HW2 6879   3.285   3.332   4.242
 1994SOL     OW 6880   5.937   2.602   2.044
 1994SOL    HW1 6881   5.848   2.633   2.011
 1994SOL    HW2 6882   5.979   2.674   2.099
 1995SOL     OW 6883   4.393   2.487   1.356
 1995SOL    HW1 6884   4.426   2.489   1.262
 1995SOL    HW2 6885   4.339   2.570   1.374
 1996SOL     OW 6886   2.922   3.959   5.269
 1996SOL    HW1 6887   2.900   3.908   5.186
 1996SOL    HW2 6888   2.843   4.013   5.297
 1997SOL     OW 6889   5.505   0.106   4.029
 1997SOL    HW1 6890   5.562   0.073   3.953
 1997SOL    HW2 6891   5.503   0.206   4.027
 1998SOL     OW 6892   3.116   4.787   5.158
 1998SOL    HW1 6893   3.176   4.774   5.237
 1998SOL    HW2 6894   3.062   4.704   5.142
 1999SOL     OW 6895   2.237   0.680   1.879
 1999SOL    HW1 6896   2.224   0.716   1.971
 1999SOL    HW2 6897   2.188   0.593   1.869
 2000SOL     OW 6898   3.534   1.459   4.579
 2000SOL    HW1 6899   3.634   1.450   4.570
 2000SOL    HW2 6900   3.495   1.371   4.602
 2001SOL     OW 6901   2.212   3.677   6.739
 2001SOL    HW1 6902   2.118   3.707   6.722
 2001SOL    HW2 6903   2.257   3.741   6.800
 2002SOL     OW 6904   1.488   5.462   5.243
 2002SOL    HW1 6905   1.403   5.411   5.258
 2002SOL    HW2 6906   1.468   5.559   5.231
 2003SOL     OW 6907   6.083   4.715   3.170
 2003SOL    HW1 6908   6.151   4.776   3.210
 2003SOL    HW2 6909   6.084   4.725   3.071
 2004SOL     OW 6910   3.371   0.433   6.633
 2004SOL    HW1 6911   3.438   0.500   6.663
 2004SOL    HW2 6912   3.331   0.387   6.712
 2005SOL     OW 6913   3.222   6.309   5.056
 2005SOL    HW1 6914   3.268   6.398   5.052
 2005SOL    HW2 6915   3.201   6.278   4.964
 2006SOL     OW 6916   4.441   5.955   3.325
 2006SOL    HW1 6917   4.381   6.027   3.359
 2006SOL    HW2 6918   4.524   5.951   3.381
 2007SOL     OW 6919   6.192   5.394   0.121
 2007SOL    HW1 6920   6.252   5.451   0.176
 2007SOL    HW2 6921   6.115   5.448   0.088
 2008SOL     OW 6922   6.962   6.661   4.385
 2008SOL    HW1 6923   0.040   6.645   4.392
 2008SOL    HW2 6924   6.918   6.581   4.344
 2009SOL     OW 6925   0.722   0.372   0.478
 2009SOL    HW1 6926   0.813   0.382   0.517
 2009SOL    HW2 6927   0.720   0.414   0.387
 2010SOL     OW 6928   1.309   0.033   1.122
 2010SOL    HW1 6929   1.300   0.089   1.204
 2010SOL    HW2 6930   1.405   0.032   1.093
 2011SOL     OW 6931   6.931   2.577   4.905
 2011SOL    HW1 6932   6.941   2.487   4.862
 2011SOL    HW2 6933   7.014   2.599   4.956
 2012SOL     OW 6934   0.055   3.371   0.904
 2012SOL    HW1 6935   0.117   3.403   0.833
 2012SOL    HW2 6936   0.107   3.328   0.977
 2013SOL     OW 6937   4.268   1.524   2.654
 2013SOL    HW1 6938   4.204   1.461   2.609
 2013SOL    HW2 6939   4.351   1.533   2.598
 2014SOL     OW 6940   2.213   5.573   3.287
 2014SOL    HW1 6941   2.282   5.513   3.245
 2014SOL    HW2 6942   2.202   5.655   3.232
 2015SOL     OW 6943   3.387   6.640   0.282
 2015SOL    HW1 6944   3.349   6.732   0.271
 2015SOL    HW2 6945   3.323   6.584   0.334
 2016SOL     OW 6946   6.220   5.336   3.565
 2016SOL    HW1 6947   6.163   5.360   3.644
 2016SOL    HW2 6948   6.190   5.389   3.486
 2017SOL     OW 6949   2.141   4.856   2.054
 2017SOL    HW1 6950   2.052   4.896   2.077
 2017SOL    HW2 6951   2.137   4.757   2.068
 2018SOL     OW 6952   0.277   4.349   6.171
 2018SOL    HW1 6953   0.329   4.264   6.158
 2018SOL    HW2 6954   0.293   4.410   6.093
 2019SOL     OW 6955   5.552   1.672   3.125
 2019SOL    HW1 6956   5.588   1.580   3.111
 2019SOL    HW2 6957   5.548   1.720   3.038
 2020SOL     OW 6958   1.497   5.501   3.719
 2020SOL    HW1 6959   1.446   5.523   3.802
 2020SOL    HW2 6960   1.477   5.569   3.649
 2021SOL     OW 6961   1.439   6.624   2.024
 2021SOL    HW1 6962   1.415   6.718   2.051
 2021SOL    HW2 6963   1.537   6.610   2.035
 2022SOL     OW 6964   2.850   4.940   1.228
 2022SOL    HW1 6965   2.889   5.030   1.211
 2022SOL    HW2 6966   2.755   4.938   1.197
 2023SOL     OW 6967   6.149   1.628   6.282
 2023SOL    HW1 6968   6.115   1.676   6.363
 2023SOL    HW2 6969   6.184   1.694   6.216
 2024SOL     OW 6970   6.126   0.437   2.902
 2024SOL    HW1 6971   6.193   0.407   2.834
 2024SOL    HW2 6972   6.082   0.357   2.944
 2025SOL     OW 6973   6.357   0.673   0.833
 2025SOL    HW1 6974   6.401   0.653   0.921
 2025SOL    HW2 6975   6.318   0.589   0.796
 2026SOL     OW 6976   1.557   2.252   5.391
 2026SOL    HW1 6977   1.546   2.338   5.342
 2026SOL    HW2 6978   1.590   2.270   5.484
 2027SOL     OW 6979   0.923   1.369   2.061
 2027SOL    HW1 6980   0.838   1.336   2.102
 2027SOL    HW2 6981   0.997   1.304   2.081
 2028SOL     OW 6982   3.508   3.797   5.930
 2028SOL    HW1 6983   3.524   3.725   5.863
 2028SOL    HW2 6984   3.471   3.757   6.014
 2029SOL     OW 6985   2.031   0.346   0.361
 2029SOL    HW1 6986   1.975   0.374   0.439
 2029SOL    HW2 6987   1.990   0.379   0.276
 2030SOL     OW 6988   1.692   1.659   2.770
 2030SOL    HW1 6989   1.675   1.716   2.690
 2030SOL    HW2 6990   1.750   1.709   2.834
 2031SOL     OW 6991   5.059   6.911   2.674
 2031SOL    HW1 6992   5.028   6.887   2.583
 2031SOL    HW2 6993   5.158   6.929   2.672
 2032SOL     OW 6994   5.491   6.588   1.171
 2032SOL    HW1 6995   5.458   6.621   1.082
 2032SOL    HW2 6996   5.460   6.494   1.185
 2033SOL     OW 6997   6.738   5.730   6.699
 2033SOL    HW1 6998   6.775   5.724   6.792
 2033SOL    HW2 6999   6.638   5.724   6.703
 2034SOL     OW 7000   2.585   6.845   3.410
 2034SOL    HW1 7001   2.540   6.900   3.340
 2034SOL    HW2 7002   2.663   6.896   3.448
 2035SOL     OW 7003   0.668   3.145   0.862
 2035SOL    HW1 7004   0.624   3.094   0.788
 2035SOL    HW2 7005   0.700   3.081   0.932
 2036SOL     OW 7006   1.127   4.348   0.479
 2036SOL    HW1 7007   1.122   4.387   0.387
 2036SOL    HW2 7008   1.069   4.402   0.541
 2037SOL     OW 7009   0.071   1.800   6.047
 2037SOL    HW1 7010   0.097   1.704   6.059
 2037SOL    HW2 7011   0.034   1.836   6.133
 2038SOL     OW 7012   0.901   0.120   5.495
 2038SOL    HW1 7013   0.950   0.074   5.421
 2038SOL    HW2 7014   0.953   0.110   5.580
 2039SOL     OW 7015   1.168   5.067   2.110
 2039SOL    HW1 7016   1.133   5.135   2.045
 2039SOL    HW2 7017   1.167   5.106   2.202
 2040SOL     OW 7018   3.195   3.828   4.251
 2040SOL    HW1 7019   3.111   3.807   4.300
 2040SOL    HW2 7020   3.267   3.850   4.316
 2041SOL     OW 7021   6.165   3.517   0.300
 2041SOL    HW1 7022   6.105   3.446   0.262
 2041SOL    HW2 7023   6.237   3.537   0.234
 2042SOL     OW 7024   3.270   5.552   0.543
 2042SOL    HW1 7025   3.265   5.596   0.633
 2042SOL    HW2 7026   3.323   5.610   0.481
 2043SOL     OW 7027   4.547   4.609   2.803
 2043SOL    HW1 7028   4.504   4.593   2.892
 2043SOL    HW2 7029   4.643   4.583   2.808
 2044SOL     OW 7030   6.370   0.474   1.950
 2044SOL    HW1 7031   6.432   0.535   1.900
 2044SOL    HW2 7032   6.349   0.513   2.039
 2045SOL     OW 7033   2.516   5.707   6.257
 2045SOL    HW1 7034   2.538   5.753   6.343
 2045SOL    HW2 7035   2.598   5.700   6.201
 2046SOL     OW 7036   6.144   0.118   5.084
 2046SOL    HW1 7037   6.173   0.029   5.047
 2046SOL    HW2 7038   6.177   0.127   5.178
 2047SOL     OW 7039   5.631   2.329   0.262
 2047SOL    HW1 7040   5.576   2.333   0.346
 2047SOL    HW2 7041   5.703   2.398   0.267
 2048SOL     OW 7042   4.190   6.766   5.326
 2048SOL    HW1 7043   4.170   6.673   5.294
 2048SOL    HW2 7044   4.156   6.832   5.259
 2049SOL     OW 7045   4.733   6.092   0.819
 2049SOL    HW1 7046   4.764   5.997   0.810
 2049SOL    HW2 7047   4.634   6.097   0.808
 2050SOL     OW 7048   5.426   1.197   3.960
 2050SOL    HW1 7049   5.491   1.158   4.025
 2050SOL    HW2 7050   5.348   1.236   4.010
 2051SOL     OW 7051   2.793   5.160   0.676
 2051SOL    HW1 7052   2.880   5.116   0.699
 2051SOL    HW2 7053   2.732   5.158   0.755
 2052SOL     OW 7054   1.448   2.393   0.744
 2052SOL    HW1 7055   1.454   2.302   0.701
 2052SOL    HW2 7056   1.371   2.394   0.807
 2053SOL     OW 7057   5.148   1.220   0.279
 2053SOL    HW1 7058   5.215   1.208   0.352
 2053SOL    HW2 7059   5.097   1.135   0.266
 2054SOL     OW 7060   0.043   3.797   1.702
 2054SOL    HW1 7061   0.139   3.787   1.729
 2054SOL    HW2 7062   7.007   3.730   1.751
 2055SOL     OW 7063   6.303   1.942   3.878
 2055SOL    HW1 7064   6.364   1.977   3.950
 2055SOL    HW2 7065   6.268   1.853   3.904
 2056SOL     OW 7066   1.099   0.167   2.055
 2056SOL    HW1 7067   1.162   0.192   2.128
 2056SOL    HW2 7068   1.099   0.068   2.043
 2057SOL     OW 7069   6.840   2.402   3.822
 2057SOL    HW1 7070   6.789   2.353   3.751
 2057SOL    HW2 7071   6.800   2.383   3.911
 2058SOL     OW 7072   0.392   1.850   1.785
 2058SOL    HW1 7073   0.464   1.782   1.779
 2058SOL    HW2 7074   0.426   1.931   1.833
 2059SOL     OW 7075   1.310   1.220   6.762
 2059SOL    HW1 7076   1.371   1.286   6.720
 2059SOL    HW2 7077   1.257   1.173   6.691
 2060SOL     OW 7078   0.309   5.478   2.012
 2060SOL    HW1 7079   0.407   5.494   2.017
 2060SOL    HW2 7080   0.289   5.413   1.939
 2061SOL     OW 7081   0.936   1.465   1.356
 2061SOL    HW1 7082   0.866   1.398   1.332
 2061SOL    HW2 7083   0.920   1.549   1.304
 2062SOL     OW 7084   4.175   0.304   3.200
 2062SOL    HW1 7085   4.254   0.366   3.200
 2062SOL    HW2 7086   4.109   0.336   3.132
 2063SOL     OW 7087   2.720   1.918   0.564
 2063SOL    HW1 7088   2.698   1.821   0.573
 2063SOL    HW2 7089   2.762   1.951   0.649
 2064SOL     OW 7090   1.029   2.260   0.165
 2064SOL    HW1 7091   1.074   2.342   0.128
 2064SOL    HW2 7092   0.979   2.285   0.248
 2065SOL     OW 7093   6.205   2.778   1.864
 2065SOL    HW1 7094   6.164   2.693   1.831
 2065SOL    HW2 7095   6.177   2.853   1.804
 2066SOL     OW 7096   1.843   6.696   3.397
 2066SOL    HW1 7097   1.880   6.603   3.394
 2066SOL    HW2 7098   1.917   6.762   3.404
 2067SOL     OW 7099   0.263   6.904   0.926
 2067SOL    HW1 7100   0.243   6.830   0.862
 2067SOL    HW2 7101   0.244   6.873   1.019
 2068SOL     OW 7102   2.013   1.013   5.259
 2068SOL    HW1 7103   2.098   0.968   5.286
 2068SOL    HW2 7104   2.028   1.111   5.250
 2069SOL     OW 7105   0.911   1.884   1.980
 2069SOL    HW1 7106   0.973   1.859   1.906
 2069SOL    HW2 7107   0.851   1.807   2.002
 2070SOL     OW 7108   1.024   1.660   2.935
 2070SOL    HW1 7109   0.997   1.567   2.960
 2070SOL    HW2 7110   1.122   1.672   2.951
 2071SOL     OW 7111   1.663   6.499   5.063
 2071SOL    HW1 7112   1.589   6.560   5.094
 2071SOL    HW2 7113   1.728   6.486   5.138
 2072SOL     OW 7114   4.839   4.775   2.699
 2072SOL    HW1 7115   4.908   4.771   2.627
 2072SOL    HW2 7116   4.805   4.869   2.707
 2073SOL     OW 7117   3.460   5.977   5.651
 2073SOL    HW1 7118   3.386   5.985   5.585
 2073SOL    HW2 7119   3.505   5.888   5.639
 2074SOL     OW 7120   6.393   1.872   1.774
 2074SOL    HW1 7121   6.437   1.838   1.691
 2074SOL    HW2 7122   6.389   1.972   1.772
 2075SOL     OW 7123   3.779   3.526   6.146
 2075SOL    HW1 7124   3.815   3.474   6.224
 2075SOL    HW2 7125   3.682   3.502   6.133
 2076SOL     OW 7126   4.925   0.829   0.934
 2076SOL    HW1 7127   4.887   0.892   0.867
 2076SOL    HW2 7128   4.992   0.877   0.991
 2077SOL     OW 7129   5.401   2.053   3.521
 2077SOL    HW1 7130   5.440   2.001   3.596
 2077SOL    HW2 7131   5.321   2.104   3.553
 2078SOL     OW 7132   4.394   5.900   5.143
 2078SOL    HW1 7133   4.299   5.891   5.172
 2078SOL    HW2 7134   4.448   5.939   5.218
 2079SOL     OW 7135   5.503   1.481   3.483
 2079SOL    HW1 7136   5.431   1.449   3.421
 2079SOL    HW2 7137   5.560   1.403   3.511
 2080SOL     OW 7138   3.193   1.991   4.675
 2080SOL    HW1 7139   3.218   1.994   4.772
 2080SOL    HW2 7140   3.199   1.897   4.642
 2081SOL     OW 7141   0.796   5.941   4.621
 2081SOL    HW1 7142   0.750   5.934   4.710
 2081SOL    HW2 7143   0.732   5.918   4.549
 2082SOL     OW 7144   5.046   0.632   2.294
 2082SOL    HW1 7145   5.071   0.538   2.314
 2082SOL    HW2 7146   5.077   0.691   2.368
 2083SOL     OW 7147   3.538   4.540   5.569
 2083SOL    HW1 7148   3.522   4.499   5.659
 2083SOL    HW2 7149   3.484   4.490   5.500
 2084SOL     OW 7150   0.011   2.970   2.749
 2084SOL    HW1 7151   6.947   2.939   2.794
 2084SOL    HW2 7152   0.073   2.893   2.737
 2085SOL     OW 7153   5.296   6.482   6.516
 2085SOL    HW1 7154   5.366   6.462   6.584
 2085SOL    HW2 7155   5.331   6.463   6.425
 2086SOL     OW 7156   3.028   4.828   0.457
 2086SOL    HW1 7157   3.051   4.894   0.528
 2086SOL    HW2 7158   2.929   4.827   0.443
 2087SOL     OW 7159   5.734   6.123   3.719
 2087SOL    HW1 7160   5.711   6.101   3.814
 2087SOL    HW2 7161   5.784   6.209   3.717
 2088SOL     OW 7162   2.531   7.000   0.706
 2088SOL    HW1 7163   2.436   6.984   0.731
 2088SOL    HW2 7164   2.535   0.035   0.623
 2089SOL     OW 7165   2.711   0.655   6.461
 2089SOL    HW1 7166   2.639   0.590   6.435
 2089SOL    HW2 7167   2.675   0.748   6.456
 2090SOL     OW 7168   3.486   2.852   3.723
 2090SOL    HW1 7169   3.492   2.767   3.776
 2090SOL    HW2 7170   3.525   2.927   3.776
 2091SOL     OW 7171   2.068   4.969   0.465
 2091SOL    HW1 7172   2.052   4.902   0.537
 2091SOL    HW2 7173   2.001   4.956   0.391
 2092SOL     OW 7174   6.585   6.227   0.905
 2092SOL    HW1 7175   6.589   6.248   1.002
 2092SOL    HW2 7176   6.514   6.284   0.862
 2093SOL     OW 7177   1.071   2.430   1.291
 2093SOL    HW1 7178   1.043   2.404   1.383
 2093SOL    HW2 7179   1.124   2.355   1.250
 2094SOL     OW 7180   5.926   0.395   2.045
 2094SOL    HW1 7181   5.966   0.394   1.953
 2094SOL    HW2 7182   5.835   0.353   2.042
 2095SOL     OW 7183   0.189   4.913   4.786
 2095SOL    HW1 7184   0.094   4.901   4.758
 2095SOL    HW2 7185   0.198   4.998   4.839
 2096SOL     OW 7186   4.828   3.775   3.236
 2096SOL    HW1 7187   4.867   3.724   3.159
 2096SOL    HW2 7188   4.762   3.718   3.285
 2097SOL     OW 7189   6.526   3.393   6.901
 2097SOL    HW1 7190   6.429   3.377   6.888
 2097SOL    HW2 7191   6.544   3.410   6.998
 2098SOL     OW 7192   4.723   0.451   4.099
 2098SOL    HW1 7193   4.693   0.449   4.003
 2098SOL    HW2 7194   4.823   0.456   4.103
 2099SOL     OW 7195   2.861   1.413   3.805
 2099SOL    HW1 7196   2.880   1.444   3.898
 2099SOL    HW2 7197   2.936   1.355   3.773
 2100SOL     OW 7198   3.847   3.844   6.663
 2100SOL    HW1 7199   3.838   3.744   6.668
 2100SOL    HW2 7200   3.760   3.887   6.686
 2101SOL     OW 7201   6.379   0.594   3.271
 2101SOL    HW1 7202   6.298   0.616   3.217
 2101SOL    HW2 7203   6.412   0.503   3.247
 2102SOL     OW 7204   0.212   5.119   1.938
 2102SOL    HW1 7205   0.188   5.077   1.850
 2102SOL    HW2 7206   0.306   5.095   1.962
 2103SOL     OW 7207   2.598   3.917   6.517
 2103SOL    HW1 7208   2.537   3.994   6.500
 2103SOL    HW2 7209   2.545   3.840   6.554
 2104SOL     OW 7210   1.341   3.677   5.160
 2104SOL    HW1 7211   1.304   3.685   5.252
 2104SOL    HW2 7212   1.433   3.636   5.165
 2105SOL     OW 7213   6.329   5.720   1.396
 2105SOL    HW1 7214   6.370   5.691   1.310
 2105SOL    HW2 7215   6.399   5.728   1.466
 2106SOL     OW 7216   5.032   5.808   6.685
 2106SOL    HW1 7217   4.952   5.786   6.630
 2106SOL    HW2 7218   5.006   5.809   6.782
 2107SOL     OW 7219   3.510   4.086   6.993
 2107SOL    HW1 7220   3.412   4.105   6.996
 2107SOL    HW2 7221   3.557   4.144   0.040
 2108SOL     OW 7222   5.539   4.750   5.356
 2108SOL    HW1 7223   5.628   4.746   5.401
 2108SOL    HW2 7224   5.538   4.824   5.290
 2109SOL     OW 7225   5.662   6.673   2.469
 2109SOL    HW1 7226   5.645   6.577   2.446
 2109SOL    HW2 7227   5.628   6.692   2.561
 2110SOL     OW 7228   2.010   4.740   4.990
 2110SOL    HW1 7229   2.046   4.649   4.968
 2110SOL    HW2 7230   2.069   4.784   5.058
 2111SOL     OW 7231   1.608   2.510   0.039
 2111SOL    HW1 7232   1.601   2.442   0.111
 2111SOL    HW2 7233   1.516   2.543   0.016
 2112SOL     OW 7234   5.105   3.278   0.956
 2112SOL    HW1 7235   5.131   3.245   0.865
 2112SOL    HW2 7236   5.187   3.309   1.004
 2113SOL     OW 7237   7.015   1.500   3.166
 2113SOL    HW1 7238   0.080   1.546   3.139
 2113SOL    HW2 7239   6.983   1.537   3.253
 2114SOL     OW 7240   1.736   3.964   6.545
 2114SOL    HW1 7241   1.704   3.954   6.451
 2114SOL    HW2 7242   1.679   4.030   6.593
 2115SOL     OW 7243   2.741   5.054   2.043
 2115SOL    HW1 7244   2.785   5.110   1.972
 2115SOL    HW2 7245   2.730   5.109   2.126
 2116SOL     OW 7246   0.045   4.069   3.266
 2116SOL    HW1 7247   0.107   3.992   3.255
 2116SOL    HW2 7248   6.998   4.069   3.192
 2117SOL     OW 7249   6.711   4.816   0.151
 2117SOL    HW1 7250   6.765   4.896   0.127
 2117SOL    HW2 7251   6.761   4.733   0.127
 2118SOL     OW 7252   6.917   4.036   2.364
 2118SOL    HW1 7253   6.947   4.111   2.305
 2118SOL    HW2 7254   6.985   4.023   2.436
 2119SOL     OW 7255   3.556   5.736   1.191
 2119SOL    HW1 7256   3.540   5.682   1.109
 2119SOL    HW2 7257   3.480   5.799   1.206
 2120SOL     OW 7258   0.029   5.702   2.340
 2120SOL    HW1 7259   6.994   5.669   2.264
 2120SOL    HW2 7260   0.032   5.632   2.412
 2121SOL     OW 7261   0.693   4.457   4.727
 2121SOL    HW1 7262   0.602   4.468   4.686
 2121SOL    HW2 7263   0.760   4.443   4.655
 2122SOL     OW 7264   4.665   4.501   5.443
 2122SOL    HW1 7265   4.639   4.405   5.428
 2122SOL    HW2 7266   4.677   4.518   5.541
 2123SOL     OW 7267   4.690   4.676   3.880
 2123SOL    HW1 7268   4.610   4.659   3.822
 2123SOL    HW2 7269   4.670   4.751   3.943
 2124SOL     OW 7270   2.731   1.407   1.410
 2124SOL    HW1 7271   2.809   1.452   1.367
 2124SOL    HW2 7272   2.716   1.446   1.501
 2125SOL     OW 7273   3.006   0.095   1.069
 2125SOL    HW1 7274   3.020   0.151   0.987
 2125SOL    HW2 7275   2.943   0.143   1.131
 2126SOL     OW 7276   2.718   0.771   2.004
 2126SOL    HW1 7277   2.642   0.835   2.010
 2126SOL    HW2 7278   2.734   0.729   2.094
 2127SOL     OW 7279   5.702   2.811   4.733
 2127SOL    HW1 7280   5.616   2.795   4.684
 2127SOL    HW2 7281   5.740   2.723   4.763
 2128SOL     OW 7282   0.827   4.537   4.261
 2128SOL    HW1 7283   0.883   4.608   4.218
 2128SOL    HW2 7284   0.828   4.455   4.204
 2129SOL     OW 7285   3.754   2.410   5.831
 2129SOL    HW1 7286   3.793   2.492   5.790
 2129SOL    HW2 7287   3.657   2.426   5.851
 2130SOL     OW 7288   4.291   6.814   3.608
 2130SOL    HW1 7289   4.261   6.876   3.681
 2130SOL    HW2 7290   4.390   6.822   3.597
 2131SOL     OW 7291   5.132   1.823   6.797
 2131SOL    HW1 7292   5.076   1.861   6.871
 2131SOL    HW2 7293   5.200   1.891   6.769
 2132SOL     OW 7294   2.336   3.476   0.333
 2132SOL    HW1 7295   2.350   3.378   0.347
 2132SOL    HW2 7296   2.355   3.499   0.238
 2133SOL     OW 7297   2.990   3.386   6.117
 2133SOL    HW1 7298   2.975   3.485   6.124
 2133SOL    HW2 7299   3.088   3.368   6.113
 2134SOL     OW 7300   1.128   6.839   1.039
 2134SOL    HW1 7301   1.158   6.802   0.951
 2134SOL    HW2 7302   1.194   6.906   1.071
 2135SOL     OW 7303   6.535   4.434   4.866
 2135SOL    HW1 7304   6.564   4.489   4.944
 2135SOL    HW2 7305   6.598   4.358   4.853
 2136SOL     OW 7306   0.954   4.985   1.095
 2136SOL    HW1 7307   0.983   4.896   1.128
 2136SOL    HW2 7308   0.911   5.036   1.170
 2137SOL     OW 7309   1.965   6.366   4.524
 2137SOL    HW1 7310   1.886   6.352   4.464
 2137SOL    HW2 7311   1.967   6.295   4.594
 2138SOL     OW 7312   5.194   1.378   1.391
 2138SOL    HW1 7313   5.247   1.414   1.468
 2138SOL    HW2 7314   5.104   1.421   1.388
 2139SOL     OW 7315   2.847   0.179   5.648
 2139SOL    HW1 7316   2.792   0.212   5.725
 2139SOL    HW2 7317   2.936   0.226   5.649
 2140SOL     OW 7318   2.410   2.031   4.658
 2140SOL    HW1 7319   2.324   2.041   4.708
 2140SOL    HW2 7320   2.483   2.007   4.723
 2141SOL     OW 7321   6.542   3.553   3.401
 2141SOL    HW1 7322   6.575   3.645   3.423
 2141SOL    HW2 7323   6.475   3.558   3.327
 2142SOL     OW 7324   1.759   2.583   3.066
 2142SOL    HW1 7325   1.801   2.667   3.034
 2142SOL    HW2 7326   1.676   2.565   3.013
 2143SOL     OW 7327   0.670   4.646   5.916
 2143SOL    HW1 7328   0.672   4.742   5.888
 2143SOL    HW2 7329   0.668   4.640   6.016
 2144SOL     OW 7330   6.152   4.615   3.479
 2144SOL    HW1 7331   6.203   4.680   3.424
 2144SOL    HW2 7332   6.090   4.562   3.420
 2145SOL     OW 7333   4.522   1.013   3.646
 2145SOL    HW1 7334   4.514   0.915   3.668
 2145SOL    HW2 7335   4.443   1.042   3.593
 2146SOL     OW 7336   2.390   3.198   0.351
 2146SOL    HW1 7337   2.350   3.138   0.421
 2146SOL    HW2 7338   2.354   3.172   0.261
 2147SOL     OW 7339   6.025   6.929   4.397
 2147SOL    HW1 7340   6.002   6.856   4.332
 2147SOL    HW2 7341   5.970   6.918   4.480
 2148SOL     OW 7342   0.572   3.519   5.904
 2148SOL    HW1 7343   0.627   3.464   5.966
 2148SOL    HW2 7344   0.479   3.526   5.940
 2149SOL     OW 7345   1.258   0.207   0.223
 2149SOL    HW1 7346   1.268   0.305   0.239
 2149SOL    HW2 7347   1.337   0.175   0.170
 2150SOL     OW 7348   1.786   2.723   1.289
 2150SOL    HW1 7349   1.702   2.681   1.322
 2150SOL    HW2 7350   1.774   2.754   1.195
 2151SOL     OW 7351   0.895   5.293   0.487
 2151SOL    HW1 7352   0.992   5.273   0.496
 2151SOL    HW2 7353   0.845   5.208   0.469
 2152SOL     OW 7354   5.401   5.958   4.303
 2152SOL    HW1 7355   5.370   5.951   4.208
 2152SOL    HW2 7356   5.396   5.868   4.346
 2153SOL     OW 7357   4.813   1.012   3.836
 2153SOL    HW1 7358   4.810   1.013   3.736
 2153SOL    HW2 7359   4.863   1.092   3.869
 2154SOL     OW 7360   3.118   0.276   2.987
 2154SOL    HW1 7361   3.043   0.277   2.920
 2154SOL    HW2 7362   3.180   0.352   2.968
 2155SOL     OW 7363   3.948   0.669   0.807
 2155SOL    HW1 7364   4.040   0.701   0.784
 2155SOL    HW2 7365   3.949   0.623   0.896
 2156SOL     OW 7366   5.275   1.977   5.056
 2156SOL    HW1 7367   5.332   2.034   4.997
 2156SOL    HW2 7368   5.284   1.881   5.030
 2157SOL     OW 7369   3.724   6.231   4.232
 2157SOL    HW1 7370   3.775   6.219   4.147
 2157SOL    HW2 7371   3.705   6.329   4.246
 2158SOL     OW 7372   3.762   6.710   0.754
 2158SOL    HW1 7373   3.698   6.728   0.679
 2158SOL    HW2 7374   3.852   6.689   0.717
 2159SOL     OW 7375   0.606   1.039   5.891
 2159SOL    HW1 7376   0.578   1.017   5.797
 2159SOL    HW2 7377   0.650   1.128   5.892
 2160SOL     OW 7378   5.675   0.637   0.504
 2160SOL    HW1 7379   5.624   0.551   0.493
 2160SOL    HW2 7380   5.634   0.690   0.579
 2161SOL     OW 7381   1.257   2.746   1.431
 2161SOL    HW1 7382   1.176   2.738   1.373
 2161SOL    HW2 7383   1.285   2.842   1.436
 2162SOL     OW 7384   1.591   6.479   1.665
 2162SOL    HW1 7385   1.660   6.528   1.718
 2162SOL    HW2 7386   1.618   6.383   1.655
 2163SOL     OW 7387   1.833   2.798   2.891
 2163SOL    HW1 7388   1.758   2.863   2.873
 2163SOL    HW2 7389   1.920   2.843   2.875
 2164SOL     OW 7390   2.241   2.860   2.599
 2164SOL    HW1 7391   2.315   2.875   2.533
 2164SOL    HW2 7392   2.217   2.947   2.642
 2165SOL     OW 7393   6.606   1.395   4.054
 2165SOL    HW1 7394   6.541   1.440   3.991
 2165SOL    HW2 7395   6.683   1.456   4.071
 2166SOL     OW 7396   0.092   4.029   2.570
 2166SOL    HW1 7397   0.072   3.970   2.649
 2166SOL    HW2 7398   0.181   4.005   2.532
 2167SOL     OW 7399   2.534   1.728   2.743
 2167SOL    HW1 7400   2.436   1.707   2.743
 2167SOL    HW2 7401   2.549   1.817   2.786
 2168SOL     OW 7402   1.769   1.843   3.219
 2168SOL    HW1 7403   1.716   1.916   3.176
 2168SOL    HW2 7404   1.712   1.795   3.286
 2169SOL     OW 7405   0.586   0.067   1.462
 2169SOL    HW1 7406   0.521   0.043   1.535
 2169SOL    HW2 7407   0.555   0.027   1.376
 2170SOL     OW 7408   1.371   4.025   5.692
 2170SOL    HW1 7409   1.360   4.125   5.693
 2170SOL    HW2 7410   1.455   4.001   5.739
 2171SOL     OW 7411   6.833   5.863   1.320
 2171SOL    HW1 7412   6.804   5.950   1.360
 2171SOL    HW2 7413   6.915   5.878   1.264
 2172SOL     OW 7414   1.905   1.581   5.258
 2172SOL    HW1 7415   1.986   1.609   5.308
 2172SOL    HW2 7416   1.895   1.482   5.261
 2173SOL     OW 7417   5.768   0.637   5.547
 2173SOL    HW1 7418   5.820   0.691   5.614
 2173SOL    HW2 7419   5.737   0.697   5.473
 2174SOL     OW 7420   5.536   0.331   5.901
 2174SOL    HW1 7421   5.444   0.339   5.938
 2174SOL    HW2 7422   5.548   0.398   5.827
 2175SOL     OW 7423   2.656   4.037   5.313
 2175SOL    HW1 7424   2.684   3.970   5.381
 2175SOL    HW2 7425   2.569   4.010   5.273
 2176SOL     OW 7426   5.390   2.107   2.374
 2176SOL    HW1 7427   5.428   2.062   2.454
 2176SOL    HW2 7428   5.290   2.105   2.377
 2177SOL     OW 7429   0.445   0.565   4.783
 2177SOL    HW1 7430   0.534   0.534   4.814
 2177SOL    HW2 7431   0.376   0.496   4.803
 2178SOL     OW 7432   0.881   2.110   2.854
 2178SOL    HW1 7433   0.897   2.022   2.899
 2178SOL    HW2 7434   0.816   2.164   2.907
 2179SOL     OW 7435   1.674   4.446   6.177
 2179SOL    HW1 7436   1.700   4.444   6.080
 2179SOL    HW2 7437   1.755   4.458   6.233
 2180SOL     OW 7438   0.658   6.144   2.844
 2180SOL    HW1 7439   0.756   6.122   2.845
 2180SOL    HW2 7440   0.606   6.068   2.881
 2181SOL     OW 7441   3.395   4.972   4.772
 2181SOL    HW1 7442   3.344   4.960   4.857
 2181SOL    HW2 7443   3.332   4.967   4.694
 2182SOL     OW 7444   6.904   6.745   2.775
 2182SOL    HW1 7445   6.935   6.828   2.822
 2182SOL    HW2 7446   6.981   6.681   2.767
 2183SOL     OW 7447   3.511   3.350   6.243
 2183SOL    HW1 7448   3.508   3.255   6.274
 2183SOL    HW2 7449   3.433   3.368   6.183
 2184SOL     OW 7450   6.875   1.467   0.287
 2184SOL    HW1 7451   6.776   1.456   0.277
 2184SOL    HW2 7452   6.909   1.404   0.357
 2185SOL     OW 7453   1.185   0.288   6.639
 2185SOL    HW1 7454   1.136   0.322   6.720
 2185SOL    HW2 7455   1.126   0.296   6.559
 2186SOL     OW 7456   6.834   5.355   5.441
 2186SOL    HW1 7457   6.846   5.446   5.400
 2186SOL    HW2 7458   6.789   5.294   5.375
 2187SOL     OW 7459   0.220   5.735   2.019
 2187SOL    HW1 7460   0.254   5.643   2.039
 2187SOL    HW2 7461   0.120   5.735   2.023
 2188SOL     OW 7462   2.717   0.916   0.892
 2188SOL    HW1 7463   2.664   0.836   0.920
 2188SOL    HW2 7464   2.744   0.907   0.796
 2189SOL     OW 7465   2.135   1.385   1.618
 2189SOL    HW1 7466   2.117   1.482   1.629
 2189SOL    HW2 7467   2.058   1.332   1.655
 2190SOL     OW 7468   6.561   4.129   1.899
 2190SOL    HW1 7469   6.493   4.082   1.843
 2190SOL    HW2 7470   6.623   4.062   1.939
 2191SOL     OW 7471   3.006   0.337   6.551
 2191SOL    HW1 7472   3.003   0.257   6.491
 2191SOL    HW2 7473   3.000   0.308   6.646
 2192SOL     OW 7474   5.307   1.859   1.907
 2192SOL    HW1 7475   5.390   1.894   1.862
 2192SOL    HW2 7476   5.228   1.914   1.878
 2193SOL     OW 7477   1.711   6.808   5.900
 2193SOL    HW1 7478   1.728   6.907   5.899
 2193SOL    HW2 7479   1.614   6.791   5.888
 2194SOL     OW 7480   0.668   4.340   6.131
 2194SOL    HW1 7481   0.629   4.248   6.139
 2194SOL    HW2 7482   0.764   4.333   6.103
 2195SOL     OW 7483   0.574   3.452   4.829
 2195SOL    HW1 7484   0.613   3.363   4.852
 2195SOL    HW2 7485   0.576   3.464   4.729
 2196SOL     OW 7486   2.904   0.209   6.769
 2196SOL    HW1 7487   2.839   0.160   6.710
 2196SOL    HW2 7488   2.945   0.144   6.833
 2197SOL     OW 7489   3.837   5.507   5.739
 2197SOL    HW1 7490   3.746   5.485   5.774
 2197SOL    HW2 7491   3.885   5.563   5.807
 2198SOL     OW 7492   0.902   0.667   0.036
 2198SOL    HW1 7493   0.976   0.692   0.099
 2198SOL    HW2 7494   0.837   0.743   0.030
 2199SOL     OW 7495   4.009   6.430   4.750
 2199SOL    HW1 7496   4.096   6.390   4.779
 2199SOL    HW2 7497   3.954   6.452   4.830
 2200SOL     OW 7498   2.594   2.214   3.950
 2200SOL    HW1 7499   2.600   2.193   3.852
 2200SOL    HW2 7500   2.507   2.181   3.986
 2201SOL     OW 7501   6.084   3.843   4.836
 2201SOL    HW1 7502   6.109   3.753   4.800
 2201SOL    HW2 7503   6.063   3.904   4.760
 2202SOL     OW 7504   3.199   0.187   2.067
 2202SOL    HW1 7505   3.193   0.262   2.001
 2202SOL    HW2 7506   3.157   0.216   2.153
 2203SOL     OW 7507   2.385   4.688   1.203
 2203SOL    HW1 7508   2.311   4.623   1.223
 2203SOL    HW2 7509   2.471   4.654   1.241
 2204SOL     OW 7510   6.050   3.237   0.568
 2204SOL    HW1 7511   5.985   3.234   0.492
 2204SOL    HW2 7512   6.044   3.151   0.620
 2205SOL     OW 7513   0.218   5.309   0.740
 2205SOL    HW1 7514   0.227   5.389   0.799
 2205SOL    HW2 7515   0.262   5.230   0.784
 2206SOL     OW 7516   4.000   2.392   5.917
 2206SOL    HW1 7517   4.057   2.334   5.858
 2206SOL    HW2 7518   3.905   2.388   5.885
 2207SOL     OW 7519   4.802   5.817   0.806
 2207SOL    HW1 7520   4.890   5.775   0.781
 2207SOL    HW2 7521   4.728   5.756   0.777
 2208SOL     OW 7522   6.457   6.534   3.841
 2208SOL    HW1 7523   6.476   6.548   3.744
 2208SOL    HW2 7524   6.524   6.470   3.879
 2209SOL     OW 7525   2.736   5.798   4.176
 2209SOL    HW1 7526   2.697   5.706   4.178
 2209SOL    HW2 7527   2.708   5.848   4.258
 2210SOL     OW 7528   4.619   0.040   1.413
 2210SOL    HW1 7529   4.550   0.015   1.481
 2210SOL    HW2 7530   4.589   0.122   1.363
 2211SOL     OW 7531   0.952   1.660   1.171
 2211SOL    HW1 7532   1.034   1.701   1.212
 2211SOL    HW2 7533   0.976   1.622   1.082
 2212SOL     OW 7534   3.154   5.638   6.961
 2212SOL    HW1 7535   3.192   5.681   6.879
 2212SOL    HW2 7536   3.078   5.579   6.936
 2213SOL     OW 7537   3.296   2.083   4.901
 2213SOL    HW1 7538   3.236   2.160   4.922
 2213SOL    HW2 7539   3.360   2.069   4.976
 2214SOL     OW 7540   4.270   3.982   6.895
 2214SOL    HW1 7541   4.221   3.905   6.936
 2214SOL    HW2 7542   4.325   4.027   6.965
 2215SOL     OW 7543   4.036   0.005   6.656
 2215SOL    HW1 7544   4.093   6.944   6.671
 2215SOL    HW2 7545   4.007   0.008   6.560
 2216SOL     OW 7546   0.778   6.620   6.539
 2216SOL    HW1 7547   0.808   6.704   6.583
 2216SOL    HW2 7548   0.680   6.626   6.518
 2217SOL     OW 7549   4.372   0.888   3.933
 2217SOL    HW1 7550   4.300   0.864   3.869
 2217SOL    HW2 7551   4.339   0.959   3.996
 2218SOL     OW 7552   0.499   6.104   5.653
 2218SOL    HW1 7553   0.434   6.029   5.650
 2218SOL    HW2 7554   0.569   6.090   5.583
 2219SOL     OW 7555   5.745   0.851   1.275
 2219SOL    HW1 7556   5.789   0.940   1.267
 2219SOL    HW2 7557   5.679   0.839   1.200
 2220SOL     OW 7558   0.352   6.118   4.757
 2220SOL    HW1 7559   0.271   6.161   4.797
 2220SOL    HW2 7560   0.422   6.188   4.740
 2221SOL     OW 7561   6.470   0.972   4.106
 2221SOL    HW1 7562   6.382   0.933   4.080
 2221SOL    HW2 7563   6.543   0.930   4.052
 2222SOL     OW 7564   5.086   0.367   2.296
 2222SOL    HW1 7565   4.986   0.363   2.294
 2222SOL    HW2 7566   5.119   0.317   2.376
 2223SOL     OW 7567   0.313   6.187   5.436
 2223SOL    HW1 7568   0.277   6.281   5.441
 2223SOL    HW2 7569   0.381   6.173   5.508
 2224SOL     OW 7570   5.804   3.769   0.568
 2224SOL    HW1 7571   5.886   3.770   0.512
 2224SOL    HW2 7572   5.828   3.784   0.664
 2225SOL     OW 7573   6.560   6.355   2.360
 2225SOL    HW1 7574   6.622   6.329   2.286
 2225SOL    HW2 7575   6.511   6.275   2.393
 2226SOL     OW 7576   2.663   4.936   0.048
 2226SOL    HW1 7577   2.755   4.896   0.054
 2226SOL    HW2 7578   2.655   4.989   6.984
 2227SOL     OW 7579   3.864   2.031   1.914
 2227SOL    HW1 7580   3.813   1.973   1.852
 2227SOL    HW2 7581   3.801   2.090   1.964
 2228SOL     OW 7582   5.677   5.450   6.938
 2228SOL    HW1 7583   5.641   5.535   6.977
 2228SOL    HW2 7584   5.728   5.401   7.009
 2229SOL     OW 7585   3.302   3.291   3.500
 2229SOL    HW1 7586   3.381   3.266   3.556
 2229SOL    HW2 7587   3.241   3.212   3.491
 2230SOL     OW 7588   5.858   0.176   6.913
 2230SOL    HW1 7589   5.883   0.271   6.932
 2230SOL    HW2 7590   5.794   0.173   6.836
 2231SOL     OW 7591   1.344   6.808   6.663
 2231SOL    HW1 7592   1.312   6.740   6.596
 2231SOL    HW2 7593   1.341   6.899   6.622
 2232SOL     OW 7594   1.403   0.909   5.046
 2232SOL    HW1 7595   1.350   0.972   4.990
 2232SOL    HW2 7596   1.354   0.822   5.053
 2233SOL     OW 7597   3.096   4.841   0.921
 2233SOL    HW1 7598   3.177   4.800   0.880
 2233SOL    HW2 7599   3.096   4.825   1.019
 2234SOL     OW 7600   4.885   1.812   1.574
 2234SOL    HW1 7601   4.925   1.807   1.666
 2234SOL    HW2 7602   4.924   1.890   1.526
 2235SOL     OW 7603   1.141   2.145   3.074
 2235SOL    HW1 7604   1.137   2.240   3.042
 2235SOL    HW2 7605   1.180   2.087   3.003
 2236SOL     OW 7606   2.187   5.096   5.254
 2236SOL    HW1 7607   2.249   5.114   5.330
 2236SOL    HW2 7608   2.109   5.160   5.259
 2237SOL     OW 7609   6.146   5.095   5.690
 2237SOL    HW1 7610   6.218   5.146   5.642
 2237SOL    HW2 7611   6.118   5.146   5.771
 2238SOL     OW 7612   6.067   3.884   1.697
 2238SOL    HW1 7613   6.101   3.790   1.695
 2238SOL    HW2 7614   6.044   3.908   1.791
 2239SOL     OW 7615   4.827   6.805   3.060
 2239SOL    HW1 7616   4.907   6.825   3.117
 2239SOL    HW2 7617   4.857   6.791   2.965
 2240SOL     OW 7618   4.902   5.174   2.645
 2240SOL    HW1 7619   4.939   5.102   2.585
 2240SOL    HW2 7620   4.977   5.220   2.692
 2241SOL     OW 7621   0.487   1.416   2.223
 2241SOL    HW1 7622   0.522   1.509   2.210
 2241SOL    HW2 7623   0.561   1.350   2.213
 2242SOL     OW 7624   5.281   2.570   3.345
 2242SOL    HW1 7625   5.267   2.510   3.424
 2242SOL    HW2 7626   5.366   2.621   3.356
 2243SOL     OW 7627   2.132   6.779   0.816
 2243SOL    HW1 7628   2.115   6.724   0.898
 2243SOL    HW2 7629   2.215   6.745   0.771
 2244SOL     OW 7630   2.462   0.930   0.726
 2244SOL    HW1 7631   2.547   0.894   0.686
 2244SOL    HW2 7632   2.449   0.892   0.817
 2245SOL     OW 7633   0.150   0.347   7.014
 2245SOL    HW1 7634   0.070   0.311   6.965
 2245SOL    HW2 7635   0.120   0.413   0.062
 2246SOL     OW 7636   2.846   1.509   5.234
 2246SOL    HW1 7637   2.799   1.579   5.287
 2246SOL    HW2 7638   2.788   1.481   5.157
 2247SOL     OW 7639   3.029   3.201   2.684
 2247SOL    HW1 7640   3.061   3.255   2.762
 2247SOL    HW2 7641   3.105   3.186   2.620
 2248SOL     OW 7642   4.495   3.980   5.336
 2248SOL    HW1 7643   4.497   4.079   5.347
 2248SOL    HW2 7644   4.576   3.950   5.285
 2249SOL     OW 7645   1.212   6.479   3.687
 2249SOL    HW1 7646   1.264   6.394   3.698
 2249SOL    HW2 7647   1.270   6.549   3.645
 2250SOL     OW 7648   4.401   5.350   6.277
 2250SOL    HW1 7649   4.367   5.311   6.363
 2250SOL    HW2 7650   4.499   5.332   6.269
 2251SOL     OW 7651   5.709   6.336   5.513
 2251SOL    HW1 7652   5.634   6.389   5.552
 2251SOL    HW2 7653   5.714   6.247   5.559
 2252SOL     OW 7654   4.199   1.984   2.361
 2252SOL    HW1 7655   4.121   2.046   2.371
 2252SOL    HW2 7656   4.284   2.035   2.371
 2253SOL     OW 7657   0.438   3.574   1.229
 2253SOL    HW1 7658   0.491   3.650   1.192
 2253SOL    HW2 7659   0.390   3.604   1.311
 2254SOL     OW 7660   3.769   4.047   2.426
 2254SOL    HW1 7661   3.731   4.010   2.511
 2254SOL    HW2 7662   3.807   4.138   2.444
 2255SOL     OW 7663   3.058   3.075   6.114
 2255SOL    HW1 7664   2.965   3.106   6.090
 2255SOL    HW2 7665   3.124   3.115   6.050
 2256SOL     OW 7666   5.317   0.173   1.251
 2256SOL    HW1 7667   5.232   0.207   1.291
 2256SOL    HW2 7668   5.390   0.178   1.318
 2257SOL     OW 7669   0.170   1.367   4.970
 2257SOL    HW1 7670   0.104   1.300   4.937
 2257SOL    HW2 7671   0.131   1.419   5.046
 2258SOL     OW 7672   2.590   5.548   4.165
 2258SOL    HW1 7673   2.496   5.548   4.200
 2258SOL    HW2 7674   2.598   5.482   4.091
 2259SOL     OW 7675   6.018   2.311   4.803
 2259SOL    HW1 7676   5.990   2.364   4.884
 2259SOL    HW2 7677   5.969   2.346   4.723
 2260SOL     OW 7678   0.735   4.048   1.412
 2260SOL    HW1 7679   0.743   4.097   1.325
 2260SOL    HW2 7680   0.820   3.999   1.430
 2261SOL     OW 7681   5.309   3.998   6.670
 2261SOL    HW1 7682   5.213   3.971   6.663
 2261SOL    HW2 7683   5.357   3.972   6.586
 2262SOL     OW 7684   6.345   0.352   4.696
 2262SOL    HW1 7685   6.396   0.438   4.695
 2262SOL    HW2 7686   6.383   0.289   4.628
 2263SOL     OW 7687   2.160   4.286   6.514
 2263SOL    HW1 7688   2.254   4.315   6.533
 2263SOL    HW2 7689   2.146   4.193   6.549
 2264SOL     OW 7690   2.648   7.013   5.670
 2264SOL    HW1 7691   2.652   6.933   5.730
 2264SOL    HW2 7692   2.738   0.038   5.669
 2265SOL     OW 7693   0.487   6.492   4.501
 2265SOL    HW1 7694   0.490   6.569   4.565
 2265SOL    HW2 7695   0.577   6.481   4.458
 2266SOL     OW 7696   3.898   2.770   6.765
 2266SOL    HW1 7697   3.858   2.683   6.795
 2266SOL    HW2 7698   3.890   2.777   6.666
 2267SOL     OW 7699   4.761   2.339   4.404
 2267SOL    HW1 7700   4.679   2.284   4.415
 2267SOL    HW2 7701   4.749   2.426   4.453
 2268SOL     OW 7702   1.060   5.346   4.890
 2268SOL    HW1 7703   1.061   5.445   4.899
 2268SOL    HW2 7704   1.033   5.304   4.977
 2269SOL     OW 7705   1.832   2.351   5.296
 2269SOL    HW1 7706   1.821   2.316   5.389
 2269SOL    HW2 7707   1.920   2.396   5.287
 2270SOL     OW 7708   5.097   1.916   5.934
 2270SOL    HW1 7709   5.107   1.887   5.838
 2270SOL    HW2 7710   5.091   2.015   5.938
 2271SOL     OW 7711   4.938   5.487   5.681
 2271SOL    HW1 7712   4.877   5.418   5.721
 2271SOL    HW2 7713   4.930   5.485   5.581
 2272SOL     OW 7714   5.469   1.227   6.071
 2272SOL    HW1 7715   5.501   1.209   6.163
 2272SOL    HW2 7716   5.371   1.248   6.073
 2273SOL     OW 7717   0.767   2.489   2.744
 2273SOL    HW1 7718   0.773   2.444   2.656
 2273SOL    HW2 7719   0.859   2.518   2.773
 2274SOL     OW 7720   0.344   1.728   0.057
 2274SOL    HW1 7721   0.343   1.785   6.995
 2274SOL    HW2 7722   0.435   1.687   0.067
 2275SOL     OW 7723   5.476   4.925   3.068
 2275SOL    HW1 7724   5.541   4.942   3.142
 2275SOL    HW2 7725   5.386   4.906   3.106
 2276SOL     OW 7726   1.380   2.250   1.023
 2276SOL    HW1 7727   1.430   2.173   0.985
 2276SOL    HW2 7728   1.282   2.229   1.023
 2277SOL     OW 7729   3.674   3.474   3.496
 2277SOL    HW1 7730   3.718   3.556   3.532
 2277SOL    HW2 7731   3.587   3.499   3.453
 2278SOL     OW 7732   0.730   2.569   4.326
 2278SOL    HW1 7733   0.743   2.662   4.363
 2278SOL    HW2 7734   0.801   2.550   4.258
 2279SOL     OW 7735   0.676   6.034   5.446
 2279SOL    HW1 7736   0.679   5.944   5.404
 2279SOL    HW2 7737   0.692   6.104   5.377
 2280SOL     OW 7738   4.884   1.699   5.797
 2280SOL    HW1 7739   4.919   1.700   5.891
 2280SOL    HW2 7740   4.945   1.751   5.738
 2281SOL     OW 7741   5.843   6.526   2.655
 2281SOL    HW1 7742   5.877   6.547   2.563
 2281SOL    HW2 7743   5.768   6.588   2.677
 2282SOL     OW 7744   4.080   6.495   5.237
 2282SOL    HW1 7745   4.078   6.473   5.140
 2282SOL    HW2 7746   4.062   6.413   5.291
 2283SOL     OW 7747   0.225   0.327   3.904
 2283SOL    HW1 7748   0.205   0.401   3.840
 2283SOL    HW2 7749   0.157   0.255   3.895
 2284SOL     OW 7750   1.079   2.533   0.118
 2284SOL    HW1 7751   1.045   2.520   0.025
 2284SOL    HW2 7752   1.002   2.547   0.180
 2285SOL     OW 7753   1.619   4.259   6.406
 2285SOL    HW1 7754   1.584   4.194   6.338
 2285SOL    HW2 7755   1.699   4.221   6.450
 2286SOL     OW 7756   4.799   5.633   3.657
 2286SOL    HW1 7757   4.875   5.617   3.594
 2286SOL    HW2 7758   4.811   5.576   3.738
 2287SOL     OW 7759   1.737   1.189   3.240
 2287SOL    HW1 7760   1.760   1.286   3.250
 2287SOL    HW2 7761   1.640   1.181   3.215
 2288SOL     OW 7762   6.950   6.304   2.917
 2288SOL    HW1 7763   6.868   6.248   2.907
 2288SOL    HW2 7764   6.965   6.356   2.833
 2289SOL     OW 7765   0.562   5.584   1.469
 2289SOL    HW1 7766   0.476   5.533   1.475
 2289SOL    HW2 7767   0.558   5.647   1.391
 2290SOL     OW 7768   0.418   5.874   0.379
 2290SOL    HW1 7769   0.448   5.957   0.331
 2290SOL    HW2 7770   0.481   5.855   0.455
 2291SOL     OW 7771   2.353   1.899   6.570
 2291SOL    HW1 7772   2.270   1.854   6.602
 2291SOL    HW2 7773   2.354   1.994   6.600
 2292SOL     OW 7774   1.143   1.542   5.018
 2292SOL    HW1 7775   1.067   1.607   5.015
 2292SOL    HW2 7776   1.139   1.483   4.937
 2293SOL     OW 7777   5.386   4.454   2.660
 2293SOL    HW1 7778   5.357   4.364   2.626
 2293SOL    HW2 7779   5.419   4.509   2.583
 2294SOL     OW 7780   3.436   6.394   6.802
 2294SOL    HW1 7781   3.490   6.442   6.732
 2294SOL    HW2 7782   3.380   6.323   6.759
 2295SOL     OW 7783   0.570   2.332   1.406
 2295SOL    HW1 7784   0.487   2.285   1.376
 2295SOL    HW2 7785   0.640   2.264   1.429
 2296SOL     OW 7786   2.874   6.491   0.162
 2296SOL    HW1 7787   2.947   6.452   0.219
 2296SOL    HW2 7788   2.835   6.570   0.208
 2297SOL     OW 7789   4.337   6.022   5.620
 2297SOL    HW1 7790   4.381   6.004   5.532
 2297SOL    HW2 7791   4.389   5.978   5.693
 2298SOL     OW 7792   4.007   3.029   6.824
 2298SOL    HW1 7793   3.962   2.940   6.824
 2298SOL    HW2 7794   4.018   3.061   6.730
 2299SOL     OW 7795   4.473   5.950   0.302
 2299SOL    HW1 7796   4.460   5.872   0.363
 2299SOL    HW2 7797   4.531   6.018   0.348
 2300SOL     OW 7798   1.496   4.956   1.321
 2300SOL    HW1 7799   1.572   4.979   1.381
 2300SOL    HW2 7800   1.458   5.039   1.281
 2301SOL     OW 7801   4.020   3.616   1.914
 2301SOL    HW1 7802   4.007   3.585   2.008
 2301SOL    HW2 7803   3.986   3.710   1.905
 2302SOL     OW 7804   2.557   5.931   2.825
 2302SOL    HW1 7805   2.516   5.993   2.892
 2302SOL    HW2 7806   2.585   5.846   2.871
 2303SOL     OW 7807   0.992   3.027   4.483
 2303SOL    HW1 7808   1.051   3.021   4.403
 2303SOL    HW2 7809   1.032   2.973   4.558
 2304SOL     OW 7810   2.489   0.974   3.776
 2304SOL    HW1 7811   2.438   0.960   3.861
 2304SOL    HW2 7812   2.453   1.054   3.728
 2305SOL     OW 7813   4.032   5.365   1.936
 2305SOL    HW1 7814   3.944   5.329   1.905
 2305SOL    HW2 7815   4.103   5.296   1.920
 2306SOL     OW 7816   0.900   3.437   0.879
 2306SOL    HW1 7817   0.945   3.375   0.814
 2306SOL    HW2 7818   0.812   3.466   0.842
 2307SOL     OW 7819   0.575   2.603   2.560
 2307SOL    HW1 7820   0.634   2.664   2.506
 2307SOL    HW2 7821   0.618   2.586   2.649
 2308SOL     OW 7822   0.332   0.196   0.412
 2308SOL    HW1 7823   0.238   0.166   0.396
 2308SOL    HW2 7824   0.360   0.258   0.338
 2309SOL     OW 7825   3.344   5.079   5.909
 2309SOL    HW1 7826   3.441   5.057   5.908
 2309SOL    HW2 7827   3.327   5.151   5.976
 2310SOL     OW 7828   5.597   1.027   2.037
 2310SOL    HW1 7829   5.513   0.975   2.019
 2310SOL    HW2 7830   5.655   0.976   2.100
 2311SOL     OW 7831   2.915   0.151   2.820
 2311SOL    HW1 7832   2.913   0.057   2.787
 2311SOL    HW2 7833   2.823   0.191   2.813
 2312SOL     OW 7834   3.206   1.251   3.080
 2312SOL    HW1 7835   3.176   1.346   3.088
 2312SOL    HW2 7836   3.301   1.249   3.048
 2313SOL     OW 7837   5.309   3.873   1.705
 2313SOL    HW1 7838   5.380   3.942   1.693
 2313SOL    HW2 7839   5.278   3.873   1.800
 2314SOL     OW 7840   6.239   0.193   3.076
 2314SOL    HW1 7841   6.304   0.201   3.000
 2314SOL    HW2 7842   6.181   0.113   3.062
 2315SOL     OW 7843   4.360   5.558   5.371
 2315SOL    HW1 7844   4.337   5.481   5.311
 2315SOL    HW2 7845   4.394   5.523   5.458
 2316SOL     OW 7846   3.069   1.781   6.010
 2316SOL    HW1 7847   3.102   1.687   6.024
 2316SOL    HW2 7848   3.118   1.843   6.071
 2317SOL     OW 7849   6.530   5.895   3.932
 2317SOL    HW1 7850   6.618   5.849   3.942
 2317SOL    HW2 7851   6.495   5.881   3.840
 2318SOL     OW 7852   1.781   4.887   4.936
 2318SOL    HW1 7853   1.867   4.835   4.938
 2318SOL    HW2 7854   1.790   4.963   4.873
 2319SOL     OW 7855   2.338   4.933   3.785
 2319SOL    HW1 7856   2.390   5.016   3.764
 2319SOL    HW2 7857   2.273   4.915   3.711
 2320SOL     OW 7858   1.739   3.038   5.345
 2320SOL    HW1 7859   1.744   2.978   5.265
 2320SOL    HW2 7860   1.648   3.030   5.386
 2321SOL     OW 7861   2.768   5.284   6.002
 2321SOL    HW1 7862   2.787   5.240   6.090
 2321SOL    HW2 7863   2.695   5.235   5.955
 2322SOL     OW 7864   0.776   3.637   2.058
 2322SOL    HW1 7865   0.852   3.599   2.006
 2322SOL    HW2 7866   0.762   3.733   2.031
 2323SOL     OW 7867   2.265   4.787   1.618
 2323SOL    HW1 7868   2.206   4.845   1.674
 2323SOL    HW2 7869   2.295   4.837   1.538
 2324SOL     OW 7870   6.861   5.628   1.783
 2324SOL    HW1 7871   6.895   5.632   1.689
 2324SOL    HW2 7872   6.764   5.653   1.784
 2325SOL     OW 7873   6.881   5.210   1.555
 2325SOL    HW1 7874   6.884   5.148   1.477
 2325SOL    HW2 7875   6.968   5.259   1.562
 2326SOL     OW 7876   0.966   0.809   6.468
 2326SOL    HW1 7877   0.977   0.717   6.505
 2326SOL    HW2 7878   1.056   0.853   6.462
 2327SOL     OW 7879   6.771   0.739   2.919
 2327SOL    HW1 7880   6.810   0.735   3.011
 2327SOL    HW2 7881   6.802   0.822   2.873
 2328SOL     OW 7882   2.355   2.459   2.415
 2328SOL    HW1 7883   2.378   2.364   2.438
 2328SOL    HW2 7884   2.351   2.514   2.498
 2329SOL     OW 7885   0.735   5.835   3.476
 2329SOL    HW1 7886   0.774   5.911   3.425
 2329SOL    HW2 7887   0.640   5.821   3.447
 2330SOL     OW 7888   6.332   2.451   0.480
 2330SOL    HW1 7889   6.299   2.424   0.570
 2330SOL    HW2 7890   6.355   2.370   0.427
 2331SOL     OW 7891   3.927   6.052   0.362
 2331SOL    HW1 7892   3.946   6.009   0.274
 2331SOL    HW2 7893   4.001   6.033   0.425
 2332SOL     OW 7894   5.365   6.168   6.258
 2332SOL    HW1 7895   5.326   6.084   6.297
 2332SOL    HW2 7896   5.461   6.176   6.286
 2333SOL     OW 7897   0.192   4.973   2.421
 2333SOL    HW1 7898   0.288   5.002   2.422
 2333SOL    HW2 7899   0.139   5.031   2.484
 2334SOL     OW 7900   2.612   0.876   5.773
 2334SOL    HW1 7901   2.541   0.906   5.837
 2334SOL    HW2 7902   2.691   0.844   5.824
 2335SOL     OW 7903   5.964   1.530   3.390
 2335SOL    HW1 7904   6.031   1.527   3.464
 2335SOL    HW2 7905   5.877   1.565   3.425
 2336SOL     OW 7906   1.931   1.650   2.535
 2336SOL    HW1 7907   1.989   1.656   2.454
 2336SOL    HW2 7908   1.902   1.556   2.548
 2337SOL     OW 7909   4.268   1.803   1.435
 2337SOL    HW1 7910   4.285   1.898   1.408
 2337SOL    HW2 7911   4.215   1.801   1.520
 2338SOL     OW 7912   0.054   4.248   4.193
 2338SOL    HW1 7913   0.096   4.296   4.116
 2338SOL    HW2 7914   0.053   4.150   4.175
 2339SOL     OW 7915   3.811   3.115   2.729
 2339SOL    HW1 7916   3.848   3.051   2.662
 2339SOL    HW2 7917   3.863   3.108   2.815
 2340SOL     OW 7918   1.649   5.835   6.531
 2340SOL    HW1 7919   1.693   5.885   6.456
 2340SOL    HW2 7920   1.719   5.798   6.592
 2341SOL     OW 7921   2.458   4.505   3.513
 2341SOL    HW1 7922   2.400   4.429   3.484
 2341SOL    HW2 7923   2.489   4.490   3.607
 2342SOL     OW 7924   2.836   6.892   3.981
 2342SOL    HW1 7925   2.827   6.893   4.081
 2342SOL    HW2 7926   2.925   6.928   3.955
 2343SOL     OW 7927   1.594   6.500   2.487
 2343SOL    HW1 7928   1.620   6.597   2.487
 2343SOL    HW2 7929   1.653   6.449   2.425
 2344SOL     OW 7930   5.731   4.370   1.102
 2344SOL    HW1 7931   5.803   4.398   1.039
 2344SOL    HW2 7932   5.660   4.319   1.053
 2345SOL     OW 7933   2.766   5.931   4.890
 2345SOL    HW1 7934   2.807   5.844   4.919
 2345SOL    HW2 7935   2.817   6.006   4.931
 2346SOL     OW 7936   4.057   4.007   6.261
 2346SOL    HW1 7937   4.060   4.001   6.361
 2346SOL    HW2 7938   4.002   3.931   6.225
 2347SOL     OW 7939   0.970   2.458   1.789
 2347SOL    HW1 7940   0.874   2.437   1.805
 2347SOL    HW2 7941   1.016   2.473   1.877
 2348SOL     OW 7942   0.801   5.416   3.004
 2348SOL    HW1 7943   0.756   5.343   2.951
 2348SOL    HW2 7944   0.735   5.490   3.020
 2349SOL     OW 7945   0.335   4.718   6.464
 2349SOL    HW1 7946   0.399   4.687   6.394
 2349SOL    HW2 7947   0.250   4.746   6.421
 2350SOL     OW 7948   6.329   4.234   6.247
 2350SOL    HW1 7949   6.411   4.257   6.299
 2350SOL    HW2 7950   6.322   4.135   6.237
 2351SOL     OW 7951   2.478   4.487   3.141
 2351SOL    HW1 7952   2.395   4.437   3.166
 2351SOL    HW2 7953   2.540   4.490   3.220
 2352SOL     OW 7954   0.451   3.297   3.520
 2352SOL    HW1 7955   0.366   3.300   3.572
 2352SOL    HW2 7956   0.524   3.261   3.578
 2353SOL     OW 7957   3.567   5.801   5.270
 2353SOL    HW1 7958   3.497   5.848   5.323
 2353SOL    HW2 7959   3.548   5.809   5.173
 2354SOL     OW 7960   2.627   1.839   4.085
 2354SOL    HW1 7961   2.572   1.909   4.130
 2354SOL    HW2 7962   2.658   1.773   4.153
 2355SOL     OW 7963   2.059   5.958   4.828
 2355SOL    HW1 7964   2.136   5.908   4.867
 2355SOL    HW2 7965   2.022   5.907   4.751
 2356SOL     OW 7966   0.142   3.151   6.936
 2356SOL    HW1 7967   0.056   3.176   6.891
 2356SOL    HW2 7968   0.170   3.224   6.999
 2357SOL     OW 7969   2.999   6.973   2.386
 2357SOL    HW1 7970   3.097   6.957   2.401
 2357SOL    HW2 7971   2.979   0.050   2.396
 2358SOL     OW 7972   3.823   4.301   6.777
 2358SOL    HW1 7973   3.802   4.296   6.679
 2358SOL    HW2 7974   3.875   4.220   6.804
 2359SOL     OW 7975   1.210   0.692   5.069
 2359SOL    HW1 7976   1.196   0.701   5.167
 2359SOL    HW2 7977   1.148   0.624   5.032
 2360SOL     OW 7978   6.462   3.251   0.363
 2360SOL    HW1 7979   6.398   3.268   0.439
 2360SOL    HW2 7980   6.555   3.244   0.399
 2361SOL     OW 7981   3.855   1.493   5.712
 2361SOL    HW1 7982   3.853   1.586   5.750
 2361SOL    HW2 7983   3.948   1.457   5.718
 2362SOL     OW 7984   3.431   5.175   3.487
 2362SOL    HW1 7985   3.364   5.170   3.561
 2362SOL    HW2 7986   3.428   5.091   3.433
 2363SOL     OW 7987   3.836   1.550   3.981
 2363SOL    HW1 7988   3.740   1.577   3.989
 2363SOL    HW2 7989   3.841   1.459   3.940
 2364SOL     OW 7990   1.226   2.027   1.224
 2364SOL    HW1 7991   1.218   1.943   1.277
 2364SOL    HW2 7992   1.185   2.015   1.134
 2365SOL     OW 7993   5.554   2.288   6.552
 2365SOL    HW1 7994   5.651   2.273   6.534
 2365SOL    HW2 7995   5.535   2.386   6.552
 2366SOL     OW 7996   3.877   5.227   1.268
 2366SOL    HW1 7997   3.849   5.134   1.247
 2366SOL    HW2 7998   3.815   5.292   1.222
 2367SOL     OW 7999   1.997   3.286   6.743
 2367SOL    HW1 8000   1.959   3.198   6.771
 2367SOL    HW2 8001   2.080   3.271   6.688
 2368SOL     OW 8002   6.092   6.657   4.001
 2368SOL    HW1 8003   6.024   6.726   3.977
 2368SOL    HW2 8004   6.078   6.575   3.945
 2369SOL     OW 8005   2.075   0.090   3.728
 2369SOL    HW1 8006   1.982   0.052   3.725
 2369SOL    HW2 8007   2.070   0.190   3.725
 2370SOL     OW 8008   5.644   2.498   6.871
 2370SOL    HW1 8009   5.741   2.474   6.876
 2370SOL    HW2 8010   5.604   2.457   6.790
 2371SOL     OW 8011   3.056   0.111   1.585
 2371SOL    HW1 8012   3.012   0.034   1.631
 2371SOL    HW2 8013   3.103   0.078   1.503
 2372SOL     OW 8014   6.669   3.168   2.181
 2372SOL    HW1 8015   6.612   3.248   2.165
 2372SOL    HW2 8016   6.611   3.087   2.190
 2373SOL     OW 8017   1.822   3.454   6.323
 2373SOL    HW1 8018   1.826   3.526   6.254
 2373SOL    HW2 8019   1.797   3.495   6.411
 2374SOL     OW 8020   6.284   2.400   4.794
 2374SOL    HW1 8021   6.315   2.349   4.714
 2374SOL    HW2 8022   6.193   2.367   4.821
 2375SOL     OW 8023   3.396   5.666   5.015
 2375SOL    HW1 8024   3.458   5.600   5.057
 2375SOL    HW2 8025   3.432   5.693   4.925
 2376SOL     OW 8026   6.146   2.993   4.034
 2376SOL    HW1 8027   6.049   3.006   4.053
 2376SOL    HW2 8028   6.197   3.074   4.065
 2377SOL     OW 8029   2.980   3.156   4.060
 2377SOL    HW1 8030   3.028   3.152   3.973
 2377SOL    HW2 8031   2.883   3.136   4.045
 2378SOL     OW 8032   5.467   2.541   6.608
 2378SOL    HW1 8033   5.397   2.501   6.549
 2378SOL    HW2 8034   5.493   2.630   6.572
 2379SOL     OW 8035   6.280   0.255   0.716
 2379SOL    HW1 8036   6.279   0.353   0.699
 2379SOL    HW2 8037   6.372   0.226   0.742
 2380SOL     OW 8038   5.919   2.631   1.425
 2380SOL    HW1 8039   5.967   2.567   1.366
 2380SOL    HW2 8040   5.981   2.705   1.453
 2381SOL     OW 8041   1.734   6.377   3.058
 2381SOL    HW1 8042   1.719   6.316   2.980
 2381SOL    HW2 8043   1.794   6.333   3.124
 2382SOL     OW 8044   2.209   3.194   5.108
 2382SOL    HW1 8045   2.272   3.237   5.173
 2382SOL    HW2 8046   2.257   3.122   5.058
 2383SOL     OW 8047   6.734   6.102   1.442
 2383SOL    HW1 8048   6.636   6.115   1.459
 2383SOL    HW2 8049   6.785   6.113   1.527
 2384SOL     OW 8050   4.647   1.907   1.877
 2384SOL    HW1 8051   4.719   1.938   1.815
 2384SOL    HW2 8052   4.623   1.981   1.940
 2385SOL     OW 8053   0.636   1.607   6.700
 2385SOL    HW1 8054   0.591   1.573   6.782
 2385SOL    HW2 8055   0.717   1.660   6.726
 2386SOL     OW 8056   5.367   5.711   4.422
 2386SOL    HW1 8057   5.391   5.620   4.390
 2386SOL    HW2 8058   5.365   5.712   4.522
 2387SOL     OW 8059   2.253   1.103   4.011
 2387SOL    HW1 8060   2.295   1.194   4.010
 2387SOL    HW2 8061   2.155   1.112   4.026
 2388SOL     OW 8062   6.441   2.235   4.072
 2388SOL    HW1 8063   6.486   2.148   4.094
 2388SOL    HW2 8064   6.368   2.253   4.137
 2389SOL     OW 8065   4.079   4.924   3.166
 2389SOL    HW1 8066   4.007   4.991   3.186
 2389SOL    HW2 8067   4.057   4.877   3.081
 2390SOL     OW 8068   3.439   3.825   2.316
 2390SOL    HW1 8069   3.353   3.844   2.271
 2390SOL    HW2 8070   3.459   3.898   2.382
 2391SOL     OW 8071   4.436   5.243   5.809
 2391SOL    HW1 8072   4.467   5.221   5.902
 2391SOL    HW2 8073   4.338   5.261   5.809
 2392SOL     OW 8074   3.121   0.408   7.009
 2392SOL    HW1 8075   3.128   0.423   0.088
 2392SOL    HW2 8076   3.037   0.451   6.975
 2393SOL     OW 8077   4.394   4.707   6.098
 2393SOL    HW1 8078   4.358   4.632   6.153
 2393SOL    HW2 8079   4.319   4.751   6.049
 2394SOL     OW 8080   0.702   4.206   4.842
 2394SOL    HW1 8081   0.708   4.290   4.788
 2394SOL    HW2 8082   0.663   4.133   4.786
 2395SOL     OW 8083   4.011   6.617   6.169
 2395SOL    HW1 8084   3.986   6.643   6.262
 2395SOL    HW2 8085   3.928   6.608   6.114
 2396SOL     OW 8086   4.165   4.721   0.269
 2396SOL    HW1 8087   4.088   4.688   0.322
 2396SOL    HW2 8088   4.161   4.821   0.264
 2397SOL     OW 8089   0.602   3.987   4.691
 2397SOL    HW1 8090   0.559   3.905   4.728
 2397SOL    HW2 8091   0.588   3.991   4.592
 2398SOL     OW 8092   4.317   4.581   5.795
 2398SOL    HW1 8093   4.288   4.540   5.708
 2398SOL    HW2 8094   4.254   4.553   5.867
 2399SOL     OW 8095   4.748   2.101   1.671
 2399SOL    HW1 8096   4.837   2.091   1.716
 2399SOL    HW2 8097   4.754   2.068   1.577
 2400SOL     OW 8098   2.483   5.059   0.880
 2400SOL    HW1 8099   2.449   5.054   0.974
 2400SOL    HW2 8100   2.413   5.098   0.821
 2401SOL     OW 8101   6.448   5.918   6.481
 2401SOL    HW1 8102   6.443   5.859   6.400
 2401SOL    HW2 8103   6.371   5.982   6.479
 2402SOL     OW 8104   0.268   6.981   4.283
 2402SOL    HW1 8105   0.184   0.006   4.313
 2402SOL    HW2 8106   0.290   6.906   4.346
 2403SOL     OW 8107   0.650   2.439   5.294
 2403SOL    HW1 8108   0.707   2.485   5.361
 2403SOL    HW2 8109   0.705   2.373   5.243
 2404SOL     OW 8110   1.778   0.431   0.456
 2404SOL    HW1 8111   1.696   0.376   0.467
 2404SOL    HW2 8112   1.756   0.528   0.472
 2405SOL     OW 8113   2.934   3.667   1.898
 2405SOL    HW1 8114   2.993   3.599   1.941
 2405SOL    HW2 8115   2.867   3.621   1.840
 2406SOL     OW 8116   4.691   1.578   0.508
 2406SOL    HW1 8117   4.714   1.492   0.552
 2406SOL    HW2 8118   4.767   1.643   0.519
 2407SOL     OW 8119   5.469   1.159   3.294
 2407SOL    HW1 8120   5.499   1.189   3.384
 2407SOL    HW2 8121   5.548   1.131   3.240
 2408SOL     OW 8122   4.749   4.332   2.217
 2408SOL    HW1 8123   4.774   4.429   2.217
 2408SOL    HW2 8124   4.667   4.319   2.160
 2409SOL     OW 8125   1.932   3.934   0.476
 2409SOL    HW1 8126   1.875   3.857   0.506
 2409SOL    HW2 8127   1.873   4.010   0.449
 2410SOL     OW 8128   3.337   3.277   2.976
 2410SOL    HW1 8129   3.344   3.221   3.058
 2410SOL    HW2 8130   3.397   3.357   2.985
 2411SOL     OW 8131   5.643   6.933   5.137
 2411SOL    HW1 8132   5.644   0.001   5.185
 2411SOL    HW2 8133   5.711   6.933   5.064
 2412SOL     OW 8134   4.982   3.657   0.954
 2412SOL    HW1 8135   5.014   3.633   0.863
 2412SOL    HW2 8136   4.934   3.579   0.994
 2413SOL     OW 8137   5.308   0.548   1.923
 2413SOL    HW1 8138   5.221   0.507   1.947
 2413SOL    HW2 8139   5.293   0.634   1.875
 2414SOL     OW 8140   5.127   3.231   3.797
 2414SOL    HW1 8141   5.044   3.179   3.815
 2414SOL    HW2 8142   5.126   3.263   3.702
 2415SOL     OW 8143   4.775   1.067   3.565
 2415SOL    HW1 8144   4.679   1.038   3.569
 2415SOL    HW2 8145   4.780   1.163   3.536
 2416SOL     OW 8146   4.738   1.443   5.769
 2416SOL    HW1 8147   4.762   1.372   5.836
 2416SOL    HW2 8148   4.780   1.529   5.796
 2417SOL     OW 8149   3.105   3.044   4.277
 2417SOL    HW1 8150   3.055   3.096   4.207
 2417SOL    HW2 8151   3.170   2.983   4.232
 2418SOL     OW 8152   4.061   3.219   2.970
 2418SOL    HW1 8153   4.042   3.125   2.998
 2418SOL    HW2 8154   4.115   3.218   2.886
 2419SOL     OW 8155   0.411   0.321   2.478
 2419SOL    HW1 8156   0.484   0.338   2.544
 2419SOL    HW2 8157   0.362   0.237   2.502
 2420SOL     OW 8158   2.110   6.960   1.630
 2420SOL    HW1 8159   2.121   0.021   1.573
 2420SOL    HW2 8160   2.186   6.953   1.694
 2421SOL     OW 8161   2.321   2.347   4.756
 2421SOL    HW1 8162   2.336   2.298   4.670
 2421SOL    HW2 8163   2.377   2.305   4.828
 2422SOL     OW 8164   4.731   1.595   0.856
 2422SOL    HW1 8165   4.825   1.573   0.881
 2422SOL    HW2 8166   4.684   1.513   0.824
 2423SOL     OW 8167   1.889   5.492   2.661
 2423SOL    HW1 8168   1.946   5.508   2.741
 2423SOL    HW2 8169   1.943   5.445   2.590
 2424SOL     OW 8170   5.243   0.460   0.522
 2424SOL    HW1 8171   5.258   0.541   0.465
 2424SOL    HW2 8172   5.191   0.392   0.470
 2425SOL     OW 8173   6.393   0.137   4.536
 2425SOL    HW1 8174   6.430   0.081   4.462
 2425SOL    HW2 8175   6.327   0.084   4.589
 2426SOL     OW 8176   2.383   4.953   4.066
 2426SOL    HW1 8177   2.397   5.050   4.083
 2426SOL    HW2 8178   2.395   4.935   3.968
 2427SOL     OW 8179   5.980   6.979   5.933
 2427SOL    HW1 8180   6.014   0.041   5.886
 2427SOL    HW2 8181   5.914   6.932   5.874
 2428SOL     OW 8182   0.024   0.801   0.350
 2428SOL    HW1 8183   0.024   0.769   0.444
 2428SOL    HW2 8184   0.091   0.875   0.340
 2429SOL     OW 8185   4.910   6.146   1.840
 2429SOL    HW1 8186   4.817   6.167   1.809
 2429SOL    HW2 8187   4.934   6.054   1.812
 2430SOL     OW 8188   5.840   0.820   2.644
 2430SOL    HW1 8189   5.896   0.895   2.679
 2430SOL    HW2 8190   5.830   0.750   2.714
 2431SOL     OW 8191   4.075   0.481   2.116
 2431SOL    HW1 8192   4.047   0.389   2.088
 2431SOL    HW2 8193   4.000   0.523   2.168
 2432SOL     OW 8194   2.408   6.314   2.238
 2432SOL    HW1 8195   2.332   6.281   2.295
 2432SOL    HW2 8196   2.449   6.394   2.281
 2433SOL     OW 8197   3.824   0.094   0.323
 2433SOL    HW1 8198   3.899   0.096   0.390
 2433SOL    HW2 8199   3.860   0.118   0.233
 2434SOL     OW 8200   4.300   2.905   6.149
 2434SOL    HW1 8201   4.248   2.906   6.064
 2434SOL    HW2 8202   4.363   2.827   6.150
 2435SOL     OW 8203   5.937   5.701   4.953
 2435SOL    HW1 8204   5.989   5.696   4.868
 2435SOL    HW2 8205   5.840   5.714   4.931
 2436SOL     OW 8206   2.845   6.046   0.446
 2436SOL    HW1 8207   2.943   6.030   0.460
 2436SOL    HW2 8208   2.831   6.099   0.362
 2437SOL     OW 8209   0.264   0.154   6.107
 2437SOL    HW1 8210   0.325   0.174   6.184
 2437SOL    HW2 8211   0.169   0.165   6.136
 2438SOL     OW 8212   2.791   2.929   1.378
 2438SOL    HW1 8213   2.722   2.984   1.425
 2438SOL    HW2 8214   2.764   2.833   1.379
 2439SOL     OW 8215   6.065   4.641   4.824
 2439SOL    HW1 8216   6.064   4.624   4.923
 2439SOL    HW2 8217   6.006   4.719   4.803
 2440SOL     OW 8218   5.974   5.022   6.480
 2440SOL    HW1 8219   5.982   5.012   6.579
 2440SOL    HW2 8220   5.879   5.006   6.451
 2441SOL     OW 8221   5.942   2.530   1.052
 2441SOL    HW1 8222   5.871   2.591   1.087
 2441SOL    HW2 8223   6.010   2.514   1.124
 2442SOL     OW 8224   6.843   3.657   4.891
 2442SOL    HW1 8225   6.941   3.660   4.875
 2442SOL    HW2 8226   6.817   3.565   4.920
 2443SOL     OW 8227   2.776   4.902   5.896
 2443SOL    HW1 8228   2.802   4.865   5.985
 2443SOL    HW2 8229   2.851   4.956   5.859
 2444SOL     OW 8230   2.829   3.329   5.134
 2444SOL    HW1 8231   2.749   3.352   5.189
 2444SOL    HW2 8232   2.820   3.237   5.098
 2445SOL     OW 8233   0.632   0.172   0.837
 2445SOL    HW1 8234   0.592   0.229   0.764
 2445SOL    HW2 8235   0.660   0.084   0.799
 2446SOL     OW 8236   5.468   3.585   6.193
 2446SOL    HW1 8237   5.516   3.664   6.232
 2446SOL    HW2 8238   5.468   3.592   6.093
 2447SOL     OW 8239   0.211   2.174   6.570
 2447SOL    HW1 8240   0.214   2.265   6.529
 2447SOL    HW2 8241   0.119   2.136   6.559
 2448SOL     OW 8242   0.566   0.371   4.376
 2448SOL    HW1 8243   0.482   0.335   4.337
 2448SOL    HW2 8244   0.609   0.434   4.311
 2449SOL     OW 8245   0.384   2.461   5.090
 2449SOL    HW1 8246   0.445   2.391   5.053
 2449SOL    HW2 8247   0.422   2.497   5.175
 2450SOL     OW 8248   2.093   3.139   2.140
 2450SOL    HW1 8249   2.114   3.068   2.207
 2450SOL    HW2 8250   2.068   3.223   2.187
 2451SOL     OW 8251   2.395   6.622   4.521
 2451SOL    HW1 8252   2.340   6.553   4.568
 2451SOL    HW2 8253   2.468   6.577   4.470
 2452SOL     OW 8254   1.675   2.561   4.444
 2452SOL    HW1 8255   1.725   2.475   4.447
 2452SOL    HW2 8256   1.721   2.624   4.382
 2453SOL     OW 8257   0.154   3.351   1.417
 2453SOL    HW1 8258   0.212   3.271   1.402
 2453SOL    HW2 8259   0.088   3.331   1.489
 2454SOL     OW 8260   2.138   0.540   2.444
 2454SOL    HW1 8261   2.110   0.535   2.348
 2454SOL    HW2 8262   2.100   0.622   2.486
 2455SOL     OW 8263   5.043   4.112   0.585
 2455SOL    HW1 8264   4.997   4.024   0.597
 2455SOL    HW2 8265   5.078   4.120   0.491
 2456SOL     OW 8266   3.115   6.472   1.237
 2456SOL    HW1 8267   3.117   6.555   1.292
 2456SOL    HW2 8268   3.183   6.479   1.164
 2457SOL     OW 8269   6.124   6.243   1.273
 2457SOL    HW1 8270   6.032   6.262   1.307
 2457SOL    HW2 8271   6.150   6.150   1.299
 2458SOL     OW 8272   0.527   5.939   2.978
 2458SOL    HW1 8273   0.469   5.875   2.926
 2458SOL    HW2 8274   0.471   5.992   3.041
 2459SOL     OW 8275   1.010   0.654   0.738
 2459SOL    HW1 8276   0.931   0.710   0.714
 2459SOL    HW2 8277   0.990   0.599   0.819
 2460SOL     OW 8278   3.844   5.359   1.509
 2460SOL    HW1 8279   3.875   5.296   1.438
 2460SOL    HW2 8280   3.746   5.345   1.525
 2461SOL     OW 8281   5.242   0.981   3.259
 2461SOL    HW1 8282   5.315   1.026   3.311
 2461SOL    HW2 8283   5.200   0.910   3.316
 2462SOL     OW 8284   2.676   4.362   6.386
 2462SOL    HW1 8285   2.731   4.429   6.436
 2462SOL    HW2 8286   2.674   4.387   6.290
 2463SOL     OW 8287   0.160   2.164   4.412
 2463SOL    HW1 8288   0.192   2.071   4.429
 2463SOL    HW2 8289   0.062   2.170   4.431
 2464SOL     OW 8290   1.347   3.648   1.253
 2464SOL    HW1 8291   1.362   3.647   1.352
 2464SOL    HW2 8292   1.432   3.622   1.206
 2465SOL     OW 8293   5.948   4.854   2.671
 2465SOL    HW1 8294   5.980   4.817   2.759
 2465SOL    HW2 8295   5.995   4.808   2.596
 2466SOL     OW 8296   3.741   1.451   2.158
 2466SOL    HW1 8297   3.789   1.399   2.228
 2466SOL    HW2 8298   3.663   1.398   2.124
 2467SOL     OW 8299   6.761   1.403   4.992
 2467SOL    HW1 8300   6.710   1.487   5.011
 2467SOL    HW2 8301   6.763   1.347   5.074
 2468SOL     OW 8302   6.939   3.862   0.555
 2468SOL    HW1 8303   6.873   3.928   0.519
 2468SOL    HW2 8304   6.963   3.797   0.484
 2469SOL     OW 8305   3.057   3.032   5.807
 2469SOL    HW1 8306   3.044   3.118   5.757
 2469SOL    HW2 8307   2.999   3.032   5.888
 2470SOL     OW 8308   5.792   2.844   0.896
 2470SOL    HW1 8309   5.847   2.888   0.967
 2470SOL    HW2 8310   5.703   2.888   0.891
 2471SOL     OW 8311   0.300   0.928   3.309
 2471SOL    HW1 8312   0.362   0.930   3.386
 2471SOL    HW2 8313   0.270   0.834   3.293
 2472SOL     OW 8314   5.859   1.938   3.824
 2472SOL    HW1 8315   5.764   1.937   3.855
 2472SOL    HW2 8316   5.892   1.844   3.815
 2473SOL     OW 8317   0.389   6.666   5.559
 2473SOL    HW1 8318   0.367   6.661   5.657
 2473SOL    HW2 8319   0.389   6.761   5.529
 2474SOL     OW 8320   5.920   5.827   4.648
 2474SOL    HW1 8321   5.837   5.820   4.702
 2474SOL    HW2 8322   5.915   5.908   4.588
 2475SOL     OW 8323   4.561   2.209   6.226
 2475SOL    HW1 8324   4.463   2.224   6.235
 2475SOL    HW2 8325   4.606   2.226   6.314
 2476SOL     OW 8326   0.735   1.622   3.396
 2476SOL    HW1 8327   0.832   1.644   3.399
 2476SOL    HW2 8328   0.710   1.569   3.477
 2477SOL     OW 8329   4.405   5.199   2.526
 2477SOL    HW1 8330   4.437   5.274   2.468
 2477SOL    HW2 8331   4.440   5.211   2.619
 2478SOL     OW 8332   6.701   0.049   3.506
 2478SOL    HW1 8333   6.670   0.142   3.486
 2478SOL    HW2 8334   6.699   7.014   3.422
 2479SOL     OW 8335   0.508   2.319   6.957
 2479SOL    HW1 8336   0.434   2.315   0.003
 2479SOL    HW2 8337   0.496   2.398   6.897
 2480SOL     OW 8338   0.715   5.204   2.142
 2480SOL    HW1 8339   0.776   5.138   2.099
 2480SOL    HW2 8340   0.662   5.250   2.071
 2481SOL     OW 8341   3.717   4.883   2.476
 2481SOL    HW1 8342   3.816   4.870   2.471
 2481SOL    HW2 8343   3.677   4.879   2.384
 2482SOL     OW 8344   4.558   2.516   4.119
 2482SOL    HW1 8345   4.498   2.533   4.197
 2482SOL    HW2 8346   4.642   2.569   4.129
 2483SOL     OW 8347   0.681   2.951   6.841
 2483SOL    HW1 8348   0.616   3.002   6.896
 2483SOL    HW2 8349   0.713   3.008   6.766
 2484SOL     OW 8350   3.902   3.362   6.324
 2484SOL    HW1 8351   3.984   3.315   6.290
 2484SOL    HW2 8352   3.884   3.332   6.418
 2485SOL     OW 8353   0.990   5.511   0.886
 2485SOL    HW1 8354   0.963   5.418   0.860
 2485SOL    HW2 8355   0.959   5.529   0.980
 2486SOL     OW 8356   0.576   5.253   3.285
 2486SOL    HW1 8357   0.626   5.322   3.336
 2486SOL    HW2 8358   0.602   5.162   3.317
 2487SOL     OW 8359   3.095   1.524   1.558
 2487SOL    HW1 8360   3.018   1.573   1.518
 2487SOL    HW2 8361   3.154   1.588   1.606
 2488SOL     OW 8362   3.084   6.521   6.371
 2488SOL    HW1 8363   3.107   6.539   6.275
 2488SOL    HW2 8364   3.031   6.597   6.408
 2489SOL     OW 8365   6.737   6.235   4.487
 2489SOL    HW1 8366   6.801   6.200   4.419
 2489SOL    HW2 8367   6.781   6.307   4.541
 2490SOL     OW 8368   5.364   3.091   1.781
 2490SOL    HW1 8369   5.312   3.091   1.695
 2490SOL    HW2 8370   5.420   3.173   1.786
 2491SOL     OW 8371   0.002   4.321   2.600
 2491SOL    HW1 8372   6.942   4.315   2.659
 2491SOL    HW2 8373   0.011   4.237   2.547
 2492SOL     OW 8374   4.397   1.699   5.746
 2492SOL    HW1 8375   4.404   1.710   5.647
 2492SOL    HW2 8376   4.421   1.785   5.791
 2493SOL     OW 8377   6.625   1.219   4.771
 2493SOL    HW1 8378   6.684   1.138   4.772
 2493SOL    HW2 8379   6.637   1.270   4.856
 2494SOL     OW 8380   4.484   4.360   1.374
 2494SOL    HW1 8381   4.416   4.434   1.378
 2494SOL    HW2 8382   4.558   4.387   1.312
 2495SOL     OW 8383   6.414   1.137   3.253
 2495SOL    HW1 8384   6.474   1.062   3.225
 2495SOL    HW2 8385   6.462   1.196   3.318
 2496SOL     OW 8386   1.624   5.456   6.646
 2496SOL    HW1 8387   1.618   5.433   6.549
 2496SOL    HW2 8388   1.720   5.469   6.671
 2497SOL     OW 8389   5.493   0.436   0.076
 2497SOL    HW1 8390   5.550   0.453   7.016
 2497SOL    HW2 8391   5.512   0.345   0.112
 2498SOL     OW 8392   0.590   3.003   5.048
 2498SOL    HW1 8393   0.565   2.909   5.022
 2498SOL    HW2 8394   0.531   3.034   5.122
 2499SOL     OW 8395   4.780   0.276   0.242
 2499SOL    HW1 8396   4.865   0.321   0.215
 2499SOL    HW2 8397   4.711   0.346   0.263
 2500SOL     OW 8398   4.305   3.720   6.512
 2500SOL    HW1 8399   4.384   3.730   6.573
 2500SOL    HW2 8400   4.252   3.805   6.514
 2501SOL     OW 8401   6.110   4.691   0.913
 2501SOL    HW1 8402   6.175   4.691   0.838
 2501SOL    HW2 8403   6.135   4.622   0.980
 2502SOL     OW 8404   0.772   6.784   2.872
 2502SOL    HW1 8405   0.800   6.742   2.785
 2502SOL    HW2 8406   0.804   6.879   2.875
 2503SOL     OW 8407   5.152   0.220   4.499
 2503SOL    HW1 8408   5.086   0.155   4.537
 2503SOL    HW2 8409   5.215   0.171   4.439
 2504SOL     OW 8410   2.076   4.082   2.947
 2504SOL    HW1 8411   2.155   4.139   2.924
 2504SOL    HW2 8412   2.025   4.062   2.864
 2505SOL     OW 8413   5.300   4.203   4.724
 2505SOL    HW1 8414   5.247   4.240   4.648
 2505SOL    HW2 8415   5.243   4.197   4.806
 2506SOL     OW 8416   0.958   1.599   0.886
 2506SOL    HW1 8417   1.036   1.604   0.823
 2506SOL    HW2 8418   0.889   1.666   0.858
 2507SOL     OW 8419   6.703   6.039   0.214
 2507SOL    HW1 8420   6.695   6.137   0.235
 2507SOL    HW2 8421   6.757   6.027   0.131
 2508SOL     OW 8422   2.347   2.440   1.652
 2508SOL    HW1 8423   2.375   2.529   1.686
 2508SOL    HW2 8424   2.419   2.373   1.668
 2509SOL     OW 8425   5.165   1.289   3.563
 2509SOL    HW1 8426   5.205   1.292   3.471
 2509SOL    HW2 8427   5.099   1.364   3.573
 2510SOL     OW 8428   4.304   6.061   2.280
 2510SOL    HW1 8429   4.360   6.143   2.264
 2510SOL    HW2 8430   4.279   6.057   2.377
 2511SOL     OW 8431   0.752   6.587   3.659
 2511SOL    HW1 8432   0.740   6.537   3.745
 2511SOL    HW2 8433   0.739   6.685   3.676
 2512SOL     OW 8434   5.807   2.728   3.738
 2512SOL    HW1 8435   5.847   2.792   3.803
 2512SOL    HW2 8436   5.708   2.742   3.733
 2513SOL     OW 8437   0.160   4.515   1.129
 2513SOL    HW1 8438   0.164   4.424   1.089
 2513SOL    HW2 8439   0.093   4.570   1.080
 2514SOL     OW 8440   0.402   2.843   3.227
 2514SOL    HW1 8441   0.476   2.862   3.163
 2514SOL    HW2 8442   0.408   2.905   3.305
 2515SOL     OW 8443   0.975   4.699   0.184
 2515SOL    HW1 8444   1.024   4.614   0.201
 2515SOL    HW2 8445   1.039   4.771   0.158
 2516SOL     OW 8446   4.959   6.393   4.261
 2516SOL    HW1 8447   4.985   6.473   4.206
 2516SOL    HW2 8448   4.874   6.412   4.309
 2517SOL     OW 8449   2.425   5.635   1.099
 2517SOL    HW1 8450   2.400   5.562   1.035
 2517SOL    HW2 8451   2.395   5.723   1.063
 2518SOL     OW 8452   2.051   3.039   6.864
 2518SOL    HW1 8453   1.990   3.015   6.940
 2518SOL    HW2 8454   2.125   2.972   6.858
 2519SOL     OW 8455   6.010   4.321   5.382
 2519SOL    HW1 8456   6.011   4.372   5.296
 2519SOL    HW2 8457   6.099   4.278   5.396
 2520SOL     OW 8458   3.276   5.540   1.955
 2520SOL    HW1 8459   3.259   5.523   2.052
 2520SOL    HW2 8460   3.372   5.521   1.933
 2521SOL     OW 8461   5.596   6.874   6.037
 2521SOL    HW1 8462   5.554   6.837   6.120
 2521SOL    HW2 8463   5.531   6.936   5.992
 2522SOL     OW 8464   2.470   4.511   4.257
 2522SOL    HW1 8465   2.391   4.499   4.196
 2522SOL    HW2 8466   2.486   4.608   4.273
 2523SOL     OW 8467   0.941   2.666   5.845
 2523SOL    HW1 8468   0.946   2.592   5.778
 2523SOL    HW2 8469   1.005   2.648   5.920
 2524SOL     OW 8470   1.463   6.975   4.671
 2524SOL    HW1 8471   1.454   0.021   4.745
 2524SOL    HW2 8472   1.557   6.974   4.637
 2525SOL     OW 8473   2.066   4.330   2.446
 2525SOL    HW1 8474   2.119   4.336   2.362
 2525SOL    HW2 8475   2.101   4.256   2.503
 2526SOL     OW 8476   1.625   2.669   5.007
 2526SOL    HW1 8477   1.655   2.587   4.958
 2526SOL    HW2 8478   1.585   2.734   4.942
 2527SOL     OW 8479   6.706   0.198   3.903
 2527SOL    HW1 8480   6.735   0.110   3.940
 2527SOL    HW2 8481   6.692   0.263   3.979
 2528SOL     OW 8482   6.015   5.181   0.075
 2528SOL    HW1 8483   6.038   5.084   0.072
 2528SOL    HW2 8484   6.097   5.235   0.093
 2529SOL     OW 8485   5.199   4.001   5.056
 2529SOL    HW1 8486   5.173   4.091   5.019
 2529SOL    HW2 8487   5.140   3.931   5.016
 2530SOL     OW 8488   0.760   6.298   3.812
 2530SOL    HW1 8489   0.669   6.338   3.823
 2530SOL    HW2 8490   0.783   6.244   3.892
 2531SOL     OW 8491   4.980   1.112   6.885
 2531SOL    HW1 8492   5.074   1.141   6.867
 2531SOL    HW2 8493   4.980   1.045   6.959
 2532SOL     OW 8494   0.437   4.779   6.172
 2532SOL    HW1 8495   0.502   4.705   6.157
 2532SOL    HW2 8496   0.482   4.867   6.157
 2533SOL     OW 8497   5.808   0.082   5.652
 2533SOL    HW1 8498   5.876   0.139   5.698
 2533SOL    HW2 8499   5.852   0.034   5.575
 2534SOL     OW 8500   0.174   2.019   3.016
 2534SOL    HW1 8501   0.097   1.999   3.077
 2534SOL    HW2 8502   0.259   1.999   3.063
 2535SOL     OW 8503   2.126   1.466   3.115
 2535SOL    HW1 8504   2.159   1.518   3.194
 2535SOL    HW2 8505   2.154   1.512   3.031
 2536SOL     OW 8506   0.713   0.536   3.729
 2536SOL    HW1 8507   0.649   0.570   3.660
 2536SOL    HW2 8508   0.674   0.549   3.820
 2537SOL     OW 8509   4.137   5.821   1.770
 2537SOL    HW1 8510   4.149   5.894   1.837
 2537SOL    HW2 8511   4.042   5.817   1.741
 2538SOL     OW 8512   0.816   4.604   4.900
 2538SOL    HW1 8513   0.764   4.540   4.844
 2538SOL    HW2 8514   0.863   4.669   4.840
 2539SOL     OW 8515   2.375   0.783   5.237
 2539SOL    HW1 8516   2.305   0.715   5.216
 2539SOL    HW2 8517   2.332   0.863   5.278
 2540SOL     OW 8518   5.338   1.728   2.279
 2540SOL    HW1 8519   5.429   1.739   2.318
 2540SOL    HW2 8520   5.269   1.754   2.346
 2541SOL     OW 8521   0.424   0.850   5.955
 2541SOL    HW1 8522   0.500   0.915   5.954
 2541SOL    HW2 8523   0.439   0.782   6.027
 2542SOL     OW 8524   3.568   1.997   3.580
 2542SOL    HW1 8525   3.511   2.059   3.635
 2542SOL    HW2 8526   3.662   1.999   3.614
 2543SOL     OW 8527   6.691   1.575   4.372
 2543SOL    HW1 8528   6.752   1.637   4.421
 2543SOL    HW2 8529   6.651   1.510   4.436
 2544SOL     OW 8530   6.970   6.440   2.040
 2544SOL    HW1 8531   6.968   6.406   1.946
 2544SOL    HW2 8532   0.043   6.434   2.076
 2545SOL     OW 8533   6.438   1.813   0.277
 2545SOL    HW1 8534   6.467   1.888   0.337
 2545SOL    HW2 8535   6.470   1.726   0.315
 2546SOL     OW 8536   6.340   3.091   1.950
 2546SOL    HW1 8537   6.283   3.039   2.012
 2546SOL    HW2 8538   6.363   3.035   1.870
 2547SOL     OW 8539   5.580   3.958   1.166
 2547SOL    HW1 8540   5.617   3.942   1.258
 2547SOL    HW2 8541   5.505   3.895   1.148
 2548SOL     OW 8542   6.299   0.725   5.615
 2548SOL    HW1 8543   6.242   0.706   5.695
 2548SOL    HW2 8544   6.366   0.795   5.637
 2549SOL     OW 8545   2.600   4.676   0.724
 2549SOL    HW1 8546   2.530   4.677   0.795
 2549SOL    HW2 8547   2.691   4.668   0.766
 2550SOL     OW 8548   3.759   6.305   0.696
 2550SOL    HW1 8549   3.798   6.367   0.628
 2550SOL    HW2 8550   3.737   6.218   0.652
 2551SOL     OW 8551   3.675   4.495   1.349
 2551SOL    HW1 8552   3.716   4.464   1.263
 2551SOL    HW2 8553   3.576   4.486   1.344
 2552SOL     OW 8554   2.267   4.240   1.970
 2552SOL    HW1 8555   2.308   4.321   1.928
 2552SOL    HW2 8556   2.306   4.158   1.927
 2553SOL     OW 8557   4.748   1.275   0.060
 2553SOL    HW1 8558   4.765   1.207   0.131
 2553SOL    HW2 8559   4.780   1.239   6.992
 2554SOL     OW 8560   1.434   5.244   0.878
 2554SOL    HW1 8561   1.484   5.280   0.956
 2554SOL    HW2 8562   1.348   5.294   0.867
 2555SOL     OW 8563   6.722   6.996   5.247
 2555SOL    HW1 8564   6.657   7.014   5.173
 2555SOL    HW2 8565   6.729   6.897   5.262
 2556SOL     OW 8566   4.375   0.144   0.884
 2556SOL    HW1 8567   4.450   0.146   0.950
 2556SOL    HW2 8568   4.346   0.049   0.869
 2557SOL     OW 8569   3.177   0.794   6.637
 2557SOL    HW1 8570   3.135   0.706   6.615
 2557SOL    HW2 8571   3.276   0.783   6.643
 2558SOL     OW 8572   5.502   1.655   1.411
 2558SOL    HW1 8573   5.455   1.570   1.435
 2558SOL    HW2 8574   5.459   1.696   1.331
 2559SOL     OW 8575   7.005   5.350   2.836
 2559SOL    HW1 8576   0.040   5.268   2.851
 2559SOL    HW2 8577   0.043   5.431   2.846
 2560SOL     OW 8578   5.124   2.136   2.351
 2560SOL    HW1 8579   5.146   2.093   2.263
 2560SOL    HW2 8580   5.118   2.235   2.339
 2561SOL     OW 8581   2.714   0.288   4.448
 2561SOL    HW1 8582   2.716   0.252   4.355
 2561SOL    HW2 8583   2.620   0.313   4.472
 2562SOL     OW 8584   1.372   6.795   5.314
 2562SOL    HW1 8585   1.447   6.730   5.308
 2562SOL    HW2 8586   1.304   6.762   5.380
 2563SOL     OW 8587   3.467   2.903   6.641
 2563SOL    HW1 8588   3.519   2.946   6.566
 2563SOL    HW2 8589   3.514   2.819   6.669
 2564SOL     OW 8590   1.425   2.043   6.947
 2564SOL    HW1 8591   1.365   1.990   7.007
 2564SOL    HW2 8592   1.490   2.094   7.003
 2565SOL     OW 8593   0.750   0.655   0.662
 2565SOL    HW1 8594   0.735   0.575   0.721
 2565SOL    HW2 8595   0.685   0.653   0.586
 2566SOL     OW 8596   3.045   1.102   0.959
 2566SOL    HW1 8597   3.041   1.002   0.959
 2566SOL    HW2 8598   2.994   1.137   1.038
 2567SOL     OW 8599   1.404   0.797   6.275
 2567SOL    HW1 8600   1.421   0.875   6.214
 2567SOL    HW2 8601   1.491   0.766   6.313
 2568SOL     OW 8602   2.202   5.357   1.363
 2568SOL    HW1 8603   2.173   5.261   1.360
 2568SOL    HW2 8604   2.161   5.401   1.443
 2569SOL     OW 8605   1.875   7.017   0.101
 2569SOL    HW1 8606   1.847   6.921   0.105
 2569SOL    HW2 8607   1.871   0.036   0.192
 2570SOL     OW 8608   0.591   6.175   4.331
 2570SOL    HW1 8609   0.688   6.201   4.332
 2570SOL    HW2 8610   0.580   6.084   4.370
 2571SOL     OW 8611   3.225   3.918   3.304
 2571SOL    HW1 8612   3.228   4.002   3.249
 2571SOL    HW2 8613   3.143   3.919   3.361
 2572SOL     OW 8614   2.478   4.886   2.525
 2572SOL    HW1 8615   2.542   4.816   2.492
 2572SOL    HW2 8616   2.440   4.857   2.612
 2573SOL     OW 8617   6.609   1.227   3.470
 2573SOL    HW1 8618   6.589   1.195   3.563
 2573SOL    HW2 8619   6.708   1.237   3.459
 2574SOL     OW 8620   0.972   3.487   1.912
 2574SOL    HW1 8621   0.916   3.435   1.848
 2574SOL    HW2 8622   1.063   3.502   1.873
 2575SOL     OW 8623   4.866   3.459   5.669
 2575SOL    HW1 8624   4.959   3.450   5.706
 2575SOL    HW2 8625   4.858   3.400   5.588
 2576SOL     OW 8626   1.057   0.002   3.245
 2576SOL    HW1 8627   1.135   0.062   3.264
 2576SOL    HW2 8628   1.006   7.006   3.330
 2577SOL     OW 8629   1.698   5.022   1.462
 2577SOL    HW1 8630   1.699   5.122   1.472
 2577SOL    HW2 8631   1.787   4.985   1.490
 2578SOL     OW 8632   4.558   1.901   4.766
 2578SOL    HW1 8633   4.472   1.883   4.719
 2578SOL    HW2 8634   4.571   1.833   4.838
 2579SOL     OW 8635   0.093   1.318   6.407
 2579SOL    HW1 8636   0.003   1.329   6.449
 2579SOL    HW2 8637   0.160   1.375   6.456
 2580SOL     OW 8638   1.627   1.497   5.377
 2580SOL    HW1 8639   1.623   1.594   5.402
 2580SOL    HW2 8640   1.566   1.481   5.300
 2581SOL     OW 8641   6.538   6.710   4.910
 2581SOL    HW1 8642   6.520   6.630   4.967
 2581SOL    HW2 8643   6.458   6.729   4.853
 2582SOL     OW 8644   0.120   5.193   2.584
 2582SOL    HW1 8645   0.114   5.162   2.679
 2582SOL    HW2 8646   0.196   5.257   2.576
 2583SOL     OW 8647   2.242   1.130   6.433
 2583SOL    HW1 8648   2.208   1.108   6.342
 2583SOL    HW2 8649   2.333   1.090   6.446
 2584SOL     OW 8650   4.839   0.572   2.569
 2584SOL    HW1 8651   4.893   0.490   2.586
 2584SOL    HW2 8652   4.751   0.546   2.528
 2585SOL     OW 8653   4.048   1.492   2.177
 2585SOL    HW1 8654   3.952   1.470   2.158
 2585SOL    HW2 8655   4.076   1.571   2.123
 2586SOL     OW 8656   7.007   1.513   4.280
 2586SOL    HW1 8657   6.919   1.497   4.325
 2586SOL    HW2 8658   0.045   1.570   4.338
 2587SOL     OW 8659   6.479   5.830   2.668
 2587SOL    HW1 8660   6.419   5.881   2.730
 2587SOL    HW2 8661   6.424   5.786   2.597
 2588SOL     OW 8662   4.589   6.987   2.183
 2588SOL    HW1 8663   4.555   0.055   2.215
 2588SOL    HW2 8664   4.514   6.935   2.143
 2589SOL     OW 8665   5.240   6.039   1.108
 2589SOL    HW1 8666   5.299   5.958   1.101
 2589SOL    HW2 8667   5.227   6.079   1.018
 2590SOL     OW 8668   2.990   6.601   3.122
 2590SOL    HW1 8669   2.983   6.641   3.213
 2590SOL    HW2 8670   2.905   6.555   3.099
 2591SOL     OW 8671   6.303   0.440   1.309
 2591SOL    HW1 8672   6.284   0.356   1.257
 2591SOL    HW2 8673   6.217   0.488   1.328
 2592SOL     OW 8674   3.244   4.902   1.679
 2592SOL    HW1 8675   3.191   4.893   1.595
 2592SOL    HW2 8676   3.196   4.854   1.753
 2593SOL     OW 8677   3.611   6.774   2.774
 2593SOL    HW1 8678   3.575   6.753   2.683
 2593SOL    HW2 8679   3.706   6.743   2.780
 2594SOL     OW 8680   1.114   5.949   6.891
 2594SOL    HW1 8681   1.173   6.030   6.880
 2594SOL    HW2 8682   1.161   5.881   6.945
 2595SOL     OW 8683   6.788   2.298   4.088
 2595SOL    HW1 8684   6.730   2.266   4.163
 2595SOL    HW2 8685   6.859   2.359   4.125
 2596SOL     OW 8686   4.146   2.275   1.378
 2596SOL    HW1 8687   4.113   2.263   1.284
 2596SOL    HW2 8688   4.107   2.360   1.415
 2597SOL     OW 8689   2.156   2.549   6.368
 2597SOL    HW1 8690   2.104   2.542   6.283
 2597SOL    HW2 8691   2.124   2.628   6.421
 2598SOL     OW 8692   6.288   1.077   2.789
 2598SOL    HW1 8693   6.303   1.114   2.881
 2598SOL    HW2 8694   6.368   1.025   2.761
 2599SOL     OW 8695   4.512   4.996   6.539
 2599SOL    HW1 8696   4.439   4.928   6.539
 2599SOL    HW2 8697   4.537   5.018   6.633
 2600SOL     OW 8698   6.953   2.465   4.226
 2600SOL    HW1 8699   6.950   2.427   4.318
 2600SOL    HW2 8700   6.870   2.519   4.209
 2601SOL     OW 8701   3.812   3.544   4.740
 2601SOL    HW1 8702   3.725   3.545   4.789
 2601SOL    HW2 8703   3.795   3.543   4.641
 2602SOL     OW 8704   6.406   5.700   5.922
 2602SOL    HW1 8705   6.400   5.743   6.012
 2602SOL    HW2 8706   6.329   5.637   5.909
 2603SOL     OW 8707   1.789   2.368   6.784
 2603SOL    HW1 8708   1.808   2.464   6.761
 2603SOL    HW2 8709   1.810   2.353   6.881
 2604SOL     OW 8710   5.896   1.338   0.356
 2604SOL    HW1 8711   5.806   1.316   0.394
 2604SOL    HW2 8712   5.940   1.408   0.412
 2605SOL     OW 8713   5.416   3.395   4.173
 2605SOL    HW1 8714   5.366   3.388   4.260
 2605SOL    HW2 8715   5.514   3.388   4.190
 2606SOL     OW 8716   6.858   4.389   1.280
 2606SOL    HW1 8717   6.866   4.371   1.182
 2606SOL    HW2 8718   6.879   4.305   1.331
 2607SOL     OW 8719   1.166   1.539   4.158
 2607SOL    HW1 8720   1.118   1.623   4.134
 2607SOL    HW2 8721   1.181   1.537   4.257
 2608SOL     OW 8722   5.256   0.135   0.565
 2608SOL    HW1 8723   5.270   0.202   0.639
 2608SOL    HW2 8724   5.215   0.052   0.603
 2609SOL     OW 8725   0.679   3.171   3.642
 2609SOL    HW1 8726   0.734   3.098   3.600
 2609SOL    HW2 8727   0.736   3.222   3.706
 2610SOL     OW 8728   5.735   5.603   4.588
 2610SOL    HW1 8729   5.738   5.684   4.647
 2610SOL    HW2 8730   5.767   5.523   4.640
 2611SOL     OW 8731   2.950   5.581   2.057
 2611SOL    HW1 8732   2.936   5.484   2.040
 2611SOL    HW2 8733   3.023   5.592   2.125
 2612SOL     OW 8734   0.199   0.226   5.460
 2612SOL    HW1 8735   0.209   0.306   5.402
 2612SOL    HW2 8736   0.225   0.144   5.409
 2613SOL     OW 8737   3.328   0.902   0.707
 2613SOL    HW1 8738   3.337   0.996   0.739
 2613SOL    HW2 8739   3.303   0.902   0.610
 2614SOL     OW 8740   6.090   6.083   6.819
 2614SOL    HW1 8741   6.145   6.008   6.856
 2614SOL    HW2 8742   6.132   6.170   6.846
 2615SOL     OW 8743   5.752   4.607   1.887
 2615SOL    HW1 8744   5.794   4.550   1.815
 2615SOL    HW2 8745   5.682   4.665   1.846
 2616SOL     OW 8746   3.951   3.652   2.178
 2616SOL    HW1 8747   3.874   3.702   2.138
 2616SOL    HW2 8748   3.959   3.675   2.275
 2617SOL     OW 8749   3.113   0.562   1.454
 2617SOL    HW1 8750   3.061   0.644   1.477
 2617SOL    HW2 8751   3.083   0.486   1.512
 2618SOL     OW 8752   1.286   6.781   0.249
 2618SOL    HW1 8753   1.207   6.742   0.202
 2618SOL    HW2 8754   1.359   6.799   0.182
 2619SOL     OW 8755   5.984   2.141   1.167
 2619SOL    HW1 8756   6.071   2.108   1.203
 2619SOL    HW2 8757   5.955   2.084   1.091
 2620SOL     OW 8758   1.312   5.546   3.905
 2620SOL    HW1 8759   1.220   5.556   3.941
 2620SOL    HW2 8760   1.377   5.536   3.980
 2621SOL     OW 8761   0.693   5.220   3.573
 2621SOL    HW1 8762   0.654   5.129   3.580
 2621SOL    HW2 8763   0.775   5.217   3.516
 2622SOL     OW 8764   2.258   2.642   5.963
 2622SOL    HW1 8765   2.267   2.621   5.866
 2622SOL    HW2 8766   2.306   2.728   5.984
 2623SOL     OW 8767   3.169   0.549   6.517
 2623SOL    HW1 8768   3.245   0.499   6.558
 2623SOL    HW2 8769   3.089   0.489   6.513
 2624SOL     OW 8770   6.482   1.847   3.690
 2624SOL    HW1 8771   6.578   1.873   3.695
 2624SOL    HW2 8772   6.431   1.894   3.762
 2625SOL     OW 8773   4.032   0.053   5.344
 2625SOL    HW1 8774   4.043   0.130   5.282
 2625SOL    HW2 8775   4.120   0.006   5.354
 2626SOL     OW 8776   2.248   0.164   2.697
 2626SOL    HW1 8777   2.308   0.244   2.702
 2626SOL    HW2 8778   2.165   0.181   2.750
 2627SOL     OW 8779   0.443   1.336   4.753
 2627SOL    HW1 8780   0.476   1.343   4.847
 2627SOL    HW2 8781   0.518   1.306   4.693
 2628SOL     OW 8782   3.779   5.900   6.544
 2628SOL    HW1 8783   3.717   5.977   6.556
 2628SOL    HW2 8784   3.821   5.876   6.632
 2629SOL     OW 8785   3.206   3.690   0.969
 2629SOL    HW1 8786   3.118   3.713   0.928
 2629SOL    HW2 8787   3.213   3.732   1.059
 2630SOL     OW 8788   2.623   2.363   2.032
 2630SOL    HW1 8789   2.713   2.322   2.042
 2630SOL    HW2 8790   2.585   2.339   1.943
 2631SOL     OW 8791   4.332   6.413   4.520
 2631SOL    HW1 8792   4.411   6.396   4.579
 2631SOL    HW2 8793   4.272   6.334   4.520
 2632SOL     OW 8794   5.269   1.116   0.870
 2632SOL    HW1 8795   5.211   1.115   0.952
 2632SOL    HW2 8796   5.223   1.167   0.798
 2633SOL     OW 8797   6.731   2.990   6.695
 2633SOL    HW1 8798   6.667   2.945   6.758
 2633SOL    HW2 8799   6.682   3.056   6.638
 2634SOL     OW 8800   3.229   5.369   1.678
 2634SOL    HW1 8801   3.222   5.314   1.595
 2634SOL    HW2 8802   3.138   5.389   1.713
 2635SOL     OW 8803   5.821   4.728   3.257
 2635SOL    HW1 8804   5.914   4.741   3.221
 2635SOL    HW2 8805   5.756   4.727   3.180
 2636SOL     OW 8806   6.044   6.738   4.903
 2636SOL    HW1 8807   6.050   6.698   4.812
 2636SOL    HW2 8808   6.031   6.665   4.971
 2637SOL     OW 8809   5.289   6.676   2.324
 2637SOL    HW1 8810   5.326   6.731   2.399
 2637SOL    HW2 8811   5.319   6.715   2.236
 2638SOL     OW 8812   5.345   5.547   0.625
 2638SOL    HW1 8813   5.400   5.533   0.542
 2638SOL    HW2 8814   5.278   5.619   0.607
 2639SOL     OW 8815   6.528   6.570   6.656
 2639SOL    HW1 8816   6.481   6.488   6.686
 2639SOL    HW2 8817   6.552   6.561   6.559
 2640SOL     OW 8818   5.941   6.759   6.458
 2640SOL    HW1 8819   6.015   6.783   6.521
 2640SOL    HW2 8820   5.853   6.783   6.499
 2641SOL     OW 8821   6.074   4.907   0.429
 2641SOL    HW1 8822   5.997   4.965   0.457
 2641SOL    HW2 8823   6.043   4.812   0.426
 2642SOL     OW 8824   6.728   0.351   4.143
 2642SOL    HW1 8825   6.761   0.443   4.125
 2642SOL    HW2 8826   6.642   0.356   4.194
 2643SOL     OW 8827   1.464   0.827   2.021
 2643SOL    HW1 8828   1.454   0.736   2.061
 2643SOL    HW2 8829   1.377   0.876   2.025
 2644SOL     OW 8830   7.014   5.589   5.869
 2644SOL    HW1 8831   7.006   5.597   5.968
 2644SOL    HW2 8832   7.001   5.493   5.842
 2645SOL     OW 8833   6.028   5.706   6.324
 2645SOL    HW1 8834   6.048   5.610   6.346
 2645SOL    HW2 8835   6.009   5.756   6.408
 2646SOL     OW 8836   6.278   6.246   6.916
 2646SOL    HW1 8837   6.322   6.336   6.920
 2646SOL    HW2 8838   6.347   6.175   6.911
 2647SOL     OW 8839   3.555   3.170   0.478
 2647SOL    HW1 8840   3.520   3.263   0.487
 2647SOL    HW2 8841   3.524   3.115   0.555
 2648SOL     OW 8842   4.038   0.758   3.919
 2648SOL    HW1 8843   3.968   0.827   3.937
 2648SOL    HW2 8844   4.086   0.780   3.834
 2649SOL     OW 8845   3.642   2.876   5.103
 2649SOL    HW1 8846   3.732   2.913   5.080
 2649SOL    HW2 8847   3.601   2.833   5.023
 2650SOL     OW 8848   6.656   6.741   2.642
 2650SOL    HW1 8849   6.601   6.817   2.676
 2650SOL    HW2 8850   6.726   6.718   2.710
 2651SOL     OW 8851   0.399   0.291   3.478
 2651SOL    HW1 8852   0.483   0.309   3.428
 2651SOL    HW2 8853   0.384   0.193   3.486
 2652SOL     OW 8854   3.325   2.908   2.959
 2652SOL    HW1 8855   3.367   2.841   2.898
 2652SOL    HW2 8856   3.237   2.937   2.922
 2653SOL     OW 8857   6.367   5.504   0.361
 2653SOL    HW1 8858   6.440   5.450   0.317
 2653SOL    HW2 8859   6.350   5.467   0.452
 2654SOL     OW 8860   6.006   1.412   5.882
 2654SOL    HW1 8861   6.076   1.340   5.882
 2654SOL    HW2 8862   5.980   1.433   5.976
 2655SOL     OW 8863   4.305   5.885   4.868
 2655SOL    HW1 8864   4.373   5.863   4.938
 2655SOL    HW2 8865   4.289   5.804   4.811
 2656SOL     OW 8866   5.672   3.561   4.513
 2656SOL    HW1 8867   5.695   3.506   4.432
 2656SOL    HW2 8868   5.594   3.620   4.492
 2657SOL     OW 8869   3.188   2.580   5.854
 2657SOL    HW1 8870   3.198   2.639   5.934
 2657SOL    HW2 8871   3.184   2.485   5.882
 2658SOL     OW 8872   6.250   4.553   5.240
 2658SOL    HW1 8873   6.153   4.563   5.220
 2658SOL    HW2 8874   6.301   4.628   5.197
 2659SOL     OW 8875   6.915   1.722   2.802
 2659SOL    HW1 8876   6.858   1.710   2.721
 2659SOL    HW2 8877   6.931   1.634   2.846
 2660SOL     OW 8878   6.584   2.081   2.626
 2660SOL    HW1 8879   6.516   2.151   2.606
 2660SOL    HW2 8880   6.674   2.124   2.636
 2661SOL     OW 8881   3.795   6.276   2.249
 2661SOL    HW1 8882   3.756   6.197   2.202
 2661SOL    HW2 8883   3.859   6.245   2.319
 2662SOL     OW 8884   3.748   0.417   3.326
 2662SOL    HW1 8885   3.714   0.403   3.419
 2662SOL    HW2 8886   3.675   0.400   3.260
 2663SOL     OW 8887   0.561   4.537   3.161
 2663SOL    HW1 8888   0.658   4.530   3.186
 2663SOL    HW2 8889   0.508   4.556   3.243
 2664SOL     OW 8890   4.078   4.045   1.767
 2664SOL    HW1 8891   4.034   4.055   1.677
 2664SOL    HW2 8892   4.118   4.132   1.794
 2665SOL     OW 8893   4.652   0.833   4.614
 2665SOL    HW1 8894   4.701   0.862   4.532
 2665SOL    HW2 8895   4.563   0.879   4.618
 2666SOL     OW 8896   4.457   6.030   1.728
 2666SOL    HW1 8897   4.437   5.971   1.807
 2666SOL    HW2 8898   4.388   6.015   1.657
 2667SOL     OW 8899   1.432   4.851   3.641
 2667SOL    HW1 8900   1.453   4.763   3.682
 2667SOL    HW2 8901   1.469   4.924   3.699
 2668SOL     OW 8902   6.335   2.491   6.031
 2668SOL    HW1 8903   6.355   2.395   6.050
 2668SOL    HW2 8904   6.409   2.531   5.976
 2669SOL     OW 8905   4.130   5.699   5.412
 2669SOL    HW1 8906   4.209   5.638   5.414
 2669SOL    HW2 8907   4.146   5.776   5.474
 2670SOL     OW 8908   2.113   6.962   5.539
 2670SOL    HW1 8909   2.095   0.035   5.508
 2670SOL    HW2 8910   2.048   6.938   5.612
 2671SOL     OW 8911   3.690   4.300   6.083
 2671SOL    HW1 8912   3.608   4.247   6.062
 2671SOL    HW2 8913   3.678   4.347   6.171
 2672SOL     OW 8914   1.272   4.128   0.448
 2672SOL    HW1 8915   1.294   4.093   0.538
 2672SOL    HW2 8916   1.205   4.202   0.456
 2673SOL     OW 8917   4.237   2.270   4.049
 2673SOL    HW1 8918   4.156   2.224   4.086
 2673SOL    HW2 8919   4.222   2.292   3.953
 2674SOL     OW 8920   5.922   5.385   5.400
 2674SOL    HW1 8921   5.978   5.410   5.322
 2674SOL    HW2 8922   5.857   5.458   5.420
 2675SOL     OW 8923   0.578   4.223   5.091
 2675SOL    HW1 8924   0.638   4.238   5.012
 2675SOL    HW2 8925   0.484   4.213   5.060
 2676SOL     OW 8926   4.803   0.794   2.228
 2676SOL    HW1 8927   4.753   0.809   2.313
 2676SOL    HW2 8928   4.853   0.708   2.234
 2677SOL     OW 8929   2.802   4.756   2.658
 2677SOL    HW1 8930   2.885   4.703   2.681
 2677SOL    HW2 8931   2.762   4.792   2.742
 2678SOL     OW 8932   6.964   6.457   6.304
 2678SOL    HW1 8933   6.968   6.358   6.318
 2678SOL    HW2 8934   6.869   6.485   6.293
 2679SOL     OW 8935   3.197   5.163   1.483
 2679SOL    HW1 8936   3.193   5.063   1.483
 2679SOL    HW2 8937   3.197   5.196   1.389
 2680SOL     OW 8938   1.483   2.318   1.806
 2680SOL    HW1 8939   1.570   2.307   1.853
 2680SOL    HW2 8940   1.421   2.245   1.833
 2681SOL     OW 8941   1.887   1.491   3.007
 2681SOL    HW1 8942   1.872   1.589   3.018
 2681SOL    HW2 8943   1.980   1.468   3.035
 2682SOL     OW 8944   6.435   2.299   3.817
 2682SOL    HW1 8945   6.421   2.270   3.912
 2682SOL    HW2 8946   6.389   2.236   3.755
 2683SOL     OW 8947   2.137   0.188   2.064
 2683SOL    HW1 8948   2.224   0.237   2.066
 2683SOL    HW2 8949   2.066   0.248   2.028
 2684SOL     OW 8950   2.611   5.704   2.948
 2684SOL    HW1 8951   2.690   5.656   2.911
 2684SOL    HW2 8952   2.598   5.677   3.044
 2685SOL     OW 8953   5.853   5.894   5.250
 2685SOL    HW1 8954   5.786   5.936   5.188
 2685SOL    HW2 8955   5.944   5.897   5.209
 2686SOL     OW 8956   1.063   2.836   4.703
 2686SOL    HW1 8957   1.129   2.769   4.671
 2686SOL    HW2 8958   1.027   2.809   4.792
 2687SOL     OW 8959   4.563   4.880   3.232
 2687SOL    HW1 8960   4.599   4.840   3.316
 2687SOL    HW2 8961   4.545   4.977   3.248
 2688SOL     OW 8962   4.180   5.285   5.690
 2688SOL    HW1 8963   4.141   5.370   5.655
 2688SOL    HW2 8964   4.213   5.230   5.614
 2689SOL     OW 8965   0.449   3.109   3.825
 2689SOL    HW1 8966   0.372   3.114   3.761
 2689SOL    HW2 8967   0.535   3.110   3.775
 2690SOL     OW 8968   3.494   2.894   3.194
 2690SOL    HW1 8969   3.450   2.862   3.110
 2690SOL    HW2 8970   3.592   2.879   3.187
 2691SOL     OW 8971   1.665   5.555   1.351
 2691SOL    HW1 8972   1.666   5.654   1.367
 2691SOL    HW2 8973   1.759   5.521   1.344
 2692SOL     OW 8974   0.065   5.405   3.264
 2692SOL    HW1 8975   0.128   5.463   3.213
 2692SOL    HW2 8976   0.109   5.318   3.286
 2693SOL     OW 8977   1.544   3.653   3.075
 2693SOL    HW1 8978   1.618   3.715   3.099
 2693SOL    HW2 8979   1.464   3.672   3.132
 2694SOL     OW 8980   2.301   0.910   2.997
 2694SOL    HW1 8981   2.399   0.914   2.976
 2694SOL    HW2 8982   2.261   1.001   2.985
 2695SOL     OW 8983   4.079   2.150   3.154
 2695SOL    HW1 8984   4.017   2.088   3.107
 2695SOL    HW2 8985   4.070   2.139   3.252
 2696SOL     OW 8986   4.194   3.610   4.977
 2696SOL    HW1 8987   4.269   3.591   5.041
 2696SOL    HW2 8988   4.170   3.707   4.982
 2697SOL     OW 8989   2.356   2.099   4.088
 2697SOL    HW1 8990   2.264   2.135   4.102
 2697SOL    HW2 8991   2.399   2.080   4.176
 2698SOL     OW 8992   2.235   3.290   6.621
 2698SOL    HW1 8993   2.271   3.202   6.651
 2698SOL    HW2 8994   2.252   3.302   6.523
 2699SOL     OW 8995   2.813   5.832   2.611
 2699SOL    HW1 8996   2.857   5.890   2.680
 2699SOL    HW2 8997   2.816   5.737   2.641
 2700SOL     OW 8998   1.385   4.251   2.981
 2700SOL    HW1 8999   1.427   4.310   2.912
 2700SOL    HW2 9000   1.427   4.160   2.976
 2701SOL     OW 9001   3.325   0.178   5.844
 2701SOL    HW1 9002   3.402   0.161   5.782
 2701SOL    HW2 9003   3.355   0.238   5.918
 2702SOL     OW 9004   6.980   6.983   2.918
 2702SOL    HW1 9005   6.961   0.061   2.915
 2702SOL    HW2 9006   0.053   6.967   2.886
 2703SOL     OW 9007   1.584   1.733   3.424
 2703SOL    HW1 9008   1.535   1.790   3.489
 2703SOL    HW2 9009   1.521   1.666   3.384
 2704SOL     OW 9010   1.699   6.326   0.220
 2704SOL    HW1 9011   1.637   6.346   0.144
 2704SOL    HW2 9012   1.654   6.266   0.286
 2705SOL     OW 9013   0.465   4.699   2.233
 2705SOL    HW1 9014   0.370   4.713   2.262
 2705SOL    HW2 9015   0.494   4.607   2.257
 2706SOL     OW 9016   6.630   2.330   1.972
 2706SOL    HW1 9017   6.564   2.274   2.022
 2706SOL    HW2 9018   6.674   2.275   1.901
 2707SOL     OW 9019   2.157   1.503   5.985
 2707SOL    HW1 9020   2.085   1.573   5.979
 2707SOL    HW2 9021   2.216   1.523   6.063
 2708SOL     OW 9022   2.089   4.088   0.324
 2708SOL    HW1 9023   2.161   4.110   0.389
 2708SOL    HW2 9024   2.026   4.022   0.365
 2709SOL     OW 9025   4.035   6.915   1.569
 2709SOL    HW1 9026   4.052   6.839   1.632
 2709SOL    HW2 9027   3.964   6.975   1.607
 2710SOL     OW 9028   6.215   4.450   2.356
 2710SOL    HW1 9029   6.291   4.508   2.328
 2710SOL    HW2 9030   6.187   4.393   2.279
 2711SOL     OW 9031   1.037   6.427   2.024
 2711SOL    HW1 9032   0.964   6.362   2.044
 2711SOL    HW2 9033   1.018   6.474   1.938
 2712SOL     OW 9034   3.144   5.265   2.437
 2712SOL    HW1 9035   3.230   5.238   2.481
 2712SOL    HW2 9036   3.156   5.266   2.338
 2713SOL     OW 9037   2.065   2.323   4.882
 2713SOL    HW1 9038   2.029   2.242   4.929
 2713SOL    HW2 9039   2.159   2.306   4.853
 2714SOL     OW 9040   5.545   6.774   5.651
 2714SOL    HW1 9041   5.459   6.789   5.700
 2714SOL    HW2 9042   5.601   6.708   5.702
 2715SOL     OW 9043   6.553   0.238   0.416
 2715SOL    HW1 9044   6.492   0.162   0.434
 2715SOL    HW2 9045   6.637   0.204   0.374
 2716SOL     OW 9046   0.162   6.804   2.845
 2716SOL    HW1 9047   0.211   6.800   2.758
 2716SOL    HW2 9048   0.187   6.725   2.901
 2717SOL     OW 9049   1.292   0.688   2.766
 2717SOL    HW1 9050   1.305   0.728   2.675
 2717SOL    HW2 9051   1.263   0.759   2.830
 2718SOL     OW 9052   1.088   4.585   3.123
 2718SOL    HW1 9053   0.998   4.627   3.114
 2718SOL    HW2 9054   1.119   4.552   3.034
 2719SOL     OW 9055   4.077   4.801   2.913
 2719SOL    HW1 9056   3.999   4.854   2.880
 2719SOL    HW2 9057   4.110   4.742   2.840
 2720SOL     OW 9058   0.164   6.037   3.914
 2720SOL    HW1 9059   0.218   6.099   3.970
 2720SOL    HW2 9060   0.221   5.999   3.842
 2721SOL     OW 9061   4.836   6.932   5.058
 2721SOL    HW1 9062   4.897   7.011   5.055
 2721SOL    HW2 9063   4.820   6.898   4.965
 2722SOL     OW 9064   1.560   5.536   1.088
 2722SOL    HW1 9065   1.574   5.513   1.184
 2722SOL    HW2 9066   1.607   5.470   1.030
 2723SOL     OW 9067   1.664   1.534   5.026
 2723SOL    HW1 9068   1.746   1.483   5.052
 2723SOL    HW2 9069   1.612   1.482   4.959
 2724SOL     OW 9070   3.383   5.778   6.468
 2724SOL    HW1 9071   3.445   5.789   6.390
 2724SOL    HW2 9072   3.431   5.729   6.541
 2725SOL     OW 9073   2.858   4.785   3.510
 2725SOL    HW1 9074   2.952   4.817   3.527
 2725SOL    HW2 9075   2.801   4.805   3.589
 2726SOL     OW 9076   4.862   6.362   2.322
 2726SOL    HW1 9077   4.904   6.452   2.320
 2726SOL    HW2 9078   4.839   6.334   2.229
 2727SOL     OW 9079   2.044   5.548   2.881
 2727SOL    HW1 9080   2.142   5.531   2.871
 2727SOL    HW2 9081   2.017   5.534   2.976
 2728SOL     OW 9082   3.521   6.834   5.286
 2728SOL    HW1 9083   3.462   6.803   5.360
 2728SOL    HW2 9084   3.531   6.933   5.290
 2729SOL     OW 9085   6.587   4.978   2.581
 2729SOL    HW1 9086   6.504   5.018   2.619
 2729SOL    HW2 9087   6.665   5.001   2.639
 2730SOL     OW 9088   1.235   4.409   1.282
 2730SOL    HW1 9089   1.307   4.442   1.221
 2730SOL    HW2 9090   1.197   4.486   1.333
 2731SOL     OW 9091   2.907   3.772   1.377
 2731SOL    HW1 9092   2.891   3.843   1.308
 2731SOL    HW2 9093   3.005   3.753   1.384
 2732SOL     OW 9094   5.249   2.693   4.233
 2732SOL    HW1 9095   5.331   2.644   4.262
 2732SOL    HW2 9096   5.186   2.702   4.310
 2733SOL     OW 9097   2.003   0.711   5.822
 2733SOL    HW1 9098   2.024   0.625   5.867
 2733SOL    HW2 9099   2.084   0.745   5.774
 2734SOL     OW 9100   2.077   6.692   3.724
 2734SOL    HW1 9101   2.057   6.612   3.667
 2734SOL    HW2 9102   1.996   6.717   3.777
 2735SOL     OW 9103   2.353   4.925   1.317
 2735SOL    HW1 9104   2.336   4.836   1.273
 2735SOL    HW2 9105   2.428   4.971   1.269
 2736SOL     OW 9106   3.689   6.800   6.618
 2736SOL    HW1 9107   3.751   6.798   6.539
 2736SOL    HW2 9108   3.727   6.744   6.692
 2737SOL     OW 9109   4.242   3.444   5.440
 2737SOL    HW1 9110   4.324   3.421   5.493
 2737SOL    HW2 9111   4.267   3.494   5.358
 2738SOL     OW 9112   5.874   4.391   4.468
 2738SOL    HW1 9113   5.970   4.390   4.439
 2738SOL    HW2 9114   5.817   4.351   4.396
 2739SOL     OW 9115   5.532   3.488   0.620
 2739SOL    HW1 9116   5.530   3.584   0.648
 2739SOL    HW2 9117   5.536   3.430   0.701
 2740SOL     OW 9118   6.550   2.785   3.033
 2740SOL    HW1 9119   6.451   2.796   3.046
 2740SOL    HW2 9120   6.569   2.693   3.001
 2741SOL     OW 9121   1.327   2.565   5.210
 2741SOL    HW1 9122   1.426   2.563   5.227
 2741SOL    HW2 9123   1.286   2.478   5.238
 2742SOL     OW 9124   2.910   6.463   5.331
 2742SOL    HW1 9125   2.931   6.510   5.416
 2742SOL    HW2 9126   2.883   6.529   5.262
 2743SOL     OW 9127   5.982   4.401   0.508
 2743SOL    HW1 9128   5.886   4.398   0.536
 2743SOL    HW2 9129   6.017   4.308   0.499
 2744SOL     OW 9130   4.327   0.128   6.912
 2744SOL    HW1 9131   4.380   0.191   6.969
 2744SOL    HW2 9132   4.311   0.043   6.961
 2745SOL     OW 9133   2.142   5.609   1.208
 2745SOL    HW1 9134   2.201   5.532   1.231
 2745SOL    HW2 9135   2.135   5.670   1.287
 2746SOL     OW 9136   1.154   2.213   6.623
 2746SOL    HW1 9137   1.127   2.252   6.711
 2746SOL    HW2 9138   1.250   2.186   6.626
 2747SOL     OW 9139   5.376   5.571   3.818
 2747SOL    HW1 9140   5.376   5.500   3.748
 2747SOL    HW2 9141   5.314   5.544   3.892
 2748SOL     OW 9142   3.992   1.176   4.593
 2748SOL    HW1 9143   4.018   1.079   4.595
 2748SOL    HW2 9144   4.048   1.227   4.658
 2749SOL     OW 9145   5.273   4.240   3.729
 2749SOL    HW1 9146   5.263   4.140   3.726
 2749SOL    HW2 9147   5.185   4.283   3.710
 2750SOL     OW 9148   0.419   6.129   1.146
 2750SOL    HW1 9149   0.455   6.193   1.078
 2750SOL    HW2 9150   0.344   6.076   1.105
 2751SOL     OW 9151   1.595   0.010   0.297
 2751SOL    HW1 9152   1.579   0.080   0.227
 2751SOL    HW2 9153   1.694   7.018   0.310
 2752SOL     OW 9154   6.615   6.224   5.770
 2752SOL    HW1 9155   6.573   6.143   5.730
 2752SOL    HW2 9156   6.598   6.303   5.711
 2753SOL     OW 9157   3.116   5.161   5.277
 2753SOL    HW1 9158   3.188   5.229   5.267
 2753SOL    HW2 9159   3.071   5.172   5.366
 2754SOL     OW 9160   0.893   5.904   4.098
 2754SOL    HW1 9161   0.965   5.883   4.032
 2754SOL    HW2 9162   0.852   5.819   4.130
 2755SOL     OW 9163   3.856   5.821   2.441
 2755SOL    HW1 9164   3.804   5.791   2.361
 2755SOL    HW2 9165   3.861   5.747   2.508
 2756SOL     OW 9166   6.885   3.257   5.368
 2756SOL    HW1 9167   6.937   3.326   5.418
 2756SOL    HW2 9168   6.938   3.225   5.290
 2757SOL     OW 9169   4.469   3.633   6.929
 2757SOL    HW1 9170   4.427   3.591   7.010
 2757SOL    HW2 9171   4.540   3.571   6.893
 2758SOL     OW 9172   0.377   7.001   1.737
 2758SOL    HW1 9173   0.467   0.006   1.773
 2758SOL    HW2 9174   0.309   0.048   1.766
 2759SOL     OW 9175   3.532   3.474   5.230
 2759SOL    HW1 9176   3.560   3.551   5.287
 2759SOL    HW2 9177   3.614   3.431   5.190
 2760SOL     OW 9178   5.770   5.895   2.400
 2760SOL    HW1 9179   5.763   5.802   2.363
 2760SOL    HW2 9180   5.857   5.936   2.370
 2761SOL     OW 9181   1.607   3.165   3.251
 2761SOL    HW1 9182   1.644   3.245   3.298
 2761SOL    HW2 9183   1.677   3.094   3.245
 2762SOL     OW 9184   3.473   1.788   0.775
 2762SOL    HW1 9185   3.432   1.708   0.820
 2762SOL    HW2 9186   3.539   1.830   0.837
 2763SOL     OW 9187   6.274   1.690   3.998
 2763SOL    HW1 9188   6.330   1.690   4.081
 2763SOL    HW2 9189   6.187   1.643   4.017
 2764SOL     OW 9190   0.424   2.986   2.726
 2764SOL    HW1 9191   0.346   3.042   2.753
 2764SOL    HW2 9192   0.509   3.034   2.749
 2765SOL     OW 9193   5.819   6.364   5.985
 2765SOL    HW1 9194   5.834   6.433   5.914
 2765SOL    HW2 9195   5.900   6.360   6.045
 2766SOL     OW 9196   4.596   6.934   6.980
 2766SOL    HW1 9197   4.578   0.006   7.016
 2766SOL    HW2 9198   4.694   6.919   6.974
 2767SOL     OW 9199   0.961   5.558   6.597
 2767SOL    HW1 9200   0.888   5.617   6.563
 2767SOL    HW2 9201   0.932   5.515   6.683
 2768SOL     OW 9202   3.983   6.972   1.295
 2768SOL    HW1 9203   3.897   0.001   1.282
 2768SOL    HW2 9204   3.998   6.957   1.393
 2769SOL     OW 9205   1.281   4.894   5.631
 2769SOL    HW1 9206   1.228   4.946   5.564
 2769SOL    HW2 9207   1.291   4.947   5.715
 2770SOL     OW 9208   2.295   6.991   0.903
 2770SOL    HW1 9209   2.258   0.063   0.904
 2770SOL    HW2 9210   2.235   6.931   0.849
 2771SOL     OW 9211   4.449   0.311   5.363
 2771SOL    HW1 9212   4.436   0.232   5.303
 2771SOL    HW2 9213   4.544   0.315   5.393
 2772SOL     OW 9214   4.665   1.410   3.853
 2772SOL    HW1 9215   4.618   1.385   3.769
 2772SOL    HW2 9216   4.734   1.480   3.833
 2773SOL     OW 9217   6.488   2.719   4.920
 2773SOL    HW1 9218   6.407   2.726   4.979
 2773SOL    HW2 9219   6.511   2.810   4.885
 2774SOL     OW 9220   6.004   1.560   3.929
 2774SOL    HW1 9221   6.072   1.504   3.883
 2774SOL    HW2 9222   5.935   1.590   3.863
 2775SOL     OW 9223   0.077   3.536   4.160
 2775SOL    HW1 9224   0.157   3.568   4.211
 2775SOL    HW2 9225   0.013   3.612   4.148
 2776SOL     OW 9226   4.614   4.529   5.919
 2776SOL    HW1 9227   4.529   4.563   5.879
 2776SOL    HW2 9228   4.601   4.435   5.950
 2777SOL     OW 9229   2.233   2.364   6.558
 2777SOL    HW1 9230   2.210   2.427   6.483
 2777SOL    HW2 9231   2.162   2.294   6.566
 2778SOL     OW 9232   2.961   0.398   6.000
 2778SOL    HW1 9233   2.951   0.448   6.086
 2778SOL    HW2 9234   3.050   0.418   5.959
 2779SOL     OW 9235   5.037   0.932   1.796
 2779SOL    HW1 9236   5.064   0.942   1.701
 2779SOL    HW2 9237   4.984   1.012   1.825
 2780SOL     OW 9238   6.880   1.027   4.770
 2780SOL    HW1 9239   6.912   1.121   4.770
 2780SOL    HW2 9240   6.909   0.981   4.854
 2781SOL     OW 9241   6.108   1.277   3.495
 2781SOL    HW1 9242   6.168   1.353   3.472
 2781SOL    HW2 9243   6.163   1.197   3.520
 2782SOL     OW 9244   5.319   0.811   5.780
 2782SOL    HW1 9245   5.401   0.786   5.832
 2782SOL    HW2 9246   5.245   0.834   5.844
 2783SOL     OW 9247   5.824   3.356   1.672
 2783SOL    HW1 9248   5.863   3.352   1.764
 2783SOL    HW2 9249   5.744   3.296   1.667
 2784SOL     OW 9250   0.387   3.200   1.343
 2784SOL    HW1 9251   0.383   3.267   1.269
 2784SOL    HW2 9252   0.474   3.150   1.338
 2785SOL     OW 9253   5.824   3.573   2.633
 2785SOL    HW1 9254   5.786   3.496   2.685
 2785SOL    HW2 9255   5.777   3.580   2.545
 2786SOL     OW 9256   1.387   6.320   0.186
 2786SOL    HW1 9257   1.436   6.287   0.266
 2786SOL    HW2 9258   1.288   6.318   0.203
 2787SOL     OW 9259   0.676   5.681   6.784
 2787SOL    HW1 9260   0.739   5.684   6.861
 2787SOL    HW2 9261   0.712   5.736   6.709
 2788SOL     OW 9262   2.331   6.811   6.620
 2788SOL    HW1 9263   2.329   6.748   6.697
 2788SOL    HW2 9264   2.368   6.764   6.540
 2789SOL     OW 9265   1.333   2.205   4.564
 2789SOL    HW1 9266   1.291   2.292   4.588
 2789SOL    HW2 9267   1.305   2.135   4.629
 2790SOL     OW 9268   0.535   5.825   1.584
 2790SOL    HW1 9269   0.467   5.800   1.652
 2790SOL    HW2 9270   0.557   5.746   1.527
 2791SOL     OW 9271   1.295   2.981   4.475
 2791SOL    HW1 9272   1.305   3.029   4.388
 2791SOL    HW2 9273   1.379   2.991   4.528
 2792SOL     OW 9274   3.098   1.273   5.975
 2792SOL    HW1 9275   3.173   1.207   5.982
 2792SOL    HW2 9276   3.049   1.277   6.062
 2793SOL     OW 9277   3.511   3.892   0.523
 2793SOL    HW1 9278   3.537   3.834   0.600
 2793SOL    HW2 9279   3.434   3.852   0.475
 2794SOL     OW 9280   1.697   2.368   0.324
 2794SOL    HW1 9281   1.781   2.422   0.319
 2794SOL    HW2 9282   1.719   2.271   0.316
 2795SOL     OW 9283   1.748   6.234   0.938
 2795SOL    HW1 9284   1.835   6.192   0.909
 2795SOL    HW2 9285   1.756   6.264   1.033
 2796SOL     OW 9286   1.903   6.042   6.741
 2796SOL    HW1 9287   1.831   6.071   6.804
 2796SOL    HW2 9288   1.894   6.092   6.655
 2797SOL     OW 9289   5.017   4.309   3.720
 2797SOL    HW1 9290   4.932   4.298   3.668
 2797SOL    HW2 9291   5.002   4.373   3.795
 2798SOL     OW 9292   5.347   1.469   1.593
 2798SOL    HW1 9293   5.431   1.415   1.595
 2798SOL    HW2 9294   5.301   1.462   1.682
 2799SOL     OW 9295   3.526   6.196   4.802
 2799SOL    HW1 9296   3.587   6.210   4.880
 2799SOL    HW2 9297   3.550   6.110   4.756
 2800SOL     OW 9298   4.931   0.512   6.401
 2800SOL    HW1 9299   4.975   0.581   6.344
 2800SOL    HW2 9300   4.833   0.530   6.405
 2801SOL     OW 9301   6.948   4.645   3.697
 2801SOL    HW1 9302   6.874   4.600   3.748
 2801SOL    HW2 9303   6.920   4.656   3.602
 2802SOL     OW 9304   1.441   5.343   4.727
 2802SOL    HW1 9305   1.464   5.375   4.636
 2802SOL    HW2 9306   1.503   5.268   4.753
 2803SOL     OW 9307   3.338   2.870   0.050
 2803SOL    HW1 9308   3.244   2.895   0.025
 2803SOL    HW2 9309   3.356   2.775   0.024
 2804SOL     OW 9310   6.844   2.958   3.491
 2804SOL    HW1 9311   6.781   2.943   3.567
 2804SOL    HW2 9312   6.799   2.932   3.405
 2805SOL     OW 9313   4.013   4.893   0.655
 2805SOL    HW1 9314   3.943   4.912   0.587
 2805SOL    HW2 9315   3.972   4.850   0.735
 2806SOL     OW 9316   0.336   3.248   5.392
 2806SOL    HW1 9317   0.319   3.274   5.487
 2806SOL    HW2 9318   0.409   3.305   5.354
 2807SOL     OW 9319   4.327   1.069   4.149
 2807SOL    HW1 9320   4.351   1.152   4.199
 2807SOL    HW2 9321   4.239   1.035   4.181
 2808SOL     OW 9322   0.940   5.728   5.935
 2808SOL    HW1 9323   0.929   5.668   5.855
 2808SOL    HW2 9324   0.855   5.776   5.952
 2809SOL     OW 9325   0.418   6.263   2.079
 2809SOL    HW1 9326   0.496   6.242   2.020
 2809SOL    HW2 9327   0.375   6.178   2.110
 2810SOL     OW 9328   1.430   6.296   2.900
 2810SOL    HW1 9329   1.449   6.270   2.995
 2810SOL    HW2 9330   1.495   6.365   2.870
 2811SOL     OW 9331   1.060   1.213   0.788
 2811SOL    HW1 9332   1.123   1.137   0.769
 2811SOL    HW2 9333   0.988   1.181   0.849
 2812SOL     OW 9334   1.291   1.781   0.595
 2812SOL    HW1 9335   1.321   1.701   0.544
 2812SOL    HW2 9336   1.334   1.863   0.556
 2813SOL     OW 9337   0.766   3.519   1.265
 2813SOL    HW1 9338   0.690   3.547   1.206
 2813SOL    HW2 9339   0.800   3.430   1.236
 2814SOL     OW 9340   2.384   4.540   0.051
 2814SOL    HW1 9341   2.433   4.614   0.098
 2814SOL    HW2 9342   2.402   4.454   0.097
 2815SOL     OW 9343   6.746   5.646   4.471
 2815SOL    HW1 9344   6.732   5.738   4.434
 2815SOL    HW2 9345   6.807   5.651   4.551
 2816SOL     OW 9346   0.823   5.144   4.651
 2816SOL    HW1 9347   0.726   5.123   4.636
 2816SOL    HW2 9348   0.864   5.073   4.708
 2817SOL     OW 9349   3.072   1.039   2.509
 2817SOL    HW1 9350   3.128   1.099   2.452
 2817SOL    HW2 9351   3.101   1.047   2.605
 2818SOL     OW 9352   1.405   0.455   0.098
 2818SOL    HW1 9353   1.404   0.470   0.197
 2818SOL    HW2 9354   1.313   0.431   0.067
 2819SOL     OW 9355   0.799   0.354   6.792
 2819SOL    HW1 9356   0.756   0.335   6.704
 2819SOL    HW2 9357   0.746   0.423   6.841
 2820SOL     OW 9358   1.773   1.952   6.816
 2820SOL    HW1 9359   1.807   1.869   6.861
 2820SOL    HW2 9360   1.748   2.019   6.886
 2821SOL     OW 9361   3.088   2.843   6.225
 2821SOL    HW1 9362   3.077   2.925   6.169
 2821SOL    HW2 9363   3.081   2.868   6.322
 2822SOL     OW 9364   4.592   2.915   0.652
 2822SOL    HW1 9365   4.584   2.873   0.743
 2822SOL    HW2 9366   4.662   2.986   0.654
 2823SOL     OW 9367   4.832   3.701   1.842
 2823SOL    HW1 9368   4.889   3.730   1.766
 2823SOL    HW2 9369   4.822   3.776   1.907
 2824SOL     OW 9370   0.848   4.574   5.364
 2824SOL    HW1 9371   0.909   4.556   5.286
 2824SOL    HW2 9372   0.754   4.555   5.338
 2825SOL     OW 9373   5.419   1.582   5.757
 2825SOL    HW1 9374   5.396   1.677   5.733
 2825SOL    HW2 9375   5.516   1.576   5.781
 2826SOL     OW 9376   2.977   3.144   0.106
 2826SOL    HW1 9377   3.023   3.177   0.188
 2826SOL    HW2 9378   3.002   3.202   0.028
 2827SOL     OW 9379   5.613   1.915   6.611
 2827SOL    HW1 9380   5.542   1.850   6.583
 2827SOL    HW2 9381   5.576   2.008   6.607
 2828SOL     OW 9382   1.631   3.963   0.596
 2828SOL    HW1 9383   1.555   4.000   0.649
 2828SOL    HW2 9384   1.678   4.037   0.549
 2829SOL     OW 9385   3.466   3.588   1.797
 2829SOL    HW1 9386   3.501   3.668   1.845
 2829SOL    HW2 9387   3.525   3.509   1.816
 2830SOL     OW 9388   3.380   5.640   4.672
 2830SOL    HW1 9389   3.370   5.719   4.611
 2830SOL    HW2 9390   3.295   5.587   4.672
 2831SOL     OW 9391   0.147   1.764   1.782
 2831SOL    HW1 9392   0.237   1.807   1.786
 2831SOL    HW2 9393   0.156   1.672   1.742
 2832SOL     OW 9394   0.841   3.529   2.301
 2832SOL    HW1 9395   0.831   3.585   2.218
 2832SOL    HW2 9396   0.751   3.496   2.329
 2833SOL     OW 9397   6.946   2.475   2.192
 2833SOL    HW1 9398   0.007   2.431   2.154
 2833SOL    HW2 9399   6.961   2.494   2.289
 2834SOL     OW 9400   3.757   0.198   4.492
 2834SOL    HW1 9401   3.704   0.208   4.408
 2834SOL    HW2 9402   3.723   0.262   4.561
 2835SOL     OW 9403   6.583   0.945   6.657
 2835SOL    HW1 9404   6.490   0.979   6.672
 2835SOL    HW2 9405   6.599   0.865   6.715
 2836SOL     OW 9406   3.077   5.597   2.840
 2836SOL    HW1 9407   3.154   5.562   2.894
 2836SOL    HW2 9408   3.091   5.574   2.744
 2837SOL     OW 9409   5.148   4.475   1.958
 2837SOL    HW1 9410   5.156   4.428   1.869
 2837SOL    HW2 9411   5.055   4.462   1.993
 2838SOL     OW 9412   6.623   4.061   6.032
 2838SOL    HW1 9413   6.638   4.153   6.067
 2838SOL    HW2 9414   6.687   4.043   5.957
 2839SOL     OW 9415   5.788   2.833   5.547
 2839SOL    HW1 9416   5.738   2.911   5.586
 2839SOL    HW2 9417   5.770   2.751   5.602
 2840SOL     OW 9418   6.050   6.578   4.659
 2840SOL    HW1 9419   6.082   6.589   4.565
 2840SOL    HW2 9420   5.951   6.568   4.660
 2841SOL     OW 9421   5.424   4.290   2.058
 2841SOL    HW1 9422   5.423   4.390   2.046
 2841SOL    HW2 9423   5.490   4.250   1.995
 2842SOL     OW 9424   0.704   6.853   3.786
 2842SOL    HW1 9425   0.689   6.932   3.726
 2842SOL    HW2 9426   0.705   6.884   3.881
 2843SOL     OW 9427   2.320   2.689   3.844
 2843SOL    HW1 9428   2.223   2.674   3.862
 2843SOL    HW2 9429   2.355   2.615   3.787
 2844SOL     OW 9430   5.426   3.251   1.011
 2844SOL    HW1 9431   5.478   3.196   1.077
 2844SOL    HW2 9432   5.454   3.347   1.018
 2845SOL     OW 9433   3.139   1.768   1.706
 2845SOL    HW1 9434   3.159   1.778   1.803
 2845SOL    HW2 9435   3.042   1.750   1.693
 2846SOL     OW 9436   5.827   6.963   0.043
 2846SOL    HW1 9437   5.872   6.908   6.993
 2846SOL    HW2 9438   5.837   0.040   0.021
 2847SOL     OW 9439   4.625   5.061   1.052
 2847SOL    HW1 9440   4.668   4.970   1.052
 2847SOL    HW2 9441   4.593   5.082   0.960
 2848SOL     OW 9442   0.867   4.475   5.797
 2848SOL    HW1 9443   0.916   4.527   5.727
 2848SOL    HW2 9444   0.801   4.534   5.843
 2849SOL     OW 9445   5.243   1.111   1.481
 2849SOL    HW1 9446   5.339   1.085   1.467
 2849SOL    HW2 9447   5.227   1.201   1.441
 2850SOL     OW 9448   1.170   0.525   2.009
 2850SOL    HW1 9449   1.087   0.577   2.030
 2850SOL    HW2 9450   1.196   0.541   1.914
 2851SOL     OW 9451   3.133   2.896   1.557
 2851SOL    HW1 9452   3.183   2.976   1.592
 2851SOL    HW2 9453   3.082   2.922   1.475
 2852SOL     OW 9454   0.165   5.549   5.301
 2852SOL    HW1 9455   0.164   5.510   5.394
 2852SOL    HW2 9456   0.134   5.644   5.305
 2853SOL     OW 9457   0.269   4.602   5.339
 2853SOL    HW1 9458   0.352   4.658   5.330
 2853SOL    HW2 9459   0.278   4.520   5.283
 2854SOL     OW 9460   2.724   0.527   5.739
 2854SOL    HW1 9461   2.721   0.602   5.806
 2854SOL    HW2 9462   2.745   0.442   5.786
 2855SOL     OW 9463   2.250   1.423   4.447
 2855SOL    HW1 9464   2.263   1.476   4.362
 2855SOL    HW2 9465   2.178   1.465   4.501
 2856SOL     OW 9466   0.466   5.350   4.558
 2856SOL    HW1 9467   0.533   5.424   4.550
 2856SOL    HW2 9468   0.438   5.319   4.467
 2857SOL     OW 9469   6.690   4.135   1.072
 2857SOL    HW1 9470   6.717   4.118   1.167
 2857SOL    HW2 9471   6.692   4.234   1.055
 2858SOL     OW 9472   5.129   4.136   2.903
 2858SOL    HW1 9473   5.128   4.044   2.863
 2858SOL    HW2 9474   5.198   4.139   2.975
 2859SOL     OW 9475   6.027   5.036   1.934
 2859SOL    HW1 9476   5.947   4.999   1.980
 2859SOL    HW2 9477   6.000   5.114   1.877
 2860SOL     OW 9478   1.169   0.360   3.112
 2860SOL    HW1 9479   1.117   0.314   3.041
 2860SOL    HW2 9480   1.263   0.377   3.080
 2861SOL     OW 9481   4.976   4.419   5.978
 2861SOL    HW1 9482   4.980   4.516   5.951
 2861SOL    HW2 9483   5.056   4.398   6.035
 2862SOL     OW 9484   4.478   1.184   0.524
 2862SOL    HW1 9485   4.478   1.231   0.613
 2862SOL    HW2 9486   4.559   1.212   0.472
 2863SOL     OW 9487   6.095   2.157   5.495
 2863SOL    HW1 9488   6.005   2.138   5.534
 2863SOL    HW2 9489   6.085   2.179   5.398
 2864SOL     OW 9490   3.897   4.144   0.816
 2864SOL    HW1 9491   3.877   4.060   0.766
 2864SOL    HW2 9492   3.963   4.126   0.888
 2865SOL     OW 9493   5.500   5.218   5.490
 2865SOL    HW1 9494   5.596   5.192   5.490
 2865SOL    HW2 9495   5.464   5.213   5.584
 2866SOL     OW 9496   3.698   4.931   0.680
 2866SOL    HW1 9497   3.721   4.891   0.591
 2866SOL    HW2 9498   3.708   4.862   0.751
 2867SOL     OW 9499   6.268   6.369   3.134
 2867SOL    HW1 9500   6.246   6.415   3.220
 2867SOL    HW2 9501   6.283   6.438   3.063
 2868SOL     OW 9502   0.320   0.194   5.709
 2868SOL    HW1 9503   0.304   0.214   5.612
 2868SOL    HW2 9504   0.256   0.124   5.740
 2869SOL     OW 9505   6.138   4.361   4.428
 2869SOL    HW1 9506   6.199   4.308   4.487
 2869SOL    HW2 9507   6.128   4.454   4.465
 2870SOL     OW 9508   0.408   1.342   1.929
 2870SOL    HW1 9509   0.434   1.352   2.025
 2870SOL    HW2 9510   0.383   1.247   1.911
 2871SOL     OW 9511   4.973   1.068   3.125
 2871SOL    HW1 9512   5.055   1.028   3.168
 2871SOL    HW2 9513   4.932   1.000   3.064
 2872SOL     OW 9514   2.628   2.023   2.723
 2872SOL    HW1 9515   2.597   2.051   2.814
 2872SOL    HW2 9516   2.571   2.066   2.653
 2873SOL     OW 9517   1.600   0.051   1.448
 2873SOL    HW1 9518   1.527   7.016   1.407
 2873SOL    HW2 9519   1.599   0.039   1.548
 2874SOL     OW 9520   2.234   1.061   3.364
 2874SOL    HW1 9521   2.276   1.109   3.441
 2874SOL    HW2 9522   2.135   1.068   3.369
 2875SOL     OW 9523   2.442   6.973   3.205
 2875SOL    HW1 9524   2.511   6.999   3.137
 2875SOL    HW2 9525   2.394   0.034   3.237
 2876SOL     OW 9526   1.433   6.032   0.927
 2876SOL    HW1 9527   1.415   6.093   1.004
 2876SOL    HW2 9528   1.450   6.087   0.845
 2877SOL     OW 9529   2.078   2.473   5.306
 2877SOL    HW1 9530   2.099   2.568   5.283
 2877SOL    HW2 9531   2.106   2.454   5.400
 2878SOL     OW 9532   3.948   3.132   4.458
 2878SOL    HW1 9533   4.008   3.157   4.382
 2878SOL    HW2 9534   3.996   3.146   4.545
 2879SOL     OW 9535   5.331   4.964   6.966
 2879SOL    HW1 9536   5.406   4.929   0.001
 2879SOL    HW2 9537   5.360   5.048   6.919
 2880SOL     OW 9538   1.765   1.662   3.651
 2880SOL    HW1 9539   1.847   1.716   3.632
 2880SOL    HW2 9540   1.704   1.664   3.571
 2881SOL     OW 9541   5.380   4.862   0.703
 2881SOL    HW1 9542   5.288   4.880   0.669
 2881SOL    HW2 9543   5.388   4.765   0.727
 2882SOL     OW 9544   4.546   6.331   0.091
 2882SOL    HW1 9545   4.635   6.331   0.045
 2882SOL    HW2 9546   4.511   6.237   0.097
 2883SOL     OW 9547   5.347   6.534   3.987
 2883SOL    HW1 9548   5.261   6.582   4.002
 2883SOL    HW2 9549   5.422   6.587   4.026
 2884SOL     OW 9550   6.342   5.763   3.717
 2884SOL    HW1 9551   6.244   5.746   3.705
 2884SOL    HW2 9552   6.386   5.680   3.753
 2885SOL     OW 9553   1.025   2.988   3.887
 2885SOL    HW1 9554   1.076   2.997   3.973
 2885SOL    HW2 9555   0.991   2.894   3.879
 2886SOL     OW 9556   2.277   4.759   5.601
 2886SOL    HW1 9557   2.209   4.768   5.673
 2886SOL    HW2 9558   2.293   4.663   5.582
 2887SOL     OW 9559   6.843   6.051   2.727
 2887SOL    HW1 9560   6.788   6.052   2.644
 2887SOL    HW2 9561   6.939   6.069   2.703
 2888SOL     OW 9562   4.957   6.733   6.684
 2888SOL    HW1 9563   5.013   6.736   6.601
 2888SOL    HW2 9564   4.897   6.813   6.688
 2889SOL     OW 9565   4.315   6.164   4.166
 2889SOL    HW1 9566   4.381   6.195   4.234
 2889SOL    HW2 9567   4.324   6.065   4.153
 2890SOL     OW 9568   1.214   2.459   0.425
 2890SOL    HW1 9569   1.288   2.503   0.475
 2890SOL    HW2 9570   1.244   2.440   0.331
 2891SOL     OW 9571   0.772   1.883   5.375
 2891SOL    HW1 9572   0.846   1.936   5.334
 2891SOL    HW2 9573   0.732   1.934   5.451
 2892SOL     OW 9574   5.370   4.624   1.679
 2892SOL    HW1 9575   5.379   4.526   1.662
 2892SOL    HW2 9576   5.279   4.655   1.651
 2893SOL     OW 9577   6.748   5.556   5.111
 2893SOL    HW1 9578   6.750   5.577   5.208
 2893SOL    HW2 9579   6.777   5.461   5.096
 2894SOL     OW 9580   2.371   5.275   1.175
 2894SOL    HW1 9581   2.316   5.312   1.250
 2894SOL    HW2 9582   2.406   5.350   1.119
 2895SOL     OW 9583   4.177   7.004   5.853
 2895SOL    HW1 9584   4.196   6.973   5.760
 2895SOL    HW2 9585   4.245   0.052   5.879
 2896SOL     OW 9586   6.006   0.522   4.955
 2896SOL    HW1 9587   5.962   0.487   5.037
 2896SOL    HW2 9588   6.073   0.455   4.922
 2897SOL     OW 9589   3.250   4.878   3.039
 2897SOL    HW1 9590   3.238   4.860   2.941
 2897SOL    HW2 9591   3.177   4.834   3.091
 2898SOL     OW 9592   5.176   2.086   2.915
 2898SOL    HW1 9593   5.221   2.048   2.835
 2898SOL    HW2 9594   5.245   2.110   2.984
 2899SOL     OW 9595   6.735   3.157   0.362
 2899SOL    HW1 9596   6.659   3.097   0.337
 2899SOL    HW2 9597   6.784   3.119   0.441
 2900SOL     OW 9598   2.523   2.408   6.470
 2900SOL    HW1 9599   2.591   2.448   6.408
 2900SOL    HW2 9600   2.453   2.476   6.491
 2901SOL     OW 9601   0.978   3.916   2.526
 2901SOL    HW1 9602   0.991   3.865   2.441
 2901SOL    HW2 9603   1.062   3.965   2.549
 2902SOL     OW 9604   6.033   5.457   3.718
 2902SOL    HW1 9605   6.057   5.538   3.664
 2902SOL    HW2 9606   5.993   5.485   3.805
 2903SOL     OW 9607   6.540   4.439   0.431
 2903SOL    HW1 9608   6.468   4.406   0.493
 2903SOL    HW2 9609   6.498   4.478   0.349
 2904SOL     OW 9610   2.649   4.704   4.591
 2904SOL    HW1 9611   2.732   4.748   4.627
 2904SOL    HW2 9612   2.667   4.668   4.500
 2905SOL     OW 9613   1.859   5.113   1.263
 2905SOL    HW1 9614   1.792   5.055   1.308
 2905SOL    HW2 9615   1.950   5.094   1.300
 2906SOL     OW 9616   6.246   6.252   5.574
 2906SOL    HW1 9617   6.173   6.271   5.509
 2906SOL    HW2 9618   6.273   6.157   5.567
 2907SOL     OW 9619   0.837   1.376   5.070
 2907SOL    HW1 9620   0.893   1.308   5.117
 2907SOL    HW2 9621   0.867   1.468   5.096
 2908SOL     OW 9622   3.962   0.220   3.397
 2908SOL    HW1 9623   4.050   0.265   3.388
 2908SOL    HW2 9624   3.894   0.268   3.341
 2909SOL     OW 9625   6.880   6.736   1.642
 2909SOL    HW1 9626   6.856   6.656   1.698
 2909SOL    HW2 9627   6.935   6.799   1.697
 2910SOL     OW 9628   0.653   1.315   4.305
 2910SOL    HW1 9629   0.635   1.226   4.264
 2910SOL    HW2 9630   0.569   1.369   4.304
 2911SOL     OW 9631   0.572   4.357   5.513
 2911SOL    HW1 9632   0.627   4.344   5.596
 2911SOL    HW2 9633   0.527   4.271   5.490
 2912SOL     OW 9634   0.668   1.017   1.986
 2912SOL    HW1 9635   0.736   1.024   1.913
 2912SOL    HW2 9636   0.577   1.007   1.945
 2913SOL     OW 9637   1.579   6.767   3.384
 2913SOL    HW1 9638   1.676   6.753   3.403
 2913SOL    HW2 9639   1.560   6.744   3.289
 2914SOL     OW 9640   3.894   4.701   1.310
 2914SOL    HW1 9641   3.827   4.627   1.316
 2914SOL    HW2 9642   3.869   4.773   1.374
 2915SOL     OW 9643   2.659   0.526   4.062
 2915SOL    HW1 9644   2.572   0.490   4.095
 2915SOL    HW2 9645   2.713   0.451   4.022
 2916SOL     OW 9646   1.353   5.554   0.190
 2916SOL    HW1 9647   1.259   5.561   0.221
 2916SOL    HW2 9648   1.400   5.641   0.205
 2917SOL     OW 9649   2.410   0.018   2.548
 2917SOL    HW1 9650   2.485   0.001   2.612
 2917SOL    HW2 9651   2.341   0.076   2.591
 2918SOL     OW 9652   5.335   2.652   1.794
 2918SOL    HW1 9653   5.394   2.659   1.714
 2918SOL    HW2 9654   5.313   2.556   1.811
 2919SOL     OW 9655   6.830   6.186   4.820
 2919SOL    HW1 9656   6.851   6.253   4.749
 2919SOL    HW2 9657   6.804   6.234   4.904
 2920SOL     OW 9658   2.818   2.164   1.416
 2920SOL    HW1 9659   2.819   2.245   1.358
 2920SOL    HW2 9660   2.856   2.188   1.506
 2921SOL     OW 9661   0.942   6.155   3.664
 2921SOL    HW1 9662   0.959   6.197   3.575
 2921SOL    HW2 9663   0.874   6.209   3.713
 2922SOL     OW 9664   3.845   4.837   3.889
 2922SOL    HW1 9665   3.857   4.826   3.790
 2922SOL    HW2 9666   3.916   4.787   3.938
 2923SOL     OW 9667   0.869   5.424   4.669
 2923SOL    HW1 9668   0.964   5.453   4.656
 2923SOL    HW2 9669   0.862   5.325   4.659
 2924SOL     OW 9670   5.353   2.003   6.283
 2924SOL    HW1 9671   5.420   2.078   6.291
 2924SOL    HW2 9672   5.372   1.950   6.201
 2925SOL     OW 9673   5.555   6.698   4.816
 2925SOL    HW1 9674   5.546   6.687   4.915
 2925SOL    HW2 9675   5.559   6.795   4.793
 2926SOL     OW 9676   6.707   2.286   4.388
 2926SOL    HW1 9677   6.685   2.248   4.478
 2926SOL    HW2 9678   6.644   2.361   4.368
 2927SOL     OW 9679   1.349   2.352   2.392
 2927SOL    HW1 9680   1.355   2.310   2.302
 2927SOL    HW2 9681   1.402   2.297   2.457
 2928SOL     OW 9682   5.765   2.935   6.953
 2928SOL    HW1 9683   5.800   2.991   0.008
 2928SOL    HW2 9684   5.701   2.867   6.989
 2929SOL     OW 9685   2.055   2.073   4.074
 2929SOL    HW1 9686   2.031   2.152   4.018
 2929SOL    HW2 9687   1.989   1.999   4.058
 2930SOL     OW 9688   0.524   3.794   4.352
 2930SOL    HW1 9689   0.586   3.727   4.391
 2930SOL    HW2 9690   0.570   3.843   4.278
 2931SOL     OW 9691   5.796   4.829   5.855
 2931SOL    HW1 9692   5.698   4.812   5.841
 2931SOL    HW2 9693   5.809   4.872   5.945
 2932SOL     OW 9694   6.118   5.101   1.193
 2932SOL    HW1 9695   6.184   5.055   1.252
 2932SOL    HW2 9696   6.054   5.153   1.249
 2933SOL     OW 9697   1.153   7.010   0.399
 2933SOL    HW1 9698   1.198   6.948   0.334
 2933SOL    HW2 9699   1.164   0.084   0.368
 2934SOL     OW 9700   4.646   5.016   2.088
 2934SOL    HW1 9701   4.579   5.040   2.017
 2934SOL    HW2 9702   4.655   4.917   2.093
 2935SOL     OW 9703   0.716   2.679   6.005
 2935SOL    HW1 9704   0.661   2.738   5.947
 2935SOL    HW2 9705   0.798   2.650   5.955
 2936SOL     OW 9706   4.980   6.889   2.422
 2936SOL    HW1 9707   5.052   6.914   2.358
 2936SOL    HW2 9708   4.911   6.833   2.376
 2937SOL     OW 9709   5.963   3.758   3.069
 2937SOL    HW1 9710   5.913   3.837   3.106
 2937SOL    HW2 9711   6.061   3.770   3.086
 2938SOL     OW 9712   0.647   5.384   6.780
 2938SOL    HW1 9713   0.636   5.471   6.828
 2938SOL    HW2 9714   0.580   5.318   6.814
 2939SOL     OW 9715   0.097   5.941   1.586
 2939SOL    HW1 9716   0.097   6.036   1.617
 2939SOL    HW2 9717   0.011   5.897   1.611
 2940SOL     OW 9718   4.791   6.403   3.971
 2940SOL    HW1 9719   4.871   6.451   4.007
 2940SOL    HW2 9720   4.818   6.344   3.895
 2941SOL     OW 9721   2.349   4.768   2.750
 2941SOL    HW1 9722   2.252   4.767   2.726
 2941SOL    HW2 9723   2.375   4.678   2.786
 2942SOL     OW 9724   3.513   2.124   1.659
 2942SOL    HW1 9725   3.544   2.186   1.731
 2942SOL    HW2 9726   3.526   2.166   1.570
 2943SOL     OW 9727   5.904   3.384   3.330
 2943SOL    HW1 9728   5.885   3.449   3.403
 2943SOL    HW2 9729   5.958   3.308   3.366
 2944SOL     OW 9730   1.589   5.769   2.127
 2944SOL    HW1 9731   1.637   5.690   2.090
 2944SOL    HW2 9732   1.538   5.815   2.055
 2945SOL     OW 9733   5.315   3.616   1.692
 2945SOL    HW1 9734   5.315   3.716   1.702
 2945SOL    HW2 9735   5.222   3.585   1.672
 2946SOL     OW 9736   3.605   2.898   4.097
 2946SOL    HW1 9737   3.664   2.917   4.018
 2946SOL    HW2 9738   3.661   2.899   4.180
 2947SOL     OW 9739   6.250   5.273   0.684
 2947SOL    HW1 9740   6.217   5.246   0.775
 2947SOL    HW2 9741   6.265   5.191   0.628
 2948SOL     OW 9742   0.291   3.761   1.812
 2948SOL    HW1 9743   0.288   3.794   1.906
 2948SOL    HW2 9744   0.373   3.797   1.767
 2949SOL     OW 9745   1.959   6.319   0.480
 2949SOL    HW1 9746   1.920   6.394   0.533
 2949SOL    HW2 9747   2.042   6.350   0.435
 2950SOL     OW 9748   6.004   5.970   2.319
 2950SOL    HW1 9749   6.055   6.002   2.399
 2950SOL    HW2 9750   6.037   6.018   2.238
 2951SOL     OW 9751   1.144   1.803   1.365
 2951SOL    HW1 9752   1.204   1.725   1.386
 2951SOL    HW2 9753   1.073   1.810   1.435
 2952SOL     OW 9754   0.125   2.025   5.222
 2952SOL    HW1 9755   0.124   2.105   5.162
 2952SOL    HW2 9756   0.218   1.989   5.229
 2953SOL     OW 9757   1.608   5.377   3.136
 2953SOL    HW1 9758   1.548   5.427   3.073
 2953SOL    HW2 9759   1.586   5.402   3.230
 2954SOL     OW 9760   0.656   4.610   6.192
 2954SOL    HW1 9761   0.637   4.514   6.176
 2954SOL    HW2 9762   0.691   4.623   6.285
 2955SOL     OW 9763   1.557   4.766   6.209
 2955SOL    HW1 9764   1.554   4.667   6.226
 2955SOL    HW2 9765   1.475   4.793   6.159
 2956SOL     OW 9766   5.459   4.310   4.337
 2956SOL    HW1 9767   5.435   4.360   4.254
 2956SOL    HW2 9768   5.422   4.357   4.417
 2957SOL     OW 9769   2.251   5.572   1.730
 2957SOL    HW1 9770   2.278   5.646   1.792
 2957SOL    HW2 9771   2.298   5.488   1.755
 2958SOL     OW 9772   1.773   3.957   1.875
 2958SOL    HW1 9773   1.758   3.874   1.929
 2958SOL    HW2 9774   1.701   4.023   1.894
 2959SOL     OW 9775   0.321   3.563   3.972
 2959SOL    HW1 9776   0.270   3.625   3.912
 2959SOL    HW2 9777   0.259   3.496   4.012
 2960SOL     OW 9778   4.947   6.371   1.362
 2960SOL    HW1 9779   4.854   6.393   1.392
 2960SOL    HW2 9780   4.946   6.345   1.266
 2961SOL     OW 9781   5.575   2.253   1.809
 2961SOL    HW1 9782   5.492   2.304   1.788
 2961SOL    HW2 9783   5.654   2.315   1.809
 2962SOL     OW 9784   6.865   0.011   3.714
 2962SOL    HW1 9785   6.906   0.099   3.740
 2962SOL    HW2 9786   6.804   0.026   3.636
 2963SOL     OW 9787   1.481   0.549   5.160
 2963SOL    HW1 9788   1.512   0.612   5.232
 2963SOL    HW2 9789   1.496   0.592   5.070
 2964SOL     OW 9790   1.634   0.674   6.345
 2964SOL    HW1 9791   1.662   0.579   6.354
 2964SOL    HW2 9792   1.701   0.733   6.390
 2965SOL     OW 9793   5.975   0.414   6.195
 2965SOL    HW1 9794   5.946   0.330   6.150
 2965SOL    HW2 9795   6.055   0.396   6.251
 2966SOL     OW 9796   3.178   5.194   2.828
 2966SOL    HW1 9797   3.178   5.134   2.748
 2966SOL    HW2 9798   3.093   5.245   2.832
 2967SOL     OW 9799   6.161   6.831   5.129
 2967SOL    HW1 9800   6.091   6.820   5.200
 2967SOL    HW2 9801   6.124   6.800   5.041
 2968SOL     OW 9802   0.915   3.794   0.870
 2968SOL    HW1 9803   0.965   3.742   0.939
 2968SOL    HW2 9804   0.880   3.878   0.910
 2969SOL     OW 9805   4.525   2.572   4.894
 2969SOL    HW1 9806   4.543   2.498   4.959
 2969SOL    HW2 9807   4.431   2.564   4.859
 2970SOL     OW 9808   2.732   2.751   5.751
 2970SOL    HW1 9809   2.680   2.725   5.670
 2970SOL    HW2 9810   2.775   2.670   5.791
 2971SOL     OW 9811   4.851   3.267   6.815
 2971SOL    HW1 9812   4.941   3.304   6.836
 2971SOL    HW2 9813   4.814   3.220   6.895
 2972SOL     OW 9814   6.998   5.683   6.125
 2972SOL    HW1 9815   0.067   5.670   6.168
 2972SOL    HW2 9816   6.961   5.772   6.152
 2973SOL     OW 9817   5.673   1.001   4.398
 2973SOL    HW1 9818   5.671   1.034   4.492
 2973SOL    HW2 9819   5.624   0.914   4.392
 2974SOL     OW 9820   4.875   6.588   2.053
 2974SOL    HW1 9821   4.817   6.513   2.021
 2974SOL    HW2 9822   4.896   6.649   1.976
 2975SOL     OW 9823   6.492   3.595   4.720
 2975SOL    HW1 9824   6.554   3.673   4.716
 2975SOL    HW2 9825   6.435   3.602   4.802
 2976SOL     OW 9826   3.680   1.067   1.408
 2976SOL    HW1 9827   3.665   1.162   1.433
 2976SOL    HW2 9828   3.594   1.027   1.374
 2977SOL     OW 9829   1.223   0.599   1.762
 2977SOL    HW1 9830   1.301   0.613   1.701
 2977SOL    HW2 9831   1.138   0.614   1.712
 2978SOL     OW 9832   3.546   5.222   6.801
 2978SOL    HW1 9833   3.636   5.224   6.759
 2978SOL    HW2 9834   3.476   5.238   6.731
 2979SOL     OW 9835   2.800   1.062   4.949
 2979SOL    HW1 9836   2.724   1.102   4.898
 2979SOL    HW2 9837   2.860   1.134   4.982
 2980SOL     OW 9838   3.545   3.515   4.128
 2980SOL    HW1 9839   3.564   3.430   4.079
 2980SOL    HW2 9840   3.479   3.497   4.201
 2981SOL     OW 9841   2.515   1.282   1.316
 2981SOL    HW1 9842   2.433   1.294   1.372
 2981SOL    HW2 9843   2.590   1.335   1.354
 2982SOL     OW 9844   1.780   1.038   1.379
 2982SOL    HW1 9845   1.859   1.093   1.404
 2982SOL    HW2 9846   1.767   1.043   1.279
 2983SOL     OW 9847   6.423   3.600   5.850
 2983SOL    HW1 9848   6.412   3.699   5.848
 2983SOL    HW2 9849   6.500   3.576   5.909
 2984SOL     OW 9850   0.295   6.168   1.387
 2984SOL    HW1 9851   0.345   6.218   1.457
 2984SOL    HW2 9852   0.356   6.146   1.311
 2985SOL     OW 9853   6.061   0.480   6.628
 2985SOL    HW1 9854   6.099   0.570   6.648
 2985SOL    HW2 9855   6.081   0.456   6.533
 2986SOL     OW 9856   3.612   3.321   1.988
 2986SOL    HW1 9857   3.614   3.243   2.050
 2986SOL    HW2 9858   3.690   3.317   1.926
 2987SOL     OW 9859   2.482   5.635   4.667
 2987SOL    HW1 9860   2.543   5.573   4.716
 2987SOL    HW2 9861   2.533   5.715   4.635
 2988SOL     OW 9862   6.799   2.016   5.704
 2988SOL    HW1 9863   6.746   2.089   5.748
 2988SOL    HW2 9864   6.823   1.947   5.773
 2989SOL     OW 9865   5.802   3.682   4.749
 2989SOL    HW1 9866   5.774   3.636   4.665
 2989SOL    HW2 9867   5.725   3.686   4.812
 2990SOL     OW 9868   5.689   1.882   5.261
 2990SOL    HW1 9869   5.778   1.924   5.240
 2990SOL    HW2 9870   5.629   1.951   5.300
 2991SOL     OW 9871   0.005   3.095   0.208
 2991SOL    HW1 9872   6.975   3.085   0.122
 2991SOL    HW2 9873   6.961   3.095   0.284
 2992SOL     OW 9874   0.702   3.971   5.048
 2992SOL    HW1 9875   0.653   3.901   4.996
 2992SOL    HW2 9876   0.639   4.046   5.070
 2993SOL     OW 9877   3.242   4.715   1.153
 2993SOL    HW1 9878   3.157   4.683   1.195
 2993SOL    HW2 9879   3.298   4.762   1.222
 2994SOL     OW 9880   3.198   5.141   4.484
 2994SOL    HW1 9881   3.105   5.177   4.473
 2994SOL    HW2 9882   3.195   5.042   4.492
 2995SOL     OW 9883   4.453   0.688   1.861
 2995SOL    HW1 9884   4.541   0.646   1.882
 2995SOL    HW2 9885   4.451   0.716   1.765
 2996SOL     OW 9886   6.802   1.228   4.295
 2996SOL    HW1 9887   6.703   1.233   4.285
 2996SOL    HW2 9888   6.832   1.133   4.280
 2997SOL     OW 9889   4.955   6.074   3.993
 2997SOL    HW1 9890   4.937   6.145   4.061
 2997SOL    HW2 9891   5.008   6.000   4.035
 2998SOL     OW 9892   2.483   0.700   1.765
 2998SOL    HW1 9893   2.400   0.723   1.816
 2998SOL    HW2 9894   2.470   0.613   1.718
 2999SOL     OW 9895   2.114   4.275   0.806
 2999SOL    HW1 9896   2.202   4.322   0.814
 2999SOL    HW2 9897   2.128   4.176   0.806
 3000SOL     OW 9898   1.960   4.317   5.294
 3000SOL    HW1 9899   1.944   4.416   5.296
 3000SOL    HW2 9900   1.996   4.290   5.204
 3001SOL     OW 9901   4.133   0.696   6.603
 3001SOL    HW1 9902   4.200   0.748   6.550
 3001SOL    HW2 9903   4.041   0.719   6.572
 3002SOL     OW 9904   1.580   1.889   2.001
 3002SOL    HW1 9905   1.642   1.859   2.074
 3002SOL    HW2 9906   1.487   1.896   2.038
 3003SOL     OW 9907   1.729   5.962   0.844
 3003SOL    HW1 9908   1.762   6.028   0.776
 3003SOL    HW2 9909   1.644   5.996   0.885
 3004SOL     OW 9910   2.889   6.669   3.778
 3004SOL    HW1 9911   2.845   6.612   3.708
 3004SOL    HW2 9912   2.920   6.754   3.737
 3005SOL     OW 9913   2.664   1.718   0.862
 3005SOL    HW1 9914   2.652   1.803   0.913
 3005SOL    HW2 9915   2.636   1.640   0.919
 3006SOL     OW 9916   5.667   1.539   5.831
 3006SOL    HW1 9917   5.664   1.499   5.922
 3006SOL    HW2 9918   5.712   1.475   5.768
 3007SOL     OW 9919   6.084   5.426   6.332
 3007SOL    HW1 9920   6.029   5.345   6.311
 3007SOL    HW2 9921   6.170   5.421   6.281
 3008SOL     OW 9922   4.698   4.064   5.727
 3008SOL    HW1 9923   4.671   4.133   5.659
 3008SOL    HW2 9924   4.713   3.976   5.681
 3009SOL     OW 9925   5.661   3.289   2.058
 3009SOL    HW1 9926   5.572   3.310   2.019
 3009SOL    HW2 9927   5.704   3.373   2.091
 3010SOL     OW 9928   4.773   4.763   1.816
 3010SOL    HW1 9929   4.715   4.710   1.878
 3010SOL    HW2 9930   4.864   4.774   1.857
 3011SOL     OW 9931   5.880   0.163   0.597
 3011SOL    HW1 9932   5.837   0.110   0.524
 3011SOL    HW2 9933   5.828   0.247   0.612
 3012SOL     OW 9934   1.740   1.648   4.534
 3012SOL    HW1 9935   1.750   1.638   4.634
 3012SOL    HW2 9936   1.649   1.619   4.507
 3013SOL     OW 9937   0.906   4.879   5.683
 3013SOL    HW1 9938   0.898   4.782   5.659
 3013SOL    HW2 9939   0.920   4.887   5.782
 3014SOL     OW 9940   4.864   0.235   6.636
 3014SOL    HW1 9941   4.847   0.240   6.735
 3014SOL    HW2 9942   4.904   0.320   6.604
 3015SOL     OW 9943   2.416   0.593   5.887
 3015SOL    HW1 9944   2.405   0.675   5.831
 3015SOL    HW2 9945   2.421   0.513   5.827
 3016SOL     OW 9946   2.159   0.507   4.071
 3016SOL    HW1 9947   2.070   0.461   4.064
 3016SOL    HW2 9948   2.145   0.604   4.092
 3017SOL     OW 9949   1.378   5.800   0.606
 3017SOL    HW1 9950   1.293   5.762   0.570
 3017SOL    HW2 9951   1.413   5.741   0.678
 3018SOL     OW 9952   3.256   1.846   1.975
 3018SOL    HW1 9953   3.220   1.937   1.995
 3018SOL    HW2 9954   3.354   1.843   1.996
 3019SOL     OW 9955   1.728   0.056   5.823
 3019SOL    HW1 9956   1.694   0.147   5.848
 3019SOL    HW2 9957   1.770   0.060   5.732
 3020SOL     OW 9958   5.180   4.680   6.768
 3020SOL    HW1 9959   5.104   4.639   6.717
 3020SOL    HW2 9960   5.145   4.718   6.853
 3021SOL     OW 9961   4.725   0.174   4.460
 3021SOL    HW1 9962   4.648   0.121   4.495
 3021SOL    HW2 9963   4.806   0.115   4.454
 3022SOL     OW 9964   4.116   6.344   4.147
 3022SOL    HW1 9965   4.149   6.394   4.067
 3022SOL    HW2 9966   4.172   6.262   4.160
 3023SOL     OW 9967   5.680   4.545   5.066
 3023SOL    HW1 9968   5.583   4.546   5.041
 3023SOL    HW2 9969   5.690   4.532   5.164
 3024SOL     OW 9970   0.382   0.887   0.126
 3024SOL    HW1 9971   0.339   0.814   0.073
 3024SOL    HW2 9972   0.321   0.917   0.199
 3025SOL     OW 9973   4.170   5.253   0.684
 3025SOL    HW1 9974   4.232   5.238   0.761
 3025SOL    HW2 9975   4.076   5.237   0.713
 3026SOL     OW 9976   0.566   0.468   2.234
 3026SOL    HW1 9977   0.604   0.387   2.278
 3026SOL    HW2 9978   0.589   0.550   2.288
 3027SOL     OW 9979   4.261   6.849   0.663
 3027SOL    HW1 9980   4.352   6.870   0.627
 3027SOL    HW2 9981   4.263   6.851   0.763
 3028SOL     OW 9982   3.800   3.567   4.235
 3028SOL    HW1 9983   3.733   3.519   4.178
 3028SOL    HW2 9984   3.767   3.659   4.256
 3029SOL     OW 9985   6.692   3.454   4.956
 3029SOL    HW1 9986   6.715   3.362   4.924
 3029SOL    HW2 9987   6.604   3.451   5.004
 3030SOL     OW 9988   1.400   2.769   6.726
 3030SOL    HW1 9989   1.350   2.856   6.734
 3030SOL    HW2 9990   1.498   2.786   6.728
 3031SOL     OW 9991   0.574   5.518   0.917
 3031SOL    HW1 9992   0.608   5.606   0.883
 3031SOL    HW2 9993   0.634   5.445   0.885
 3032SOL     OW 9994   2.440   6.727   3.645
 3032SOL    HW1 9995   2.366   6.794   3.651
 3032SOL    HW2 9996   2.509   6.760   3.581
 3033SOL     OW 9997   1.536   1.469   6.100
 3033SOL    HW1 9998   1.598   1.407   6.149
 3033SOL    HW2 9999   1.568   1.563   6.111
 3034SOL     OW10000   5.253   3.186   3.296
 3034SOL    HW110001   5.335   3.130   3.286
 3034SOL    HW210002   5.249   3.252   3.220
 3035SOL     OW10003   0.097   3.511   6.789
 3035SOL    HW110004   0.124   3.603   6.816
 3035SOL    HW210005   0.085   3.507   6.690
 3036SOL     OW10006   3.482   2.799   5.557
 3036SOL    HW110007   3.446   2.749   5.478
 3036SOL    HW210008   3.407   2.840   5.608
 3037SOL     OW10009   1.012   5.108   6.831
 3037SOL    HW110010   1.073   5.030   6.842
 3037SOL    HW210011   0.923   5.077   6.798
 3038SOL     OW10012   5.800   5.259   6.262
 3038SOL    HW110013   5.893   5.222   6.258
 3038SOL    HW210014   5.802   5.358   6.248
 3039SOL     OW10015   5.538   3.960   5.890
 3039SOL    HW110016   5.630   3.935   5.861
 3039SOL    HW210017   5.501   4.030   5.829
 3040SOL     OW10018   4.486   6.109   5.867
 3040SOL    HW110019   4.404   6.164   5.883
 3040SOL    HW210020   4.537   6.147   5.789
 3041SOL     OW10021   1.383   5.177   6.076
 3041SOL    HW110022   1.350   5.267   6.101
 3041SOL    HW210023   1.467   5.157   6.126
 3042SOL     OW10024   0.180   4.685   3.871
 3042SOL    HW110025   0.141   4.694   3.780
 3042SOL    HW210026   0.184   4.775   3.914
 3043SOL     OW10027   2.965   4.491   1.581
 3043SOL    HW110028   2.916   4.477   1.668
 3043SOL    HW210029   3.051   4.539   1.598
 3044SOL     OW10030   3.859   3.408   4.484
 3044SOL    HW110031   3.932   3.345   4.456
 3044SOL    HW210032   3.829   3.462   4.406
 3045SOL     OW10033   5.385   1.334   2.168
 3045SOL    HW110034   5.485   1.335   2.166
 3045SOL    HW210035   5.353   1.296   2.256
 3046SOL     OW10036   5.924   6.444   1.567
 3046SOL    HW110037   5.926   6.517   1.499
 3046SOL    HW210038   5.834   6.439   1.609
 3047SOL     OW10039   6.252   1.435   4.319
 3047SOL    HW110040   6.163   1.391   4.311
 3047SOL    HW210041   6.324   1.372   4.288
 3048SOL     OW10042   4.441   4.841   1.885
 3048SOL    HW110043   4.496   4.801   1.958
 3048SOL    HW210044   4.469   4.803   1.796
 3049SOL     OW10045   0.951   1.996   2.373
 3049SOL    HW110046   0.895   2.029   2.449
 3049SOL    HW210047   0.990   1.907   2.396
 3050SOL     OW10048   3.085   2.423   6.181
 3050SOL    HW110049   3.167   2.461   6.223
 3050SOL    HW210050   3.056   2.341   6.232
 3051SOL     OW10051   2.582   5.115   5.903
 3051SOL    HW110052   2.654   5.046   5.896
 3051SOL    HW210053   2.493   5.070   5.901
 3052SOL     OW10054   7.007   6.659   3.910
 3052SOL    HW110055   6.976   6.664   3.815
 3052SOL    HW210056   6.927   6.658   3.971
 3053SOL     OW10057   0.691   4.262   6.981
 3053SOL    HW110058   0.668   4.342   6.926
 3053SOL    HW210059   0.711   4.185   6.920
 3054SOL     OW10060   5.561   0.020   2.632
 3054SOL    HW110061   5.591   0.076   2.555
 3054SOL    HW210062   5.638   0.002   2.693
 3055SOL     OW10063   5.538   6.279   0.553
 3055SOL    HW110064   5.632   6.290   0.584
 3055SOL    HW210065   5.495   6.369   0.545
 3056SOL     OW10066   4.293   1.544   0.010
 3056SOL    HW110067   4.390   1.535   7.006
 3056SOL    HW210068   4.286   1.582   0.103
 3057SOL     OW10069   5.812   3.951   3.322
 3057SOL    HW110070   5.906   3.969   3.349
 3057SOL    HW210071   5.793   3.854   3.330
 3058SOL     OW10072   0.208   5.602   6.286
 3058SOL    HW110073   0.226   5.542   6.363
 3058SOL    HW210074   0.253   5.567   6.204
 3059SOL     OW10075   1.418   2.456   2.043
 3059SOL    HW110076   1.450   2.418   1.957
 3059SOL    HW210077   1.437   2.392   2.117
 3060SOL     OW10078   5.485   4.212   3.917
 3060SOL    HW110079   5.501   4.134   3.977
 3060SOL    HW210080   5.387   4.218   3.896
 3061SOL     OW10081   5.497   6.969   3.386
 3061SOL    HW110082   5.531   6.877   3.404
 3061SOL    HW210083   5.493   0.000   3.472
 3062SOL     OW10084   4.043   5.062   1.423
 3062SOL    HW110085   4.006   5.145   1.382
 3062SOL    HW210086   3.968   5.000   1.446
 3063SOL     OW10087   6.657   4.866   1.381
 3063SOL    HW110088   6.717   4.788   1.359
 3063SOL    HW210089   6.654   4.878   1.480
 3064SOL     OW10090   4.574   2.226   6.560
 3064SOL    HW110091   4.578   2.126   6.565
 3064SOL    HW210092   4.632   2.265   6.631
 3065SOL     OW10093   5.889   1.229   6.280
 3065SOL    HW110094   5.883   1.130   6.292
 3065SOL    HW210095   5.858   1.274   6.363
 3066SOL     OW10096   5.351   0.116   5.412
 3066SOL    HW110097   5.436   0.089   5.457
 3066SOL    HW210098   5.316   0.200   5.454
 3067SOL     OW10099   1.342   1.848   4.606
 3067SOL    HW110100   1.411   1.849   4.533
 3067SOL    HW210101   1.377   1.797   4.685
 3068SOL     OW10102   6.149   0.162   0.478
 3068SOL    HW110103   6.206   0.210   0.545
 3068SOL    HW210104   6.053   0.174   0.501
 3069SOL     OW10105   5.436   6.332   4.153
 3069SOL    HW110106   5.362   6.333   4.220
 3069SOL    HW210107   5.416   6.398   4.080
 3070SOL     OW10108   2.450   1.156   1.081
 3070SOL    HW110109   2.534   1.151   1.026
 3070SOL    HW210110   2.463   1.221   1.156
 3071SOL     OW10111   6.005   4.631   5.126
 3071SOL    HW110112   5.911   4.597   5.130
 3071SOL    HW210113   6.004   4.730   5.110
 3072SOL     OW10114   1.849   6.598   6.037
 3072SOL    HW110115   1.949   6.589   6.030
 3072SOL    HW210116   1.818   6.676   5.983
 3073SOL     OW10117   6.983   5.963   2.328
 3073SOL    HW110118   0.009   6.010   2.253
 3073SOL    HW210119   6.996   5.865   2.319
 3074SOL     OW10120   3.315   2.696   1.759
 3074SOL    HW110121   3.276   2.616   1.713
 3074SOL    HW210122   3.242   2.758   1.786
 3075SOL     OW10123   4.072   5.147   1.764
 3075SOL    HW110124   3.975   5.173   1.764
 3075SOL    HW210125   4.088   5.078   1.693
 3076SOL     OW10126   0.950   1.333   4.352
 3076SOL    HW110127   0.860   1.372   4.334
 3076SOL    HW210128   0.945   1.233   4.344
 3077SOL     OW10129   6.675   3.476   1.552
 3077SOL    HW110130   6.698   3.572   1.567
 3077SOL    HW210131   6.627   3.440   1.632
 3078SOL     OW10132   0.098   3.830   2.254
 3078SOL    HW110133   0.081   3.748   2.308
 3078SOL    HW210134   0.012   3.878   2.238
 3079SOL     OW10135   1.681   4.398   4.172
 3079SOL    HW110136   1.780   4.392   4.180
 3079SOL    HW210137   1.640   4.308   4.188
 3080SOL     OW10138   4.374   5.057   1.637
 3080SOL    HW110139   4.463   5.063   1.683
 3080SOL    HW210140   4.377   4.985   1.567
 3081SOL     OW10141   2.432   3.722   5.927
 3081SOL    HW110142   2.426   3.730   6.027
 3081SOL    HW210143   2.341   3.700   5.891
 3082SOL     OW10144   5.120   4.254   4.977
 3082SOL    HW110145   5.119   4.253   5.077
 3082SOL    HW210146   5.043   4.308   4.944
 3083SOL     OW10147   3.736   5.666   2.022
 3083SOL    HW110148   3.832   5.648   2.000
 3083SOL    HW210149   3.688   5.699   1.941
 3084SOL     OW10150   6.816   5.544   3.619
 3084SOL    HW110151   6.860   5.632   3.603
 3084SOL    HW210152   6.775   5.511   3.534
 3085SOL     OW10153   5.764   5.281   0.148
 3085SOL    HW110154   5.694   5.221   0.188
 3085SOL    HW210155   5.833   5.226   0.101
 3086SOL     OW10156   6.207   6.084   6.496
 3086SOL    HW110157   6.133   6.047   6.552
 3086SOL    HW210158   6.209   6.183   6.506
 3087SOL     OW10159   3.237   6.921   2.503
 3087SOL    HW110160   3.333   6.903   2.480
 3087SOL    HW210161   3.232   6.955   2.597
 3088SOL     OW10162   2.105   3.821   5.511
 3088SOL    HW110163   2.121   3.911   5.551
 3088SOL    HW210164   2.159   3.752   5.559
 3089SOL     OW10165   4.189   5.531   5.932
 3089SOL    HW110166   4.204   5.570   5.841
 3089SOL    HW210167   4.161   5.604   5.995
 3090SOL     OW10168   0.601   2.647   2.198
 3090SOL    HW110169   0.599   2.675   2.102
 3090SOL    HW210170   0.576   2.725   2.256
 3091SOL     OW10171   1.066   2.700   0.417
 3091SOL    HW110172   0.988   2.693   0.354
 3091SOL    HW210173   1.115   2.613   0.420
 3092SOL     OW10174   6.170   1.349   2.191
 3092SOL    HW110175   6.141   1.350   2.286
 3092SOL    HW210176   6.109   1.290   2.138
 3093SOL     OW10177   6.287   5.135   6.550
 3093SOL    HW110178   6.257   5.150   6.644
 3093SOL    HW210179   6.272   5.039   6.526
 3094SOL     OW10180   2.190   1.390   6.523
 3094SOL    HW110181   2.129   1.436   6.459
 3094SOL    HW210182   2.176   1.291   6.517
 3095SOL     OW10183   1.470   3.916   4.875
 3095SOL    HW110184   1.375   3.890   4.888
 3095SOL    HW210185   1.529   3.852   4.926
 3096SOL     OW10186   1.462   3.676   3.904
 3096SOL    HW110187   1.507   3.697   3.991
 3096SOL    HW210188   1.364   3.663   3.920
 3097SOL     OW10189   5.538   3.057   5.037
 3097SOL    HW110190   5.561   2.973   5.086
 3097SOL    HW210191   5.618   3.087   4.984
 3098SOL     OW10192   1.903   3.157   2.548
 3098SOL    HW110193   1.872   3.241   2.505
 3098SOL    HW210194   1.841   3.082   2.523
 3099SOL     OW10195   0.611   7.002   5.316
 3099SOL    HW110196   0.641   6.923   5.370
 3099SOL    HW210197   0.593   0.059   5.378
 3100SOL     OW10198   5.568   4.781   1.765
 3100SOL    HW110199   5.612   4.820   1.684
 3100SOL    HW210200   5.487   4.729   1.737
 3101SOL     OW10201   4.984   0.150   5.068
 3101SOL    HW110202   4.932   0.172   4.986
 3101SOL    HW210203   5.025   0.233   5.105
 3102SOL     OW10204   5.855   4.699   2.289
 3102SOL    HW110205   5.848   4.797   2.272
 3102SOL    HW210206   5.858   4.651   2.201
 3103SOL     OW10207   2.023   2.237   1.630
 3103SOL    HW110208   2.043   2.333   1.611
 3103SOL    HW210209   2.109   2.186   1.639
 3104SOL     OW10210   5.446   2.451   5.104
 3104SOL    HW110211   5.401   2.371   5.144
 3104SOL    HW210212   5.532   2.469   5.153
 3105SOL     OW10213   5.284   3.839   0.474
 3105SOL    HW110214   5.383   3.827   0.468
 3105SOL    HW210215   5.250   3.871   0.385
 3106SOL     OW10216   5.376   1.645   5.339
 3106SOL    HW110217   5.308   1.598   5.395
 3106SOL    HW210218   5.358   1.628   5.242
 3107SOL     OW10219   3.457   2.086   5.114
 3107SOL    HW110220   3.425   2.144   5.188
 3107SOL    HW210221   3.538   2.128   5.071
 3108SOL     OW10222   2.154   3.870   3.461
 3108SOL    HW110223   2.070   3.816   3.471
 3108SOL    HW210224   2.176   3.882   3.365
 3109SOL     OW10225   6.776   6.369   3.379
 3109SOL    HW110226   6.724   6.284   3.373
 3109SOL    HW210227   6.837   6.377   3.300
 3110SOL     OW10228   1.022   5.397   3.704
 3110SOL    HW110229   1.066   5.325   3.650
 3110SOL    HW210230   0.943   5.359   3.753
 3111SOL     OW10231   6.042   4.023   3.882
 3111SOL    HW110232   6.057   4.098   3.818
 3111SOL    HW210233   5.947   3.994   3.877
 3112SOL     OW10234   4.225   0.855   0.188
 3112SOL    HW110235   4.186   0.890   0.103
 3112SOL    HW210236   4.256   0.931   0.246
 3113SOL     OW10237   1.514   6.913   3.599
 3113SOL    HW110238   1.418   6.928   3.622
 3113SOL    HW210239   1.520   6.868   3.510
 3114SOL     OW10240   4.687   6.637   5.908
 3114SOL    HW110241   4.745   6.589   5.842
 3114SOL    HW210242   4.669   6.579   5.987
 3115SOL     OW10243   4.947   5.495   4.960
 3115SOL    HW110244   4.997   5.573   4.998
 3115SOL    HW210245   5.012   5.433   4.916
 3116SOL     OW10246   0.782   1.282   6.233
 3116SOL    HW110247   0.849   1.315   6.167
 3116SOL    HW210248   0.826   1.262   6.320
 3117SOL     OW10249   4.286   0.064   1.331
 3117SOL    HW110250   4.347   0.033   1.259
 3117SOL    HW210251   4.191   0.055   1.301
 3118SOL     OW10252   1.395   1.878   3.601
 3118SOL    HW110253   1.426   1.886   3.696
 3118SOL    HW210254   1.433   1.954   3.548
 3119SOL     OW10255   5.124   5.697   4.305
 3119SOL    HW110256   5.196   5.710   4.373
 3119SOL    HW210257   5.116   5.780   4.249
 3120SOL     OW10258   2.460   5.126   6.632
 3120SOL    HW110259   2.523   5.071   6.687
 3120SOL    HW210260   2.512   5.196   6.582
 3121SOL     OW10261   4.326   2.343   4.313
 3121SOL    HW110262   4.244   2.331   4.370
 3121SOL    HW210263   4.300   2.337   4.216
 3122SOL     OW10264   5.613   5.024   6.070
 3122SOL    HW110265   5.596   5.110   6.022
 3122SOL    HW210266   5.710   5.016   6.092
 3123SOL     OW10267   1.846   1.761   2.967
 3123SOL    HW110268   1.821   1.793   3.058
 3123SOL    HW210269   1.911   1.825   2.926
 3124SOL     OW10270   4.405   0.094   5.164
 3124SOL    HW110271   4.488   0.130   5.122
 3124SOL    HW210272   4.335   0.081   5.093
 3125SOL     OW10273   1.763   1.404   5.898
 3125SOL    HW110274   1.674   1.376   5.861
 3125SOL    HW210275   1.812   1.456   5.828
 3126SOL     OW10276   4.817   4.588   5.759
 3126SOL    HW110277   4.882   4.644   5.810
 3126SOL    HW210278   4.754   4.545   5.823
 3127SOL     OW10279   6.969   1.712   5.046
 3127SOL    HW110280   6.985   1.620   5.083
 3127SOL    HW210281   6.995   1.780   5.114
 3128SOL     OW10282   3.235   0.080   0.489
 3128SOL    HW110283   3.328   0.077   0.525
 3128SOL    HW210284   3.170   0.048   0.558
 3129SOL     OW10285   4.344   4.125   0.146
 3129SOL    HW110286   4.360   4.199   0.211
 3129SOL    HW210287   4.334   4.038   0.195
 3130SOL     OW10288   0.445   5.978   2.351
 3130SOL    HW110289   0.539   5.996   2.322
 3130SOL    HW210290   0.419   6.044   2.422
 3131SOL     OW10291   6.632   4.143   3.205
 3131SOL    HW110292   6.581   4.059   3.226
 3131SOL    HW210293   6.687   4.169   3.284
 3132SOL     OW10294   4.908   3.876   0.230
 3132SOL    HW110295   4.873   3.923   0.149
 3132SOL    HW210296   5.007   3.872   0.226
 3133SOL     OW10297   5.328   0.098   4.327
 3133SOL    HW110298   5.308   0.000   4.313
 3133SOL    HW210299   5.427   0.112   4.329
 3134SOL     OW10300   5.672   4.810   2.627
 3134SOL    HW110301   5.606   4.809   2.702
 3134SOL    HW210302   5.764   4.822   2.664
 3135SOL     OW10303   3.546   5.941   6.836
 3135SOL    HW110304   3.480   5.933   6.911
 3135SOL    HW210305   3.632   5.977   6.871
 3136SOL     OW10306   6.017   0.489   3.222
 3136SOL    HW110307   5.921   0.510   3.208
 3136SOL    HW210308   6.070   0.521   3.144
 3137SOL     OW10309   4.274   5.681   7.000
 3137SOL    HW110310   4.229   5.682   6.911
 3137SOL    HW210311   4.275   5.773   0.018
 3138SOL     OW10312   6.495   6.334   5.413
 3138SOL    HW110313   6.515   6.430   5.434
 3138SOL    HW210314   6.397   6.318   5.424
 3139SOL     OW10315   2.120   5.080   1.376
 3139SOL    HW110316   2.182   5.040   1.309
 3139SOL    HW210317   2.122   5.025   1.460
 3140SOL     OW10318   6.471   5.790   0.014
 3140SOL    HW110319   6.448   5.793   0.112
 3140SOL    HW210320   6.532   5.713   7.017
 3141SOL     OW10321   6.033   1.676   6.505
 3141SOL    HW110322   5.939   1.704   6.523
 3141SOL    HW210323   6.084   1.671   6.591
 3142SOL     OW10324   4.602   0.769   3.802
 3142SOL    HW110325   4.518   0.810   3.840
 3142SOL    HW210326   4.680   0.793   3.860
 3143SOL     OW10327   6.757   1.595   1.213
 3143SOL    HW110328   6.661   1.609   1.236
 3143SOL    HW210329   6.766   1.585   1.114
 3144SOL     OW10330   3.591   4.407   0.308
 3144SOL    HW110331   3.596   4.410   0.407
 3144SOL    HW210332   3.518   4.466   0.276
 3145SOL     OW10333   0.523   5.620   0.047
 3145SOL    HW110334   0.615   5.659   0.036
 3145SOL    HW210335   0.460   5.669   7.007
 3146SOL     OW10336   6.749   1.996   4.584
 3146SOL    HW110337   6.722   2.047   4.666
 3146SOL    HW210338   6.675   1.936   4.556
 3147SOL     OW10339   4.104   6.992   0.118
 3147SOL    HW110340   4.095   0.068   0.145
 3147SOL    HW210341   4.168   6.946   0.180
 3148SOL     OW10342   6.917   4.776   1.654
 3148SOL    HW110343   6.823   4.809   1.644
 3148SOL    HW210344   6.915   4.678   1.674
 3149SOL     OW10345   3.681   2.931   0.078
 3149SOL    HW110346   3.733   2.981   0.009
 3149SOL    HW210347   3.632   2.996   0.136
 3150SOL     OW10348   6.817   0.063   6.118
 3150SOL    HW110349   6.739   0.045   6.178
 3150SOL    HW210350   6.784   0.081   6.026
 3151SOL     OW10351   0.007   0.794   5.332
 3151SOL    HW110352   6.991   0.804   5.425
 3151SOL    HW210353   0.037   0.884   5.298
 3152SOL     OW10354   2.047   2.378   5.780
 3152SOL    HW110355   2.038   2.306   5.849
 3152SOL    HW210356   2.008   2.463   5.814
 3153SOL     OW10357   5.306   5.602   1.932
 3153SOL    HW110358   5.286   5.698   1.953
 3153SOL    HW210359   5.350   5.559   2.011
 3154SOL     OW10360   4.048   1.829   0.636
 3154SOL    HW110361   4.090   1.839   0.545
 3154SOL    HW210362   4.029   1.733   0.653
 3155SOL     OW10363   0.705   4.936   6.895
 3155SOL    HW110364   0.625   4.997   6.892
 3155SOL    HW210365   0.718   4.904   6.989
 3156SOL     OW10366   4.519   4.595   0.984
 3156SOL    HW110367   4.466   4.645   0.916
 3156SOL    HW210368   4.544   4.505   0.948
 3157SOL     OW10369   1.186   0.912   4.860
 3157SOL    HW110370   1.185   1.009   4.881
 3157SOL    HW210371   1.115   0.865   4.913
 3158SOL     OW10372   2.225   0.809   5.721
 3158SOL    HW110373   2.255   0.903   5.734
 3158SOL    HW210374   2.292   0.761   5.664
 3159SOL     OW10375   4.883   0.262   1.226
 3159SOL    HW110376   4.869   0.165   1.248
 3159SOL    HW210377   4.822   0.288   1.152
 3160SOL     OW10378   1.820   0.930   5.444
 3160SOL    HW110379   1.898   0.963   5.390
 3160SOL    HW210380   1.736   0.941   5.391
 3161SOL     OW10381   1.692   2.993   2.085
 3161SOL    HW110382   1.630   2.991   2.162
 3161SOL    HW210383   1.730   2.902   2.069
 3162SOL     OW10384   1.319   5.690   1.750
 3162SOL    HW110385   1.293   5.744   1.830
 3162SOL    HW210386   1.267   5.720   1.670
 3163SOL     OW10387   4.694   4.302   0.305
 3163SOL    HW110388   4.633   4.292   0.227
 3163SOL    HW210389   4.713   4.399   0.320
 3164SOL     OW10390   2.256   6.860   4.560
 3164SOL    HW110391   2.326   6.791   4.541
 3164SOL    HW210392   2.279   6.945   4.513
 3165SOL     OW10393   1.230   5.971   6.011
 3165SOL    HW110394   1.172   5.944   5.935
 3165SOL    HW210395   1.218   6.069   6.029
 3166SOL     OW10396   4.429   1.409   5.209
 3166SOL    HW110397   4.387   1.327   5.250
 3166SOL    HW210398   4.359   1.462   5.162
 3167SOL     OW10399   5.934   3.116   1.292
 3167SOL    HW110400   5.845   3.154   1.315
 3167SOL    HW210401   6.006   3.181   1.319
 3168SOL     OW10402   4.722   1.281   0.402
 3168SOL    HW110403   4.802   1.340   0.407
 3168SOL    HW210404   4.737   1.209   0.334
 3169SOL     OW10405   1.429   3.843   1.812
 3169SOL    HW110406   1.412   3.778   1.886
 3169SOL    HW210407   1.342   3.881   1.780
 3170SOL     OW10408   2.251   4.091   3.691
 3170SOL    HW110409   2.304   4.007   3.689
 3170SOL    HW210410   2.169   4.080   3.634
 3171SOL     OW10411   5.378   1.725   4.458
 3171SOL    HW110412   5.443   1.799   4.470
 3171SOL    HW210413   5.312   1.749   4.386
 3172SOL     OW10414   5.627   4.484   1.503
 3172SOL    HW110415   5.613   4.528   1.414
 3172SOL    HW210416   5.556   4.514   1.566
 3173SOL     OW10417   4.977   2.362   0.422
 3173SOL    HW110418   4.887   2.325   0.445
 3173SOL    HW210419   5.044   2.289   0.419
 3174SOL     OW10420   3.481   2.518   6.456
 3174SOL    HW110421   3.500   2.420   6.448
 3174SOL    HW210422   3.383   2.534   6.440
 3175SOL     OW10423   5.562   0.019   5.550
 3175SOL    HW110424   5.541   6.942   5.541
 3175SOL    HW210425   5.646   0.030   5.603
 3176SOL     OW10426   0.001   5.097   3.580
 3176SOL    HW110427   0.097   5.093   3.609
 3176SOL    HW210428   6.963   5.108   3.661
 3177SOL     OW10429   5.336   3.043   3.822
 3177SOL    HW110430   5.259   3.087   3.869
 3177SOL    HW210431   5.301   2.983   3.751
 3178SOL     OW10432   0.709   0.722   2.166
 3178SOL    HW110433   0.643   0.657   2.129
 3178SOL    HW210434   0.663   0.809   2.185
 3179SOL     OW10435   0.804   2.469   2.173
 3179SOL    HW110436   0.718   2.518   2.189
 3179SOL    HW210437   0.878   2.514   2.222
 3180SOL     OW10438   0.258   6.328   6.751
 3180SOL    HW110439   0.240   6.412   6.804
 3180SOL    HW210440   0.338   6.282   6.790
 3181SOL     OW10441   0.865   6.361   5.677
 3181SOL    HW110442   0.863   6.285   5.612
 3181SOL    HW210443   0.790   6.424   5.656
 3182SOL     OW10444   2.017   0.209   1.092
 3182SOL    HW110445   1.997   0.270   1.169
 3182SOL    HW210446   2.062   0.127   1.126
 3183SOL     OW10447   4.274   3.246   0.904
 3183SOL    HW110448   4.218   3.320   0.867
 3183SOL    HW210449   4.231   3.209   0.986
 3184SOL     OW10450   6.442   1.686   4.277
 3184SOL    HW110451   6.380   1.614   4.310
 3184SOL    HW210452   6.534   1.668   4.312
 3185SOL     OW10453   0.874   5.991   6.766
 3185SOL    HW110454   0.895   6.037   6.680
 3185SOL    HW210455   0.959   5.967   6.813
 3186SOL     OW10456   0.128   2.737   6.651
 3186SOL    HW110457   0.192   2.813   6.645
 3186SOL    HW210458   0.175   2.657   6.688
 3187SOL     OW10459   5.412   6.791   2.544
 3187SOL    HW110460   5.444   6.885   2.559
 3187SOL    HW210461   5.384   6.752   2.631
 3188SOL     OW10462   1.880   6.535   0.614
 3188SOL    HW110463   1.876   6.635   0.605
 3188SOL    HW210464   1.860   6.509   0.708
 3189SOL     OW10465   3.141   1.600   5.749
 3189SOL    HW110466   3.159   1.698   5.738
 3189SOL    HW210467   3.073   1.587   5.821
 3190SOL     OW10468   5.969   6.325   4.527
 3190SOL    HW110469   6.050   6.378   4.549
 3190SOL    HW210470   5.888   6.385   4.527
 3191SOL     OW10471   3.755   5.593   1.705
 3191SOL    HW110472   3.659   5.617   1.690
 3191SOL    HW210473   3.783   5.526   1.636
 3192SOL     OW10474   5.530   0.980   2.852
 3192SOL    HW110475   5.463   1.018   2.916
 3192SOL    HW210476   5.517   0.881   2.845
 3193SOL     OW10477   3.248   6.193   4.787
 3193SOL    HW110478   3.248   6.287   4.754
 3193SOL    HW210479   3.343   6.159   4.792
 3194SOL     OW10480   1.593   0.165   6.493
 3194SOL    HW110481   1.667   0.099   6.502
 3194SOL    HW210482   1.511   0.119   6.460
 3195SOL     OW10483   1.073   0.653   1.115
 3195SOL    HW110484   1.153   0.686   1.064
 3195SOL    HW210485   1.068   0.699   1.203
 3196SOL     OW10486   5.803   6.962   2.780
 3196SOL    HW110487   5.849   6.996   2.862
 3196SOL    HW210488   5.869   6.913   2.723
 3197SOL     OW10489   2.591   0.534   6.107
 3197SOL    HW110490   2.545   0.514   6.021
 3197SOL    HW210491   2.576   0.459   6.172
 3198SOL     OW10492   5.756   2.435   3.765
 3198SOL    HW110493   5.788   2.522   3.727
 3198SOL    HW210494   5.733   2.447   3.862
 3199SOL     OW10495   4.960   3.593   3.082
 3199SOL    HW110496   4.937   3.532   3.158
 3199SOL    HW210497   5.054   3.577   3.053
 3200SOL     OW10498   5.692   3.432   4.215
 3200SOL    HW110499   5.737   3.518   4.192
 3200SOL    HW210500   5.725   3.360   4.155
 3201SOL     OW10501   6.052   3.987   2.191
 3201SOL    HW110502   5.969   3.942   2.225
 3201SOL    HW210503   6.117   3.998   2.265
 3202SOL     OW10504   2.705   3.386   6.647
 3202SOL    HW110505   2.771   3.374   6.573
 3202SOL    HW210506   2.617   3.415   6.610
 3203SOL     OW10507   3.308   6.391   1.908
 3203SOL    HW110508   3.213   6.403   1.881
 3203SOL    HW210509   3.348   6.479   1.931
 3204SOL     OW10510   3.805   0.906   4.276
 3204SOL    HW110511   3.734   0.891   4.207
 3204SOL    HW210512   3.886   0.945   4.232
 3205SOL     OW10513   4.967   3.194   5.940
 3205SOL    HW110514   4.966   3.120   5.873
 3205SOL    HW210515   4.877   3.238   5.943
 3206SOL     OW10516   2.590   4.224   1.370
 3206SOL    HW110517   2.625   4.315   1.394
 3206SOL    HW210518   2.591   4.165   1.451
 3207SOL     OW10519   2.114   5.293   4.492
 3207SOL    HW110520   2.209   5.323   4.499
 3207SOL    HW210521   2.092   5.232   4.568
 3208SOL     OW10522   6.262   4.861   6.480
 3208SOL    HW110523   6.358   4.836   6.488
 3208SOL    HW210524   6.237   4.868   6.383
 3209SOL     OW10525   5.255   6.741   6.436
 3209SOL    HW110526   5.263   6.642   6.448
 3209SOL    HW210527   5.332   6.774   6.381
 3210SOL     OW10528   5.063   5.778   1.764
 3210SOL    HW110529   5.104   5.789   1.854
 3210SOL    HW210530   5.037   5.682   1.751
 3211SOL     OW10531   1.865   6.414   6.306
 3211SOL    HW110532   1.780   6.460   6.281
 3211SOL    HW210533   1.909   6.377   6.224
 3212SOL     OW10534   2.786   6.565   3.553
 3212SOL    HW110535   2.712   6.561   3.487
 3212SOL    HW210536   2.864   6.614   3.513
 3213SOL     OW10537   1.061   6.606   6.248
 3213SOL    HW110538   0.974   6.628   6.293
 3213SOL    HW210539   1.131   6.589   6.317
 3214SOL     OW10540   4.151   0.516   2.615
 3214SOL    HW110541   4.153   0.524   2.516
 3214SOL    HW210542   4.124   0.603   2.656
 3215SOL     OW10543   2.046   3.128   1.621
 3215SOL    HW110544   2.108   3.050   1.617
 3215SOL    HW210545   2.069   3.186   1.699
 3216SOL     OW10546   5.834   4.717   1.276
 3216SOL    HW110547   5.925   4.681   1.296
 3216SOL    HW210548   5.831   4.814   1.298
 3217SOL     OW10549   0.101   5.900   2.588
 3217SOL    HW110550   0.173   5.838   2.558
 3217SOL    HW210551   0.032   5.909   2.515
 3218SOL     OW10552   5.712   1.251   2.674
 3218SOL    HW110553   5.773   1.326   2.647
 3218SOL    HW210554   5.705   1.185   2.599
 3219SOL     OW10555   6.359   1.837   4.811
 3219SOL    HW110556   6.411   1.752   4.799
 3219SOL    HW210557   6.262   1.816   4.824
 3220SOL     OW10558   0.057   4.298   5.750
 3220SOL    HW110559   0.108   4.366   5.697
 3220SOL    HW210560   6.984   4.332   5.767
 3221SOL     OW10561   3.543   1.825   2.096
 3221SOL    HW110562   3.502   1.734   2.106
 3221SOL    HW210563   3.596   1.846   2.178
 3222SOL     OW10564   3.278   1.127   3.304
 3222SOL    HW110565   3.332   1.054   3.261
 3222SOL    HW210566   3.242   1.188   3.234
 3223SOL     OW10567   1.433   5.153   0.274
 3223SOL    HW110568   1.357   5.204   0.233
 3223SOL    HW210569   1.398   5.072   0.320
 3224SOL     OW10570   4.429   1.880   4.271
 3224SOL    HW110571   4.496   1.813   4.304
 3224SOL    HW210572   4.337   1.842   4.278
 3225SOL     OW10573   4.556   1.332   4.827
 3225SOL    HW110574   4.653   1.310   4.833
 3225SOL    HW210575   4.502   1.248   4.830
 3226SOL     OW10576   6.083   0.750   0.565
 3226SOL    HW110577   6.029   0.823   0.608
 3226SOL    HW210578   6.057   0.742   0.469
 3227SOL     OW10579   5.745   4.500   5.323
 3227SOL    HW110580   5.705   4.418   5.366
 3227SOL    HW210581   5.789   4.556   5.393
 3228SOL     OW10582   2.838   4.267   0.574
 3228SOL    HW110583   2.741   4.258   0.594
 3228SOL    HW210584   2.880   4.332   0.637
 3229SOL     OW10585   1.810   1.889   0.625
 3229SOL    HW110586   1.889   1.855   0.573
 3229SOL    HW210587   1.842   1.951   0.696
 3230SOL     OW10588   3.230   6.117   5.485
 3230SOL    HW110589   3.190   6.164   5.406
 3230SOL    HW210590   3.171   6.131   5.565
 3231SOL     OW10591   1.984   2.278   3.083
 3231SOL    HW110592   2.015   2.231   3.166
 3231SOL    HW210593   1.933   2.361   3.109
 3232SOL     OW10594   3.605   4.893   4.031
 3232SOL    HW110595   3.668   4.816   4.019
 3232SOL    HW210596   3.558   4.911   3.945
 3233SOL     OW10597   1.513   0.188   0.103
 3233SOL    HW110598   1.487   0.154   0.012
 3233SOL    HW210599   1.509   0.288   0.103
 3234SOL     OW10600   2.865   3.409   0.714
 3234SOL    HW110601   2.873   3.478   0.642
 3234SOL    HW210602   2.870   3.318   0.673
 3235SOL     OW10603   0.629   0.654   3.178
 3235SOL    HW110604   0.677   0.566   3.176
 3235SOL    HW210605   0.601   0.674   3.272
 3236SOL     OW10606   4.686   0.864   0.374
 3236SOL    HW110607   4.749   0.790   0.351
 3236SOL    HW210608   4.706   0.897   0.467
 3237SOL     OW10609   5.910   1.535   5.389
 3237SOL    HW110610   5.819   1.558   5.355
 3237SOL    HW210611   5.917   1.560   5.486
 3238SOL     OW10612   6.340   4.657   1.609
 3238SOL    HW110613   6.247   4.630   1.632
 3238SOL    HW210614   6.358   4.640   1.512
 3239SOL     OW10615   0.074   0.469   4.977
 3239SOL    HW110616   0.022   0.547   5.011
 3239SOL    HW210617   0.037   0.441   4.888
 3240SOL     OW10618   6.882   0.820   0.132
 3240SOL    HW110619   6.919   0.830   0.224
 3240SOL    HW210620   6.783   0.813   0.136
 3241SOL     OW10621   6.639   2.979   5.555
 3241SOL    HW110622   6.606   3.049   5.492
 3241SOL    HW210623   6.635   3.013   5.649
 3242SOL     OW10624   6.692   3.788   4.702
 3242SOL    HW110625   6.743   3.813   4.620
 3242SOL    HW210626   6.755   3.747   4.769
 3243SOL     OW10627   5.796   4.644   3.986
 3243SOL    HW110628   5.830   4.608   4.073
 3243SOL    HW210629   5.866   4.701   3.944
 3244SOL     OW10630   5.024   6.598   0.518
 3244SOL    HW110631   5.054   6.589   0.423
 3244SOL    HW210632   5.103   6.591   0.579
 3245SOL     OW10633   3.581   6.762   5.007
 3245SOL    HW110634   3.549   6.697   4.938
 3245SOL    HW210635   3.541   6.737   5.096
 3246SOL     OW10636   6.738   0.104   2.775
 3246SOL    HW110637   6.749   0.165   2.697
 3246SOL    HW210638   6.800   0.026   2.766
 3247SOL     OW10639   1.189   4.329   3.464
 3247SOL    HW110640   1.157   4.283   3.547
 3247SOL    HW210641   1.216   4.261   3.396
 3248SOL     OW10642   5.240   2.410   3.563
 3248SOL    HW110643   5.197   2.321   3.549
 3248SOL    HW210644   5.326   2.397   3.614
 3249SOL     OW10645   3.093   3.091   3.493
 3249SOL    HW110646   3.113   3.077   3.396
 3249SOL    HW210647   3.124   3.011   3.545
 3250SOL     OW10648   4.636   5.734   2.986
 3250SOL    HW110649   4.621   5.770   2.894
 3250SOL    HW210650   4.563   5.767   3.047
 3251SOL     OW10651   3.003   2.125   2.564
 3251SOL    HW110652   3.100   2.115   2.588
 3251SOL    HW210653   2.947   2.082   2.635
 3252SOL     OW10654   1.852   1.420   3.285
 3252SOL    HW110655   1.808   1.461   3.205
 3252SOL    HW210656   1.909   1.488   3.330
 3253SOL     OW10657   6.237   2.931   0.030
 3253SOL    HW110658   6.155   2.981   7.020
 3253SOL    HW210659   6.310   2.943   6.984
 3254SOL     OW10660   6.565   6.696   1.457
 3254SOL    HW110661   6.520   6.648   1.533
 3254SOL    HW210662   6.505   6.768   1.422
 3255SOL     OW10663   3.970   6.193   1.870
 3255SOL    HW110664   4.064   6.190   1.838
 3255SOL    HW210665   3.939   6.099   1.889
 3256SOL     OW10666   5.057   2.662   1.029
 3256SOL    HW110667   5.019   2.619   1.111
 3256SOL    HW210668   5.154   2.683   1.044
 3257SOL     OW10669   2.860   1.629   3.064
 3257SOL    HW110670   2.880   1.719   3.101
 3257SOL    HW210671   2.816   1.573   3.134
 3258SOL     OW10672   1.472   5.421   4.465
 3258SOL    HW110673   1.543   5.400   4.397
 3258SOL    HW210674   1.388   5.372   4.442
 3259SOL     OW10675   5.506   3.747   4.213
 3259SOL    HW110676   5.421   3.693   4.215
 3259SOL    HW210677   5.525   3.781   4.305
 3260SOL     OW10678   1.516   4.796   3.309
 3260SOL    HW110679   1.556   4.713   3.272
 3260SOL    HW210680   1.452   4.835   3.242
 3261SOL     OW10681   5.661   0.046   4.442
 3261SOL    HW110682   5.744   0.083   4.400
 3261SOL    HW210683   5.649   0.088   4.532
 3262SOL     OW10684   2.947   1.626   3.539
 3262SOL    HW110685   2.888   1.598   3.615
 3262SOL    HW210686   2.965   1.548   3.480
 3263SOL     OW10687   6.822   0.985   1.817
 3263SOL    HW110688   6.877   0.963   1.736
 3263SOL    HW210689   6.879   1.029   1.886
 3264SOL     OW10690   1.749   4.971   6.662
 3264SOL    HW110691   1.760   5.060   6.706
 3264SOL    HW210692   1.672   4.922   6.702
 3265SOL     OW10693   0.096   5.558   6.592
 3265SOL    HW110694   0.037   5.487   6.553
 3265SOL    HW210695   0.192   5.537   6.571
 3266SOL     OW10696   3.590   4.912   5.922
 3266SOL    HW110697   3.528   4.847   5.966
 3266SOL    HW210698   3.679   4.909   5.968
 3267SOL     OW10699   4.017   6.674   0.675
 3267SOL    HW110700   4.066   6.747   0.629
 3267SOL    HW210701   4.082   6.602   0.702
 3268SOL     OW10702   5.775   5.146   1.806
 3268SOL    HW110703   5.764   5.081   1.881
 3268SOL    HW210704   5.779   5.239   1.843
 3269SOL     OW10705   1.527   4.948   1.759
 3269SOL    HW110706   1.450   4.886   1.775
 3269SOL    HW210707   1.494   5.033   1.717
 3270SOL     OW10708   0.823   2.874   5.701
 3270SOL    HW110709   0.886   2.951   5.700
 3270SOL    HW210710   0.857   2.804   5.764
 3271SOL     OW10711   0.904   3.823   1.196
 3271SOL    HW110712   0.939   3.730   1.191
 3271SOL    HW210713   0.924   3.862   1.286
 3272SOL     OW10714   4.425   5.878   0.609
 3272SOL    HW110715   4.443   5.960   0.662
 3272SOL    HW210716   4.331   5.880   0.574
 3273SOL     OW10717   4.065   3.896   6.536
 3273SOL    HW110718   3.982   3.886   6.591
 3273SOL    HW210719   4.064   3.828   6.463
 3274SOL     OW10720   5.397   0.000   1.904
 3274SOL    HW110721   5.393   0.093   1.868
 3274SOL    HW210722   5.492   6.998   1.927
 3275SOL     OW10723   4.885   0.500   1.687
 3275SOL    HW110724   4.806   0.528   1.740
 3275SOL    HW210725   4.946   0.444   1.744
 3276SOL     OW10726   5.682   6.238   6.943
 3276SOL    HW110727   5.722   6.148   6.965
 3276SOL    HW210728   5.742   6.310   6.978
 3277SOL     OW10729   3.044   1.819   2.414
 3277SOL    HW110730   3.087   1.891   2.360
 3277SOL    HW210731   2.948   1.809   2.388
 3278SOL     OW10732   5.650   0.744   6.284
 3278SOL    HW110733   5.702   0.670   6.328
 3278SOL    HW210734   5.565   0.760   6.335
 3279SOL     OW10735   3.645   0.228   1.480
 3279SOL    HW110736   3.576   0.186   1.420
 3279SOL    HW210737   3.712   0.159   1.506
 3280SOL     OW10738   6.639   3.345   4.264
 3280SOL    HW110739   6.546   3.380   4.277
 3280SOL    HW210740   6.703   3.399   4.318
 3281SOL     OW10741   6.356   2.677   1.507
 3281SOL    HW110742   6.434   2.733   1.478
 3281SOL    HW210743   6.335   2.610   1.436
 3282SOL     OW10744   0.283   4.990   5.213
 3282SOL    HW110745   0.280   5.058   5.286
 3282SOL    HW210746   0.311   5.034   5.128
 3283SOL     OW10747   3.311   2.302   7.002
 3283SOL    HW110748   3.383   2.274   0.045
 3283SOL    HW210749   3.329   2.395   6.969
 3284SOL     OW10750   1.999   6.845   4.716
 3284SOL    HW110751   1.935   6.769   4.706
 3284SOL    HW210752   2.070   6.839   4.646
 3285SOL     OW10753   3.571   2.124   4.475
 3285SOL    HW110754   3.501   2.095   4.410
 3285SOL    HW210755   3.551   2.085   4.565
 3286SOL     OW10756   1.547   2.581   2.881
 3286SOL    HW110757   1.578   2.505   2.823
 3286SOL    HW210758   1.494   2.645   2.826
 3287SOL     OW10759   2.482   0.287   0.633
 3287SOL    HW110760   2.471   0.226   0.712
 3287SOL    HW210761   2.400   0.284   0.576
 3288SOL     OW10762   2.274   5.723   1.984
 3288SOL    HW110763   2.182   5.742   2.019
 3288SOL    HW210764   2.342   5.767   2.043
 3289SOL     OW10765   4.525   0.544   6.682
 3289SOL    HW110766   4.458   0.586   6.742
 3289SOL    HW210767   4.538   0.448   6.709
 3290SOL     OW10768   0.493   5.649   0.555
 3290SOL    HW110769   0.394   5.644   0.539
 3290SOL    HW210770   0.530   5.556   0.556
 3291SOL     OW10771   5.190   6.676   5.276
 3291SOL    HW110772   5.220   6.615   5.203
 3291SOL    HW210773   5.233   6.765   5.265
 3292SOL     OW10774   0.177   2.122   0.401
 3292SOL    HW110775   0.092   2.174   0.417
 3292SOL    HW210776   0.183   2.098   0.305
 3293SOL     OW10777   6.177   5.104   3.323
 3293SOL    HW110778   6.144   5.197   3.336
 3293SOL    HW210779   6.163   5.076   3.228
 3294SOL     OW10780   5.079   2.777   5.178
 3294SOL    HW110781   5.013   2.791   5.105
 3294SOL    HW210782   5.166   2.746   5.139
 3295SOL     OW10783   0.812   2.351   2.507
 3295SOL    HW110784   0.753   2.366   2.428
 3295SOL    HW210785   0.907   2.342   2.478
 3296SOL     OW10786   1.901   0.990   5.792
 3296SOL    HW110787   1.941   0.909   5.749
 3296SOL    HW210788   1.869   0.966   5.884
 3297SOL     OW10789   3.919   0.845   5.405
 3297SOL    HW110790   3.847   0.899   5.448
 3297SOL    HW210791   3.909   0.849   5.306
 3298SOL     OW10792   4.195   3.727   5.743
 3298SOL    HW110793   4.145   3.686   5.667
 3298SOL    HW210794   4.151   3.701   5.829
 3299SOL     OW10795   2.370   5.657   4.003
 3299SOL    HW110796   2.348   5.706   4.088
 3299SOL    HW210797   2.398   5.563   4.026
 3300SOL     OW10798   2.408   0.469   3.767
 3300SOL    HW110799   2.396   0.565   3.791
 3300SOL    HW210800   2.479   0.429   3.825
 3301SOL     OW10801   1.081   1.316   3.313
 3301SOL    HW110802   0.992   1.318   3.359
 3301SOL    HW210803   1.108   1.408   3.287
 3302SOL     OW10804   1.334   5.053   5.216
 3302SOL    HW110805   1.430   5.033   5.197
 3302SOL    HW210806   1.287   5.072   5.130
 3303SOL     OW10807   3.369   3.430   6.950
 3303SOL    HW110808   3.371   3.378   0.016
 3303SOL    HW210809   3.399   3.524   6.967
 3304SOL     OW10810   1.944   4.263   0.147
 3304SOL    HW110811   1.845   4.275   0.148
 3304SOL    HW210812   1.970   4.189   0.209
 3305SOL     OW10813   3.292   2.633   0.505
 3305SOL    HW110814   3.236   2.704   0.463
 3305SOL    HW210815   3.339   2.580   0.434
 3306SOL     OW10816   2.413   0.393   6.898
 3306SOL    HW110817   2.409   0.446   6.983
 3306SOL    HW210818   2.509   0.375   6.875
 3307SOL     OW10819   1.709   6.060   4.742
 3307SOL    HW110820   1.702   6.000   4.662
 3307SOL    HW210821   1.650   6.025   4.815
 3308SOL     OW10822   4.158   4.572   1.419
 3308SOL    HW110823   4.087   4.641   1.433
 3308SOL    HW210824   4.123   4.500   1.358
 3309SOL     OW10825   5.285   3.348   3.082
 3309SOL    HW110826   5.233   3.307   3.007
 3309SOL    HW210827   5.269   3.446   3.084
 3310SOL     OW10828   6.321   4.795   6.221
 3310SOL    HW110829   6.376   4.765   6.299
 3310SOL    HW210830   6.268   4.718   6.186
 3311SOL     OW10831   2.358   3.857   6.930
 3311SOL    HW110832   2.352   3.956   6.918
 3311SOL    HW210833   2.321   3.833   7.020
 3312SOL     OW10834   4.749   2.796   6.648
 3312SOL    HW110835   4.669   2.750   6.610
 3312SOL    HW210836   4.832   2.746   6.622
 3313SOL     OW10837   0.020   0.570   4.265
 3313SOL    HW110838   0.119   0.583   4.252
 3313SOL    HW210839   7.004   0.641   4.324
 3314SOL     OW10840   3.919   5.682   2.692
 3314SOL    HW110841   3.846   5.717   2.751
 3314SOL    HW210842   4.005   5.727   2.716
 3315SOL     OW10843   0.667   5.546   4.538
 3315SOL    HW110844   0.720   5.599   4.472
 3315SOL    HW210845   0.728   5.490   4.594
 3316SOL     OW10846   4.565   2.195   6.926
 3316SOL    HW110847   4.540   2.216   0.000
 3316SOL    HW210848   4.565   2.278   6.871
 3317SOL     OW10849   5.071   2.765   2.059
 3317SOL    HW110850   5.046   2.670   2.076
 3317SOL    HW210851   4.993   2.813   2.018
 3318SOL     OW10852   2.969   3.091   0.675
 3318SOL    HW110853   2.870   3.078   0.669
 3318SOL    HW210854   3.013   3.003   0.690
 3319SOL     OW10855   6.867   5.842   3.892
 3319SOL    HW110856   6.906   5.788   3.817
 3319SOL    HW210857   6.880   5.939   3.874
 3320SOL     OW10858   5.978   6.122   1.969
 3320SOL    HW110859   5.990   6.038   1.916
 3320SOL    HW210860   6.042   6.124   2.046
 3321SOL     OW10861   4.836   2.132   0.196
 3321SOL    HW110862   4.808   2.040   0.223
 3321SOL    HW210863   4.932   2.146   0.223
 3322SOL     OW10864   6.101   2.996   0.733
 3322SOL    HW110865   6.137   2.948   0.653
 3322SOL    HW210866   6.079   2.928   0.804
 3323SOL     OW10867   1.750   1.893   1.505
 3323SOL    HW110868   1.768   1.990   1.520
 3323SOL    HW210869   1.714   1.851   1.588
 3324SOL     OW10870   5.312   5.668   5.362
 3324SOL    HW110871   5.345   5.575   5.347
 3324SOL    HW210872   5.379   5.719   5.417
 3325SOL     OW10873   2.508   4.698   5.233
 3325SOL    HW110874   2.559   4.628   5.184
 3325SOL    HW210875   2.423   4.718   5.185
 3326SOL     OW10876   3.537   1.950   2.777
 3326SOL    HW110877   3.453   1.981   2.732
 3326SOL    HW210878   3.553   1.854   2.754
 3327SOL     OW10879   0.688   5.592   6.163
 3327SOL    HW110880   0.728   5.506   6.128
 3327SOL    HW210881   0.693   5.662   6.092
 3328SOL     OW10882   4.728   2.670   5.393
 3328SOL    HW110883   4.694   2.764   5.388
 3328SOL    HW210884   4.748   2.647   5.488
 3329SOL     OW10885   6.502   5.919   5.804
 3329SOL    HW110886   6.602   5.910   5.803
 3329SOL    HW210887   6.463   5.837   5.847
 3330SOL     OW10888   6.939   3.656   3.160
 3330SOL    HW110889   7.019   3.706   3.128
 3330SOL    HW210890   6.969   3.576   3.212
 3331SOL     OW10891   2.337   3.543   0.059
 3331SOL    HW110892   2.253   3.597   0.059
 3331SOL    HW210893   2.353   3.508   6.986
 3332SOL     OW10894   6.671   4.198   1.522
 3332SOL    HW110895   6.741   4.210   1.593
 3332SOL    HW210896   6.590   4.250   1.547
 3333SOL     OW10897   3.518   5.285   6.475
 3333SOL    HW110898   3.433   5.261   6.521
 3333SOL    HW210899   3.582   5.208   6.481
 3334SOL     OW10900   1.930   3.598   1.716
 3334SOL    HW110901   1.918   3.627   1.811
 3334SOL    HW210902   2.026   3.610   1.690
 3335SOL     OW10903   6.038   4.245   4.772
 3335SOL    HW110904   5.953   4.276   4.815
 3335SOL    HW210905   6.109   4.314   4.785
 3336SOL     OW10906   3.037   5.587   6.220
 3336SOL    HW110907   3.123   5.633   6.243
 3336SOL    HW210908   2.992   5.637   6.146
 3337SOL     OW10909   3.668   1.936   0.945
 3337SOL    HW110910   3.718   1.938   1.031
 3337SOL    HW210911   3.586   1.994   0.953
 3338SOL     OW10912   6.737   4.486   0.597
 3338SOL    HW110913   6.739   4.423   0.675
 3338SOL    HW210914   6.656   4.465   0.540
 3339SOL     OW10915   0.687   5.916   6.488
 3339SOL    HW110916   0.738   5.988   6.536
 3339SOL    HW210917   0.600   5.902   6.534
 3340SOL     OW10918   3.918   0.144   2.096
 3340SOL    HW110919   3.933   0.066   2.157
 3340SOL    HW210920   3.972   0.132   2.013
 3341SOL     OW10921   0.728   6.858   1.572
 3341SOL    HW110922   0.684   6.849   1.661
 3341SOL    HW210923   0.715   6.951   1.537
 3342SOL     OW10924   2.490   0.606   5.025
 3342SOL    HW110925   2.539   0.682   5.067
 3342SOL    HW210926   2.537   0.580   4.940
 3343SOL     OW10927   6.579   2.435   1.369
 3343SOL    HW110928   6.639   2.386   1.305
 3343SOL    HW210929   6.620   2.524   1.390
 3344SOL     OW10930   6.848   3.297   6.036
 3344SOL    HW110931   6.867   3.321   5.940
 3344SOL    HW210932   6.849   3.197   6.046
 3345SOL     OW10933   2.863   3.200   5.957
 3345SOL    HW110934   2.829   3.212   5.864
 3345SOL    HW210935   2.931   3.271   5.977
 3346SOL     OW10936   1.691   5.654   2.602
 3346SOL    HW110937   1.770   5.596   2.617
 3346SOL    HW210938   1.708   5.715   2.524
 3347SOL     OW10939   6.303   3.890   4.602
 3347SOL    HW110940   6.276   3.800   4.569
 3347SOL    HW210941   6.222   3.949   4.609
 3348SOL     OW10942   3.830   3.941   2.839
 3348SOL    HW110943   3.749   3.984   2.800
 3348SOL    HW210944   3.895   3.919   2.766
 3349SOL     OW10945   6.052   3.945   6.089
 3349SOL    HW110946   5.997   3.862   6.093
 3349SOL    HW210947   6.149   3.921   6.094
 3350SOL     OW10948   1.651   2.185   0.612
 3350SOL    HW110949   1.691   2.155   0.526
 3350SOL    HW210950   1.718   2.238   0.664
 3351SOL     OW10951   5.469   2.188   0.503
 3351SOL    HW110952   5.511   2.263   0.555
 3351SOL    HW210953   5.541   2.130   0.466
 3352SOL     OW10954   0.511   3.302   0.195
 3352SOL    HW110955   0.411   3.301   0.199
 3352SOL    HW210956   0.546   3.375   0.253
 3353SOL     OW10957   1.641   6.549   6.195
 3353SOL    HW110958   1.716   6.586   6.138
 3353SOL    HW210959   1.588   6.484   6.141
 3354SOL     OW10960   1.543   1.211   2.167
 3354SOL    HW110961   1.478   1.282   2.193
 3354SOL    HW210962   1.517   1.124   2.209
 3355SOL     OW10963   6.916   1.479   2.917
 3355SOL    HW110964   6.921   1.490   3.017
 3355SOL    HW210965   6.902   1.382   2.896
 3356SOL     OW10966   2.186   3.768   5.777
 3356SOL    HW110967   2.106   3.727   5.822
 3356SOL    HW210968   2.175   3.867   5.775
 3357SOL     OW10969   2.147   5.243   2.216
 3357SOL    HW110970   2.176   5.305   2.143
 3357SOL    HW210971   2.227   5.196   2.254
 3358SOL     OW10972   6.709   4.445   3.082
 3358SOL    HW110973   6.718   4.507   3.160
 3358SOL    HW210974   6.687   4.353   3.115
 3359SOL     OW10975   1.274   1.079   2.031
 3359SOL    HW110976   1.253   1.103   1.937
 3359SOL    HW210977   1.333   1.149   2.071
 3360SOL     OW10978   1.568   0.546   6.070
 3360SOL    HW110979   1.605   0.633   6.036
 3360SOL    HW210980   1.572   0.545   6.170
 3361SOL     OW10981   4.616   0.506   3.049
 3361SOL    HW110982   4.564   0.432   3.007
 3361SOL    HW210983   4.681   0.468   3.115
 3362SOL     OW10984   2.198   1.262   5.648
 3362SOL    HW110985   2.221   1.184   5.707
 3362SOL    HW210986   2.259   1.338   5.667
 3363SOL     OW10987   0.222   1.711   6.403
 3363SOL    HW110988   0.181   1.671   6.321
 3363SOL    HW210989   0.258   1.637   6.460
 3364SOL     OW10990   1.903   4.546   6.293
 3364SOL    HW110991   1.993   4.533   6.250
 3364SOL    HW210992   1.886   4.644   6.305
 3365SOL     OW10993   5.958   1.977   5.191
 3365SOL    HW110994   6.021   1.922   5.246
 3365SOL    HW210995   5.985   2.073   5.197
 3366SOL     OW10996   5.303   1.383   6.374
 3366SOL    HW110997   5.325   1.462   6.317
 3366SOL    HW210998   5.359   1.385   6.457
 3367SOL     OW10999   1.598   0.228   2.136
 3367SOL    HW111000   1.659   0.268   2.204
 3367SOL    HW211001   1.518   0.286   2.124
 3368SOL     OW11002   6.443   0.699   5.876
 3368SOL    HW111003   6.353   0.737   5.856
 3368SOL    HW211004   6.506   0.721   5.801
 3369SOL     OW11005   3.724   6.348   5.784
 3369SOL    HW111006   3.749   6.361   5.688
 3369SOL    HW211007   3.708   6.437   5.826
 3370SOL     OW11008   4.674   0.143   4.865
 3370SOL    HW111009   4.590   0.117   4.818
 3370SOL    HW211010   4.740   0.068   4.860
 3371SOL     OW11011   6.912   5.034   1.345
 3371SOL    HW111012   6.831   4.975   1.342
 3371SOL    HW211013   6.994   4.980   1.326
 3372SOL     OW11014   0.547   2.041   2.746
 3372SOL    HW111015   0.640   2.034   2.710
 3372SOL    HW211016   0.550   2.032   2.846
 3373SOL     OW11017   0.700   2.140   5.906
 3373SOL    HW111018   0.637   2.201   5.953
 3373SOL    HW211019   0.790   2.144   5.949
 3374SOL     OW11020   3.679   5.297   5.423
 3374SOL    HW111021   3.774   5.311   5.393
 3374SOL    HW211022   3.629   5.383   5.414
 3375SOL     OW11023   4.097   3.869   4.956
 3375SOL    HW111024   4.158   3.939   4.919
 3375SOL    HW211025   4.033   3.840   4.884
 3376SOL     OW11026   3.020   3.417   2.037
 3376SOL    HW111027   3.083   3.483   2.078
 3376SOL    HW211028   2.937   3.410   2.094
 3377SOL     OW11029   2.878   5.617   5.485
 3377SOL    HW111030   2.890   5.589   5.389
 3377SOL    HW211031   2.944   5.570   5.542
 3378SOL     OW11032   0.756   0.968   1.202
 3378SOL    HW111033   0.696   0.946   1.279
 3378SOL    HW211034   0.756   0.891   1.138
 3379SOL     OW11035   0.913   4.847   6.647
 3379SOL    HW111036   0.856   4.784   6.701
 3379SOL    HW211037   0.904   4.824   6.550
 3380SOL     OW11038   0.896   3.947   5.932
 3380SOL    HW111039   0.812   3.902   5.962
 3380SOL    HW211040   0.891   3.966   5.834
 3381SOL     OW11041   3.452   3.232   0.850
 3381SOL    HW111042   3.361   3.271   0.847
 3381SOL    HW211043   3.510   3.286   0.912
 3382SOL     OW11044   6.550   6.584   7.000
 3382SOL    HW111045   6.458   6.564   6.968
 3382SOL    HW211046   6.595   6.646   6.936
 3383SOL     OW11047   0.180   4.295   2.831
 3383SOL    HW111048   0.259   4.236   2.814
 3383SOL    HW211049   0.134   4.315   2.745
 3384SOL     OW11050   3.469   2.890   4.489
 3384SOL    HW111051   3.390   2.946   4.515
 3384SOL    HW211052   3.456   2.855   4.396
 3385SOL     OW11053   6.340   3.874   3.457
 3385SOL    HW111054   6.408   3.913   3.519
 3385SOL    HW211055   6.385   3.844   3.373
 3386SOL     OW11056   6.205   3.906   5.064
 3386SOL    HW111057   6.132   3.885   4.999
 3386SOL    HW211058   6.165   3.938   5.150
 3387SOL     OW11059   2.978   1.876   3.158
 3387SOL    HW111060   3.045   1.941   3.193
 3387SOL    HW211061   2.895   1.925   3.130
 3388SOL     OW11062   5.256   2.800   2.255
 3388SOL    HW111063   5.313   2.882   2.255
 3388SOL    HW211064   5.203   2.797   2.170
 3389SOL     OW11065   5.020   4.674   3.100
 3389SOL    HW111066   5.005   4.582   3.062
 3389SOL    HW211067   4.932   4.717   3.118
 3390SOL     OW11068   4.932   2.748   5.971
 3390SOL    HW111069   4.954   2.823   5.909
 3390SOL    HW211070   4.922   2.783   6.065
 3391SOL     OW11071   3.675   2.170   4.149
 3391SOL    HW111072   3.625   2.255   4.169
 3391SOL    HW211073   3.665   2.149   4.052
 3392SOL     OW11074   4.768   6.286   3.645
 3392SOL    HW111075   4.862   6.260   3.624
 3392SOL    HW211076   4.712   6.203   3.656
 3393SOL     OW11077   6.526   0.641   0.250
 3393SOL    HW111078   6.476   0.645   0.336
 3393SOL    HW211079   6.551   0.734   0.222
 3394SOL     OW11080   5.706   1.484   1.234
 3394SOL    HW111081   5.631   1.418   1.240
 3394SOL    HW211082   5.687   1.561   1.295
 3395SOL     OW11083   1.196   3.580   4.913
 3395SOL    HW111084   1.241   3.523   4.844
 3395SOL    HW211085   1.257   3.590   4.992
 3396SOL     OW11086   0.079   3.915   4.392
 3396SOL    HW111087   0.066   4.007   4.429
 3396SOL    HW211088   0.128   3.921   4.305
 3397SOL     OW11089   2.963   6.264   5.813
 3397SOL    HW111090   2.873   6.224   5.832
 3397SOL    HW211091   3.012   6.278   5.899
 3398SOL     OW11092   0.053   0.144   4.309
 3398SOL    HW111093   0.022   0.167   4.217
 3398SOL    HW211094   0.019   0.212   4.374
 3399SOL     OW11095   4.440   5.187   4.535
 3399SOL    HW111096   4.459   5.280   4.566
 3399SOL    HW211097   4.345   5.164   4.557
 3400SOL     OW11098   4.394   2.432   6.485
 3400SOL    HW111099   4.460   2.367   6.523
 3400SOL    HW211100   4.321   2.447   6.551
 3401SOL     OW11101   6.256   4.710   0.004
 3401SOL    HW111102   6.191   4.634   0.003
 3401SOL    HW211103   6.248   4.762   6.939
 3402SOL     OW11104   4.796   5.636   2.428
 3402SOL    HW111105   4.719   5.622   2.365
 3402SOL    HW211106   4.818   5.549   2.473
 3403SOL     OW11107   2.782   1.804   5.098
 3403SOL    HW111108   2.859   1.845   5.048
 3403SOL    HW211109   2.756   1.865   5.173
 3404SOL     OW11110   4.521   0.737   0.945
 3404SOL    HW111111   4.609   0.693   0.963
 3404SOL    HW211112   4.488   0.781   1.028
 3405SOL     OW11113   5.903   3.701   0.821
 3405SOL    HW111114   5.931   3.615   0.780
 3405SOL    HW211115   5.923   3.701   0.919
 3406SOL     OW11116   1.348   4.506   1.841
 3406SOL    HW111117   1.423   4.518   1.906
 3406SOL    HW211118   1.333   4.408   1.825
 3407SOL     OW11119   1.050   5.207   2.377
 3407SOL    HW111120   1.091   5.264   2.448
 3407SOL    HW211121   1.026   5.263   2.298
 3408SOL     OW11122   5.237   3.633   3.000
 3408SOL    HW111123   5.216   3.638   2.902
 3408SOL    HW211124   5.280   3.718   3.030
 3409SOL     OW11125   3.006   0.728   5.415
 3409SOL    HW111126   3.099   0.694   5.401
 3409SOL    HW211127   3.006   0.828   5.407
 3410SOL     OW11128   6.738   0.401   6.952
 3410SOL    HW111129   6.642   0.376   6.940
 3410SOL    HW211130   6.752   0.437   0.025
 3411SOL     OW11131   4.966   2.489   2.061
 3411SOL    HW111132   5.028   2.454   2.131
 3411SOL    HW211133   4.905   2.415   2.030
 3412SOL     OW11134   3.860   4.542   6.926
 3412SOL    HW111135   3.855   4.464   6.864
 3412SOL    HW211136   3.954   4.574   6.932
 3413SOL     OW11137   4.119   2.245   2.601
 3413SOL    HW111138   4.071   2.251   2.689
 3413SOL    HW211139   4.052   2.240   2.527
 3414SOL     OW11140   3.620   1.896   5.765
 3414SOL    HW111141   3.665   1.970   5.716
 3414SOL    HW211142   3.655   1.892   5.859
 3415SOL     OW11143   0.077   5.181   4.202
 3415SOL    HW111144   0.076   5.087   4.168
 3415SOL    HW211145   0.067   5.244   4.124
 3416SOL     OW11146   1.955   4.773   5.418
 3416SOL    HW111147   2.039   4.803   5.375
 3416SOL    HW211148   1.962   4.784   5.517
 3417SOL     OW11149   5.656   0.284   2.050
 3417SOL    HW111150   5.643   0.332   1.964
 3417SOL    HW211151   5.576   0.299   2.109
 3418SOL     OW11152   3.056   1.300   6.408
 3418SOL    HW111153   3.094   1.210   6.430
 3418SOL    HW211154   3.120   1.371   6.437
 3419SOL     OW11155   4.589   3.923   0.257
 3419SOL    HW111156   4.627   3.975   0.333
 3419SOL    HW211157   4.507   3.873   0.288
 3420SOL     OW11158   4.076   2.234   4.387
 3420SOL    HW111159   3.994   2.254   4.441
 3420SOL    HW211160   4.049   2.206   4.295
 3421SOL     OW11161   0.335   6.304   4.309
 3421SOL    HW111162   0.402   6.247   4.358
 3421SOL    HW211163   0.366   6.399   4.310
 3422SOL     OW11164   3.425   1.573   2.095
 3422SOL    HW111165   3.339   1.532   2.127
 3422SOL    HW211166   3.468   1.512   2.028
 3423SOL     OW11167   2.835   0.935   1.145
 3423SOL    HW111168   2.905   0.864   1.155
 3423SOL    HW211169   2.796   0.931   1.053
 3424SOL     OW11170   3.811   1.237   2.769
 3424SOL    HW111171   3.788   1.333   2.752
 3424SOL    HW211172   3.883   1.232   2.838
 3425SOL     OW11173   4.450   4.551   1.962
 3425SOL    HW111174   4.416   4.569   1.870
 3425SOL    HW211175   4.461   4.452   1.976
 3426SOL     OW11176   4.534   3.531   0.526
 3426SOL    HW111177   4.438   3.506   0.535
 3426SOL    HW211178   4.545   3.630   0.536
 3427SOL     OW11179   0.361   1.998   0.203
 3427SOL    HW111180   0.448   2.008   0.251
 3427SOL    HW211181   0.328   1.904   0.213
 3428SOL     OW11182   4.510   4.426   3.400
 3428SOL    HW111183   4.496   4.366   3.479
 3428SOL    HW211184   4.608   4.447   3.391
 3429SOL     OW11185   0.518   3.319   6.702
 3429SOL    HW111186   0.422   3.293   6.707
 3429SOL    HW211187   0.526   3.419   6.700
 3430SOL     OW11188   1.089   6.301   0.241
 3430SOL    HW111189   1.039   6.388   0.247
 3430SOL    HW211190   1.052   6.247   0.165
 3431SOL     OW11191   0.775   6.262   0.377
 3431SOL    HW111192   0.735   6.250   0.286
 3431SOL    HW211193   0.805   6.173   0.413
 3432SOL     OW11194   3.041   1.900   6.655
 3432SOL    HW111195   3.007   1.885   6.562
 3432SOL    HW211196   3.092   1.986   6.659
 3433SOL     OW11197   3.930   0.830   5.131
 3433SOL    HW111198   4.004   0.762   5.130
 3433SOL    HW211199   3.849   0.792   5.088
 3434SOL     OW11200   4.358   1.835   2.918
 3434SOL    HW111201   4.408   1.794   2.841
 3434SOL    HW211202   4.419   1.899   2.966
 3435SOL     OW11203   0.601   1.046   0.116
 3435SOL    HW111204   0.686   0.998   0.095
 3435SOL    HW211205   0.525   0.982   0.110
 3436SOL     OW11206   4.118   6.896   3.329
 3436SOL    HW111207   4.052   6.877   3.257
 3436SOL    HW211208   4.089   6.853   3.414
 3437SOL     OW11209   3.819   0.099   6.154
 3437SOL    HW111210   3.888   0.065   6.091
 3437SOL    HW211211   3.729   0.094   6.110
 3438SOL     OW11212   1.627   3.743   6.668
 3438SOL    HW111213   1.575   3.678   6.613
 3438SOL    HW211214   1.674   3.808   6.608
 3439SOL     OW11215   3.010   5.741   3.501
 3439SOL    HW111216   3.012   5.790   3.588
 3439SOL    HW211217   3.054   5.652   3.512
 3440SOL     OW11218   4.599   1.818   0.739
 3440SOL    HW111219   4.651   1.755   0.797
 3440SOL    HW211220   4.502   1.813   0.764
 3441SOL     OW11221   3.118   0.257   4.014
 3441SOL    HW111222   3.135   0.270   4.111
 3441SOL    HW211223   3.186   0.308   3.961
 3442SOL     OW11224   1.963   4.733   3.238
 3442SOL    HW111225   2.018   4.813   3.263
 3442SOL    HW211226   1.885   4.762   3.183
 3443SOL     OW11227   6.003   0.716   3.954
 3443SOL    HW111228   5.971   0.627   3.986
 3443SOL    HW211229   5.965   0.735   3.863
 3444SOL     OW11230   4.358   5.382   0.418
 3444SOL    HW111231   4.331   5.295   0.378
 3444SOL    HW211232   4.341   5.456   0.353
 3445SOL     OW11233   6.309   4.283   4.650
 3445SOL    HW111234   6.362   4.256   4.730
 3445SOL    HW211235   6.355   4.357   4.602
 3446SOL     OW11236   3.496   6.495   2.886
 3446SOL    HW111237   3.498   6.559   2.809
 3446SOL    HW211238   3.413   6.512   2.940
 3447SOL     OW11239   5.672   4.994   6.402
 3447SOL    HW111240   5.608   5.063   6.369
 3447SOL    HW211241   5.660   4.910   6.350
 3448SOL     OW11242   3.695   2.305   1.039
 3448SOL    HW111243   3.703   2.319   0.940
 3448SOL    HW211244   3.784   2.313   1.081
 3449SOL     OW11245   5.882   6.357   3.754
 3449SOL    HW111246   5.873   6.441   3.807
 3449SOL    HW211247   5.905   6.379   3.659
 3450SOL     OW11248   1.354   1.637   1.491
 3450SOL    HW111249   1.357   1.736   1.504
 3450SOL    HW211250   1.447   1.601   1.488
 3451SOL     OW11251   0.888   5.085   4.346
 3451SOL    HW111252   0.868   5.140   4.427
 3451SOL    HW211253   0.808   5.085   4.286
 3452SOL     OW11254   6.194   1.760   6.827
 3452SOL    HW111255   6.223   1.752   6.922
 3452SOL    HW211256   6.128   1.835   6.818
 3453SOL     OW11257   5.864   5.566   5.659
 3453SOL    HW111258   5.805   5.619   5.719
 3453SOL    HW211259   5.892   5.482   5.706
 3454SOL     OW11260   0.619   0.664   0.425
 3454SOL    HW111261   0.627   0.763   0.411
 3454SOL    HW211262   0.674   0.616   0.357
 3455SOL     OW11263   1.895   2.739   4.927
 3455SOL    HW111264   1.822   2.672   4.918
 3455SOL    HW211265   1.962   2.708   4.993
 3456SOL     OW11266   6.455   0.015   1.488
 3456SOL    HW111267   6.461   0.109   1.521
 3456SOL    HW211268   6.445   0.015   1.389
 3457SOL     OW11269   2.210   5.184   3.411
 3457SOL    HW111270   2.304   5.170   3.380
 3457SOL    HW211271   2.211   5.217   3.505
 3458SOL     OW11272   5.084   5.605   1.132
 3458SOL    HW111273   5.181   5.609   1.156
 3458SOL    HW211274   5.074   5.613   1.033
 3459SOL     OW11275   6.220   6.799   3.750
 3459SOL    HW111276   6.198   6.748   3.833
 3459SOL    HW211277   6.139   6.805   3.692
 3460SOL     OW11278   4.256   3.430   6.522
 3460SOL    HW111279   4.200   3.391   6.594
 3460SOL    HW211280   4.267   3.528   6.537
 3461SOL     OW11281   3.269   5.655   2.464
 3461SOL    HW111282   3.234   5.749   2.468
 3461SOL    HW211283   3.358   5.651   2.509
 3462SOL     OW11284   4.962   3.108   3.339
 3462SOL    HW111285   5.043   3.058   3.309
 3462SOL    HW211286   4.883   3.046   3.338
 3463SOL     OW11287   2.169   2.787   1.062
 3463SOL    HW111288   2.251   2.737   1.032
 3463SOL    HW211289   2.188   2.834   1.148
 3464SOL     OW11290   4.544   2.488   6.897
 3464SOL    HW111291   4.448   2.479   6.869
 3464SOL    HW211292   4.568   2.585   6.904
 3465SOL     OW11293   1.934   3.564   1.983
 3465SOL    HW111294   2.033   3.555   1.986
 3465SOL    HW211295   1.892   3.475   2.000
 3466SOL     OW11296   6.009   4.787   3.871
 3466SOL    HW111297   6.077   4.747   3.933
 3466SOL    HW211298   6.052   4.859   3.817
 3467SOL     OW11299   3.097   2.710   1.266
 3467SOL    HW111300   3.171   2.770   1.296
 3467SOL    HW211301   3.057   2.664   1.346
 3468SOL     OW11302   3.686   1.661   0.940
 3468SOL    HW111303   3.725   1.612   1.018
 3468SOL    HW211304   3.694   1.759   0.955
 3469SOL     OW11305   3.784   5.909   5.501
 3469SOL    HW111306   3.712   5.966   5.461
 3469SOL    HW211307   3.777   5.816   5.465
 3470SOL     OW11308   1.001   3.138   1.533
 3470SOL    HW111309   1.092   3.176   1.518
 3470SOL    HW211310   1.004   3.039   1.524
 3471SOL     OW11311   5.089   2.969   4.313
 3471SOL    HW111312   5.176   2.989   4.268
 3471SOL    HW211313   5.018   3.029   4.276
 3472SOL     OW11314   4.149   1.667   3.387
 3472SOL    HW111315   4.066   1.711   3.421
 3472SOL    HW211316   4.127   1.615   3.305
 3473SOL     OW11317   0.012   4.332   1.919
 3473SOL    HW111318   0.107   4.360   1.904
 3473SOL    HW211319   6.994   4.385   1.995
 3474SOL     OW11320   5.739   5.190   3.847
 3474SOL    HW111321   5.667   5.240   3.895
 3474SOL    HW211322   5.762   5.108   3.898
 3475SOL     OW11323   6.834   4.284   3.940
 3475SOL    HW111324   6.736   4.274   3.958
 3475SOL    HW211325   6.882   4.203   3.972
 3476SOL     OW11326   1.435   1.216   3.530
 3476SOL    HW111327   1.454   1.168   3.445
 3476SOL    HW211328   1.347   1.185   3.567
 3477SOL     OW11329   0.557   4.101   2.242
 3477SOL    HW111330   0.546   4.009   2.279
 3477SOL    HW211331   0.553   4.168   2.316
 3478SOL     OW11332   2.057   1.061   1.012
 3478SOL    HW111333   2.039   1.118   1.092
 3478SOL    HW211334   2.147   1.018   1.022
 3479SOL     OW11335   1.498   4.452   4.387
 3479SOL    HW111336   1.564   4.443   4.313
 3479SOL    HW211337   1.542   4.492   4.467
 3480SOL     OW11338   1.362   4.697   0.077
 3480SOL    HW111339   1.347   4.599   0.065
 3480SOL    HW211340   1.455   4.721   0.049
 3481SOL     OW11341   5.953   0.853   4.913
 3481SOL    HW111342   5.909   0.821   4.829
 3481SOL    HW211343   6.043   0.890   4.891
 3482SOL     OW11344   5.948   3.838   5.288
 3482SOL    HW111345   5.920   3.833   5.192
 3482SOL    HW211346   6.016   3.766   5.306
 3483SOL     OW11347   5.435   2.897   4.649
 3483SOL    HW111348   5.344   2.936   4.654
 3483SOL    HW211349   5.446   2.850   4.561
 3484SOL     OW11350   1.933   3.425   5.287
 3484SOL    HW111351   1.938   3.511   5.338
 3484SOL    HW211352   1.996   3.428   5.210
 3485SOL     OW11353   6.871   2.726   6.615
 3485SOL    HW111354   6.831   2.815   6.593
 3485SOL    HW211355   6.968   2.738   6.636
 3486SOL     OW11356   2.010   6.906   4.986
 3486SOL    HW111357   2.008   6.888   4.888
 3486SOL    HW211358   1.917   6.911   5.022
 3487SOL     OW11359   4.900   1.715   6.659
 3487SOL    HW111360   4.830   1.658   6.616
 3487SOL    HW211361   4.988   1.700   6.614
 3488SOL     OW11362   5.543   0.555   4.583
 3488SOL    HW111363   5.495   0.468   4.569
 3488SOL    HW211364   5.635   0.537   4.618
 3489SOL     OW11365   3.213   6.440   0.499
 3489SOL    HW111366   3.139   6.495   0.538
 3489SOL    HW211367   3.297   6.455   0.551
 3490SOL     OW11368   3.465   6.200   0.102
 3490SOL    HW111369   3.537   6.172   0.038
 3490SOL    HW211370   3.446   6.298   0.090
 3491SOL     OW11371   4.924   4.780   6.148
 3491SOL    HW111372   4.832   4.769   6.185
 3491SOL    HW211373   4.991   4.758   6.219
 3492SOL     OW11374   5.814   4.543   2.643
 3492SOL    HW111375   5.885   4.581   2.584
 3492SOL    HW211376   5.725   4.583   2.618
 3493SOL     OW11377   6.323   3.126   5.205
 3493SOL    HW111378   6.318   3.192   5.280
 3493SOL    HW211379   6.264   3.048   5.225
 3494SOL     OW11380   4.116   1.690   1.961
 3494SOL    HW111381   4.213   1.674   1.941
 3494SOL    HW211382   4.061   1.645   1.890
 3495SOL     OW11383   0.964   2.606   2.343
 3495SOL    HW111384   0.883   2.642   2.389
 3495SOL    HW211385   1.019   2.682   2.308
 3496SOL     OW11386   5.482   5.167   1.353
 3496SOL    HW111387   5.497   5.261   1.382
 3496SOL    HW211388   5.494   5.106   1.432
 3497SOL     OW11389   3.495   6.621   2.563
 3497SOL    HW111390   3.540   6.545   2.517
 3497SOL    HW211391   3.403   6.633   2.525
 3498SOL     OW11392   2.089   2.506   1.614
 3498SOL    HW111393   2.056   2.560   1.692
 3498SOL    HW211394   2.186   2.485   1.627
 3499SOL     OW11395   6.312   5.271   5.526
 3499SOL    HW111396   6.384   5.334   5.554
 3499SOL    HW211397   6.250   5.317   5.462
 3500SOL     OW11398   1.597   1.972   4.228
 3500SOL    HW111399   1.525   2.028   4.268
 3500SOL    HW211400   1.668   2.031   4.190
 3501SOL     OW11401   1.277   0.342   5.605
 3501SOL    HW111402   1.199   0.373   5.660
 3501SOL    HW211403   1.351   0.311   5.664
 3502SOL     OW11404   4.755   2.764   2.217
 3502SOL    HW111405   4.769   2.796   2.123
 3502SOL    HW211406   4.843   2.741   2.258
 3503SOL     OW11407   6.228   5.860   6.863
 3503SOL    HW111408   6.157   5.795   6.834
 3503SOL    HW211409   6.312   5.810   6.882
 3504SOL     OW11410   1.206   0.935   0.834
 3504SOL    HW111411   1.145   0.918   0.756
 3504SOL    HW211412   1.215   0.852   0.889
 3505SOL     OW11413   5.458   4.721   6.641
 3505SOL    HW111414   5.454   4.817   6.616
 3505SOL    HW211415   5.396   4.704   6.718
 3506SOL     OW11416   5.103   4.557   4.693
 3506SOL    HW111417   5.068   4.530   4.783
 3506SOL    HW211418   5.142   4.649   4.699
 3507SOL     OW11419   3.139   6.831   0.309
 3507SOL    HW111420   3.085   6.860   0.388
 3507SOL    HW211421   3.210   6.899   0.291
 3508SOL     OW11422   3.047   2.296   5.576
 3508SOL    HW111423   3.064   2.392   5.598
 3508SOL    HW211424   2.980   2.289   5.503
 3509SOL     OW11425   3.994   5.590   6.553
 3509SOL    HW111426   4.038   5.524   6.493
 3509SOL    HW211427   3.947   5.542   6.628
 3510SOL     OW11428   2.954   1.201   0.711
 3510SOL    HW111429   2.945   1.132   0.782
 3510SOL    HW211430   2.924   1.290   0.748
 3511SOL     OW11431   2.537   4.434   1.739
 3511SOL    HW111432   2.610   4.499   1.716
 3511SOL    HW211433   2.572   4.340   1.730
 3512SOL     OW11434   0.234   5.061   6.417
 3512SOL    HW111435   0.189   5.072   6.506
 3512SOL    HW211436   0.333   5.071   6.428
 3513SOL     OW11437   6.118   1.947   0.329
 3513SOL    HW111438   6.218   1.956   0.333
 3513SOL    HW211439   6.075   2.025   0.373
 3514SOL     OW11440   4.036   1.798   2.481
 3514SOL    HW111441   3.952   1.850   2.469
 3514SOL    HW211442   4.110   1.842   2.429
 3515SOL     OW11443   6.212   5.908   4.213
 3515SOL    HW111444   6.135   5.962   4.248
 3515SOL    HW211445   6.192   5.878   4.120
 3516SOL     OW11446   4.606   0.545   1.411
 3516SOL    HW111447   4.573   0.476   1.347
 3516SOL    HW211448   4.705   0.556   1.400
 3517SOL     OW11449   5.998   0.641   0.911
 3517SOL    HW111450   6.001   0.555   0.860
 3517SOL    HW211451   5.920   0.695   0.880
 3518SOL     OW11452   5.040   1.296   5.053
 3518SOL    HW111453   4.992   1.360   5.113
 3518SOL    HW211454   5.138   1.301   5.071
 3519SOL     OW11455   3.413   0.636   0.755
 3519SOL    HW111456   3.473   0.614   0.678
 3519SOL    HW211457   3.376   0.728   0.743
 3520SOL     OW11458   2.624   6.503   4.887
 3520SOL    HW111459   2.688   6.436   4.926
 3520SOL    HW211460   2.531   6.468   4.892
 3521SOL     OW11461   2.388   3.218   0.839
 3521SOL    HW111462   2.402   3.312   0.872
 3521SOL    HW211463   2.462   3.160   0.872
 3522SOL     OW11464   0.117   6.033   6.645
 3522SOL    HW111465   0.194   6.060   6.587
 3522SOL    HW211466   0.105   5.934   6.642
 3523SOL     OW11467   1.970   5.090   6.554
 3523SOL    HW111468   1.950   5.118   6.460
 3523SOL    HW211469   1.890   5.044   6.592
 3524SOL     OW11470   5.330   1.351   3.044
 3524SOL    HW111471   5.293   1.259   3.055
 3524SOL    HW211472   5.405   1.349   2.977
 3525SOL     OW11473   6.010   4.225   3.466
 3525SOL    HW111474   6.022   4.315   3.424
 3525SOL    HW211475   6.013   4.234   3.566
 3526SOL     OW11476   0.839   6.529   2.978
 3526SOL    HW111477   0.744   6.507   2.954
 3526SOL    HW211478   0.869   6.609   2.927
 3527SOL     OW11479   6.939   2.771   5.770
 3527SOL    HW111480   6.990   2.785   5.685
 3527SOL    HW211481   6.841   2.770   5.750
 3528SOL     OW11482   2.359   6.389   4.911
 3528SOL    HW111483   2.381   6.296   4.940
 3528SOL    HW211484   2.268   6.414   4.945
 3529SOL     OW11485   4.157   4.968   1.172
 3529SOL    HW111486   4.072   4.988   1.125
 3529SOL    HW211487   4.144   4.981   1.271
 3530SOL     OW11488   0.056   0.295   1.604
 3530SOL    HW111489   0.082   0.334   1.516
 3530SOL    HW211490   0.055   0.366   1.674
 3531SOL     OW11491   5.469   2.020   0.077
 3531SOL    HW111492   5.397   2.018   0.146
 3531SOL    HW211493   5.484   2.115   0.047
 3532SOL     OW11494   2.036   1.656   1.688
 3532SOL    HW111495   1.961   1.629   1.748
 3532SOL    HW211496   2.004   1.664   1.594
 3533SOL     OW11497   0.911   1.125   2.914
 3533SOL    HW111498   1.009   1.108   2.905
 3533SOL    HW211499   0.885   1.122   3.011
 3534SOL     OW11500   0.076   1.141   1.339
 3534SOL    HW111501   0.157   1.142   1.280
 3534SOL    HW211502   0.087   1.070   1.409
 3535SOL     OW11503   2.805   5.671   4.518
 3535SOL    HW111504   2.866   5.713   4.450
 3535SOL    HW211505   2.729   5.733   4.536
 3536SOL     OW11506   3.749   2.085   2.900
 3536SOL    HW111507   3.676   2.043   2.846
 3536SOL    HW211508   3.785   2.165   2.852
 3537SOL     OW11509   1.582   5.926   2.963
 3537SOL    HW111510   1.539   5.878   2.887
 3537SOL    HW211511   1.671   5.885   2.984
 3538SOL     OW11512   3.234   5.606   3.633
 3538SOL    HW111513   3.158   5.646   3.683
 3538SOL    HW211514   3.294   5.557   3.696
 3539SOL     OW11515   3.434   3.807   4.433
 3539SOL    HW111516   3.415   3.760   4.519
 3539SOL    HW211517   3.533   3.815   4.421
 3540SOL     OW11518   1.828   1.853   3.979
 3540SOL    HW111519   1.737   1.820   3.955
 3540SOL    HW211520   1.854   1.816   4.069
 3541SOL     OW11521   3.395   4.055   5.067
 3541SOL    HW111522   3.388   3.973   5.124
 3541SOL    HW211523   3.398   4.028   4.971
 3542SOL     OW11524   0.310   5.354   1.774
 3542SOL    HW111525   0.343   5.263   1.749
 3542SOL    HW211526   0.254   5.390   1.699
 3543SOL     OW11527   6.194   2.646   4.805
 3543SOL    HW111528   6.198   2.684   4.897
 3543SOL    HW211529   6.246   2.561   4.802
 3544SOL     OW11530   2.100   5.453   6.449
 3544SOL    HW111531   2.142   5.372   6.490
 3544SOL    HW211532   2.169   5.524   6.438
 3545SOL     OW11533   3.713   5.485   6.916
 3545SOL    HW111534   3.645   5.442   6.856
 3545SOL    HW211535   3.789   5.422   6.930
 3546SOL     OW11536   6.169   4.981   3.074
 3546SOL    HW111537   6.076   4.970   3.039
 3546SOL    HW211538   6.234   4.977   2.998
 3547SOL     OW11539   5.262   4.835   4.041
 3547SOL    HW111540   5.304   4.745   4.032
 3547SOL    HW211541   5.163   4.827   4.040
 3548SOL     OW11542   4.785   3.011   5.404
 3548SOL    HW111543   4.866   3.011   5.345
 3548SOL    HW211544   4.702   3.015   5.348
 3549SOL     OW11545   5.856   4.164   2.500
 3549SOL    HW111546   5.953   4.187   2.515
 3549SOL    HW211547   5.805   4.181   2.584
 3550SOL     OW11548   5.854   2.367   2.221
 3550SOL    HW111549   5.922   2.299   2.196
 3550SOL    HW211550   5.897   2.440   2.275
 3551SOL     OW11551   2.606   6.570   3.362
 3551SOL    HW111552   2.514   6.543   3.333
 3551SOL    HW211553   2.608   6.668   3.380
 3552SOL     OW11554   6.600   4.858   3.047
 3552SOL    HW111555   6.558   4.903   2.969
 3552SOL    HW211556   6.624   4.926   3.116
 3553SOL     OW11557   5.905   1.784   2.730
 3553SOL    HW111558   5.951   1.838   2.660
 3553SOL    HW211559   5.968   1.769   2.807
 3554SOL     OW11560   3.805   5.230   6.734
 3554SOL    HW111561   3.898   5.266   6.743
 3554SOL    HW211562   3.809   5.134   6.705
 3555SOL     OW11563   1.067   2.850   3.465
 3555SOL    HW111564   0.969   2.866   3.462
 3555SOL    HW211565   1.106   2.896   3.545
 3556SOL     OW11566   3.819   0.480   6.534
 3556SOL    HW111567   3.912   0.452   6.559
 3556SOL    HW211568   3.755   0.405   6.554
 3557SOL     OW11569   1.094   0.439   5.060
 3557SOL    HW111570   1.077   0.433   5.159
 3557SOL    HW211571   1.079   0.349   5.019
 3558SOL     OW11572   0.154   5.646   1.302
 3558SOL    HW111573   0.224   5.613   1.238
 3558SOL    HW211574   0.068   5.598   1.285
 3559SOL     OW11575   0.585   1.246   5.375
 3559SOL    HW111576   0.662   1.305   5.397
 3559SOL    HW211577   0.552   1.202   5.459
 3560SOL     OW11578   6.930   6.366   1.732
 3560SOL    HW111579   6.870   6.425   1.677
 3560SOL    HW211580   7.018   6.412   1.744
 3561SOL     OW11581   4.425   4.983   4.715
 3561SOL    HW111582   4.500   4.922   4.741
 3561SOL    HW211583   4.457   5.045   4.643
 3562SOL     OW11584   4.559   1.627   3.013
 3562SOL    HW111585   4.591   1.666   2.927
 3562SOL    HW211586   4.479   1.570   2.997
 3563SOL     OW11587   4.820   0.698   1.306
 3563SOL    HW111588   4.822   0.711   1.207
 3563SOL    HW211589   4.761   0.767   1.347
 3564SOL     OW11590   0.153   4.304   3.313
 3564SOL    HW111591   0.111   4.214   3.307
 3564SOL    HW211592   0.187   4.332   3.223
 3565SOL     OW11593   1.834   0.531   5.223
 3565SOL    HW111594   1.760   0.488   5.172
 3565SOL    HW211595   1.913   0.470   5.227
 3566SOL     OW11596   0.488   3.908   5.574
 3566SOL    HW111597   0.492   3.938   5.669
 3566SOL    HW211598   0.579   3.875   5.546
 3567SOL     OW11599   0.358   2.841   0.952
 3567SOL    HW111600   0.327   2.830   1.047
 3567SOL    HW211601   0.283   2.878   0.897
 3568SOL     OW11602   5.439   3.507   3.695
 3568SOL    HW111603   5.354   3.515   3.747
 3568SOL    HW211604   5.462   3.411   3.684
 3569SOL     OW11605   3.797   3.301   3.803
 3569SOL    HW111606   3.867   3.367   3.776
 3569SOL    HW211607   3.803   3.220   3.745
 3570SOL     OW11608   0.298   2.541   5.782
 3570SOL    HW111609   0.224   2.474   5.776
 3570SOL    HW211610   0.332   2.545   5.876
 3571SOL     OW11611   2.100   6.669   5.147
 3571SOL    HW111612   2.075   6.743   5.085
 3571SOL    HW211613   2.135   6.591   5.094
 3572SOL     OW11614   4.887   4.898   2.398
 3572SOL    HW111615   4.980   4.921   2.368
 3572SOL    HW211616   4.863   4.808   2.363
 3573SOL     OW11617   0.227   3.877   3.122
 3573SOL    HW111618   0.253   3.811   3.052
 3573SOL    HW211619   0.233   3.834   3.212
 3574SOL     OW11620   2.445   1.728   5.302
 3574SOL    HW111621   2.354   1.691   5.321
 3574SOL    HW211622   2.514   1.676   5.352
 3575SOL     OW11623   5.506   6.882   0.309
 3575SOL    HW111624   5.439   6.895   0.236
 3575SOL    HW211625   5.594   6.854   0.270
 3576SOL     OW11626   1.067   2.728   1.246
 3576SOL    HW111627   1.069   2.628   1.257
 3576SOL    HW211628   1.096   2.752   1.154
 3577SOL     OW11629   2.132   3.172   5.740
 3577SOL    HW111630   2.074   3.133   5.669
 3577SOL    HW211631   2.209   3.220   5.698
 3578SOL     OW11632   3.435   3.057   6.324
 3578SOL    HW111633   3.507   3.046   6.392
 3578SOL    HW211634   3.357   2.999   6.350
 3579SOL     OW11635   0.844   3.302   1.751
 3579SOL    HW111636   0.872   3.264   1.839
 3579SOL    HW211637   0.872   3.240   1.678
 3580SOL     OW11638   0.556   4.171   1.803
 3580SOL    HW111639   0.546   4.186   1.704
 3580SOL    HW211640   0.473   4.201   1.850
 3581SOL     OW11641   1.681   0.283   2.702
 3581SOL    HW111642   1.698   0.227   2.783
 3581SOL    HW211643   1.764   0.333   2.679
 3582SOL     OW11644   3.764   4.731   6.325
 3582SOL    HW111645   3.860   4.733   6.298
 3582SOL    HW211646   3.720   4.818   6.299
 3583SOL     OW11647   0.799   4.784   0.805
 3583SOL    HW111648   0.787   4.721   0.729
 3583SOL    HW211649   0.805   4.732   0.890
 3584SOL     OW11650   6.186   4.995   4.871
 3584SOL    HW111651   6.271   4.944   4.886
 3584SOL    HW211652   6.194   5.047   4.786
 3585SOL     OW11653   3.116   1.513   3.001
 3585SOL    HW111654   3.022   1.542   3.020
 3585SOL    HW211655   3.174   1.594   2.990
 3586SOL     OW11656   6.948   2.647   5.315
 3586SOL    HW111657   7.019   2.609   5.256
 3586SOL    HW211658   6.956   2.747   5.317
 3587SOL     OW11659   2.904   6.934   6.613
 3587SOL    HW111660   2.956   7.016   6.589
 3587SOL    HW211661   2.814   6.938   6.570
 3588SOL     OW11662   6.087   5.058   4.617
 3588SOL    HW111663   6.157   5.014   4.560
 3588SOL    HW211664   6.080   5.154   4.591
 3589SOL     OW11665   0.337   0.557   5.678
 3589SOL    HW111666   0.427   0.515   5.665
 3589SOL    HW211667   0.322   0.574   5.775
 3590SOL     OW11668   6.872   5.033   0.099
 3590SOL    HW111669   6.830   5.119   0.071
 3590SOL    HW211670   6.951   5.051   0.158
 3591SOL     OW11671   6.140   1.210   6.630
 3591SOL    HW111672   6.153   1.303   6.664
 3591SOL    HW211673   6.219   1.154   6.656
 3592SOL     OW11674   1.843   6.062   1.567
 3592SOL    HW111675   1.926   6.109   1.538
 3592SOL    HW211676   1.829   5.981   1.510
 3593SOL     OW11677   4.191   2.969   5.470
 3593SOL    HW111678   4.217   2.880   5.433
 3593SOL    HW211679   4.114   2.958   5.533
 3594SOL     OW11680   4.394   4.710   4.876
 3594SOL    HW111681   4.399   4.632   4.939
 3594SOL    HW211682   4.485   4.730   4.840
 3595SOL     OW11683   5.061   6.104   4.330
 3595SOL    HW111684   5.070   6.203   4.343
 3595SOL    HW211685   4.998   6.067   4.398
 3596SOL     OW11686   4.028   2.198   3.689
 3596SOL    HW111687   4.068   2.290   3.699
 3596SOL    HW211688   4.100   2.130   3.702
 3597SOL     OW11689   2.803   3.477   5.601
 3597SOL    HW111690   2.797   3.541   5.677
 3597SOL    HW211691   2.853   3.518   5.526
 3598SOL     OW11692   1.071   5.990   4.983
 3598SOL    HW111693   1.031   6.071   4.940
 3598SOL    HW211694   1.081   5.918   4.914
 3599SOL     OW11695   3.217   1.342   5.155
 3599SOL    HW111696   3.230   1.259   5.209
 3599SOL    HW211697   3.221   1.319   5.058
 3600SOL     OW11698   3.378   3.365   0.200
 3600SOL    HW111699   3.402   3.451   0.245
 3600SOL    HW211700   3.291   3.332   0.236
 3601SOL     OW11701   4.447   1.123   4.977
 3601SOL    HW111702   4.398   1.126   5.065
 3601SOL    HW211703   4.500   1.039   4.972
 3602SOL     OW11704   2.201   1.662   1.361
 3602SOL    HW111705   2.225   1.662   1.263
 3602SOL    HW211706   2.101   1.654   1.370
 3603SOL     OW11707   2.653   0.757   5.260
 3603SOL    HW111708   2.554   0.754   5.248
 3603SOL    HW211709   2.674   0.800   5.348
 3604SOL     OW11710   0.002   0.637   3.487
 3604SOL    HW111711   0.056   0.554   3.498
 3604SOL    HW211712   6.925   0.616   3.494
 3605SOL     OW11713   1.347   6.560   4.096
 3605SOL    HW111714   1.297   6.631   4.145
 3605SOL    HW211715   1.389   6.600   4.014
 3606SOL     OW11716   2.605   0.080   2.333
 3606SOL    HW111717   2.555   0.038   2.258
 3606SOL    HW211718   2.563   0.054   2.420
 3607SOL     OW11719   5.926   1.984   3.158
 3607SOL    HW111720   6.006   1.925   3.142
 3607SOL    HW211721   5.865   1.940   3.224
 3608SOL     OW11722   2.572   2.122   5.988
 3608SOL    HW111723   2.639   2.166   5.927
 3608SOL    HW211724   2.489   2.102   5.936
 3609SOL     OW11725   3.259   0.816   4.769
 3609SOL    HW111726   3.351   0.834   4.732
 3609SOL    HW211727   3.225   0.897   4.815
 3610SOL     OW11728   1.574   0.346   5.308
 3610SOL    HW111729   1.544   0.431   5.265
 3610SOL    HW211730   1.494   0.288   5.325
 3611SOL     OW11731   5.255   4.819   3.182
 3611SOL    HW111732   5.275   4.846   3.276
 3611SOL    HW211733   5.169   4.768   3.180
 3612SOL     OW11734   6.081   1.088   0.078
 3612SOL    HW111735   6.054   1.096   0.174
 3612SOL    HW211736   6.017   1.140   0.021
 3613SOL     OW11737   4.443   6.417   2.099
 3613SOL    HW111738   4.347   6.393   2.116
 3613SOL    HW211739   4.479   6.469   2.176
 3614SOL     OW11740   3.750   5.755   6.927
 3614SOL    HW111741   3.733   5.657   6.926
 3614SOL    HW211742   3.707   5.796   7.008
 3615SOL     OW11743   5.872   2.119   5.645
 3615SOL    HW111744   5.907   2.065   5.721
 3615SOL    HW211745   5.847   2.210   5.677
 3616SOL     OW11746   1.166   2.060   0.341
 3616SOL    HW111747   1.124   2.134   0.289
 3616SOL    HW211748   1.205   2.096   0.426
 3617SOL     OW11749   3.803   6.014   5.780
 3617SOL    HW111750   3.719   5.996   5.831
 3617SOL    HW211751   3.784   6.008   5.682
 3618SOL     OW11752   0.947   5.124   4.001
 3618SOL    HW111753   1.011   5.126   4.077
 3618SOL    HW211754   0.997   5.122   3.915
 3619SOL     OW11755   5.945   3.255   1.920
 3619SOL    HW111756   5.861   3.202   1.909
 3619SOL    HW211757   5.962   3.272   2.017
 3620SOL     OW11758   5.673   5.803   4.799
 3620SOL    HW111759   5.601   5.762   4.855
 3620SOL    HW211760   5.653   5.900   4.786
 3621SOL     OW11761   3.889   3.295   3.333
 3621SOL    HW111762   3.858   3.208   3.295
 3621SOL    HW211763   3.815   3.336   3.386
 3622SOL     OW11764   1.364   6.237   5.832
 3622SOL    HW111765   1.303   6.305   5.873
 3622SOL    HW211766   1.331   6.212   5.741
 3623SOL     OW11767   1.074   5.647   6.149
 3623SOL    HW111768   1.004   5.683   6.087
 3623SOL    HW211769   1.101   5.718   6.214
 3624SOL     OW11770   2.687   2.633   1.422
 3624SOL    HW111771   2.773   2.593   1.391
 3624SOL    HW211772   2.691   2.649   1.520
 3625SOL     OW11773   0.010   2.451   0.732
 3625SOL    HW111774   0.104   2.442   0.700
 3625SOL    HW211775   6.976   2.374   0.699
 3626SOL     OW11776   2.020   3.091   5.383
 3626SOL    HW111777   1.947   3.067   5.320
 3626SOL    HW211778   2.027   3.191   5.390
 3627SOL     OW11779   3.454   2.085   1.976
 3627SOL    HW111780   3.501   2.159   1.929
 3627SOL    HW211781   3.516   2.007   1.987
 3628SOL     OW11782   6.528   1.830   1.543
 3628SOL    HW111783   6.463   1.775   1.490
 3628SOL    HW211784   6.586   1.882   1.480
 3629SOL     OW11785   1.279   1.348   4.642
 3629SOL    HW111786   1.239   1.388   4.560
 3629SOL    HW211787   1.309   1.254   4.622
 3630SOL     OW11788   6.720   2.024   1.446
 3630SOL    HW111789   6.819   2.007   1.445
 3630SOL    HW211790   6.695   2.067   1.533
 3631SOL     OW11791   2.068   6.753   2.359
 3631SOL    HW111792   2.113   6.842   2.352
 3631SOL    HW211793   2.034   6.741   2.452
 3632SOL     OW11794   4.702   3.958   1.552
 3632SOL    HW111795   4.754   3.876   1.576
 3632SOL    HW211796   4.615   3.959   1.602
 3633SOL     OW11797   3.689   4.236   0.121
 3633SOL    HW111798   3.761   4.294   0.083
 3633SOL    HW211799   3.650   4.279   0.202
 3634SOL     OW11800   3.293   5.241   6.652
 3634SOL    HW111801   3.253   5.328   6.682
 3634SOL    HW211802   3.244   5.209   6.570
 3635SOL     OW11803   1.366   5.869   1.995
 3635SOL    HW111804   1.317   5.931   2.057
 3635SOL    HW211805   1.412   5.923   1.925
 3636SOL     OW11806   0.497   5.057   6.396
 3636SOL    HW111807   0.530   5.076   6.304
 3636SOL    HW211808   0.557   4.991   6.440
 3637SOL     OW11809   6.046   3.252   0.270
 3637SOL    HW111810   5.968   3.234   0.210
 3637SOL    HW211811   6.094   3.166   0.289
 3638SOL     OW11812   6.756   3.369   3.355
 3638SOL    HW111813   6.704   3.296   3.311
 3638SOL    HW211814   6.702   3.454   3.354
 3639SOL     OW11815   4.098   3.289   3.537
 3639SOL    HW111816   4.187   3.311   3.496
 3639SOL    HW211817   4.027   3.294   3.467
 3640SOL     OW11818   4.536   2.098   2.022
 3640SOL    HW111819   4.535   2.160   1.944
 3640SOL    HW211820   4.448   2.103   2.070
 3641SOL     OW11821   6.142   4.244   2.545
 3641SOL    HW111822   6.220   4.233   2.606
 3641SOL    HW211823   6.163   4.313   2.476
 3642SOL     OW11824   5.321   3.117   5.969
 3642SOL    HW111825   5.332   3.032   6.020
 3642SOL    HW211826   5.278   3.186   6.027
 3643SOL     OW11827   4.042   5.690   4.634
 3643SOL    HW111828   3.972   5.637   4.682
 3643SOL    HW211829   3.999   5.758   4.576
 3644SOL     OW11830   2.843   0.449   1.665
 3644SOL    HW111831   2.833   0.543   1.697
 3644SOL    HW211832   2.924   0.408   1.706
 3645SOL     OW11833   1.238   4.094   3.278
 3645SOL    HW111834   1.207   4.174   3.227
 3645SOL    HW211835   1.226   4.012   3.222
 3646SOL     OW11836   1.535   4.786   5.631
 3646SOL    HW111837   1.570   4.814   5.541
 3646SOL    HW211838   1.436   4.799   5.633
 3647SOL     OW11839   2.345   0.058   6.537
 3647SOL    HW111840   2.349   6.983   6.568
 3647SOL    HW211841   2.370   0.118   6.613
 3648SOL     OW11842   4.581   5.432   3.381
 3648SOL    HW111843   4.521   5.468   3.309
 3648SOL    HW211844   4.534   5.437   3.469
 3649SOL     OW11845   6.044   2.421   0.319
 3649SOL    HW111846   5.986   2.443   0.241
 3649SOL    HW211847   6.092   2.503   0.350
 3650SOL     OW11848   5.421   5.810   6.509
 3650SOL    HW111849   5.483   5.841   6.437
 3650SOL    HW211850   5.384   5.890   6.557
 3651SOL     OW11851   1.119   2.118   5.787
 3651SOL    HW111852   1.082   2.108   5.879
 3651SOL    HW211853   1.176   2.039   5.765
 3652SOL     OW11854   4.258   1.577   1.699
 3652SOL    HW111855   4.171   1.579   1.650
 3652SOL    HW211856   4.305   1.664   1.688
 3653SOL     OW11857   1.618   1.816   1.031
 3653SOL    HW111858   1.606   1.720   1.008
 3653SOL    HW211859   1.621   1.826   1.130
 3654SOL     OW11860   4.393   6.313   1.782
 3654SOL    HW111861   4.341   6.334   1.699
 3654SOL    HW211862   4.412   6.215   1.786
 3655SOL     OW11863   1.066   1.083   4.104
 3655SOL    HW111864   0.992   1.084   4.172
 3655SOL    HW211865   1.027   1.070   4.013
 3656SOL     OW11866   0.300   0.140   1.523
 3656SOL    HW111867   0.234   0.123   1.596
 3656SOL    HW211868   0.276   0.085   1.443
 3657SOL     OW11869   5.797   5.544   6.244
 3657SOL    HW111870   5.765   5.561   6.151
 3657SOL    HW211871   5.896   5.532   6.244
 3658SOL     OW11872   2.024   4.666   5.738
 3658SOL    HW111873   2.044   4.595   5.805
 3658SOL    HW211874   1.925   4.671   5.725
 3659SOL     OW11875   0.381   2.705   6.476
 3659SOL    HW111876   0.338   2.792   6.451
 3659SOL    HW211877   0.453   2.721   6.543
 3660SOL     OW11878   4.879   5.487   6.144
 3660SOL    HW111879   4.855   5.582   6.119
 3660SOL    HW211880   4.920   5.442   6.064
 3661SOL     OW11881   0.325   1.495   4.541
 3661SOL    HW111882   0.363   1.498   4.634
 3661SOL    HW211883   0.396   1.522   4.476
 3662SOL     OW11884   3.092   1.859   5.651
 3662SOL    HW111885   3.061   1.866   5.556
 3662SOL    HW211886   3.192   1.867   5.653
 3663SOL     OW11887   2.561   2.572   6.794
 3663SOL    HW111888   2.505   2.523   6.861
 3663SOL    HW211889   2.620   2.507   6.747
 3664SOL     OW11890   3.452   2.102   0.943
 3664SOL    HW111891   3.397   2.117   1.025
 3664SOL    HW211892   3.490   2.190   0.913
 3665SOL     OW11893   0.389   5.551   6.076
 3665SOL    HW111894   0.394   5.455   6.047
 3665SOL    HW211895   0.471   5.575   6.128
 3666SOL     OW11896   2.157   3.201   4.579
 3666SOL    HW111897   2.181   3.285   4.628
 3666SOL    HW211898   2.167   3.123   4.641
 3667SOL     OW11899   1.763   6.622   1.115
 3667SOL    HW111900   1.802   6.672   1.192
 3667SOL    HW211901   1.674   6.661   1.091
 3668SOL     OW11902   6.438   1.089   0.830
 3668SOL    HW111903   6.427   1.027   0.753
 3668SOL    HW211904   6.365   1.074   0.896
 3669SOL     OW11905   0.902   1.038   3.587
 3669SOL    HW111906   0.945   1.041   3.497
 3669SOL    HW211907   0.862   1.127   3.608
 3670SOL     OW11908   2.783   0.232   1.490
 3670SOL    HW111909   2.853   0.176   1.533
 3670SOL    HW211910   2.787   0.325   1.527
 3671SOL     OW11911   7.006   0.825   4.365
 3671SOL    HW111912   0.077   0.858   4.386
 3671SOL    HW211913   6.940   0.867   4.428
 3672SOL     OW11914   3.485   0.181   3.838
 3672SOL    HW111915   3.555   0.150   3.902
 3672SOL    HW211916   3.483   0.281   3.837
 3673SOL     OW11917   3.538   0.080   1.287
 3673SOL    HW111918   3.524   0.143   1.210
 3673SOL    HW211919   3.592   0.002   1.256
 3674SOL     OW11920   0.554   4.688   6.839
 3674SOL    HW111921   0.554   4.788   6.840
 3674SOL    HW211922   0.461   4.654   6.825
 3675SOL     OW11923   0.782   0.854   4.033
 3675SOL    HW111924   0.758   0.764   3.996
 3675SOL    HW211925   0.863   0.889   3.986
 3676SOL     OW11926   3.296   1.180   4.879
 3676SOL    HW111927   3.326   1.099   4.930
 3676SOL    HW211928   3.373   1.243   4.869
 3677SOL     OW11929   1.445   1.092   4.603
 3677SOL    HW111930   1.364   1.051   4.562
 3677SOL    HW211931   1.494   1.023   4.657
 3678SOL     OW11932   1.309   0.940   3.666
 3678SOL    HW111933   1.229   0.909   3.613
 3678SOL    HW211934   1.317   0.885   3.749
 3679SOL     OW11935   3.813   0.447   2.280
 3679SOL    HW111936   3.863   0.440   2.367
 3679SOL    HW211937   3.827   0.363   2.227
 3680SOL     OW11938   3.071   1.695   4.901
 3680SOL    HW111939   3.121   1.740   4.974
 3680SOL    HW211940   3.045   1.603   4.931
 3681SOL     OW11941   0.923   6.477   4.120
 3681SOL    HW111942   0.970   6.482   4.032
 3681SOL    HW211943   0.826   6.496   4.106
 3682SOL     OW11944   5.332   2.123   0.737
 3682SOL    HW111945   5.374   2.105   0.825
 3682SOL    HW211946   5.403   2.138   0.668
 3683SOL     OW11947   6.540   1.427   0.235
 3683SOL    HW111948   6.572   1.491   0.305
 3683SOL    HW211949   6.447   1.397   0.257
 3684SOL     OW11950   2.640   6.390   5.275
 3684SOL    HW111951   2.632   6.290   5.268
 3684SOL    HW211952   2.737   6.415   5.276
 3685SOL     OW11953   1.720   5.927   4.530
 3685SOL    HW111954   1.624   5.916   4.558
 3685SOL    HW211955   1.724   5.946   4.432
 3686SOL     OW11956   0.270   3.619   0.939
 3686SOL    HW111957   0.313   3.529   0.938
 3686SOL    HW211958   0.204   3.624   1.014
 3687SOL     OW11959   6.077   4.007   4.604
 3687SOL    HW111960   6.030   4.032   4.519
 3687SOL    HW211961   6.068   4.082   4.669
 3688SOL     OW11962   6.316   2.459   1.315
 3688SOL    HW111963   6.411   2.426   1.318
 3688SOL    HW211964   6.261   2.405   1.379
 3689SOL     OW11965   1.018   0.261   6.432
 3689SOL    HW111966   1.017   0.281   6.334
 3689SOL    HW211967   0.971   0.175   6.450
 3690SOL     OW11968   5.406   5.515   1.706
 3690SOL    HW111969   5.385   5.534   1.802
 3690SOL    HW211970   5.502   5.537   1.688
 3691SOL     OW11971   1.771   2.743   0.661
 3691SOL    HW111972   1.714   2.736   0.579
 3691SOL    HW211973   1.718   2.719   0.742
 3692SOL     OW11974   1.076   3.080   5.203
 3692SOL    HW111975   1.010   3.016   5.165
 3692SOL    HW211976   1.080   3.069   5.302
 3693SOL     OW11977   0.726   1.399   2.781
 3693SOL    HW111978   0.689   1.491   2.769
 3693SOL    HW211979   0.650   1.334   2.791
 3694SOL     OW11980   6.493   0.330   3.200
 3694SOL    HW111981   6.565   0.320   3.131
 3694SOL    HW211982   6.408   0.290   3.165
 3695SOL     OW11983   5.736   3.689   3.349
 3695SOL    HW111984   5.784   3.672   3.435
 3695SOL    HW211985   5.649   3.641   3.348
 3696SOL     OW11986   4.105   0.939   4.585
 3696SOL    HW111987   4.160   0.932   4.667
 3696SOL    HW211988   4.043   0.860   4.578
 3697SOL     OW11989   6.533   6.233   3.210
 3697SOL    HW111990   6.455   6.230   3.147
 3697SOL    HW211991   6.531   6.319   3.261
 3698SOL     OW11992   1.726   0.471   3.002
 3698SOL    HW111993   1.772   0.383   3.009
 3698SOL    HW211994   1.793   0.541   2.978
 3699SOL     OW11995   2.699   2.358   3.213
 3699SOL    HW111996   2.604   2.378   3.192
 3699SOL    HW211997   2.757   2.386   3.136
 3700SOL     OW11998   0.809   5.082   5.036
 3700SOL    HW111999   0.728   5.139   5.052
 3700SOL    HW212000   0.886   5.140   5.009
 3701SOL     OW12001   0.445   1.013   2.571
 3701SOL    HW112002   0.409   0.923   2.548
 3701SOL    HW212003   0.426   1.077   2.497
 3702SOL     OW12004   6.273   3.645   3.672
 3702SOL    HW112005   6.298   3.742   3.673
 3702SOL    HW212006   6.180   3.634   3.709
 3703SOL     OW12007   1.427   1.464   3.403
 3703SOL    HW112008   1.444   1.393   3.470
 3703SOL    HW212009   1.453   1.432   3.312
 3704SOL     OW12010   6.322   0.893   0.668
 3704SOL    HW112011   6.322   0.807   0.718
 3704SOL    HW212012   6.227   0.924   0.655
 3705SOL     OW12013   5.696   4.243   3.731
 3705SOL    HW112014   5.663   4.322   3.679
 3705SOL    HW212015   5.635   4.225   3.808
 3706SOL     OW12016   1.231   4.821   6.193
 3706SOL    HW112017   1.281   4.813   6.107
 3706SOL    HW212018   1.239   4.914   6.228
 3707SOL     OW12019   1.142   4.854   3.169
 3707SOL    HW112020   1.158   4.762   3.134
 3707SOL    HW212021   1.177   4.861   3.263
 3708SOL     OW12022   2.108   6.139   1.172
 3708SOL    HW112023   2.119   6.196   1.090
 3708SOL    HW212024   2.149   6.050   1.156
 3709SOL     OW12025   1.139   1.080   1.778
 3709SOL    HW112026   1.123   1.176   1.800
 3709SOL    HW212027   1.196   1.073   1.696
 3710SOL     OW12028   1.243   3.939   5.106
 3710SOL    HW112029   1.261   4.027   5.062
 3710SOL    HW212030   1.329   3.894   5.127
 3711SOL     OW12031   1.265   5.710   4.579
 3711SOL    HW112032   1.275   5.618   4.618
 3711SOL    HW212033   1.213   5.767   4.642
 3712SOL     OW12034   2.656   5.425   4.545
 3712SOL    HW112035   2.697   5.515   4.535
 3712SOL    HW212036   2.665   5.395   4.640
 3713SOL     OW12037   5.843   0.769   4.672
 3713SOL    HW112038   5.875   0.675   4.660
 3713SOL    HW212039   5.744   0.769   4.685
 3714SOL     OW12040   0.403   3.966   0.493
 3714SOL    HW112041   0.359   4.032   0.554
 3714SOL    HW212042   0.334   3.924   0.433
 3715SOL     OW12043   5.884   4.744   3.525
 3715SOL    HW112044   5.936   4.829   3.533
 3715SOL    HW212045   5.863   4.727   3.429
 3716SOL     OW12046   5.594   6.056   4.837
 3716SOL    HW112047   5.636   6.027   4.923
 3716SOL    HW212048   5.498   6.030   4.836
 3717SOL     OW12049   4.453   0.654   0.477
 3717SOL    HW112050   4.425   0.658   0.381
 3717SOL    HW212051   4.467   0.746   0.512
 3718SOL     OW12052   6.052   6.499   6.362
 3718SOL    HW112053   6.068   6.590   6.400
 3718SOL    HW212054   5.960   6.495   6.324
 3719SOL     OW12055   3.309   4.179   0.320
 3719SOL    HW112056   3.294   4.261   0.375
 3719SOL    HW212057   3.368   4.202   0.242
 3720SOL     OW12058   0.264   2.876   1.230
 3720SOL    HW112059   0.165   2.882   1.246
 3720SOL    HW212060   0.306   2.826   1.306
 3721SOL     OW12061   6.388   0.176   5.860
 3721SOL    HW112062   6.429   0.110   5.923
 3721SOL    HW212063   6.398   0.269   5.897
 3722SOL     OW12064   5.625   6.493   2.116
 3722SOL    HW112065   5.691   6.541   2.174
 3722SOL    HW212066   5.668   6.411   2.077
 3723SOL     OW12067   4.700   3.610   6.533
 3723SOL    HW112068   4.626   3.644   6.474
 3723SOL    HW212069   4.788   3.632   6.491
 3724SOL     OW12070   0.672   3.930   4.134
 3724SOL    HW112071   0.633   3.915   4.043
 3724SOL    HW212072   0.717   4.019   4.136
 3725SOL     OW12073   1.510   6.222   0.425
 3725SOL    HW112074   1.507   6.123   0.410
 3725SOL    HW212075   1.461   6.245   0.509
 3726SOL     OW12076   6.079   4.253   5.718
 3726SOL    HW112077   6.144   4.264   5.642
 3726SOL    HW212078   6.099   4.321   5.789
 3727SOL     OW12079   6.732   2.619   4.205
 3727SOL    HW112080   6.705   2.667   4.122
 3727SOL    HW212081   6.757   2.685   4.276
 3728SOL     OW12082   2.812   4.063   0.812
 3728SOL    HW112083   2.868   4.036   0.733
 3728SOL    HW212084   2.718   4.035   0.797
 3729SOL     OW12085   0.108   0.354   5.750
 3729SOL    HW112086   0.193   0.303   5.736
 3729SOL    HW212087   0.081   0.397   5.664
 3730SOL     OW12088   5.050   5.279   4.802
 3730SOL    HW112089   4.986   5.281   4.725
 3730SOL    HW212090   5.084   5.186   4.814
 3731SOL     OW12091   0.160   1.877   0.592
 3731SOL    HW112092   0.213   1.941   0.536
 3731SOL    HW212093   0.144   1.793   0.540
 3732SOL     OW12094   3.850   3.119   7.006
 3732SOL    HW112095   3.901   3.118   6.920
 3732SOL    HW212096   3.893   3.184   0.049
 3733SOL     OW12097   1.341   0.168   3.804
 3733SOL    HW112098   1.364   0.195   3.897
 3733SOL    HW212099   1.257   0.214   3.776
 3734SOL     OW12100   3.864   0.301   1.226
 3734SOL    HW112101   3.940   0.270   1.170
 3734SOL    HW212102   3.780   0.254   1.197
 3735SOL     OW12103   4.912   0.033   2.856
 3735SOL    HW112104   4.957   7.015   2.775
 3735SOL    HW212105   4.814   0.015   2.851
 3736SOL     OW12106   0.028   1.342   6.871
 3736SOL    HW112107   6.994   1.356   6.788
 3736SOL    HW212108   7.010   1.398   6.945
 3737SOL     OW12109   6.011   1.936   2.532
 3737SOL    HW112110   5.941   2.007   2.536
 3737SOL    HW212111   6.101   1.978   2.529
 3738SOL     OW12112   0.299   0.381   1.371
 3738SOL    HW112113   0.213   0.382   1.319
 3738SOL    HW212114   0.307   0.296   1.422
 3739SOL     OW12115   3.513   3.715   6.552
 3739SOL    HW112116   3.529   3.617   6.539
 3739SOL    HW212117   3.456   3.749   6.477
 3740SOL     OW12118   4.867   5.556   6.810
 3740SOL    HW112119   4.824   5.599   6.731
 3740SOL    HW212120   4.873   5.622   6.885
 3741SOL     OW12121   5.472   3.226   0.387
 3741SOL    HW112122   5.421   3.264   0.310
 3741SOL    HW212123   5.409   3.181   0.450
 3742SOL     OW12124   4.320   5.650   1.194
 3742SOL    HW112125   4.323   5.743   1.230
 3742SOL    HW212126   4.298   5.653   1.096
 3743SOL     OW12127   3.699   4.262   0.941
 3743SOL    HW112128   3.766   4.214   0.885
 3743SOL    HW212129   3.633   4.197   0.978
 3744SOL     OW12130   6.403   6.662   2.853
 3744SOL    HW112131   6.446   6.594   2.913
 3744SOL    HW212132   6.474   6.718   2.810
 3745SOL     OW12133   4.780   2.889   2.502
 3745SOL    HW112134   4.732   2.857   2.420
 3745SOL    HW212135   4.879   2.883   2.486
 3746SOL     OW12136   6.234   0.711   4.630
 3746SOL    HW112137   6.243   0.615   4.658
 3746SOL    HW212138   6.321   0.758   4.645
 3747SOL     OW12139   3.308   5.866   5.403
 3747SOL    HW112140   3.271   5.957   5.424
 3747SOL    HW212141   3.277   5.801   5.472
 3748SOL     OW12142   5.060   2.228   3.881
 3748SOL    HW112143   5.050   2.317   3.925
 3748SOL    HW212144   5.010   2.159   3.933
 3749SOL     OW12145   6.453   6.131   2.464
 3749SOL    HW112146   6.529   6.072   2.439
 3749SOL    HW212147   6.461   6.157   2.561
 3750SOL     OW12148   5.337   3.888   1.039
 3750SOL    HW112149   5.246   3.881   1.079
 3750SOL    HW212150   5.347   3.820   0.967
 3751SOL     OW12151   1.081   4.176   1.951
 3751SOL    HW112152   1.102   4.267   1.987
 3751SOL    HW212153   1.021   4.128   2.015
 3752SOL     OW12154   0.374   6.113   6.090
 3752SOL    HW112155   0.309   6.037   6.101
 3752SOL    HW212156   0.331   6.186   6.036
 3753SOL     OW12157   6.978   0.917   5.002
 3753SOL    HW112158   7.008   0.823   4.992
 3753SOL    HW212159   0.015   0.964   5.070
 3754SOL     OW12160   6.893   6.098   1.710
 3754SOL    HW112161   6.943   6.184   1.703
 3754SOL    HW212162   6.867   6.083   1.806
 3755SOL     OW12163   5.174   2.735   2.701
 3755SOL    HW112164   5.160   2.677   2.621
 3755SOL    HW212165   5.151   2.684   2.784
 3756SOL     OW12166   3.263   0.232   6.819
 3756SOL    HW112167   3.196   0.259   6.888
 3756SOL    HW212168   3.336   0.179   6.863
 3757SOL     OW12169   3.613   4.583   7.010
 3757SOL    HW112170   3.572   4.493   7.020
 3757SOL    HW212171   3.701   4.576   6.964
 3758SOL     OW12172   0.126   0.423   2.710
 3758SOL    HW112173   0.215   0.399   2.748
 3758SOL    HW212174   0.098   0.514   2.743
 3759SOL     OW12175   5.108   4.918   0.626
 3759SOL    HW112176   5.108   4.943   0.723
 3759SOL    HW212177   5.015   4.923   0.591
 3760SOL     OW12178   2.432   2.047   5.725
 3760SOL    HW112179   2.504   1.986   5.693
 3760SOL    HW212180   2.445   2.138   5.685
 3761SOL     OW12181   0.307   6.623   4.256
 3761SOL    HW112182   0.377   6.619   4.185
 3761SOL    HW212183   0.345   6.668   4.337
 3762SOL     OW12184   0.497   3.970   6.630
 3762SOL    HW112185   0.436   3.965   6.709
 3762SOL    HW212186   0.442   3.980   6.547
 3763SOL     OW12187   6.541   3.798   5.581
 3763SOL    HW112188   6.572   3.703   5.578
 3763SOL    HW212189   6.611   3.857   5.540
 3764SOL     OW12190   2.565   6.962   4.136
 3764SOL    HW112191   2.548   6.873   4.178
 3764SOL    HW212192   2.564   6.953   4.037
 3765SOL     OW12193   6.376   1.678   3.496
 3765SOL    HW112194   6.420   1.762   3.527
 3765SOL    HW212195   6.435   1.600   3.519
 3766SOL     OW12196   1.411   0.271   5.080
 3766SOL    HW112197   1.497   0.266   5.029
 3766SOL    HW212198   1.390   0.366   5.101
 3767SOL     OW12199   1.450   4.229   0.731
 3767SOL    HW112200   1.455   4.296   0.658
 3767SOL    HW212201   1.513   4.255   0.805
 3768SOL     OW12202   4.393   6.608   0.947
 3768SOL    HW112203   4.460   6.672   0.985
 3768SOL    HW212204   4.341   6.567   1.022
 3769SOL     OW12205   4.623   6.489   4.890
 3769SOL    HW112206   4.708   6.488   4.943
 3769SOL    HW212207   4.627   6.561   4.821
 3770SOL     OW12208   2.220   1.542   0.551
 3770SOL    HW112209   2.168   1.461   0.579
 3770SOL    HW212210   2.294   1.558   0.616
 3771SOL     OW12211   4.909   1.479   5.205
 3771SOL    HW112212   4.863   1.558   5.165
 3771SOL    HW212213   4.843   1.423   5.254
 3772SOL     OW12214   4.795   1.043   2.648
 3772SOL    HW112215   4.846   0.959   2.628
 3772SOL    HW212216   4.838   1.120   2.600
 3773SOL     OW12217   6.681   2.204   0.157
 3773SOL    HW112218   6.745   2.279   0.139
 3773SOL    HW212219   6.622   2.191   0.078
 3774SOL     OW12220   1.091   2.008   2.138
 3774SOL    HW112221   1.054   2.001   2.230
 3774SOL    HW212222   1.035   1.956   2.074
 3775SOL     OW12223   5.707   3.126   3.510
 3775SOL    HW112224   5.802   3.108   3.535
 3775SOL    HW212225   5.702   3.148   3.412
 3776SOL     OW12226   3.025   2.861   6.735
 3776SOL    HW112227   3.013   2.772   6.779
 3776SOL    HW212228   2.986   2.859   6.643
 3777SOL     OW12229   1.592   3.996   3.259
 3777SOL    HW112230   1.568   4.092   3.251
 3777SOL    HW212231   1.690   3.987   3.273
 3778SOL     OW12232   2.258   6.725   1.911
 3778SOL    HW112233   2.198   6.795   1.950
 3778SOL    HW212234   2.353   6.757   1.913
 3779SOL     OW12235   2.927   5.140   6.957
 3779SOL    HW112236   2.902   5.043   6.954
 3779SOL    HW212237   3.010   5.151   7.011
 3780SOL     OW12238   2.583   0.131   4.749
 3780SOL    HW112239   2.630   0.080   4.677
 3780SOL    HW212240   2.649   0.157   4.819
 3781SOL     OW12241   2.844   4.952   4.506
 3781SOL    HW112242   2.751   4.978   4.481
 3781SOL    HW212243   2.865   4.989   4.597
 3782SOL     OW12244   2.488   1.533   3.020
 3782SOL    HW112245   2.534   1.619   3.044
 3782SOL    HW212246   2.400   1.554   2.976
 3783SOL     OW12247   5.041   5.736   5.800
 3783SOL    HW112248   5.003   5.660   5.746
 3783SOL    HW212249   4.993   5.820   5.777
 3784SOL     OW12250   4.810   1.622   3.727
 3784SOL    HW112251   4.851   1.710   3.752
 3784SOL    HW212252   4.880   1.564   3.685
 3785SOL     OW12253   1.520   1.662   1.874
 3785SOL    HW112254   1.567   1.675   1.787
 3785SOL    HW212255   1.534   1.743   1.932
 3786SOL     OW12256   3.410   5.614   3.023
 3786SOL    HW112257   3.401   5.514   3.020
 3786SOL    HW212258   3.356   5.650   3.099
 3787SOL     OW12259   4.050   1.205   4.318
 3787SOL    HW112260   4.056   1.182   4.415
 3787SOL    HW212261   4.091   1.295   4.302
 3788SOL     OW12262   6.010   3.559   1.890
 3788SOL    HW112263   5.941   3.504   1.937
 3788SOL    HW212264   6.035   3.638   1.946
 3789SOL     OW12265   1.202   5.357   2.581
 3789SOL    HW112266   1.272   5.305   2.532
 3789SOL    HW212267   1.214   5.345   2.680
 3790SOL     OW12268   2.281   2.978   3.703
 3790SOL    HW112269   2.342   2.903   3.726
 3790SOL    HW212270   2.284   3.047   3.776
 3791SOL     OW12271   5.893   0.105   2.449
 3791SOL    HW112272   5.907   0.129   2.545
 3791SOL    HW212273   5.951   0.163   2.392
 3792SOL     OW12274   6.992   6.906   6.460
 3792SOL    HW112275   0.043   6.902   6.530
 3792SOL    HW212276   6.953   6.815   6.446
 3793SOL     OW12277   1.780   6.633   2.915
 3793SOL    HW112278   1.776   6.539   2.951
 3793SOL    HW212279   1.872   6.669   2.927
 3794SOL     OW12280   4.198   6.129   2.543
 3794SOL    HW112281   4.148   6.215   2.552
 3794SOL    HW212282   4.287   6.137   2.588
 3795SOL     OW12283   4.758   0.411   0.868
 3795SOL    HW112284   4.687   0.439   0.804
 3795SOL    HW212285   4.822   0.350   0.823
 3796SOL     OW12286   1.724   2.833   1.051
 3796SOL    HW112287   1.687   2.781   0.974
 3796SOL    HW212288   1.650   2.866   1.108
 3797SOL     OW12289   0.313   5.763   2.459
 3797SOL    HW112290   0.277   5.692   2.399
 3797SOL    HW212291   0.351   5.837   2.403
 3798SOL     OW12292   0.954   4.402   1.524
 3798SOL    HW112293   0.879   4.349   1.485
 3798SOL    HW212294   0.970   4.483   1.468
 3799SOL     OW12295   1.112   0.456   5.320
 3799SOL    HW112296   1.193   0.497   5.363
 3799SOL    HW212297   1.033   0.471   5.379
 3800SOL     OW12298   5.298   2.224   5.254
 3800SOL    HW112299   5.218   2.283   5.250
 3800SOL    HW212300   5.279   2.140   5.202
 3801SOL     OW12301   6.931   0.099   6.752
 3801SOL    HW112302   0.001   0.078   6.713
 3801SOL    HW212303   6.923   0.198   6.767
 3802SOL     OW12304   1.454   2.233   5.771
 3802SOL    HW112305   1.534   2.292   5.764
 3802SOL    HW212306   1.421   2.231   5.865
 3803SOL     OW12307   3.704   1.602   1.242
 3803SOL    HW112308   3.723   1.519   1.293
 3803SOL    HW212309   3.771   1.672   1.266
 3804SOL     OW12310   4.551   2.906   5.274
 3804SOL    HW112311   4.599   2.860   5.200
 3804SOL    HW212312   4.466   2.859   5.294
 3805SOL     OW12313   2.201   3.812   1.350
 3805SOL    HW112314   2.240   3.884   1.293
 3805SOL    HW212315   2.167   3.851   1.435
 3806SOL     OW12316   3.178   1.494   0.751
 3806SOL    HW112317   3.109   1.566   0.753
 3806SOL    HW212318   3.137   1.407   0.780
 3807SOL     OW12319   1.383   0.025   3.046
 3807SOL    HW112320   1.395   0.077   2.961
 3807SOL    HW212321   1.362   0.088   3.121
 3808SOL     OW12322   3.325   0.269   0.314
 3808SOL    HW112323   3.310   0.190   0.372
 3808SOL    HW212324   3.238   0.301   0.277
 3809SOL     OW12325   4.608   0.225   6.559
 3809SOL    HW112326   4.601   0.163   6.480
 3809SOL    HW212327   4.704   0.238   6.583
 3810SOL     OW12328   2.492   3.064   5.813
 3810SOL    HW112329   2.493   3.102   5.905
 3810SOL    HW212330   2.579   3.020   5.794
 3811SOL     OW12331   0.238   0.562   6.443
 3811SOL    HW112332   0.332   0.591   6.461
 3811SOL    HW212333   0.238   0.468   6.407
 3812SOL     OW12334   5.178   1.420   5.463
 3812SOL    HW112335   5.227   1.414   5.550
 3812SOL    HW212336   5.080   1.419   5.480
 3813SOL     OW12337   3.852   4.782   1.761
 3813SOL    HW112338   3.851   4.709   1.692
 3813SOL    HW212339   3.767   4.779   1.813
 3814SOL     OW12340   1.671   6.754   2.426
 3814SOL    HW112341   1.731   6.758   2.346
 3814SOL    HW212342   1.723   6.779   2.508
 3815SOL     OW12343   5.550   1.943   1.445
 3815SOL    HW112344   5.542   1.849   1.480
 3815SOL    HW212345   5.512   1.947   1.353
 3816SOL     OW12346   0.340   6.532   1.136
 3816SOL    HW112347   0.381   6.489   1.056
 3816SOL    HW212348   0.384   6.498   1.219
 3817SOL     OW12349   4.938   1.410   5.592
 3817SOL    HW112350   4.874   1.350   5.545
 3817SOL    HW212351   4.896   1.445   5.676
 3818SOL     OW12352   4.703   5.509   2.849
 3818SOL    HW112353   4.679   5.582   2.912
 3818SOL    HW212354   4.682   5.538   2.755
 3819SOL     OW12355   5.574   4.457   5.986
 3819SOL    HW112356   5.673   4.446   5.976
 3819SOL    HW212357   5.528   4.408   5.913
 3820SOL     OW12358   5.154   5.939   4.130
 3820SOL    HW112359   5.114   5.999   4.200
 3820SOL    HW212360   5.230   5.987   4.085
 3821SOL     OW12361   0.793   4.030   0.984
 3821SOL    HW112362   0.703   4.013   0.944
 3821SOL    HW212363   0.782   4.082   1.069
 3822SOL     OW12364   1.292   4.767   1.768
 3822SOL    HW112365   1.304   4.783   1.670
 3822SOL    HW212366   1.305   4.670   1.787
 3823SOL     OW12367   2.401   2.888   5.613
 3823SOL    HW112368   2.342   2.912   5.536
 3823SOL    HW212369   2.407   2.966   5.675
 3824SOL     OW12370   6.593   2.314   6.619
 3824SOL    HW112371   6.515   2.364   6.654
 3824SOL    HW212372   6.580   2.297   6.521
 3825SOL     OW12373   6.269   6.403   5.855
 3825SOL    HW112374   6.315   6.452   5.781
 3825SOL    HW212375   6.194   6.348   5.818
 3826SOL     OW12376   6.429   2.242   0.879
 3826SOL    HW112377   6.405   2.145   0.869
 3826SOL    HW212378   6.350   2.292   0.914
 3827SOL     OW12379   5.327   2.856   1.170
 3827SOL    HW112380   5.273   2.939   1.156
 3827SOL    HW212381   5.338   2.840   1.268
 3828SOL     OW12382   3.978   1.379   1.628
 3828SOL    HW112383   3.946   1.303   1.686
 3828SOL    HW212384   4.069   1.357   1.593
 3829SOL     OW12385   1.014   5.575   3.945
 3829SOL    HW112386   0.937   5.540   3.998
 3829SOL    HW212387   1.029   5.518   3.865
 3830SOL     OW12388   3.227   0.786   5.079
 3830SOL    HW112389   3.155   0.851   5.104
 3830SOL    HW212390   3.209   0.751   4.987
 3831SOL     OW12391   4.428   2.134   2.345
 3831SOL    HW112392   4.458   2.221   2.305
 3831SOL    HW212393   4.490   2.108   2.419
 3832SOL     OW12394   5.191   6.987   2.257
 3832SOL    HW112395   5.143   6.997   2.169
 3832SOL    HW212396   5.280   6.945   2.241
 3833SOL     OW12397   1.818   6.141   0.638
 3833SOL    HW112398   1.852   6.213   0.577
 3833SOL    HW212399   1.786   6.063   0.584
 3834SOL     OW12400   2.865   2.320   0.663
 3834SOL    HW112401   2.787   2.382   0.658
 3834SOL    HW212402   2.950   2.373   0.657
 3835SOL     OW12403   3.589   5.782   4.048
 3835SOL    HW112404   3.633   5.846   3.985
 3835SOL    HW212405   3.614   5.689   4.024
 3836SOL     OW12406   1.690   3.298   5.226
 3836SOL    HW112407   1.789   3.311   5.225
 3836SOL    HW212408   1.670   3.203   5.250
 3837SOL     OW12409   3.137   3.710   0.152
 3837SOL    HW112410   3.071   3.636   0.155
 3837SOL    HW212411   3.110   3.782   0.216
 3838SOL     OW12412   5.738   3.303   5.244
 3838SOL    HW112413   5.664   3.310   5.311
 3838SOL    HW212414   5.814   3.362   5.272
 3839SOL     OW12415   6.601   6.480   6.174
 3839SOL    HW112416   6.510   6.497   6.213
 3839SOL    HW212417   6.598   6.397   6.118
 3840SOL     OW12418   2.669   0.666   3.339
 3840SOL    HW112419   2.631   0.577   3.364
 3840SOL    HW212420   2.634   0.736   3.402
 3841SOL     OW12421   0.951   4.025   4.894
 3841SOL    HW112422   1.000   4.062   4.973
 3841SOL    HW212423   0.853   4.038   4.907
 3842SOL     OW12424   1.664   4.699   6.515
 3842SOL    HW112425   1.644   4.602   6.523
 3842SOL    HW212426   1.595   4.742   6.456
 3843SOL     OW12427   5.566   3.893   0.471
 3843SOL    HW112428   5.638   3.830   0.498
 3843SOL    HW212429   5.594   3.943   0.389
 3844SOL     OW12430   2.568   4.052   6.170
 3844SOL    HW112431   2.640   4.083   6.233
 3844SOL    HW212432   2.480   4.085   6.202
 3845SOL     OW12433   3.018   3.349   3.581
 3845SOL    HW112434   3.053   3.432   3.536
 3845SOL    HW212435   3.030   3.271   3.520
 3846SOL     OW12436   0.146   3.978   4.131
 3846SOL    HW112437   0.069   3.968   4.067
 3846SOL    HW212438   0.230   3.997   4.080
 3847SOL     OW12439   0.753   7.013   0.656
 3847SOL    HW112440   0.693   0.036   0.588
 3847SOL    HW212441   0.845   7.005   0.619
 3848SOL     OW12442   2.924   5.213   1.246
 3848SOL    HW112443   3.006   5.267   1.265
 3848SOL    HW212444   2.916   5.199   1.147
 3849SOL     OW12445   1.927   1.693   6.060
 3849SOL    HW112446   2.000   1.755   6.091
 3849SOL    HW212447   1.856   1.687   6.131
 3850SOL     OW12448   2.452   4.068   1.041
 3850SOL    HW112449   2.546   4.097   1.059
 3850SOL    HW212450   2.390   4.116   1.103
 3851SOL     OW12451   2.237   2.904   1.289
 3851SOL    HW112452   2.205   2.914   1.383
 3851SOL    HW212453   2.226   2.991   1.241
 3852SOL     OW12454   4.808   0.809   5.606
 3852SOL    HW112455   4.734   0.743   5.590
 3852SOL    HW212456   4.842   0.842   5.519
 3853SOL     OW12457   1.400   2.886   1.892
 3853SOL    HW112458   1.491   2.928   1.885
 3853SOL    HW212459   1.401   2.797   1.846
 3854SOL     OW12460   1.841   3.333   4.806
 3854SOL    HW112461   1.784   3.413   4.788
 3854SOL    HW212462   1.897   3.349   4.887
 3855SOL     OW12463   6.763   2.056   5.096
 3855SOL    HW112464   6.722   1.968   5.075
 3855SOL    HW212465   6.745   2.120   5.022
 3856SOL     OW12466   0.328   6.726   5.820
 3856SOL    HW112467   0.426   6.745   5.814
 3856SOL    HW212468   0.308   6.684   5.908
 3857SOL     OW12469   1.053   7.000   6.784
 3857SOL    HW112470   1.093   6.921   6.831
 3857SOL    HW212471   1.120   0.019   6.721
 3858SOL     OW12472   2.624   5.119   6.874
 3858SOL    HW112473   2.721   5.139   6.892
 3858SOL    HW212474   2.568   5.190   6.916
 3859SOL     OW12475   6.594   2.747   1.180
 3859SOL    HW112476   6.614   2.684   1.105
 3859SOL    HW212477   6.521   2.810   1.152
 3860SOL     OW12478   2.019   6.484   5.333
 3860SOL    HW112479   2.004   6.400   5.280
 3860SOL    HW212480   2.068   6.550   5.276
 3861SOL     OW12481   4.209   4.385   7.018
 3861SOL    HW112482   4.258   4.373   0.084
 3861SOL    HW212483   4.188   4.482   7.005
 3862SOL     OW12484   0.839   5.541   5.766
 3862SOL    HW112485   0.744   5.510   5.771
 3862SOL    HW212486   0.898   5.476   5.813
 3863SOL     OW12487   2.894   3.569   0.463
 3863SOL    HW112488   2.859   3.506   0.394
 3863SOL    HW212489   2.845   3.656   0.456
 3864SOL     OW12490   2.816   1.344   0.149
 3864SOL    HW112491   2.730   1.386   0.118
 3864SOL    HW212492   2.878   1.415   0.182
 3865SOL     OW12493   4.244   0.784   2.305
 3865SOL    HW112494   4.160   0.828   2.273
 3865SOL    HW212495   4.293   0.845   2.367
 3866SOL     OW12496   3.561   6.458   6.552
 3866SOL    HW112497   3.527   6.391   6.487
 3866SOL    HW212498   3.538   6.551   6.521
 3867SOL     OW12499   1.850   4.269   3.085
 3867SOL    HW112500   1.841   4.366   3.065
 3867SOL    HW212501   1.936   4.235   3.046
 3868SOL     OW12502   2.765   5.286   2.706
 3868SOL    HW112503   2.856   5.247   2.690
 3868SOL    HW212504   2.768   5.385   2.694
 3869SOL     OW12505   0.856   1.517   3.711
 3869SOL    HW112506   0.851   1.508   3.811
 3869SOL    HW212507   0.950   1.499   3.681
 3870SOL     OW12508   4.437   4.286   0.601
 3870SOL    HW112509   4.354   4.324   0.561
 3870SOL    HW212510   4.413   4.215   0.667
 3871SOL     OW12511   3.100   1.239   4.590
 3871SOL    HW112512   3.039   1.163   4.568
 3871SOL    HW212513   3.064   1.324   4.552
 3872SOL     OW12514   4.298   3.884   0.303
 3872SOL    HW112515   4.202   3.913   0.309
 3872SOL    HW212516   4.309   3.797   0.352
 3873SOL     OW12517   5.034   4.732   1.949
 3873SOL    HW112518   5.100   4.667   1.912
 3873SOL    HW212519   5.054   4.823   1.914
 3874SOL     OW12520   5.076   6.303   6.226
 3874SOL    HW112521   5.167   6.262   6.216
 3874SOL    HW212522   5.010   6.249   6.174
 3875SOL     OW12523   2.462   4.379   0.380
 3875SOL    HW112524   2.395   4.392   0.453
 3875SOL    HW212525   2.449   4.288   0.340
 3876SOL     OW12526   5.657   4.067   2.047
 3876SOL    HW112527   5.671   4.129   2.124
 3876SOL    HW212528   5.654   3.973   2.082
 3877SOL     OW12529   4.982   1.761   1.825
 3877SOL    HW112530   4.991   1.789   1.920
 3877SOL    HW212531   5.031   1.675   1.810
 3878SOL     OW12532   4.625   5.949   4.362
 3878SOL    HW112533   4.579   5.881   4.420
 3878SOL    HW212534   4.696   5.903   4.308
 3879SOL     OW12535   2.612   5.497   1.292
 3879SOL    HW112536   2.676   5.573   1.286
 3879SOL    HW212537   2.536   5.513   1.229
 3880SOL     OW12538   5.644   2.067   4.210
 3880SOL    HW112539   5.647   1.995   4.279
 3880SOL    HW212540   5.736   2.104   4.196
 3881SOL     OW12541   1.040   5.258   0.760
 3881SOL    HW112542   1.009   5.164   0.777
 3881SOL    HW212543   1.101   5.259   0.681
 3882SOL     OW12544   0.773   5.708   0.027
 3882SOL    HW112545   0.774   5.807   0.013
 3882SOL    HW212546   0.860   5.669   7.018
 3883SOL     OW12547   3.184   2.329   6.462
 3883SOL    HW112548   3.227   2.320   6.551
 3883SOL    HW212549   3.129   2.413   6.460
 3884SOL     OW12550   1.981   5.076   5.571
 3884SOL    HW112551   2.076   5.053   5.552
 3884SOL    HW212552   1.949   5.146   5.508
 3885SOL     OW12553   0.175   1.841   4.812
 3885SOL    HW112554   0.180   1.936   4.843
 3885SOL    HW212555   0.102   1.794   4.863
 3886SOL     OW12556   0.062   6.540   5.268
 3886SOL    HW112557   0.066   6.444   5.237
 3886SOL    HW212558   0.109   6.548   5.356
 3887SOL     OW12559   5.937   3.266   4.696
 3887SOL    HW112560   5.861   3.216   4.736
 3887SOL    HW212561   5.968   3.337   4.760
 3888SOL     OW12562   6.018   2.181   2.081
 3888SOL    HW112563   6.002   2.108   2.147
 3888SOL    HW212564   6.112   2.175   2.048
 3889SOL     OW12565   6.469   5.701   6.661
 3889SOL    HW112566   6.429   5.784   6.623
 3889SOL    HW212567   6.405   5.661   6.726
 3890SOL     OW12568   6.838   3.396   3.009
 3890SOL    HW112569   6.762   3.332   3.009
 3890SOL    HW212570   6.803   3.490   3.006
 3891SOL     OW12571   4.949   5.303   5.942
 3891SOL    HW112572   4.877   5.282   5.876
 3891SOL    HW212573   5.019   5.231   5.939
 3892SOL     OW12574   5.733   5.698   4.331
 3892SOL    HW112575   5.703   5.663   4.420
 3892SOL    HW212576   5.655   5.701   4.269
 3893SOL     OW12577   2.806   6.378   4.273
 3893SOL    HW112578   2.786   6.433   4.192
 3893SOL    HW212579   2.863   6.300   4.247
 3894SOL     OW12580   5.284   5.420   6.729
 3894SOL    HW112581   5.252   5.438   6.822
 3894SOL    HW212582   5.227   5.471   6.664
 3895SOL     OW12583   2.250   1.951   5.881
 3895SOL    HW112584   2.317   2.002   5.827
 3895SOL    HW212585   2.204   1.884   5.822
 3896SOL     OW12586   6.213   3.361   6.919
 3896SOL    HW112587   6.163   3.440   6.954
 3896SOL    HW212588   6.175   3.277   6.959
 3897SOL     OW12589   3.537   6.497   3.395
 3897SOL    HW112590   3.610   6.465   3.334
 3897SOL    HW212591   3.577   6.551   3.469
 3898SOL     OW12592   3.062   3.228   4.454
 3898SOL    HW112593   3.016   3.185   4.532
 3898SOL    HW212594   3.094   3.157   4.391
 3899SOL     OW12595   3.964   1.743   5.895
 3899SOL    HW112596   3.996   1.804   5.968
 3899SOL    HW212597   4.041   1.689   5.861
 3900SOL     OW12598   0.274   2.754   4.227
 3900SOL    HW112599   0.185   2.795   4.209
 3900SOL    HW212600   0.337   2.778   4.153
 3901SOL     OW12601   2.799   5.303   5.427
 3901SOL    HW112602   2.795   5.226   5.491
 3901SOL    HW212603   2.706   5.335   5.408
 3902SOL     OW12604   4.352   4.826   3.072
 3902SOL    HW112605   4.281   4.862   3.133
 3902SOL    HW212606   4.441   4.835   3.116
 3903SOL     OW12607   3.997   3.589   5.992
 3903SOL    HW112608   4.056   3.519   5.951
 3903SOL    HW212609   3.928   3.545   6.050
 3904SOL     OW12610   2.258   0.031   0.303
 3904SOL    HW112611   2.220   6.984   0.367
 3904SOL    HW212612   2.261   0.121   0.346
 3905SOL     OW12613   5.432   0.110   6.136
 3905SOL    HW112614   5.487   0.182   6.179
 3905SOL    HW212615   5.409   0.040   6.204
 3906SOL     OW12616   6.893   6.425   4.621
 3906SOL    HW112617   6.868   6.518   4.651
 3906SOL    HW212618   6.989   6.423   4.596
 3907SOL     OW12619   0.395   1.779   4.647
 3907SOL    HW112620   0.315   1.790   4.705
 3907SOL    HW212621   0.460   1.853   4.666
 3908SOL     OW12622   2.068   1.187   4.371
 3908SOL    HW112623   2.163   1.192   4.342
 3908SOL    HW212624   2.014   1.136   4.303
 3909SOL     OW12625   5.142   3.368   1.710
 3909SOL    HW112626   5.152   3.299   1.638
 3909SOL    HW212627   5.045   3.392   1.719
 3910SOL     OW12628   2.462   2.802   1.001
 3910SOL    HW112629   2.490   2.760   1.087
 3910SOL    HW212630   2.483   2.900   1.003
 3911SOL     OW12631   0.302   1.229   1.560
 3911SOL    HW112632   0.337   1.290   1.631
 3911SOL    HW212633   0.235   1.278   1.503
 3912SOL     OW12634   4.626   3.842   0.000
 3912SOL    HW112635   4.604   3.874   0.092
 3912SOL    HW212636   4.564   3.767   6.996
 3913SOL     OW12637   4.039   5.547   1.490
 3913SOL    HW112638   3.998   5.638   1.486
 3913SOL    HW212639   3.967   5.479   1.502
 3914SOL     OW12640   0.002   1.663   0.430
 3914SOL    HW112641   6.945   1.711   0.473
 3914SOL    HW212642   6.988   1.593   0.368
 3915SOL     OW12643   5.413   0.498   5.419
 3915SOL    HW112644   5.347   0.572   5.407
 3915SOL    HW212645   5.375   0.428   5.479
 3916SOL     OW12646   1.764   2.189   2.865
 3916SOL    HW112647   1.860   2.171   2.847
 3916SOL    HW212648   1.738   2.278   2.826
 3917SOL     OW12649   4.026   4.776   2.249
 3917SOL    HW112650   3.984   4.836   2.181
 3917SOL    HW212651   4.087   4.711   2.203
 3918SOL     OW12652   4.790   0.056   0.611
 3918SOL    HW112653   4.764   6.980   0.613
 3918SOL    HW212654   4.708   0.113   0.623
 3919SOL     OW12655   4.876   5.970   3.366
 3919SOL    HW112656   4.788   5.933   3.397
 3919SOL    HW212657   4.900   5.927   3.279
 3920SOL     OW12658   3.449   1.577   5.510
 3920SOL    HW112659   3.416   1.661   5.553
 3920SOL    HW212660   3.543   1.590   5.479
 3921SOL     OW12661   1.537   3.620   6.281
 3921SOL    HW112662   1.565   3.539   6.229
 3921SOL    HW212663   1.471   3.673   6.227
 3922SOL     OW12664   5.026   2.429   4.389
 3922SOL    HW112665   5.007   2.526   4.373
 3922SOL    HW212666   4.941   2.382   4.410
 3923SOL     OW12667   5.706   1.492   1.722
 3923SOL    HW112668   5.636   1.524   1.785
 3923SOL    HW212669   5.668   1.419   1.665
 3924SOL     OW12670   4.916   4.543   4.497
 3924SOL    HW112671   4.993   4.524   4.558
 3924SOL    HW212672   4.852   4.466   4.500
 3925SOL     OW12673   3.899   5.817   1.664
 3925SOL    HW112674   3.844   5.734   1.678
 3925SOL    HW212675   3.923   5.825   1.568
 3926SOL     OW12676   0.847   5.872   5.093
 3926SOL    HW112677   0.939   5.909   5.079
 3926SOL    HW212678   0.845   5.818   5.177
 3927SOL     OW12679   5.775   0.690   5.079
 3927SOL    HW112680   5.852   0.742   5.041
 3927SOL    HW212681   5.703   0.684   5.010
 3928SOL     OW12682   4.522   5.862   2.273
 3928SOL    HW112683   4.552   5.774   2.308
 3928SOL    HW212684   4.422   5.865   2.271
 3929SOL     OW12685   1.178   1.336   5.738
 3929SOL    HW112686   1.167   1.249   5.691
 3929SOL    HW212687   1.197   1.320   5.835
 3930SOL     OW12688   2.073   5.634   4.082
 3930SOL    HW112689   2.159   5.671   4.118
 3930SOL    HW212690   2.038   5.565   4.145
 3931SOL     OW12691   0.522   2.398   0.293
 3931SOL    HW112692   0.432   2.355   0.281
 3931SOL    HW212693   0.530   2.431   0.387
 3932SOL     OW12694   2.302   4.269   2.642
 3932SOL    HW112695   2.295   4.287   2.740
 3932SOL    HW212696   2.264   4.179   2.622
 3933SOL     OW12697   1.984   6.028   0.930
 3933SOL    HW112698   1.896   5.987   0.906
 3933SOL    HW212699   2.042   5.959   0.974
 3934SOL     OW12700   2.463   6.508   1.391
 3934SOL    HW112701   2.415   6.459   1.464
 3934SOL    HW212702   2.409   6.504   1.307
 3935SOL     OW12703   0.227   2.953   4.894
 3935SOL    HW112704   0.244   3.051   4.906
 3935SOL    HW212705   0.266   2.902   4.971
 3936SOL     OW12706   0.012   4.498   4.031
 3936SOL    HW112707   6.961   4.465   3.970
 3936SOL    HW212708   0.073   4.559   3.982
 3937SOL     OW12709   0.911   6.489   0.385
 3937SOL    HW112710   0.915   6.515   0.481
 3937SOL    HW212711   0.863   6.402   0.375
 3938SOL     OW12712   0.576   3.719   0.247
 3938SOL    HW112713   0.618   3.797   0.201
 3938SOL    HW212714   0.643   3.644   0.254
 3939SOL     OW12715   1.794   6.661   3.991
 3939SOL    HW112716   1.753   6.572   4.009
 3939SOL    HW212717   1.770   6.690   3.898
 3940SOL     OW12718   2.424   6.028   6.613
 3940SOL    HW112719   2.428   6.107   6.552
 3940SOL    HW212720   2.341   5.975   6.594
 3941SOL     OW12721   5.441   5.654   2.349
 3941SOL    HW112722   5.371   5.619   2.287
 3941SOL    HW212723   5.445   5.596   2.431
 3942SOL     OW12724   6.398   6.273   6.662
 3942SOL    HW112725   6.302   6.294   6.643
 3942SOL    HW212726   6.403   6.188   6.715
 3943SOL     OW12727   1.753   3.645   6.897
 3943SOL    HW112728   1.704   3.674   6.814
 3943SOL    HW212729   1.847   3.623   6.873
 3944SOL     OW12730   4.752   3.333   6.511
 3944SOL    HW112731   4.726   3.430   6.504
 3944SOL    HW212732   4.787   3.315   6.602
 3945SOL     OW12733   5.822   0.603   3.474
 3945SOL    HW112734   5.730   0.602   3.435
 3945SOL    HW212735   5.887   0.634   3.405
 3946SOL     OW12736   6.831   3.010   0.633
 3946SOL    HW112737   6.852   2.970   0.544
 3946SOL    HW212738   6.914   3.052   0.671
 3947SOL     OW12739   5.427   6.129   2.299
 3947SOL    HW112740   5.390   6.055   2.354
 3947SOL    HW212741   5.369   6.210   2.308
 3948SOL     OW12742   2.308   1.158   5.406
 3948SOL    HW112743   2.376   1.179   5.336
 3948SOL    HW212744   2.287   1.241   5.458
 3949SOL     OW12745   5.799   0.049   2.142
 3949SOL    HW112746   5.894   0.056   2.114
 3949SOL    HW212747   5.748   0.128   2.108
 3950SOL     OW12748   3.053   4.770   1.835
 3950SOL    HW112749   3.035   4.676   1.805
 3950SOL    HW212750   3.054   4.773   1.935
 3951SOL     OW12751   0.320   2.754   3.610
 3951SOL    HW112752   0.283   2.838   3.571
 3951SOL    HW212753   0.297   2.677   3.550
 3952SOL     OW12754   5.438   4.204   6.800
 3952SOL    HW112755   5.385   4.134   6.752
 3952SOL    HW212756   5.393   4.292   6.791
 3953SOL     OW12757   3.274   3.817   5.549
 3953SOL    HW112758   3.327   3.875   5.610
 3953SOL    HW212759   3.229   3.874   5.480
 3954SOL     OW12760   0.678   3.220   4.904
 3954SOL    HW112761   0.659   3.129   4.940
 3954SOL    HW212762   0.776   3.238   4.908
 3955SOL     OW12763   6.286   3.367   0.553
 3955SOL    HW112764   6.270   3.463   0.529
 3955SOL    HW212765   6.201   3.315   0.542
 3956SOL     OW12766   6.505   2.796   5.394
 3956SOL    HW112767   6.560   2.803   5.311
 3956SOL    HW212768   6.533   2.866   5.459
 3957SOL     OW12769   1.057   1.999   1.667
 3957SOL    HW112770   1.123   2.062   1.627
 3957SOL    HW212771   0.974   2.050   1.692
 3958SOL     OW12772   5.733   5.949   1.222
 3958SOL    HW112773   5.734   5.972   1.319
 3958SOL    HW212774   5.740   6.032   1.168
 3959SOL     OW12775   2.390   5.087   1.780
 3959SOL    HW112776   2.463   5.050   1.837
 3959SOL    HW212777   2.426   5.107   1.689
 3960SOL     OW12778   5.557   2.943   0.844
 3960SOL    HW112779   5.564   3.031   0.796
 3960SOL    HW212780   5.466   2.905   0.830
 3961SOL     OW12781   6.738   0.987   1.432
 3961SOL    HW112782   6.672   0.945   1.494
 3961SOL    HW212783   6.830   0.951   1.451
 3962SOL     OW12784   0.008   0.497   6.194
 3962SOL    HW112785   6.982   0.455   6.115
 3962SOL    HW212786   0.079   0.436   6.228
 3963SOL     OW12787   4.990   4.277   4.098
 3963SOL    HW112788   4.900   4.317   4.111
 3963SOL    HW212789   4.986   4.208   4.025
 3964SOL     OW12790   5.843   4.760   0.063
 3964SOL    HW112791   5.798   4.803   7.005
 3964SOL    HW212792   5.909   4.824   0.102
 3965SOL     OW12793   3.696   3.761   1.071
 3965SOL    HW112794   3.701   3.777   1.170
 3965SOL    HW212795   3.781   3.790   1.028
 3966SOL     OW12796   6.794   3.987   5.836
 3966SOL    HW112797   6.887   4.007   5.866
 3966SOL    HW212798   6.780   3.888   5.831
 3967SOL     OW12799   2.108   6.660   0.251
 3967SOL    HW112800   2.064   6.571   0.236
 3967SOL    HW212801   2.151   6.691   0.167
 3968SOL     OW12802   4.770   1.981   1.105
 3968SOL    HW112803   4.790   2.063   1.159
 3968SOL    HW212804   4.670   1.969   1.099
 3969SOL     OW12805   0.067   6.425   0.970
 3969SOL    HW112806   0.070   6.352   1.039
 3969SOL    HW212807   6.992   6.451   0.954
 3970SOL     OW12808   5.371   4.517   3.707
 3970SOL    HW112809   5.347   4.425   3.677
 3970SOL    HW212810   5.469   4.531   3.694
 3971SOL     OW12811   6.950   6.114   3.815
 3971SOL    HW112812   0.015   6.087   3.859
 3971SOL    HW212813   6.970   6.168   3.733
 3972SOL     OW12814   1.181   0.006   6.169
 3972SOL    HW112815   1.232   0.007   6.084
 3972SOL    HW212816   1.234   0.052   6.241
 3973SOL     OW12817   4.124   3.256   2.714
 3973SOL    HW112818   4.056   3.232   2.645
 3973SOL    HW212819   4.208   3.286   2.669
 3974SOL     OW12820   4.831   1.093   6.423
 3974SOL    HW112821   4.896   1.067   6.351
 3974SOL    HW212822   4.772   1.166   6.389
 3975SOL     OW12823   0.235   6.769   4.867
 3975SOL    HW112824   0.208   6.834   4.796
 3975SOL    HW212825   0.334   6.761   4.869
 3976SOL     OW12826   0.753   3.431   6.087
 3976SOL    HW112827   0.782   3.515   6.133
 3976SOL    HW212828   0.776   3.352   6.143
 3977SOL     OW12829   3.412   5.160   5.130
 3977SOL    HW112830   3.466   5.125   5.206
 3977SOL    HW212831   3.468   5.162   5.047
 3978SOL     OW12832   5.987   3.626   6.605
 3978SOL    HW112833   5.948   3.538   6.575
 3978SOL    HW212834   5.969   3.695   6.535
 3979SOL     OW12835   0.998   6.249   3.423
 3979SOL    HW112836   1.097   6.242   3.435
 3979SOL    HW212837   0.977   6.323   3.360
 3980SOL     OW12838   5.217   3.984   4.033
 3980SOL    HW112839   5.155   4.046   3.986
 3980SOL    HW212840   5.176   3.893   4.039
 3981SOL     OW12841   6.825   1.341   6.250
 3981SOL    HW112842   6.817   1.432   6.292
 3981SOL    HW212843   6.873   1.348   6.163
 3982SOL     OW12844   2.281   2.842   4.465
 3982SOL    HW112845   2.221   2.896   4.523
 3982SOL    HW212846   2.336   2.780   4.522
 3983SOL     OW12847   3.212   0.154   3.634
 3983SOL    HW112848   3.240   0.240   3.677
 3983SOL    HW212849   3.267   0.079   3.672
 3984SOL     OW12850   1.600   5.474   1.975
 3984SOL    HW112851   1.606   5.457   2.073
 3984SOL    HW212852   1.667   5.417   1.927
 3985SOL     OW12853   1.714   2.181   1.272
 3985SOL    HW112854   1.743   2.173   1.368
 3985SOL    HW212855   1.770   2.121   1.215
 3986SOL     OW12856   0.782   2.163   2.204
 3986SOL    HW112857   0.791   2.261   2.192
 3986SOL    HW212858   0.853   2.130   2.267
 3987SOL     OW12859   1.650   4.435   4.859
 3987SOL    HW112860   1.748   4.417   4.867
 3987SOL    HW212861   1.600   4.348   4.864
 3988SOL     OW12862   4.877   0.140   1.604
 3988SOL    HW112863   4.888   0.237   1.582
 3988SOL    HW212864   4.780   0.115   1.598
 3989SOL     OW12865   4.114   0.627   5.416
 3989SOL    HW112866   4.067   0.550   5.458
 3989SOL    HW212867   4.075   0.713   5.452
 3990SOL     OW12868   6.868   1.753   3.618
 3990SOL    HW112869   6.846   1.841   3.661
 3990SOL    HW212870   6.854   1.679   3.683
 3991SOL     OW12871   0.371   2.137   3.487
 3991SOL    HW112872   0.347   2.042   3.469
 3991SOL    HW212873   0.468   2.144   3.509
 3992SOL     OW12874   5.263   3.606   6.532
 3992SOL    HW112875   5.309   3.693   6.512
 3992SOL    HW212876   5.274   3.544   6.454
 3993SOL     OW12877   1.559   0.918   4.027
 3993SOL    HW112878   1.594   1.011   4.043
 3993SOL    HW212879   1.615   0.872   3.959
 3994SOL     OW12880   3.188   2.101   3.513
 3994SOL    HW112881   3.254   2.119   3.440
 3994SOL    HW212882   3.158   2.005   3.508
 3995SOL     OW12883   1.289   3.463   2.112
 3995SOL    HW112884   1.389   3.463   2.112
 3995SOL    HW212885   1.255   3.438   2.202
 3996SOL     OW12886   6.218   6.661   5.450
 3996SOL    HW112887   6.149   6.733   5.449
 3996SOL    HW212888   6.247   6.641   5.356
 3997SOL     OW12889   5.261   3.698   4.038
 3997SOL    HW112890   5.246   3.600   4.024
 3997SOL    HW212891   5.351   3.723   4.003
 3998SOL     OW12892   4.970   2.233   3.398
 3998SOL    HW112893   5.020   2.203   3.479
 3998SOL    HW212894   4.925   2.320   3.417
 3999SOL     OW12895   4.893   3.441   1.078
 3999SOL    HW112896   4.946   3.366   1.037
 3999SOL    HW212897   4.796   3.426   1.060
 4000SOL     OW12898   2.195   4.940   3.115
 4000SOL    HW112899   2.293   4.925   3.128
 4000SOL    HW212900   2.155   4.972   3.201
 4001SOL     OW12901   0.062   5.793   4.703
 4001SOL    HW112902   7.000   5.845   4.677
 4001SOL    HW212903   0.143   5.840   4.667
 4002SOL     OW12904   4.057   3.610   4.500
 4002SOL    HW112905   4.006   3.542   4.449
 4002SOL    HW212906   4.108   3.566   4.574
 4003SOL     OW12907   1.844   1.062   4.511
 4003SOL    HW112908   1.767   1.126   4.516
 4003SOL    HW212909   1.930   1.113   4.518
 4004SOL     OW12910   1.727   4.551   4.545
 4004SOL    HW112911   1.815   4.507   4.558
 4004SOL    HW212912   1.715   4.622   4.614
 4005SOL     OW12913   4.921   3.165   0.198
 4005SOL    HW112914   4.860   3.094   0.232
 4005SOL    HW212915   4.868   3.247   0.175
 4006SOL     OW12916   6.793   5.450   2.265
 4006SOL    HW112917   6.854   5.379   2.299
 4006SOL    HW212918   6.820   5.477   2.173
 4007SOL     OW12919   0.321   0.703   1.775
 4007SOL    HW112920   0.326   0.720   1.676
 4007SOL    HW212921   0.268   0.620   1.792
 4008SOL     OW12922   2.943   1.224   1.201
 4008SOL    HW112923   2.883   1.163   1.252
 4008SOL    HW212924   3.029   1.236   1.251
 4009SOL     OW12925   4.423   2.278   0.409
 4009SOL    HW112926   4.395   2.374   0.412
 4009SOL    HW212927   4.491   2.265   0.338
 4010SOL     OW12928   1.818   4.218   0.986
 4010SOL    HW112929   1.872   4.271   1.052
 4010SOL    HW212930   1.838   4.121   0.998
 4011SOL     OW12931   6.015   6.254   5.772
 4011SOL    HW112932   6.001   6.332   5.711
 4011SOL    HW212933   6.101   6.208   5.748
 4012SOL     OW12934   5.989   6.045   2.792
 4012SOL    HW112935   5.897   6.085   2.789
 4012SOL    HW212936   6.057   6.116   2.774
 4013SOL     OW12937   6.772   1.648   6.897
 4013SOL    HW112938   6.697   1.714   6.903
 4013SOL    HW212939   6.856   1.690   6.932
 4014SOL     OW12940   3.610   5.401   2.301
 4014SOL    HW112941   3.694   5.455   2.295
 4014SOL    HW212942   3.597   5.370   2.395
 4015SOL     OW12943   4.185   5.335   6.110
 4015SOL    HW112944   4.169   5.410   6.045
 4015SOL    HW212945   4.270   5.352   6.160
 4016SOL     OW12946   5.123   4.832   4.679
 4016SOL    HW112947   5.115   4.898   4.754
 4016SOL    HW212948   5.177   4.872   4.605
 4017SOL     OW12949   1.570   5.786   5.378
 4017SOL    HW112950   1.657   5.738   5.373
 4017SOL    HW212951   1.584   5.878   5.414
 4018SOL     OW12952   4.054   5.780   1.178
 4018SOL    HW112953   3.957   5.790   1.154
 4018SOL    HW212954   4.082   5.685   1.167
 4019SOL     OW12955   6.814   3.660   2.474
 4019SOL    HW112956   6.760   3.729   2.425
 4019SOL    HW212957   6.892   3.632   2.418
 4020SOL     OW12958   6.886   5.965   4.636
 4020SOL    HW112959   6.817   5.967   4.564
 4020SOL    HW212960   6.860   6.026   4.711
 4021SOL     OW12961   4.221   4.943   6.355
 4021SOL    HW112962   4.280   4.997   6.295
 4021SOL    HW212963   4.268   4.858   6.380
 4022SOL     OW12964   2.811   6.066   1.238
 4022SOL    HW112965   2.717   6.033   1.231
 4022SOL    HW212966   2.815   6.143   1.302
 4023SOL     OW12967   0.514   1.587   4.352
 4023SOL    HW112968   0.476   1.661   4.297
 4023SOL    HW212969   0.543   1.622   4.441
 4024SOL     OW12970   0.408   6.402   4.945
 4024SOL    HW112971   0.458   6.487   4.960
 4024SOL    HW212972   0.383   6.362   5.033
 4025SOL     OW12973   6.863   5.162   3.794
 4025SOL    HW112974   6.781   5.166   3.738
 4025SOL    HW212975   6.857   5.229   3.868
 4026SOL     OW12976   0.475   6.602   4.033
 4026SOL    HW112977   0.469   6.673   3.963
 4026SOL    HW212978   0.498   6.515   3.991
 4027SOL     OW12979   3.322   4.737   5.361
 4027SOL    HW112980   3.412   4.778   5.371
 4027SOL    HW212981   3.330   4.638   5.356
 4028SOL     OW12982   5.019   1.248   3.789
 4028SOL    HW112983   5.069   1.192   3.855
 4028SOL    HW212984   5.060   1.236   3.698
 4029SOL     OW12985   1.518   6.263   0.773
 4029SOL    HW112986   1.601   6.233   0.820
 4029SOL    HW212987   1.504   6.360   0.789
 4030SOL     OW12988   0.649   1.640   2.182
 4030SOL    HW112989   0.698   1.615   2.266
 4030SOL    HW212990   0.612   1.732   2.192
 4031SOL     OW12991   5.786   6.284   0.620
 4031SOL    HW112992   5.869   6.233   0.597
 4031SOL    HW212993   5.792   6.317   0.714
 4032SOL     OW12994   4.971   0.971   2.328
 4032SOL    HW112995   4.974   0.930   2.419
 4032SOL    HW212996   4.916   0.915   2.267
 4033SOL     OW12997   2.579   2.159   2.975
 4033SOL    HW112998   2.625   2.243   2.946
 4033SOL    HW212999   2.497   2.183   3.027
 4034SOL     OW13000   1.420   2.767   4.786
 4034SOL    HW113001   1.417   2.729   4.694
 4034SOL    HW213002   1.471   2.853   4.786
 4035SOL     OW13003   4.799   2.267   1.983
 4035SOL    HW113004   4.784   2.225   2.072
 4035SOL    HW213005   4.711   2.290   1.942
 4036SOL     OW13006   3.159   5.988   3.196
 4036SOL    HW113007   3.077   5.948   3.237
 4036SOL    HW213008   3.154   6.088   3.202
 4037SOL     OW13009   2.041   1.494   6.313
 4037SOL    HW113010   2.002   1.585   6.330
 4037SOL    HW213011   2.137   1.504   6.288
 4038SOL     OW13012   3.531   4.460   5.824
 4038SOL    HW113013   3.625   4.493   5.819
 4038SOL    HW213014   3.503   4.452   5.919
 4039SOL     OW13015   5.467   4.830   1.470
 4039SOL    HW113016   5.501   4.898   1.534
 4039SOL    HW213017   5.368   4.842   1.458
 4040SOL     OW13018   3.346   0.375   5.237
 4040SOL    HW113019   3.439   0.341   5.233
 4040SOL    HW213020   3.289   0.312   5.289
 4041SOL     OW13021   1.579   5.728   1.644
 4041SOL    HW113022   1.491   5.693   1.679
 4041SOL    HW213023   1.562   5.789   1.567
 4042SOL     OW13024   0.567   1.634   2.726
 4042SOL    HW113025   0.553   1.646   2.824
 4042SOL    HW213026   0.486   1.666   2.677
 4043SOL     OW13027   5.246   2.858   6.399
 4043SOL    HW113028   5.212   2.829   6.488
 4043SOL    HW213029   5.211   2.950   6.378
 4044SOL     OW13030   4.749   4.460   3.121
 4044SOL    HW113031   4.659   4.442   3.081
 4044SOL    HW213032   4.818   4.405   3.074
 4045SOL     OW13033   4.892   0.950   5.361
 4045SOL    HW113034   4.921   0.928   5.267
 4045SOL    HW213035   4.844   1.038   5.360
 4046SOL     OW13036   5.283   1.969   3.136
 4046SOL    HW113037   5.214   1.959   3.208
 4046SOL    HW213038   5.371   1.992   3.177
 4047SOL     OW13039   3.237   2.926   6.465
 4047SOL    HW113040   3.304   2.925   6.539
 4047SOL    HW213041   3.145   2.916   6.503
 4048SOL     OW13042   5.161   1.825   2.499
 4048SOL    HW113043   5.109   1.910   2.495
 4048SOL    HW213044   5.190   1.807   2.593
 4049SOL     OW13045   4.169   3.860   0.608
 4049SOL    HW113046   4.071   3.854   0.588
 4049SOL    HW213047   4.183   3.921   0.687
 4050SOL     OW13048   0.559   5.309   2.465
 4050SOL    HW113049   0.617   5.302   2.546
 4050SOL    HW213050   0.584   5.391   2.413
 4051SOL     OW13051   5.396   0.894   5.237
 4051SOL    HW113052   5.414   0.971   5.298
 4051SOL    HW213053   5.394   0.926   5.142
 4052SOL     OW13054   5.536   2.095   3.281
 4052SOL    HW113055   5.566   2.190   3.284
 4052SOL    HW213056   5.502   2.068   3.371
 4053SOL     OW13057   0.792   4.907   3.969
 4053SOL    HW113058   0.845   4.991   3.981
 4053SOL    HW213059   0.695   4.928   3.982
 4054SOL     OW13060   4.017   3.800   1.000
 4054SOL    HW113061   4.086   3.781   1.070
 4054SOL    HW213062   4.047   3.764   0.912
 4055SOL     OW13063   0.172   3.922   0.290
 4055SOL    HW113064   0.114   3.847   0.322
 4055SOL    HW213065   0.124   4.009   0.304
 4056SOL     OW13066   4.710   3.345   0.092
 4056SOL    HW113067   4.730   3.442   0.110
 4056SOL    HW213068   4.622   3.322   0.134
 4057SOL     OW13069   6.985   3.308   0.528
 4057SOL    HW113070   6.907   3.363   0.558
 4057SOL    HW213071   0.019   3.361   0.463
 4058SOL     OW13072   2.231   0.494   4.835
 4058SOL    HW113073   2.271   0.553   4.764
 4058SOL    HW213074   2.145   0.456   4.802
 4059SOL     OW13075   0.310   1.228   3.233
 4059SOL    HW113076   0.338   1.133   3.241
 4059SOL    HW213077   0.365   1.284   3.296
 4060SOL     OW13078   0.133   6.505   4.530
 4060SOL    HW113079   0.196   6.441   4.486
 4060SOL    HW213080   0.175   6.542   4.613
 4061SOL     OW13081   0.887   4.793   1.574
 4061SOL    HW113082   0.870   4.868   1.511
 4061SOL    HW213083   0.802   4.766   1.619
 4062SOL     OW13084   2.062   3.587   0.692
 4062SOL    HW113085   2.016   3.520   0.751
 4062SOL    HW213086   2.066   3.552   0.598
 4063SOL     OW13087   4.619   0.472   0.319
 4063SOL    HW113088   4.558   0.547   0.294
 4063SOL    HW213089   4.695   0.507   0.375
 4064SOL     OW13090   1.768   1.058   6.058
 4064SOL    HW113091   1.700   1.025   6.124
 4064SOL    HW213092   1.803   1.147   6.087
 4065SOL     OW13093   2.666   0.080   0.914
 4065SOL    HW113094   2.635   0.030   0.833
 4065SOL    HW213095   2.678   0.016   0.990
 4066SOL     OW13096   0.743   3.800   3.548
 4066SOL    HW113097   0.692   3.721   3.515
 4066SOL    HW213098   0.784   3.778   3.637
 4067SOL     OW13099   5.575   5.033   0.568
 4067SOL    HW113100   5.495   4.976   0.589
 4067SOL    HW213101   5.574   5.114   0.626
 4068SOL     OW13102   2.377   2.705   5.158
 4068SOL    HW113103   2.390   2.798   5.125
 4068SOL    HW213104   2.367   2.706   5.258
 4069SOL     OW13105   4.781   6.937   6.698
 4069SOL    HW113106   4.731   6.965   6.616
 4069SOL    HW213107   4.740   6.980   6.779
 4070SOL     OW13108   1.664   3.544   3.764
 4070SOL    HW113109   1.592   3.608   3.793
 4070SOL    HW213110   1.719   3.518   3.844
 4071SOL     OW13111   1.547   0.675   4.622
 4071SOL    HW113112   1.449   0.692   4.618
 4071SOL    HW213113   1.565   0.601   4.688
 4072SOL     OW13114   2.647   5.717   3.235
 4072SOL    HW113115   2.745   5.727   3.252
 4072SOL    HW213116   2.600   5.697   3.321
 4073SOL     OW13117   4.304   4.717   6.747
 4073SOL    HW113118   4.367   4.639   6.746
 4073SOL    HW213119   4.354   4.801   6.765
 4074SOL     OW13120   1.500   5.778   2.766
 4074SOL    HW113121   1.410   5.753   2.729
 4074SOL    HW213122   1.570   5.717   2.729
 4075SOL     OW13123   6.559   0.638   1.033
 4075SOL    HW113124   6.558   0.586   1.119
 4075SOL    HW213125   6.618   0.718   1.043
 4076SOL     OW13126   2.233   4.726   4.469
 4076SOL    HW113127   2.242   4.644   4.526
 4076SOL    HW213128   2.286   4.713   4.385
 4077SOL     OW13129   3.029   0.850   2.010
 4077SOL    HW113130   2.940   0.893   2.022
 4077SOL    HW213131   3.083   0.901   1.943
 4078SOL     OW13132   3.394   4.984   2.367
 4078SOL    HW113133   3.478   4.950   2.324
 4078SOL    HW213134   3.316   4.964   2.307
 4079SOL     OW13135   0.663   1.962   3.757
 4079SOL    HW113136   0.606   2.035   3.795
 4079SOL    HW213137   0.728   1.931   3.827
 4080SOL     OW13138   6.623   2.310   5.204
 4080SOL    HW113139   6.649   2.356   5.119
 4080SOL    HW213140   6.643   2.212   5.197
 4081SOL     OW13141   1.980   3.223   3.758
 4081SOL    HW113142   1.915   3.264   3.694
 4081SOL    HW213143   1.979   3.274   3.844
 4082SOL     OW13144   0.597   3.559   0.927
 4082SOL    HW113145   0.552   3.471   0.937
 4082SOL    HW213146   0.553   3.612   0.855
 4083SOL     OW13147   6.194   3.113   4.711
 4083SOL    HW113148   6.108   3.156   4.686
 4083SOL    HW213149   6.189   3.082   4.807
 4084SOL     OW13150   6.917   1.796   3.953
 4084SOL    HW113151   6.954   1.764   3.866
 4084SOL    HW213152   6.991   1.830   4.011
 4085SOL     OW13153   2.559   6.171   0.411
 4085SOL    HW113154   2.618   6.216   0.478
 4085SOL    HW213155   2.470   6.154   0.453
 4086SOL     OW13156   0.934   4.501   0.655
 4086SOL    HW113157   0.856   4.541   0.608
 4086SOL    HW213158   0.903   4.426   0.714
 4087SOL     OW13159   2.502   1.813   3.072
 4087SOL    HW113160   2.416   1.861   3.056
 4087SOL    HW213161   2.524   1.814   3.169
 4088SOL     OW13162   6.420   1.987   0.779
 4088SOL    HW113163   6.339   1.947   0.738
 4088SOL    HW213164   6.489   1.916   0.794
 4089SOL     OW13165   1.053   1.457   5.519
 4089SOL    HW113166   1.111   1.459   5.600
 4089SOL    HW213167   1.092   1.516   5.448
 4090SOL     OW13168   1.955   4.859   5.982
 4090SOL    HW113169   2.041   4.873   6.033
 4090SOL    HW213170   1.976   4.823   5.891
 4091SOL     OW13171   4.216   6.529   0.383
 4091SOL    HW113172   4.178   6.444   0.347
 4091SOL    HW213173   4.304   6.510   0.427
 4092SOL     OW13174   0.069   2.232   5.015
 4092SOL    HW113175   0.005   2.265   4.945
 4092SOL    HW213176   0.158   2.214   4.973
 4093SOL     OW13177   5.568   0.443   4.889
 4093SOL    HW113178   5.600   0.483   4.975
 4093SOL    HW213179   5.472   0.418   4.898
 4094SOL     OW13180   2.673   4.304   5.274
 4094SOL    HW113181   2.761   4.338   5.307
 4094SOL    HW213182   2.675   4.204   5.274
 4095SOL     OW13183   1.612   4.057   5.835
 4095SOL    HW113184   1.671   4.046   5.755
 4095SOL    HW213185   1.663   4.105   5.907
 4096SOL     OW13186   4.242   4.659   2.104
 4096SOL    HW113187   4.290   4.632   2.020
 4096SOL    HW213188   4.301   4.643   2.183
 4097SOL     OW13189   3.071   3.424   4.265
 4097SOL    HW113190   3.064   3.349   4.332
 4097SOL    HW213191   2.984   3.473   4.262
 4098SOL     OW13192   0.393   2.535   2.369
 4098SOL    HW113193   0.438   2.548   2.281
 4098SOL    HW213194   0.460   2.541   2.443
 4099SOL     OW13195   3.434   6.153   1.865
 4099SOL    HW113196   3.389   6.234   1.903
 4099SOL    HW213197   3.527   6.176   1.839
 4100SOL     OW13198   3.641   6.322   3.094
 4100SOL    HW113199   3.729   6.337   3.049
 4100SOL    HW213200   3.567   6.357   3.036
 4101SOL     OW13201   4.579   0.897   6.732
 4101SOL    HW113202   4.487   0.858   6.732
 4101SOL    HW213203   4.572   0.997   6.731
 4102SOL     OW13204   5.658   1.367   0.473
 4102SOL    HW113205   5.598   1.443   0.498
 4102SOL    HW213206   5.606   1.300   0.419
 4103SOL     OW13207   0.149   0.401   2.334
 4103SOL    HW113208   0.079   0.349   2.383
 4103SOL    HW213209   0.239   0.370   2.363
 4104SOL     OW13210   1.778   4.787   2.589
 4104SOL    HW113211   1.764   4.864   2.650
 4104SOL    HW213212   1.814   4.820   2.501
 4105SOL     OW13213   5.507   5.307   0.444
 4105SOL    HW113214   5.520   5.236   0.375
 4105SOL    HW213215   5.573   5.294   0.518
 4106SOL     OW13216   0.091   3.718   5.089
 4106SOL    HW113217   0.184   3.681   5.080
 4106SOL    HW213218   0.025   3.643   5.083
 4107SOL     OW13219   6.917   1.327   1.259
 4107SOL    HW113220   6.992   1.264   1.281
 4107SOL    HW213221   6.939   1.418   1.294
 4108SOL     OW13222   6.861   2.958   5.383
 4108SOL    HW113223   6.872   3.052   5.350
 4108SOL    HW213224   6.770   2.947   5.422
 4109SOL     OW13225   3.241   6.490   3.352
 4109SOL    HW113226   3.328   6.448   3.379
 4109SOL    HW213227   3.240   6.586   3.381
 4110SOL     OW13228   4.746   3.272   5.460
 4110SOL    HW113229   4.771   3.187   5.414
 4110SOL    HW213230   4.712   3.252   5.552
 4111SOL     OW13231   4.538   3.264   6.730
 4111SOL    HW113232   4.614   3.248   6.666
 4111SOL    HW213233   4.559   3.342   6.789
 4112SOL     OW13234   3.260   0.686   4.388
 4112SOL    HW113235   3.186   0.712   4.450
 4112SOL    HW213236   3.222   0.653   4.302
 4113SOL     OW13237   3.845   5.357   4.327
 4113SOL    HW113238   3.824   5.296   4.403
 4113SOL    HW213239   3.774   5.427   4.319
 4114SOL     OW13240   2.896   1.960   2.747
 4114SOL    HW113241   2.887   1.861   2.756
 4114SOL    HW213242   2.805   2.002   2.746
 4115SOL     OW13243   5.486   4.959   1.961
 4115SOL    HW113244   5.391   4.970   1.992
 4115SOL    HW213245   5.490   4.887   1.892
 4116SOL     OW13246   3.164   1.170   2.132
 4116SOL    HW113247   3.194   1.191   2.225
 4116SOL    HW213248   3.072   1.131   2.135
 4117SOL     OW13249   0.956   5.362   2.154
 4117SOL    HW113250   0.887   5.294   2.128
 4117SOL    HW213251   0.965   5.429   2.080
 4118SOL     OW13252   2.456   6.560   0.343
 4118SOL    HW113253   2.529   6.533   0.407
 4118SOL    HW213254   2.483   6.644   0.297
 4119SOL     OW13255   4.457   0.817   3.338
 4119SOL    HW113256   4.423   0.772   3.255
 4119SOL    HW213257   4.428   0.913   3.337
 4120SOL     OW13258   3.413   1.044   2.129
 4120SOL    HW113259   3.460   1.009   2.048
 4120SOL    HW213260   3.315   1.053   2.109
 4121SOL     OW13261   6.658   3.172   4.758
 4121SOL    HW113262   6.688   3.080   4.782
 4121SOL    HW213263   6.562   3.184   4.783
 4122SOL     OW13264   1.912   5.437   6.683
 4122SOL    HW113265   1.943   5.489   6.604
 4122SOL    HW213266   1.991   5.411   6.739
 4123SOL     OW13267   4.874   3.790   6.178
 4123SOL    HW113268   4.910   3.774   6.087
 4123SOL    HW213269   4.795   3.730   6.194
 4124SOL     OW13270   4.829   6.718   3.452
 4124SOL    HW113271   4.885   6.641   3.421
 4124SOL    HW213272   4.779   6.756   3.375
 4125SOL     OW13273   5.146   1.329   0.739
 4125SOL    HW113274   5.195   1.411   0.771
 4125SOL    HW213275   5.048   1.348   0.736
 4126SOL     OW13276   1.881   5.081   4.107
 4126SOL    HW113277   1.966   5.075   4.055
 4126SOL    HW213278   1.815   5.015   4.071
 4127SOL     OW13279   6.360   4.032   5.605
 4127SOL    HW113280   6.408   3.943   5.606
 4127SOL    HW213281   6.264   4.018   5.628
 4128SOL     OW13282   1.090   2.249   2.457
 4128SOL    HW113283   1.097   2.153   2.485
 4128SOL    HW213284   1.179   2.280   2.423
 4129SOL     OW13285   5.681   1.821   5.952
 4129SOL    HW113286   5.720   1.803   6.042
 4129SOL    HW213287   5.677   1.736   5.899
 4130SOL     OW13288   5.986   3.671   1.085
 4130SOL    HW113289   5.958   3.695   1.178
 4130SOL    HW213290   6.040   3.587   1.086
 4131SOL     OW13291   6.503   4.312   3.583
 4131SOL    HW113292   6.548   4.393   3.545
 4131SOL    HW213293   6.572   4.245   3.609
 4132SOL     OW13294   4.952   2.176   4.222
 4132SOL    HW113295   4.924   2.265   4.257
 4132SOL    HW213296   4.910   2.160   4.133
 4133SOL     OW13297   2.872   2.157   1.010
 4133SOL    HW113298   2.792   2.101   1.026
 4133SOL    HW213299   2.845   2.253   1.001
 4134SOL     OW13300   1.217   1.537   0.017
 4134SOL    HW113301   1.177   1.445   0.016
 4134SOL    HW213302   1.161   1.597   0.075
 4135SOL     OW13303   1.314   0.712   0.945
 4135SOL    HW113304   1.312   0.631   0.887
 4135SOL    HW213305   1.348   0.687   1.036
 4136SOL     OW13306   1.279   1.751   3.013
 4136SOL    HW113307   1.335   1.707   2.943
 4136SOL    HW213308   1.339   1.798   3.078
 4137SOL     OW13309   3.468   3.931   5.701
 4137SOL    HW113310   3.496   4.027   5.693
 4137SOL    HW213311   3.488   3.898   5.793
 4138SOL     OW13312   4.111   5.313   3.050
 4138SOL    HW113313   4.151   5.373   3.120
 4138SOL    HW213314   4.017   5.340   3.033
 4139SOL     OW13315   2.063   1.047   0.213
 4139SOL    HW113316   2.071   1.091   0.302
 4139SOL    HW213317   2.145   0.992   0.196
 4140SOL     OW13318   4.627   1.749   5.319
 4140SOL    HW113319   4.671   1.662   5.298
 4140SOL    HW213320   4.579   1.782   5.238
 4141SOL     OW13321   5.552   5.613   0.795
 4141SOL    HW113322   5.599   5.543   0.741
 4141SOL    HW213323   5.460   5.628   0.759
 4142SOL     OW13324   6.107   3.330   1.545
 4142SOL    HW113325   6.016   3.318   1.584
 4142SOL    HW213326   6.113   3.420   1.501
 4143SOL     OW13327   0.367   2.166   1.369
 4143SOL    HW113328   0.335   2.116   1.288
 4143SOL    HW213329   0.328   2.125   1.451
 4144SOL     OW13330   4.529   1.154   2.346
 4144SOL    HW113331   4.577   1.208   2.414
 4144SOL    HW213332   4.585   1.147   2.263
 4145SOL     OW13333   2.803   6.828   3.018
 4145SOL    HW113334   2.851   6.858   3.101
 4145SOL    HW213335   2.772   6.734   3.031
 4146SOL     OW13336   4.884   5.571   0.637
 4146SOL    HW113337   4.931   5.484   0.653
 4146SOL    HW213338   4.785   5.558   0.644
 4147SOL     OW13339   3.066   2.563   5.621
 4147SOL    HW113340   3.115   2.582   5.705
 4147SOL    HW213341   3.030   2.648   5.583
 4148SOL     OW13342   5.832   0.009   3.093
 4148SOL    HW113343   5.735   0.033   3.098
 4148SOL    HW213344   5.864   7.000   3.183
 4149SOL     OW13345   5.297   4.130   1.488
 4149SOL    HW113346   5.350   4.182   1.421
 4149SOL    HW213347   5.200   4.136   1.466
 4150SOL     OW13348   4.862   0.346   5.673
 4150SOL    HW113349   4.826   0.253   5.684
 4150SOL    HW213350   4.826   0.405   5.745
 4151SOL     OW13351   6.964   5.149   0.431
 4151SOL    HW113352   6.898   5.224   0.427
 4151SOL    HW213353   6.950   5.096   0.515
 4152SOL     OW13354   3.994   4.259   1.190
 4152SOL    HW113355   3.926   4.326   1.161
 4152SOL    HW213356   3.992   4.251   1.289
 4153SOL     OW13357   6.299   5.473   6.175
 4153SOL    HW113358   6.356   5.554   6.190
 4153SOL    HW213359   6.251   5.481   6.088
 4154SOL     OW13360   4.532   2.809   5.618
 4154SOL    HW113361   4.489   2.729   5.577
 4154SOL    HW213362   4.623   2.823   5.577
 4155SOL     OW13363   1.314   3.016   1.394
 4155SOL    HW113364   1.251   3.062   1.332
 4155SOL    HW213365   1.333   3.077   1.472
 4156SOL     OW13366   6.179   0.153   5.690
 4156SOL    HW113367   6.244   0.164   5.765
 4156SOL    HW213368   6.209   0.079   5.631
 4157SOL     OW13369   3.207   0.395   4.976
 4157SOL    HW113370   3.249   0.376   5.064
 4157SOL    HW213371   3.132   0.460   4.989
 4158SOL     OW13372   1.107   0.060   4.340
 4158SOL    HW113373   1.058   7.017   4.280
 4158SOL    HW213374   1.197   0.021   4.362
 4159SOL     OW13375   0.888   3.274   5.233
 4159SOL    HW113376   0.968   3.224   5.199
 4159SOL    HW213377   0.882   3.263   5.332
 4160SOL     OW13378   1.469   1.063   0.791
 4160SOL    HW113379   1.474   1.133   0.862
 4160SOL    HW213380   1.378   1.021   0.792
 4161SOL     OW13381   6.163   1.867   0.722
 4161SOL    HW113382   6.140   1.954   0.766
 4161SOL    HW213383   6.108   1.794   0.763
 4162SOL     OW13384   6.906   0.179   5.183
 4162SOL    HW113385   6.843   0.101   5.187
 4162SOL    HW213386   6.985   0.155   5.128
 4163SOL     OW13387   6.300   1.095   3.870
 4163SOL    HW113388   6.373   1.040   3.829
 4163SOL    HW213389   6.266   1.050   3.953
 4164SOL     OW13390   2.325   0.310   6.119
 4164SOL    HW113391   2.289   0.239   6.179
 4164SOL    HW213392   2.312   0.283   6.023
 4165SOL     OW13393   3.005   6.222   2.590
 4165SOL    HW113394   3.000   6.251   2.686
 4165SOL    HW213395   2.920   6.174   2.566
 4166SOL     OW13396   6.110   2.851   0.958
 4166SOL    HW113397   6.028   2.872   1.011
 4166SOL    HW213398   6.156   2.771   0.997
 4167SOL     OW13399   2.178   3.199   1.235
 4167SOL    HW113400   2.104   3.241   1.289
 4167SOL    HW213401   2.144   3.179   1.143
 4168SOL     OW13402   1.463   4.486   1.142
 4168SOL    HW113403   1.446   4.555   1.072
 4168SOL    HW213404   1.485   4.399   1.098
 4169SOL     OW13405   6.264   3.629   4.537
 4169SOL    HW113406   6.357   3.617   4.571
 4169SOL    HW213407   6.199   3.605   4.610
 4170SOL     OW13408   4.325   2.364   5.347
 4170SOL    HW113409   4.258   2.378   5.274
 4170SOL    HW213410   4.414   2.343   5.307
 4171SOL     OW13411   5.758   3.571   1.508
 4171SOL    HW113412   5.661   3.594   1.497
 4171SOL    HW213413   5.766   3.487   1.561
 4172SOL     OW13414   2.242   1.771   6.976
 4172SOL    HW113415   2.238   1.757   0.055
 4172SOL    HW213416   2.336   1.792   6.949
 4173SOL     OW13417   5.644   3.674   5.509
 4173SOL    HW113418   5.679   3.766   5.520
 4173SOL    HW213419   5.544   3.674   5.518
 4174SOL     OW13420   5.008   0.693   4.193
 4174SOL    HW113421   4.987   0.595   4.187
 4174SOL    HW213422   5.053   0.712   4.280
 4175SOL     OW13423   3.216   1.698   3.714
 4175SOL    HW113424   3.191   1.745   3.629
 4175SOL    HW213425   3.314   1.709   3.731
 4176SOL     OW13426   6.179   5.893   2.684
 4176SOL    HW113427   6.205   5.973   2.630
 4176SOL    HW213428   6.106   5.918   2.748
 4177SOL     OW13429   6.710   5.280   2.611
 4177SOL    HW113430   6.781   5.297   2.542
 4177SOL    HW213431   6.732   5.197   2.662
 4178SOL     OW13432   4.153   2.636   6.004
 4178SOL    HW113433   4.159   2.726   5.960
 4178SOL    HW213434   4.118   2.570   5.938
 4179SOL     OW13435   6.201   2.928   6.020
 4179SOL    HW113436   6.150   2.983   5.953
 4179SOL    HW213437   6.173   2.955   6.112
 4180SOL     OW13438   4.211   3.765   1.181
 4180SOL    HW113439   4.306   3.795   1.170
 4180SOL    HW213440   4.207   3.693   1.250
 4181SOL     OW13441   0.188   1.181   0.002
 4181SOL    HW113442   0.138   1.234   6.954
 4181SOL    HW213443   0.269   1.139   6.979
 4182SOL     OW13444   5.654   1.350   3.762
 4182SOL    HW113445   5.753   1.363   3.751
 4182SOL    HW213446   5.623   1.403   3.841
 4183SOL     OW13447   1.582   1.858   1.295
 4183SOL    HW113448   1.487   1.866   1.324
 4183SOL    HW213449   1.642   1.870   1.374
 4184SOL     OW13450   3.694   5.213   0.675
 4184SOL    HW113451   3.654   5.243   0.588
 4184SOL    HW213452   3.707   5.114   0.673
 4185SOL     OW13453   7.011   6.866   4.187
 4185SOL    HW113454   0.082   6.900   4.210
 4185SOL    HW213455   6.979   6.803   4.257
 4186SOL     OW13456   3.663   4.238   1.763
 4186SOL    HW113457   3.686   4.293   1.843
 4186SOL    HW213458   3.614   4.156   1.792
 4187SOL     OW13459   4.069   4.471   6.616
 4187SOL    HW113460   4.140   4.450   6.548
 4187SOL    HW213461   4.006   4.539   6.579
 4188SOL     OW13462   5.038   6.445   4.610
 4188SOL    HW113463   5.042   6.516   4.539
 4188SOL    HW213464   5.064   6.485   4.698
 4189SOL     OW13465   1.933   3.005   3.425
 4189SOL    HW113466   2.009   3.064   3.399
 4189SOL    HW213467   1.934   2.992   3.524
 4190SOL     OW13468   3.423   6.995   1.529
 4190SOL    HW113469   3.327   6.983   1.503
 4190SOL    HW213470   3.473   0.015   1.453
 4191SOL     OW13471   0.282   2.769   2.057
 4191SOL    HW113472   0.209   2.786   2.123
 4191SOL    HW213473   0.250   2.792   1.965
 4192SOL     OW13474   5.793   1.076   2.891
 4192SOL    HW113475   5.708   1.023   2.895
 4192SOL    HW213476   5.783   1.149   2.823
 4193SOL     OW13477   2.231   6.547   2.482
 4193SOL    HW113478   2.229   6.448   2.465
 4193SOL    HW213479   2.165   6.592   2.422
 4194SOL     OW13480   0.188   1.018   3.758
 4194SOL    HW113481   0.152   0.965   3.681
 4194SOL    HW213482   0.228   1.103   3.724
 4195SOL     OW13483   5.344   0.728   2.773
 4195SOL    HW113484   5.264   0.670   2.791
 4195SOL    HW213485   5.314   0.823   2.767
 4196SOL     OW13486   4.469   2.518   3.350
 4196SOL    HW113487   4.370   2.529   3.340
 4196SOL    HW213488   4.489   2.484   3.442
 4197SOL     OW13489   4.867   3.825   4.115
 4197SOL    HW113490   4.768   3.815   4.125
 4197SOL    HW213491   4.890   3.840   4.019
 4198SOL     OW13492   5.552   4.156   5.665
 4198SOL    HW113493   5.602   4.182   5.582
 4198SOL    HW213494   5.483   4.088   5.642
 4199SOL     OW13495   3.384   3.808   5.163
 4199SOL    HW113496   3.483   3.797   5.161
 4199SOL    HW213497   3.342   3.748   5.095
 4200SOL     OW13498   2.302   0.164   5.846
 4200SOL    HW113499   2.368   0.231   5.812
 4200SOL    HW213500   2.344   0.107   5.916
 4201SOL     OW13501   6.347   6.711   4.709
 4201SOL    HW113502   6.375   6.694   4.614
 4201SOL    HW213503   6.289   6.635   4.740
 4202SOL     OW13504   5.634   3.688   4.967
 4202SOL    HW113505   5.638   3.647   5.058
 4202SOL    HW213506   5.572   3.766   4.967
 4203SOL     OW13507   4.802   5.148   3.900
 4203SOL    HW113508   4.798   5.101   3.812
 4203SOL    HW213509   4.725   5.120   3.957
 4204SOL     OW13510   2.696   3.871   0.618
 4204SOL    HW113511   2.706   3.803   0.691
 4204SOL    HW213512   2.685   3.824   0.530
 4205SOL     OW13513   2.625   5.398   3.228
 4205SOL    HW113514   2.699   5.442   3.178
 4205SOL    HW213515   2.585   5.464   3.292
 4206SOL     OW13516   5.830   6.900   4.589
 4206SOL    HW113517   5.746   6.860   4.552
 4206SOL    HW213518   5.821   6.911   4.689
 4207SOL     OW13519   0.715   0.556   1.084
 4207SOL    HW113520   0.707   0.504   0.999
 4207SOL    HW213521   0.631   0.609   1.099
 4208SOL     OW13522   0.877   2.686   0.636
 4208SOL    HW113523   0.786   2.645   0.637
 4208SOL    HW213524   0.889   2.737   0.550
 4209SOL     OW13525   2.602   0.807   4.654
 4209SOL    HW113526   2.586   0.843   4.562
 4209SOL    HW213527   2.520   0.819   4.710
 4210SOL     OW13528   5.326   2.616   0.135
 4210SOL    HW113529   5.272   2.617   0.219
 4210SOL    HW213530   5.315   2.704   0.088
 4211SOL     OW13531   4.870   3.404   3.692
 4211SOL    HW113532   4.839   3.309   3.683
 4211SOL    HW213533   4.919   3.414   3.779
 4212SOL     OW13534   6.238   6.796   3.042
 4212SOL    HW113535   6.291   6.753   2.969
 4212SOL    HW213536   6.297   6.814   3.120
 4213SOL     OW13537   0.959   0.071   1.792
 4213SOL    HW113538   0.946   7.012   1.851
 4213SOL    HW213539   1.056   0.079   1.768
 4214SOL     OW13540   2.006   4.443   4.533
 4214SOL    HW113541   1.971   4.350   4.520
 4214SOL    HW213542   2.086   4.441   4.593
 4215SOL     OW13543   0.705   5.412   5.374
 4215SOL    HW113544   0.626   5.402   5.435
 4215SOL    HW213545   0.753   5.325   5.367
 4216SOL     OW13546   2.654   3.421   5.348
 4216SOL    HW113547   2.563   3.421   5.389
 4216SOL    HW213548   2.723   3.418   5.421
 4217SOL     OW13549   0.020   0.873   3.114
 4217SOL    HW113550   7.016   0.966   3.142
 4217SOL    HW213551   0.070   0.877   3.028
 4218SOL     OW13552   2.890   6.672   2.739
 4218SOL    HW113553   2.837   6.618   2.805
 4218SOL    HW213554   2.988   6.655   2.754
 4219SOL     OW13555   5.061   6.827   3.283
 4219SOL    HW113556   5.062   6.787   3.375
 4219SOL    HW213557   5.007   6.911   3.284
 4220SOL     OW13558   0.594   4.020   3.542
 4220SOL    HW113559   0.633   4.081   3.611
 4220SOL    HW213560   0.641   3.932   3.545
 4221SOL     OW13561   5.430   5.848   6.033
 4221SOL    HW113562   5.330   5.854   6.036
 4221SOL    HW213563   5.459   5.816   5.943
 4222SOL     OW13564   3.440   2.660   0.213
 4222SOL    HW113565   3.527   2.641   0.168
 4222SOL    HW213566   3.404   2.748   0.182
 4223SOL     OW13567   2.939   3.658   2.521
 4223SOL    HW113568   3.021   3.677   2.575
 4223SOL    HW213569   2.880   3.595   2.573
 4224SOL     OW13570   3.903   1.848   5.630
 4224SOL    HW113571   3.843   1.928   5.626
 4224SOL    HW213572   3.900   1.809   5.722
 4225SOL     OW13573   5.079   0.603   4.873
 4225SOL    HW113574   5.154   0.548   4.909
 4225SOL    HW213575   5.051   0.568   4.784
 4226SOL     OW13576   1.926   1.008   3.015
 4226SOL    HW113577   1.889   1.076   3.078
 4226SOL    HW213578   1.945   1.051   2.927
 4227SOL     OW13579   5.935   3.783   6.840
 4227SOL    HW113580   5.991   3.779   6.757
 4227SOL    HW213581   5.950   3.870   6.886
 4228SOL     OW13582   5.737   5.534   3.359
 4228SOL    HW113583   5.736   5.628   3.391
 4228SOL    HW213584   5.650   5.513   3.314
 4229SOL     OW13585   4.502   4.802   5.402
 4229SOL    HW113586   4.468   4.887   5.361
 4229SOL    HW213587   4.446   4.726   5.371
 4230SOL     OW13588   2.679   0.489   4.852
 4230SOL    HW113589   2.700   0.392   4.852
 4230SOL    HW213590   2.695   0.527   4.760
 4231SOL     OW13591   4.187   6.072   5.237
 4231SOL    HW113592   4.267   6.106   5.286
 4231SOL    HW213593   4.106   6.083   5.293
 4232SOL     OW13594   2.126   4.197   1.603
 4232SOL    HW113595   2.172   4.271   1.555
 4232SOL    HW213596   2.186   4.160   1.675
 4233SOL     OW13597   5.426   6.708   0.857
 4233SOL    HW113598   5.517   6.742   0.831
 4233SOL    HW213599   5.400   6.633   0.797
 4234SOL     OW13600   3.192   3.935   5.339
 4234SOL    HW113601   3.098   3.927   5.306
 4234SOL    HW213602   3.254   3.889   5.275
 4235SOL     OW13603   0.108   3.767   5.356
 4235SOL    HW113604   0.107   3.753   5.257
 4235SOL    HW213605   0.192   3.728   5.394
 4236SOL     OW13606   1.158   3.839   4.798
 4236SOL    HW113607   1.180   3.749   4.837
 4236SOL    HW213608   1.075   3.874   4.841
 4237SOL     OW13609   5.415   4.522   4.994
 4237SOL    HW113610   5.409   4.500   4.896
 4237SOL    HW213611   5.404   4.438   5.047
 4238SOL     OW13612   4.679   4.165   4.274
 4238SOL    HW113613   4.592   4.130   4.307
 4238SOL    HW213614   4.751   4.097   4.289
 4239SOL     OW13615   5.298   5.603   5.801
 4239SOL    HW113616   5.225   5.672   5.799
 4239SOL    HW213617   5.264   5.517   5.764
 4240SOL     OW13618   2.611   4.977   6.307
 4240SOL    HW113619   2.542   5.031   6.259
 4240SOL    HW213620   2.567   4.923   6.380
 4241SOL     OW13621   4.047   1.391   0.038
 4241SOL    HW113622   4.061   1.404   0.136
 4241SOL    HW213623   4.117   1.440   7.008
 4242SOL     OW13624   1.475   0.327   2.504
 4242SOL    HW113625   1.450   0.242   2.459
 4242SOL    HW213626   1.529   0.308   2.586
 4243SOL     OW13627   1.485   3.206   2.921
 4243SOL    HW113628   1.575   3.243   2.941
 4243SOL    HW213629   1.484   3.108   2.940
 4244SOL     OW13630   3.002   0.062   0.712
 4244SOL    HW113631   2.937   7.013   0.680
 4244SOL    HW213632   2.952   0.145   0.737
 4245SOL     OW13633   6.553   2.420   1.047
 4245SOL    HW113634   6.617   2.359   1.094
 4245SOL    HW213635   6.506   2.370   0.975
 4246SOL     OW13636   4.556   2.550   3.831
 4246SOL    HW113637   4.532   2.537   3.928
 4246SOL    HW213638   4.598   2.640   3.819
 4247SOL     OW13639   1.907   4.498   6.573
 4247SOL    HW113640   1.873   4.405   6.590
 4247SOL    HW213641   1.882   4.527   6.480
 4248SOL     OW13642   1.917   0.675   3.397
 4248SOL    HW113643   1.996   0.735   3.406
 4248SOL    HW213644   1.840   0.726   3.359
 4249SOL     OW13645   5.963   0.248   5.813
 4249SOL    HW113646   5.950   0.347   5.823
 4249SOL    HW213647   6.050   0.230   5.768
 4250SOL     OW13648   6.621   6.008   4.559
 4250SOL    HW113649   6.568   5.997   4.643
 4250SOL    HW213650   6.649   6.104   4.550
 4251SOL     OW13651   5.143   2.405   5.789
 4251SOL    HW113652   5.147   2.476   5.859
 4251SOL    HW213653   5.070   2.340   5.810
 4252SOL     OW13654   6.696   6.808   6.940
 4252SOL    HW113655   6.792   6.801   6.914
 4252SOL    HW213656   6.685   6.880   7.009
 4253SOL     OW13657   4.734   6.425   2.768
 4253SOL    HW113658   4.703   6.512   2.805
 4253SOL    HW213659   4.812   6.391   2.822
 4254SOL     OW13660   1.672   2.423   6.058
 4254SOL    HW113661   1.594   2.468   6.102
 4254SOL    HW213662   1.714   2.485   5.993
 4255SOL     OW13663   0.848   2.825   3.194
 4255SOL    HW113664   0.933   2.859   3.153
 4255SOL    HW213665   0.771   2.847   3.134
 4256SOL     OW13666   0.232   6.017   1.012
 4256SOL    HW113667   0.276   5.945   0.959
 4256SOL    HW213668   0.157   5.978   1.065
 4257SOL     OW13669   6.135   1.064   3.306
 4257SOL    HW113670   6.079   1.135   3.348
 4257SOL    HW213671   6.231   1.090   3.311
 4258SOL     OW13672   3.012   5.706   0.914
 4258SOL    HW113673   2.994   5.768   0.838
 4258SOL    HW213674   2.941   5.636   0.917
 4259SOL     OW13675   1.221   0.212   0.887
 4259SOL    HW113676   1.272   0.167   0.961
 4259SOL    HW213677   1.140   0.158   0.864
 4260SOL     OW13678   5.898   0.496   4.718
 4260SOL    HW113679   5.932   0.408   4.685
 4260SOL    HW213680   5.924   0.508   4.814
 4261SOL     OW13681   2.441   6.235   4.661
 4261SOL    HW113682   2.476   6.194   4.746
 4261SOL    HW213683   2.417   6.330   4.678
 4262SOL     OW13684   2.123   4.835   5.215
 4262SOL    HW113685   2.198   4.792   5.166
 4262SOL    HW213686   2.139   4.934   5.220
 4263SOL     OW13687   2.448   1.648   3.559
 4263SOL    HW113688   2.351   1.642   3.582
 4263SOL    HW213689   2.503   1.647   3.642
 4264SOL     OW13690   4.663   1.866   5.776
 4264SOL    HW113691   4.725   1.788   5.787
 4264SOL    HW213692   4.640   1.903   5.866
 4265SOL     OW13693   2.449   6.672   5.998
 4265SOL    HW113694   2.367   6.659   6.053
 4265SOL    HW213695   2.428   6.735   5.922
 4266SOL     OW13696   1.214   5.245   1.844
 4266SOL    HW113697   1.283   5.316   1.830
 4266SOL    HW213698   1.199   5.196   1.759
 4267SOL     OW13699   0.961   4.066   4.121
 4267SOL    HW113700   0.918   4.009   4.051
 4267SOL    HW213701   1.054   4.089   4.092
 4268SOL     OW13702   0.953   4.691   6.074
 4268SOL    HW113703   0.912   4.635   6.146
 4268SOL    HW213704   1.048   4.664   6.061
 4269SOL     OW13705   2.932   1.403   4.409
 4269SOL    HW113706   2.863   1.450   4.355
 4269SOL    HW213707   3.017   1.396   4.356
 4270SOL     OW13708   3.918   3.479   0.373
 4270SOL    HW113709   3.948   3.418   0.300
 4270SOL    HW213710   3.947   3.572   0.353
 4271SOL     OW13711   0.049   0.180   1.090
 4271SOL    HW113712   0.016   0.094   1.127
 4271SOL    HW213713   0.114   0.162   1.016
 4272SOL     OW13714   6.991   1.462   5.762
 4272SOL    HW113715   0.064   1.432   5.741
 4272SOL    HW213716   6.958   1.521   5.689
 4273SOL     OW13717   2.818   5.841   3.916
 4273SOL    HW113718   2.781   5.794   3.996
 4273SOL    HW213719   2.819   5.940   3.932
 4274SOL     OW13720   0.890   1.355   1.633
 4274SOL    HW113721   0.960   1.320   1.695
 4274SOL    HW213722   0.926   1.356   1.540
 4275SOL     OW13723   0.169   2.464   4.111
 4275SOL    HW113724   0.178   2.364   4.114
 4275SOL    HW213725   0.081   2.491   4.151
 4276SOL     OW13726   1.583   6.614   3.155
 4276SOL    HW113727   1.609   6.684   3.088
 4276SOL    HW213728   1.646   6.536   3.147
 4277SOL     OW13729   6.785   5.521   2.950
 4277SOL    HW113730   6.821   5.449   2.891
 4277SOL    HW213731   6.696   5.550   2.916
 4278SOL     OW13732   1.114   6.539   1.174
 4278SOL    HW113733   1.055   6.503   1.246
 4278SOL    HW213734   1.182   6.601   1.214
 4279SOL     OW13735   0.768   2.576   3.268
 4279SOL    HW113736   0.790   2.662   3.223
 4279SOL    HW213737   0.670   2.557   3.259
 4280SOL     OW13738   1.986   6.307   6.079
 4280SOL    HW113739   1.991   6.208   6.073
 4280SOL    HW213740   2.076   6.344   6.103
 4281SOL     OW13741   5.911   6.064   3.503
 4281SOL    HW113742   5.865   6.081   3.590
 4281SOL    HW213743   5.843   6.040   3.434
 4282SOL     OW13744   5.378   5.379   2.224
 4282SOL    HW113745   5.286   5.404   2.196
 4282SOL    HW213746   5.427   5.337   2.148
 4283SOL     OW13747   5.719   1.058   4.679
 4283SOL    HW113748   5.780   0.981   4.698
 4283SOL    HW213749   5.704   1.110   4.763
 4284SOL     OW13750   4.758   5.731   6.600
 4284SOL    HW113751   4.659   5.728   6.594
 4284SOL    HW213752   4.797   5.739   6.508
 4285SOL     OW13753   3.126   1.666   6.301
 4285SOL    HW113754   3.160   1.606   6.228
 4285SOL    HW213755   3.154   1.629   6.390
 4286SOL     OW13756   5.323   0.397   6.766
 4286SOL    HW113757   5.318   0.299   6.786
 4286SOL    HW213758   5.408   0.417   6.717
 4287SOL     OW13759   3.442   0.972   1.303
 4287SOL    HW113760   3.416   0.885   1.343
 4287SOL    HW213761   3.415   0.974   1.206
 4288SOL     OW13762   6.878   6.057   1.973
 4288SOL    HW113763   6.966   6.091   2.005
 4288SOL    HW213764   6.842   5.991   2.038
 4289SOL     OW13765   7.003   4.503   5.184
 4289SOL    HW113766   0.036   4.429   5.224
 4289SOL    HW213767   7.002   4.493   5.084
 4290SOL     OW13768   0.250   1.608   3.129
 4290SOL    HW113769   0.258   1.612   3.228
 4290SOL    HW213770   0.321   1.664   3.087
 4291SOL     OW13771   3.797   4.663   6.588
 4291SOL    HW113772   3.708   4.636   6.624
 4291SOL    HW213773   3.791   4.671   6.488
 4292SOL     OW13774   6.502   1.165   1.490
 4292SOL    HW113775   6.432   1.096   1.472
 4292SOL    HW213776   6.542   1.150   1.581
 4293SOL     OW13777   4.019   2.625   0.289
 4293SOL    HW113778   4.103   2.637   0.343
 4293SOL    HW213779   3.939   2.633   0.348
 4294SOL     OW13780   2.723   1.699   6.442
 4294SOL    HW113781   2.769   1.650   6.516
 4294SOL    HW213782   2.790   1.752   6.391
 4295SOL     OW13783   4.492   6.525   3.080
 4295SOL    HW113784   4.467   6.513   3.176
 4295SOL    HW213785   4.513   6.436   3.039
 4296SOL     OW13786   1.946   6.472   2.152
 4296SOL    HW113787   2.032   6.427   2.180
 4296SOL    HW213788   1.965   6.566   2.126
 4297SOL     OW13789   4.888   4.954   0.446
 4297SOL    HW113790   4.961   4.991   0.389
 4297SOL    HW213791   4.803   4.951   0.394
 4298SOL     OW13792   1.635   0.299   0.826
 4298SOL    HW113793   1.678   0.387   0.847
 4298SOL    HW213794   1.697   0.225   0.850
 4299SOL     OW13795   1.205   3.336   6.635
 4299SOL    HW113796   1.226   3.326   6.538
 4299SOL    HW213797   1.113   3.301   6.653
 4300SOL     OW13798   3.101   1.051   1.809
 4300SOL    HW113799   3.001   1.053   1.797
 4300SOL    HW213800   3.134   1.143   1.829
 4301SOL     OW13801   2.447   5.989   6.082
 4301SOL    HW113802   2.430   6.077   6.039
 4301SOL    HW213803   2.529   5.995   6.139
 4302SOL     OW13804   3.294   4.975   6.342
 4302SOL    HW113805   3.361   5.002   6.410
 4302SOL    HW213806   3.308   4.879   6.317
 4303SOL     OW13807   3.992   5.487   3.489
 4303SOL    HW113808   3.921   5.556   3.474
 4303SOL    HW213809   4.052   5.516   3.564
 4304SOL     OW13810   3.176   4.047   1.894
 4304SOL    HW113811   3.176   3.955   1.856
 4304SOL    HW213812   3.139   4.046   1.987
 4305SOL     OW13813   0.530   6.180   6.517
 4305SOL    HW113814   0.599   6.166   6.446
 4305SOL    HW213815   0.440   6.191   6.474
 4306SOL     OW13816   5.919   3.491   5.287
 4306SOL    HW113817   5.877   3.563   5.232
 4306SOL    HW213818   5.946   3.529   5.376
 4307SOL     OW13819   6.919   1.446   5.436
 4307SOL    HW113820   6.887   1.512   5.504
 4307SOL    HW213821   6.997   1.395   5.473
 4308SOL     OW13822   4.182   6.043   6.565
 4308SOL    HW113823   4.260   6.016   6.508
 4308SOL    HW213824   4.178   5.985   6.646
 4309SOL     OW13825   1.671   1.300   0.279
 4309SOL    HW113826   1.650   1.227   0.213
 4309SOL    HW213827   1.616   1.381   0.258
 4310SOL     OW13828   6.152   2.221   2.877
 4310SOL    HW113829   6.129   2.282   2.801
 4310SOL    HW213830   6.073   2.164   2.899
 4311SOL     OW13831   0.996   0.004   1.322
 4311SOL    HW113832   1.017   0.100   1.305
 4311SOL    HW213833   0.951   6.985   1.242
 4312SOL     OW13834   6.912   3.634   1.898
 4312SOL    HW113835   6.831   3.688   1.875
 4312SOL    HW213836   6.886   3.560   1.961
 4313SOL     OW13837   1.055   3.692   6.497
 4313SOL    HW113838   1.124   3.688   6.570
 4313SOL    HW213839   0.992   3.767   6.514
 4314SOL     OW13840   1.066   1.192   5.423
 4314SOL    HW113841   1.013   1.160   5.502
 4314SOL    HW213842   1.087   1.289   5.435
 4315SOL     OW13843   2.655   1.919   5.586
 4315SOL    HW113844   2.696   2.011   5.585
 4315SOL    HW213845   2.723   1.852   5.614
 4316SOL     OW13846   4.351   5.450   1.931
 4316SOL    HW113847   4.321   5.443   2.026
 4316SOL    HW213848   4.276   5.483   1.875
 4317SOL     OW13849   5.075   0.702   5.116
 4317SOL    HW113850   5.034   0.784   5.076
 4317SOL    HW213851   5.080   0.630   5.047
 4318SOL     OW13852   1.399   6.447   4.462
 4318SOL    HW113853   1.427   6.394   4.543
 4318SOL    HW213854   1.302   6.432   4.444
 4319SOL     OW13855   1.195   4.186   2.302
 4319SOL    HW113856   1.276   4.145   2.261
 4319SOL    HW213857   1.114   4.132   2.278
 4320SOL     OW13858   3.219   0.178   0.806
 4320SOL    HW113859   3.143   0.130   0.763
 4320SOL    HW213860   3.246   0.255   0.748
 4321SOL     OW13861   6.545   6.488   3.326
 4321SOL    HW113862   6.528   6.569   3.381
 4321SOL    HW213863   6.637   6.455   3.344
 4322SOL     OW13864   1.928   1.852   4.431
 4322SOL    HW113865   1.844   1.804   4.406
 4322SOL    HW213866   1.992   1.848   4.354
 4323SOL     OW13867   4.465   4.833   0.191
 4323SOL    HW113868   4.370   4.865   0.189
 4323SOL    HW213869   4.466   4.733   0.185
 4324SOL     OW13870   0.568   4.919   5.807
 4324SOL    HW113871   0.471   4.896   5.812
 4324SOL    HW213872   0.604   4.891   5.718
 4325SOL     OW13873   1.952   6.333   1.444
 4325SOL    HW113874   1.958   6.333   1.544
 4325SOL    HW213875   2.010   6.406   1.407
 4326SOL     OW13876   4.621   2.341   2.428
 4326SOL    HW113877   4.687   2.360   2.500
 4326SOL    HW213878   4.528   2.347   2.464
 4327SOL     OW13879   2.346   5.602   3.563
 4327SOL    HW113880   2.287   5.604   3.482
 4327SOL    HW213881   2.302   5.652   3.638
 4328SOL     OW13882   6.223   0.625   3.500
 4328SOL    HW113883   6.140   0.679   3.483
 4328SOL    HW213884   6.239   0.562   3.424
 4329SOL     OW13885   6.345   3.369   6.422
 4329SOL    HW113886   6.308   3.375   6.515
 4329SOL    HW213887   6.439   3.336   6.426
 4330SOL     OW13888   2.467   4.811   4.283
 4330SOL    HW113889   2.417   4.855   4.208
 4330SOL    HW213890   2.500   4.880   4.346
 4331SOL     OW13891   5.801   2.110   2.515
 4331SOL    HW113892   5.770   2.193   2.562
 4331SOL    HW213893   5.740   2.090   2.439
 4332SOL     OW13894   0.220   5.554   1.563
 4332SOL    HW113895   0.231   5.622   1.635
 4332SOL    HW213896   0.214   5.599   1.474
 4333SOL     OW13897   4.119   2.913   5.929
 4333SOL    HW113898   4.148   2.981   5.861
 4333SOL    HW213899   4.021   2.897   5.919
 4334SOL     OW13900   0.247   3.141   3.663
 4334SOL    HW113901   0.168   3.177   3.713
 4334SOL    HW213902   0.220   3.061   3.610
 4335SOL     OW13903   2.365   4.084   1.741
 4335SOL    HW113904   2.451   4.135   1.735
 4335SOL    HW213905   2.382   3.987   1.723
 4336SOL     OW13906   2.630   5.515   5.577
 4336SOL    HW113907   2.553   5.572   5.550
 4336SOL    HW213908   2.714   5.552   5.538
 4337SOL     OW13909   6.679   4.736   3.568
 4337SOL    HW113910   6.638   4.784   3.645
 4337SOL    HW213911   6.743   4.796   3.520
 4338SOL     OW13912   2.832   2.541   5.917
 4338SOL    HW113913   2.892   2.462   5.901
 4338SOL    HW213914   2.869   2.596   5.992
 4339SOL     OW13915   4.075   4.780   5.257
 4339SOL    HW113916   3.979   4.755   5.270
 4339SOL    HW213917   4.114   4.809   5.344
 4340SOL     OW13918   0.165   4.332   0.913
 4340SOL    HW113919   0.101   4.279   0.968
 4340SOL    HW213920   0.114   4.381   0.841
 4341SOL     OW13921   5.930   5.786   1.466
 4341SOL    HW113922   5.951   5.708   1.525
 4341SOL    HW213923   5.863   5.845   1.511
 4342SOL     OW13924   5.438   3.144   2.553
 4342SOL    HW113925   5.508   3.168   2.621
 4342SOL    HW213926   5.405   3.051   2.571
 4343SOL     OW13927   3.543   0.578   6.412
 4343SOL    HW113928   3.482   0.540   6.481
 4343SOL    HW213929   3.633   0.596   6.454
 4344SOL     OW13930   0.384   4.112   3.120
 4344SOL    HW113931   0.316   4.040   3.106
 4344SOL    HW213932   0.341   4.201   3.104
 4345SOL     OW13933   3.670   3.620   2.422
 4345SOL    HW113934   3.668   3.576   2.512
 4345SOL    HW213935   3.586   3.674   2.410
 4346SOL     OW13936   0.671   3.110   2.860
 4346SOL    HW113937   0.766   3.141   2.868
 4346SOL    HW213938   0.613   3.188   2.837
 4347SOL     OW13939   6.224   5.544   0.639
 4347SOL    HW113940   6.131   5.574   0.615
 4347SOL    HW213941   6.221   5.447   0.665
 4348SOL     OW13942   6.021   5.059   5.437
 4348SOL    HW113943   6.085   4.995   5.394
 4348SOL    HW213944   6.043   5.068   5.534
 4349SOL     OW13945   0.994   3.695   4.063
 4349SOL    HW113946   1.061   3.723   4.132
 4349SOL    HW213947   0.909   3.668   4.107
 4350SOL     OW13948   4.106   0.948   4.263
 4350SOL    HW113949   4.075   0.901   4.345
 4350SOL    HW213950   4.076   1.043   4.265
 4351SOL     OW13951   0.299   5.553   0.861
 4351SOL    HW113952   0.397   5.536   0.874
 4351SOL    HW213953   0.285   5.646   0.829
 4352SOL     OW13954   3.615   5.037   1.888
 4352SOL    HW113955   3.630   4.938   1.892
 4352SOL    HW213956   3.537   5.055   1.828
 4353SOL     OW13957   2.823   3.048   0.922
 4353SOL    HW113958   2.856   2.981   0.988
 4353SOL    HW213959   2.870   3.136   0.937
 4354SOL     OW13960   5.661   6.045   2.187
 4354SOL    HW113961   5.691   5.959   2.230
 4354SOL    HW213962   5.568   6.065   2.218
 4355SOL     OW13963   2.096   4.793   2.671
 4355SOL    HW113964   2.037   4.715   2.648
 4355SOL    HW213965   2.128   4.836   2.587
 4356SOL     OW13966   5.968   2.584   5.445
 4356SOL    HW113967   5.988   2.647   5.520
 4356SOL    HW213968   6.052   2.567   5.393
 4357SOL     OW13969   5.927   6.866   1.565
 4357SOL    HW113970   5.906   6.812   1.647
 4357SOL    HW213971   6.008   6.922   1.583
 4358SOL     OW13972   2.841   1.067   0.110
 4358SOL    HW113973   2.833   1.166   0.127
 4358SOL    HW213974   2.936   1.039   0.119
 4359SOL     OW13975   2.481   2.136   0.884
 4359SOL    HW113976   2.485   2.129   0.784
 4359SOL    HW213977   2.427   2.216   0.910
 4360SOL     OW13978   2.097   5.515   3.828
 4360SOL    HW113979   2.006   5.499   3.789
 4360SOL    HW213980   2.087   5.559   3.918
 4361SOL     OW13981   0.610   2.123   0.232
 4361SOL    HW113982   0.610   2.200   0.296
 4361SOL    HW213983   0.695   2.124   0.179
 4362SOL     OW13984   0.965   5.414   3.258
 4362SOL    HW113985   1.012   5.502   3.255
 4362SOL    HW213986   0.928   5.393   3.167
 4363SOL     OW13987   3.875   0.814   2.198
 4363SOL    HW113988   3.931   0.783   2.120
 4363SOL    HW213989   3.929   0.876   2.255
 4364SOL     OW13990   3.197   4.064   2.677
 4364SOL    HW113991   3.237   4.101   2.761
 4364SOL    HW213992   3.100   4.090   2.672
 4365SOL     OW13993   2.065   0.999   1.302
 4365SOL    HW113994   2.053   1.096   1.281
 4365SOL    HW213995   2.152   0.967   1.263
 4366SOL     OW13996   4.995   6.819   4.648
 4366SOL    HW113997   5.064   6.832   4.719
 4366SOL    HW213998   5.038   6.780   4.567
 4367SOL     OW13999   2.339   6.115   2.606
 4367SOL    HW114000   2.373   6.023   2.583
 4367SOL    HW214001   2.240   6.118   2.593
 4368SOL     OW14002   4.933   3.795   3.856
 4368SOL    HW114003   4.954   3.698   3.865
 4368SOL    HW214004   4.929   3.820   3.759
 4369SOL     OW14005   5.227   3.962   3.731
 4369SOL    HW114006   5.310   3.916   3.699
 4369SOL    HW214007   5.182   3.906   3.800
 4370SOL     OW14008   4.016   4.650   0.869
 4370SOL    HW114009   4.076   4.618   0.795
 4370SOL    HW214010   4.067   4.651   0.955
 4371SOL     OW14011   3.277   0.866   2.791
 4371SOL    HW114012   3.216   0.940   2.763
 4371SOL    HW214013   3.291   0.803   2.715
 4372SOL     OW14014   2.038   3.982   4.044
 4372SOL    HW114015   1.953   3.936   4.018
 4372SOL    HW214016   2.034   4.007   4.140
 4373SOL     OW14017   4.388   0.625   0.203
 4373SOL    HW114018   4.324   0.701   0.190
 4373SOL    HW214019   4.353   0.544   0.154
 4374SOL     OW14020   2.766   6.690   0.337
 4374SOL    HW114021   2.811   6.756   0.278
 4374SOL    HW214022   2.756   6.728   0.429
 4375SOL     OW14023   4.308   1.345   5.913
 4375SOL    HW114024   4.398   1.378   5.941
 4375SOL    HW214025   4.255   1.421   5.874
 4376SOL     OW14026   2.315   5.394   0.294
 4376SOL    HW114027   2.281   5.318   0.349
 4376SOL    HW214028   2.258   5.403   0.212
 4377SOL     OW14029   5.120   6.061   0.113
 4377SOL    HW114030   5.196   5.999   0.095
 4377SOL    HW214031   5.044   6.040   0.051
 4378SOL     OW14032   2.711   5.090   2.895
 4378SOL    HW114033   2.619   5.050   2.891
 4378SOL    HW214034   2.720   5.161   2.826
 4379SOL     OW14035   0.643   6.705   1.363
 4379SOL    HW114036   0.677   6.751   1.445
 4379SOL    HW214037   0.618   6.774   1.295
 4380SOL     OW14038   2.038   5.436   4.252
 4380SOL    HW114039   1.958   5.385   4.220
 4380SOL    HW214040   2.080   5.387   4.328
 4381SOL     OW14041   4.923   5.502   5.402
 4381SOL    HW114042   4.960   5.594   5.388
 4381SOL    HW214043   4.855   5.483   5.332
 4382SOL     OW14044   5.075   3.721   3.361
 4382SOL    HW114045   5.095   3.623   3.360
 4382SOL    HW214046   4.987   3.738   3.318
 4383SOL     OW14047   1.090   1.665   0.245
 4383SOL    HW114048   1.026   1.599   0.285
 4383SOL    HW214049   1.039   1.732   0.192
 4384SOL     OW14050   4.178   6.629   1.251
 4384SOL    HW114051   4.140   6.719   1.274
 4384SOL    HW214052   4.111   6.577   1.198
 4385SOL     OW14053   6.340   2.333   2.532
 4385SOL    HW114054   6.428   2.365   2.569
 4385SOL    HW214055   6.323   2.379   2.445
 4386SOL     OW14056   1.359   4.109   6.966
 4386SOL    HW114057   1.310   4.167   6.901
 4386SOL    HW214058   1.408   4.038   6.915
 4387SOL     OW14059   6.445   2.542   1.751
 4387SOL    HW114060   6.407   2.605   1.684
 4387SOL    HW214061   6.471   2.457   1.706
 4388SOL     OW14062   3.375   1.802   5.728
 4388SOL    HW114063   3.468   1.838   5.734
 4388SOL    HW214064   3.364   1.725   5.791
 4389SOL     OW14065   6.055   2.359   2.580
 4389SOL    HW114066   5.994   2.398   2.511
 4389SOL    HW214067   6.136   2.321   2.536
 4390SOL     OW14068   4.452   2.482   1.676
 4390SOL    HW114069   4.517   2.481   1.600
 4390SOL    HW214070   4.386   2.556   1.664
 4391SOL     OW14071   0.379   6.575   0.642
 4391SOL    HW114072   0.460   6.519   0.626
 4391SOL    HW214073   0.395   6.667   0.608
 4392SOL     OW14074   5.794   4.137   4.640
 4392SOL    HW114075   5.799   4.211   4.573
 4392SOL    HW214076   5.884   4.121   4.680
 4393SOL     OW14077   5.445   6.349   3.518
 4393SOL    HW114078   5.448   6.371   3.616
 4393SOL    HW214079   5.359   6.302   3.497
 4394SOL     OW14080   4.395   0.933   2.505
 4394SOL    HW114081   4.401   0.960   2.601
 4394SOL    HW214082   4.439   1.003   2.448
 4395SOL     OW14083   5.383   1.715   1.171
 4395SOL    HW114084   5.352   1.797   1.123
 4395SOL    HW214085   5.349   1.634   1.123
 4396SOL     OW14086   1.252   1.261   4.216
 4396SOL    HW114087   1.196   1.343   4.203
 4396SOL    HW214088   1.192   1.181   4.223
 4397SOL     OW14089   5.742   0.187   6.440
 4397SOL    HW114090   5.727   0.105   6.384
 4397SOL    HW214091   5.760   0.265   6.380
 4398SOL     OW14092   0.221   5.620   4.524
 4398SOL    HW114093   0.309   5.629   4.571
 4398SOL    HW214094   0.151   5.590   4.589
 4399SOL     OW14095   2.896   1.091   2.099
 4399SOL    HW114096   2.852   1.167   2.052
 4399SOL    HW214097   2.869   1.090   2.196
 4400SOL     OW14098   3.637   6.146   3.591
 4400SOL    HW114099   3.637   6.179   3.496
 4400SOL    HW214100   3.572   6.070   3.599
 4401SOL     OW14101   6.235   6.182   4.895
 4401SOL    HW114102   6.180   6.145   4.821
 4401SOL    HW214103   6.240   6.116   4.970
 4402SOL     OW14104   6.673   7.003   3.089
 4402SOL    HW114105   6.761   7.011   3.137
 4402SOL    HW214106   6.646   0.072   3.053
 4403SOL     OW14107   0.157   0.382   3.501
 4403SOL    HW114108   0.107   0.300   3.530
 4403SOL    HW214109   0.255   0.361   3.498
 4404SOL     OW14110   1.806   4.525   3.014
 4404SOL    HW114111   1.771   4.574   3.094
 4404SOL    HW214112   1.758   4.555   2.932
 4405SOL     OW14113   2.942   3.685   6.183
 4405SOL    HW114114   3.022   3.724   6.229
 4405SOL    HW214115   2.858   3.722   6.224
 4406SOL     OW14116   5.576   3.559   1.784
 4406SOL    HW114117   5.481   3.575   1.754
 4406SOL    HW214118   5.639   3.603   1.720
 4407SOL     OW14119   6.754   0.446   0.213
 4407SOL    HW114120   6.678   0.507   0.235
 4407SOL    HW214121   6.838   0.499   0.202
 4408SOL     OW14122   4.276   6.222   0.647
 4408SOL    HW114123   4.294   6.245   0.552
 4408SOL    HW214124   4.232   6.299   0.693
 4409SOL     OW14125   2.253   1.545   3.365
 4409SOL    HW114126   2.300   1.626   3.400
 4409SOL    HW214127   2.304   1.463   3.391
 4410SOL     OW14128   2.097   5.795   1.389
 4410SOL    HW114129   2.189   5.825   1.413
 4410SOL    HW214130   2.060   5.737   1.462
 4411SOL     OW14131   3.964   3.201   2.499
 4411SOL    HW114132   3.945   3.103   2.501
 4411SOL    HW214133   3.888   3.249   2.454
 4412SOL     OW14134   3.258   1.927   6.147
 4412SOL    HW114135   3.304   1.906   6.234
 4412SOL    HW214136   3.305   2.003   6.102
 4413SOL     OW14137   4.512   5.154   3.750
 4413SOL    HW114138   4.600   5.158   3.703
 4413SOL    HW214139   4.439   5.143   3.682
 4414SOL     OW14140   3.230   5.748   1.411
 4414SOL    HW114141   3.214   5.762   1.313
 4414SOL    HW214142   3.326   5.725   1.426
 4415SOL     OW14143   4.345   1.611   1.220
 4415SOL    HW114144   4.253   1.573   1.211
 4415SOL    HW214145   4.356   1.653   1.310
 4416SOL     OW14146   2.700   2.339   4.695
 4416SOL    HW114147   2.648   2.309   4.775
 4416SOL    HW214148   2.795   2.308   4.703
 4417SOL     OW14149   6.854   0.566   1.194
 4417SOL    HW114150   6.773   0.509   1.179
 4417SOL    HW214151   6.897   0.588   1.107
 4418SOL     OW14152   4.640   1.033   4.067
 4418SOL    HW114153   4.691   1.036   3.981
 4418SOL    HW214154   4.665   0.950   4.117
 4419SOL     OW14155   6.823   5.303   0.015
 4419SOL    HW114156   6.792   5.326   6.943
 4419SOL    HW214157   6.747   5.312   0.079
 4420SOL     OW14158   4.744   0.818   6.939
 4420SOL    HW114159   4.677   0.848   6.871
 4420SOL    HW214160   4.707   0.834   0.011
 4421SOL     OW14161   0.950   2.012   3.236
 4421SOL    HW114162   0.959   2.020   3.335
 4421SOL    HW214163   0.997   2.088   3.192
 4422SOL     OW14164   1.584   4.461   5.850
 4422SOL    HW114165   1.597   4.387   5.784
 4422SOL    HW214166   1.494   4.450   5.894
 4423SOL     OW14167   6.811   1.866   6.306
 4423SOL    HW114168   6.766   1.948   6.271
 4423SOL    HW214169   6.909   1.884   6.320
 4424SOL     OW14170   0.498   6.398   3.843
 4424SOL    HW114171   0.450   6.341   3.910
 4424SOL    HW214172   0.476   6.366   3.751
 4425SOL     OW14173   5.160   4.134   0.021
 4425SOL    HW114174   5.235   4.068   0.012
 4425SOL    HW214175   5.073   4.088   0.001
 4426SOL     OW14176   0.564   0.453   6.041
 4426SOL    HW114177   0.475   0.495   6.057
 4426SOL    HW214178   0.562   0.401   5.956
 4427SOL     OW14179   0.724   6.038   3.940
 4427SOL    HW114180   0.708   5.999   3.850
 4427SOL    HW214181   0.802   5.993   3.983
 4428SOL     OW14182   2.231   6.388   3.418
 4428SOL    HW114183   2.291   6.363   3.493
 4428SOL    HW214184   2.270   6.466   3.368
 4429SOL     OW14185   3.744   7.012   3.063
 4429SOL    HW114186   3.754   0.021   2.968
 4429SOL    HW214187   3.666   0.039   3.104
 4430SOL     OW14188   1.286   0.476   1.395
 4430SOL    HW114189   1.213   0.517   1.450
 4430SOL    HW214190   1.330   0.547   1.340
 4431SOL     OW14191   1.986   1.833   3.610
 4431SOL    HW114192   2.068   1.802   3.658
 4431SOL    HW214193   1.953   1.918   3.651
 4432SOL     OW14194   3.057   3.150   3.794
 4432SOL    HW114195   3.036   3.077   3.729
 4432SOL    HW214196   3.093   3.229   3.745
 4433SOL     OW14197   6.397   0.469   3.624
 4433SOL    HW114198   6.402   0.485   3.722
 4433SOL    HW214199   6.330   0.530   3.583
 4434SOL     OW14200   5.057   2.093   4.737
 4434SOL    HW114201   5.018   2.113   4.827
 4434SOL    HW214202   4.984   2.061   4.677
 4435SOL     OW14203   4.171   3.489   2.205
 4435SOL    HW114204   4.246   3.485   2.138
 4435SOL    HW214205   4.128   3.579   2.202
 4436SOL     OW14206   5.308   0.668   0.886
 4436SOL    HW114207   5.223   0.670   0.834
 4436SOL    HW214208   5.330   0.574   0.912
 4437SOL     OW14209   3.592   0.111   5.294
 4437SOL    HW114210   3.604   0.209   5.312
 4437SOL    HW214211   3.640   0.086   5.211
 4438SOL     OW14212   3.830   3.569   6.607
 4438SOL    HW114213   3.868   3.578   6.515
 4438SOL    HW214214   3.801   3.474   6.622
 4439SOL     OW14215   2.251   4.867   2.385
 4439SOL    HW114216   2.248   4.933   2.310
 4439SOL    HW214217   2.320   4.896   2.451
 4440SOL     OW14218   6.582   1.138   0.226
 4440SOL    HW114219   6.574   1.148   0.325
 4440SOL    HW214220   6.586   1.229   0.184
 4441SOL     OW14221   6.607   1.740   3.238
 4441SOL    HW114222   6.588   1.838   3.245
 4441SOL    HW214223   6.652   1.709   3.321
 4442SOL     OW14224   1.860   6.257   1.932
 4442SOL    HW114225   1.854   6.171   1.983
 4442SOL    HW214226   1.833   6.333   1.991
 4443SOL     OW14227   2.919   1.317   6.191
 4443SOL    HW114228   2.846   1.385   6.186
 4443SOL    HW214229   2.972   1.331   6.276
 4444SOL     OW14230   4.874   0.905   2.946
 4444SOL    HW114231   4.801   0.853   2.991
 4444SOL    HW214232   4.834   0.963   2.874
 4445SOL     OW14233   1.144   1.099   6.592
 4445SOL    HW114234   1.067   1.117   6.532
 4445SOL    HW214235   1.201   1.027   6.553
 4446SOL     OW14236   5.091   4.962   3.612
 4446SOL    HW114237   5.091   4.890   3.681
 4446SOL    HW214238   5.037   5.040   3.644
 4447SOL     OW14239   5.067   3.041   4.842
 4447SOL    HW114240   5.012   2.961   4.866
 4447SOL    HW214241   5.160   3.031   4.879
 4448SOL     OW14242   2.239   2.790   6.800
 4448SOL    HW114243   2.289   2.784   6.887
 4448SOL    HW214244   2.195   2.703   6.780
 4449SOL     OW14245   0.290   1.757   5.211
 4449SOL    HW114246   0.358   1.827   5.233
 4449SOL    HW214247   0.217   1.760   5.279
 4450SOL     OW14248   3.169   3.799   2.670
 4450SOL    HW114249   3.250   3.741   2.657
 4450SOL    HW214250   3.197   3.895   2.669
 4451SOL     OW14251   0.038   4.218   1.140
 4451SOL    HW114252   0.011   4.270   1.221
 4451SOL    HW214253   0.079   4.131   1.168
 4452SOL     OW14254   6.386   3.963   6.092
 4452SOL    HW114255   6.474   4.002   6.063
 4452SOL    HW214256   6.342   3.919   6.014
 4453SOL     OW14257   4.972   1.522   0.940
 4453SOL    HW114258   5.047   1.579   0.908
 4453SOL    HW214259   4.958   1.537   1.038
 4454SOL     OW14260   5.056   2.916   1.342
 4454SOL    HW114261   5.072   2.994   1.282
 4454SOL    HW214262   4.959   2.913   1.367
 4455SOL     OW14263   4.304   1.927   2.101
 4455SOL    HW114264   4.262   1.914   2.191
 4455SOL    HW214265   4.312   1.839   2.054
 4456SOL     OW14266   0.629   5.780   2.682
 4456SOL    HW114267   0.531   5.761   2.689
 4456SOL    HW214268   0.669   5.725   2.609
 4457SOL     OW14269   4.562   1.937   6.572
 4457SOL    HW114270   4.611   1.876   6.510
 4457SOL    HW214271   4.596   1.926   6.665
 4458SOL     OW14272   3.796   1.420   0.339
 4458SOL    HW114273   3.712   1.389   0.384
 4458SOL    HW214274   3.867   1.350   0.348
 4459SOL     OW14275   5.022   6.551   5.449
 4459SOL    HW114276   4.938   6.605   5.447
 4459SOL    HW214277   5.091   6.595   5.391
 4460SOL     OW14278   1.187   1.450   6.351
 4460SOL    HW114279   1.116   1.389   6.386
 4460SOL    HW214280   1.207   1.521   6.419
 4461SOL     OW14281   1.842   6.808   2.198
 4461SOL    HW114282   1.829   6.905   2.180
 4461SOL    HW214283   1.921   6.795   2.257
 4462SOL     OW14284   6.948   4.978   0.661
 4462SOL    HW114285   6.884   4.901   0.662
 4462SOL    HW214286   0.021   4.944   0.673
 4463SOL     OW14287   1.901   3.891   5.812
 4463SOL    HW114288   1.845   3.851   5.885
 4463SOL    HW214289   1.863   3.867   5.723
 4464SOL     OW14290   5.850   3.178   0.106
 4464SOL    HW114291   5.808   3.228   0.030
 4464SOL    HW214292   5.778   3.145   0.168
 4465SOL     OW14293   0.841   6.262   1.204
 4465SOL    HW114294   0.839   6.199   1.127
 4465SOL    HW214295   0.916   6.238   1.265
 4466SOL     OW14296   0.249   3.236   3.104
 4466SOL    HW114297   0.194   3.212   3.184
 4466SOL    HW214298   0.341   3.262   3.134
 4467SOL     OW14299   1.448   0.339   3.048
 4467SOL    HW114300   1.473   0.323   3.144
 4467SOL    HW214301   1.501   0.416   3.012
 4468SOL     OW14302   2.302   2.165   0.510
 4468SOL    HW114303   2.296   2.241   0.447
 4468SOL    HW214304   2.395   2.157   0.545
 4469SOL     OW14305   4.758   6.673   0.614
 4469SOL    HW114306   4.853   6.662   0.583
 4469SOL    HW214307   4.743   6.614   0.694
 4470SOL     OW14308   4.661   5.020   1.773
 4470SOL    HW114309   4.705   5.105   1.802
 4470SOL    HW214310   4.726   4.944   1.779
 4471SOL     OW14311   6.450   2.690   0.517
 4471SOL    HW114312   6.542   2.669   0.551
 4471SOL    HW214313   6.397   2.605   0.513
 4472SOL     OW14314   2.288   4.517   1.662
 4472SOL    HW114315   2.379   4.499   1.699
 4472SOL    HW214316   2.276   4.615   1.649
 4473SOL     OW14317   0.493   0.639   6.459
 4473SOL    HW114318   0.484   0.736   6.438
 4473SOL    HW214319   0.569   0.625   6.523
 4474SOL     OW14320   5.905   0.520   4.388
 4474SOL    HW114321   5.875   0.427   4.368
 4474SOL    HW214322   5.936   0.526   4.483
 4475SOL     OW14323   2.084   3.426   0.421
 4475SOL    HW114324   2.178   3.448   0.397
 4475SOL    HW214325   2.023   3.497   0.384
 4476SOL     OW14326   4.755   0.082   1.971
 4476SOL    HW114327   4.700   0.054   2.050
 4476SOL    HW214328   4.739   0.020   1.895
 4477SOL     OW14329   1.058   0.970   0.597
 4477SOL    HW114330   0.972   1.017   0.580
 4477SOL    HW214331   1.082   0.915   0.516
 4478SOL     OW14332   1.837   4.882   1.840
 4478SOL    HW114333   1.766   4.952   1.841
 4478SOL    HW214334   1.797   4.794   1.866
 4479SOL     OW14335   0.533   0.402   6.320
 4479SOL    HW114336   0.560   0.494   6.346
 4479SOL    HW214337   0.545   0.389   6.222
 4480SOL     OW14338   0.292   4.363   3.699
 4480SOL    HW114339   0.330   4.455   3.702
 4480SOL    HW214340   0.321   4.318   3.614
 4481SOL     OW14341   0.974   0.584   3.835
 4481SOL    HW114342   0.974   0.641   3.754
 4481SOL    HW214343   0.888   0.532   3.839
 4482SOL     OW14344   0.911   4.399   3.668
 4482SOL    HW114345   0.869   4.457   3.598
 4482SOL    HW214346   0.938   4.455   3.747
 4483SOL     OW14347   5.608   3.008   1.104
 4483SOL    HW114348   5.570   2.952   1.179
 4483SOL    HW214349   5.565   2.982   1.018
 4484SOL     OW14350   3.817   3.295   6.607
 4484SOL    HW114351   3.902   3.305   6.659
 4484SOL    HW214352   3.743   3.270   6.669
 4485SOL     OW14353   4.984   0.500   6.643
 4485SOL    HW114354   4.966   0.501   6.545
 4485SOL    HW214355   4.956   0.588   6.682
 4486SOL     OW14356   6.017   2.350   3.698
 4486SOL    HW114357   5.939   2.371   3.757
 4486SOL    HW214358   6.086   2.422   3.708
 4487SOL     OW14359   2.788   3.201   5.685
 4487SOL    HW114360   2.767   3.291   5.648
 4487SOL    HW214361   2.792   3.134   5.611
 4488SOL     OW14362   0.060   1.929   6.338
 4488SOL    HW114363   0.104   1.841   6.356
 4488SOL    HW214364   0.119   1.984   6.279
 4489SOL     OW14365   6.496   0.863   2.413
 4489SOL    HW114366   6.490   0.897   2.319
 4489SOL    HW214367   6.555   0.783   2.416
 4490SOL     OW14368   0.129   2.211   3.861
 4490SOL    HW114369   0.117   2.209   3.960
 4490SOL    HW214370   0.106   2.302   3.826
 4491SOL     OW14371   1.195   3.527   3.087
 4491SOL    HW114372   1.142   3.612   3.085
 4491SOL    HW214373   1.240   3.514   2.999
 4492SOL     OW14374   4.606   4.645   6.489
 4492SOL    HW114375   4.618   4.588   6.408
 4492SOL    HW214376   4.666   4.725   6.483
 4493SOL     OW14377   5.809   5.267   3.359
 4493SOL    HW114378   5.804   5.367   3.360
 4493SOL    HW214379   5.853   5.235   3.443
 4494SOL     OW14380   5.862   2.834   3.481
 4494SOL    HW114381   5.848   2.759   3.417
 4494SOL    HW214382   5.852   2.800   3.575
 4495SOL     OW14383   3.891   6.484   1.919
 4495SOL    HW114384   3.944   6.518   1.996
 4495SOL    HW214385   3.922   6.392   1.896
 4496SOL     OW14386   5.531   4.675   5.815
 4496SOL    HW114387   5.549   4.624   5.899
 4496SOL    HW214388   5.546   4.615   5.736
 4497SOL     OW14389   6.238   5.229   0.970
 4497SOL    HW114390   6.171   5.175   1.021
 4497SOL    HW214391   6.288   5.288   1.033
 4498SOL     OW14392   0.705   4.191   6.616
 4498SOL    HW114393   0.656   4.274   6.642
 4498SOL    HW214394   0.640   4.117   6.600
 4499SOL     OW14395   5.387   3.204   6.373
 4499SOL    HW114396   5.327   3.126   6.358
 4499SOL    HW214397   5.336   3.289   6.357
 4500SOL     OW14398   2.983   3.901   3.457
 4500SOL    HW114399   2.903   3.845   3.436
 4500SOL    HW214400   2.986   3.918   3.556
 4501SOL     OW14401   1.734   5.118   4.399
 4501SOL    HW114402   1.797   5.097   4.324
 4501SOL    HW214403   1.640   5.099   4.370
 4502SOL     OW14404   6.451   2.943   6.867
 4502SOL    HW114405   6.468   2.861   6.813
 4502SOL    HW214406   6.441   3.022   6.807
 4503SOL     OW14407   1.949   3.135   2.982
 4503SOL    HW114408   2.008   3.196   2.928
 4503SOL    HW214409   1.873   3.104   2.925
 4504SOL     OW14410   4.448   2.445   4.569
 4504SOL    HW114411   4.421   2.433   4.474
 4504SOL    HW214412   4.429   2.361   4.620
 4505SOL     OW14413   2.180   4.843   6.733
 4505SOL    HW114414   2.181   4.895   6.648
 4505SOL    HW214415   2.096   4.790   6.739
 4506SOL     OW14416   4.238   6.827   4.589
 4506SOL    HW114417   4.154   6.798   4.636
 4506SOL    HW214418   4.303   6.751   4.589
 4507SOL     OW14419   6.656   3.734   1.797
 4507SOL    HW114420   6.691   3.798   1.728
 4507SOL    HW214421   6.557   3.721   1.783
 4508SOL     OW14422   1.882   4.220   6.799
 4508SOL    HW114423   1.829   4.146   6.841
 4508SOL    HW214424   1.876   4.214   6.700
 4509SOL     OW14425   0.669   1.917   3.346
 4509SOL    HW114426   0.749   1.937   3.289
 4509SOL    HW214427   0.669   1.819   3.370
 4510SOL     OW14428   3.911   6.458   5.000
 4510SOL    HW114429   3.814   6.473   5.021
 4510SOL    HW214430   3.933   6.361   5.009
 4511SOL     OW14431   6.288   2.657   6.274
 4511SOL    HW114432   6.383   2.685   6.282
 4511SOL    HW214433   6.277   2.594   6.197
 4512SOL     OW14434   2.922   4.873   0.033
 4512SOL    HW114435   2.927   4.796   6.989
 4512SOL    HW214436   2.998   4.868   0.097
 4513SOL     OW14437   5.652   1.277   2.086
 4513SOL    HW114438   5.695   1.319   2.006
 4513SOL    HW214439   5.633   1.181   2.066
 4514SOL     OW14440   3.502   0.995   5.416
 4514SOL    HW114441   3.578   1.034   5.468
 4514SOL    HW214442   3.524   0.900   5.392
 4515SOL     OW14443   6.376   4.819   1.056
 4515SOL    HW114444   6.405   4.883   1.127
 4515SOL    HW214445   6.307   4.757   1.093
 4516SOL     OW14446   0.752   0.267   4.548
 4516SOL    HW114447   0.755   0.168   4.539
 4516SOL    HW214448   0.688   0.304   4.481
 4517SOL     OW14449   3.489   0.022   6.472
 4517SOL    HW114450   3.556   7.005   6.537
 4517SOL    HW214451   3.431   6.968   6.439
 4518SOL     OW14452   1.343   0.800   3.895
 4518SOL    HW114453   1.365   0.707   3.926
 4518SOL    HW214454   1.406   0.865   3.937
 4519SOL     OW14455   6.198   2.769   5.046
 4519SOL    HW114456   6.207   2.721   5.133
 4519SOL    HW214457   6.145   2.853   5.059
 4520SOL     OW14458   0.306   3.972   2.415
 4520SOL    HW114459   0.244   3.921   2.355
 4520SOL    HW214460   0.398   3.933   2.408
 4521SOL     OW14461   5.133   1.840   6.231
 4521SOL    HW114462   5.134   1.847   6.131
 4521SOL    HW214463   5.216   1.881   6.268
 4522SOL     OW14464   5.632   0.428   2.962
 4522SOL    HW114465   5.625   0.454   2.866
 4522SOL    HW214466   5.555   0.369   2.987
 4523SOL     OW14467   4.413   3.224   6.485
 4523SOL    HW114468   4.342   3.294   6.475
 4523SOL    HW214469   4.455   3.233   6.576
 4524SOL     OW14470   6.435   0.484   5.072
 4524SOL    HW114471   6.509   0.443   5.018
 4524SOL    HW214472   6.358   0.507   5.012
 4525SOL     OW14473   6.786   1.844   5.482
 4525SOL    HW114474   6.841   1.901   5.421
 4525SOL    HW214475   6.763   1.896   5.565
 4526SOL     OW14476   3.642   1.119   0.794
 4526SOL    HW114477   3.677   1.026   0.802
 4526SOL    HW214478   3.542   1.118   0.800
 4527SOL     OW14479   3.859   0.415   4.028
 4527SOL    HW114480   3.932   0.350   4.046
 4527SOL    HW214481   3.865   0.447   3.933
 4528SOL     OW14482   5.033   6.906   5.744
 4528SOL    HW114483   5.005   6.935   5.653
 4528SOL    HW214484   4.953   6.881   5.798
 4529SOL     OW14485   4.027   0.248   3.822
 4529SOL    HW114486   4.051   0.262   3.918
 4529SOL    HW214487   3.936   0.285   3.804
 4530SOL     OW14488   0.546   2.732   4.976
 4530SOL    HW114489   0.532   2.756   4.880
 4530SOL    HW214490   0.623   2.669   4.984
 4531SOL     OW14491   0.228   4.107   3.761
 4531SOL    HW114492   0.237   4.203   3.736
 4531SOL    HW214493   0.269   4.091   3.852
 4532SOL     OW14494   6.323   1.686   0.568
 4532SOL    HW114495   6.291   1.640   0.485
 4532SOL    HW214496   6.271   1.770   0.581
 4533SOL     OW14497   3.640   5.816   2.223
 4533SOL    HW114498   3.666   5.754   2.148
 4533SOL    HW214499   3.640   5.910   2.190
 4534SOL     OW14500   0.046   4.263   5.425
 4534SOL    HW114501   0.103   4.320   5.484
 4534SOL    HW214502   0.036   4.173   5.467
 4535SOL     OW14503   4.983   2.289   2.823
 4535SOL    HW114504   5.014   2.205   2.868
 4535SOL    HW214505   4.909   2.329   2.877
 4536SOL     OW14506   0.255   0.641   4.062
 4536SOL    HW114507   0.240   0.694   4.146
 4536SOL    HW214508   0.334   0.581   4.074
 4537SOL     OW14509   4.217   3.095   6.336
 4537SOL    HW114510   4.285   3.139   6.394
 4537SOL    HW214511   4.263   3.036   6.269
 4538SOL     OW14512   3.539   1.340   2.004
 4538SOL    HW114513   3.604   1.265   1.994
 4538SOL    HW214514   3.446   1.305   1.999
 4539SOL     OW14515   2.178   2.125   2.484
 4539SOL    HW114516   2.133   2.094   2.400
 4539SOL    HW214517   2.117   2.187   2.533
 4540SOL     OW14518   3.549   2.892   4.821
 4540SOL    HW114519   3.639   2.912   4.782
 4540SOL    HW214520   3.501   2.827   4.762
 4541SOL     OW14521   6.383   1.411   1.510
 4541SOL    HW114522   6.432   1.324   1.516
 4541SOL    HW214523   6.291   1.395   1.475
 4542SOL     OW14524   5.123   0.065   3.524
 4542SOL    HW114525   5.036   0.062   3.574
 4542SOL    HW214526   5.154   0.160   3.517
 4543SOL     OW14527   5.489   2.005   1.706
 4543SOL    HW114528   5.538   2.072   1.761
 4543SOL    HW214529   5.524   2.008   1.612
 4544SOL     OW14530   4.019   4.817   6.702
 4544SOL    HW114531   3.942   4.752   6.697
 4544SOL    HW214532   4.105   4.767   6.691
 4545SOL     OW14533   4.469   3.604   5.977
 4545SOL    HW114534   4.523   3.567   5.902
 4545SOL    HW214535   4.425   3.689   5.947
 4546SOL     OW14536   0.308   6.583   7.008
 4546SOL    HW114537   0.310   6.600   0.086
 4546SOL    HW214538   0.386   6.630   6.965
 4547SOL     OW14539   3.952   1.627   1.756
 4547SOL    HW114540   3.868   1.611   1.808
 4547SOL    HW214541   3.968   1.550   1.695
 4548SOL     OW14542   1.814   3.343   3.589
 4548SOL    HW114543   1.834   3.392   3.504
 4548SOL    HW214544   1.779   3.406   3.657
 4549SOL     OW14545   4.467   1.571   2.484
 4549SOL    HW114546   4.543   1.507   2.486
 4549SOL    HW214547   4.477   1.634   2.407
 4550SOL     OW14548   1.535   6.296   4.658
 4550SOL    HW114549   1.573   6.381   4.696
 4550SOL    HW214550   1.593   6.219   4.683
 4551SOL     OW14551   0.346   2.921   6.660
 4551SOL    HW114552   0.444   2.911   6.680
 4551SOL    HW214553   0.293   2.893   6.740
 4552SOL     OW14554   6.574   2.927   3.697
 4552SOL    HW114555   6.619   2.853   3.748
 4552SOL    HW214556   6.476   2.908   3.690
 4553SOL     OW14557   4.952   4.735   0.187
 4553SOL    HW114558   4.878   4.669   0.194
 4553SOL    HW214559   5.038   4.692   0.213
 4554SOL     OW14560   5.732   0.160   3.679
 4554SOL    HW114561   5.820   0.141   3.635
 4554SOL    HW214562   5.724   0.259   3.696
 4555SOL     OW14563   4.326   2.069   6.896
 4555SOL    HW114564   4.417   2.108   6.902
 4555SOL    HW214565   4.332   1.969   6.900
 4556SOL     OW14566   5.024   1.044   4.869
 4556SOL    HW114567   5.051   1.043   4.772
 4556SOL    HW214568   5.051   1.130   4.911
 4557SOL     OW14569   4.990   0.492   5.451
 4557SOL    HW114570   4.943   0.431   5.515
 4557SOL    HW214571   5.023   0.573   5.499
 4558SOL     OW14572   5.833   3.700   5.773
 4558SOL    HW114573   5.904   3.664   5.833
 4558SOL    HW214574   5.825   3.799   5.786
 4559SOL     OW14575   0.580   6.445   1.768
 4559SOL    HW114576   0.510   6.517   1.772
 4559SOL    HW214577   0.546   6.368   1.714
 4560SOL     OW14578   5.137   2.617   2.946
 4560SOL    HW114579   5.183   2.531   2.922
 4560SOL    HW214580   5.114   2.617   3.044
 4561SOL     OW14581   2.800   0.505   6.666
 4561SOL    HW114582   2.773   0.556   6.585
 4561SOL    HW214583   2.877   0.445   6.644
 4562SOL     OW14584   2.906   4.859   5.386
 4562SOL    HW114585   2.867   4.772   5.418
 4562SOL    HW214586   2.931   4.851   5.289
 4563SOL     OW14587   5.438   2.297   5.986
 4563SOL    HW114588   5.520   2.243   5.964
 4563SOL    HW214589   5.448   2.389   5.948
 4564SOL     OW14590   1.453   5.643   6.789
 4564SOL    HW114591   1.367   5.652   6.740
 4564SOL    HW214592   1.514   5.581   6.738
 4565SOL     OW14593   3.176   0.683   3.683
 4565SOL    HW114594   3.091   0.696   3.633
 4565SOL    HW214595   3.159   0.688   3.781
 4566SOL     OW14596   0.920   1.457   0.341
 4566SOL    HW114597   0.970   1.437   0.426
 4566SOL    HW214598   0.822   1.456   0.359
 4567SOL     OW14599   6.649   0.895   1.032
 4567SOL    HW114600   6.647   0.875   0.934
 4567SOL    HW214601   6.669   0.993   1.046
 4568SOL     OW14602   3.559   5.012   4.555
 4568SOL    HW114603   3.504   4.982   4.633
 4568SOL    HW214604   3.530   4.962   4.473
 4569SOL     OW14605   0.089   2.464   3.193
 4569SOL    HW114606   0.171   2.407   3.200
 4569SOL    HW214607   0.116   2.559   3.178
 4570SOL     OW14608   6.264   5.232   4.110
 4570SOL    HW114609   6.194   5.211   4.042
 4570SOL    HW214610   6.229   5.300   4.175
 4571SOL     OW14611   3.770   2.966   3.855
 4571SOL    HW114612   3.835   2.993   3.927
 4571SOL    HW214613   3.804   2.996   3.766
 4572SOL     OW14614   2.244   5.401   1.999
 4572SOL    HW114615   2.210   5.486   1.959
 4572SOL    HW214616   2.342   5.408   2.014
 4573SOL     OW14617   5.293   6.870   0.678
 4573SOL    HW114618   5.284   6.821   0.591
 4573SOL    HW214619   5.312   6.804   0.751
 4574SOL     OW14620   0.380   4.631   1.519
 4574SOL    HW114621   0.404   4.617   1.615
 4574SOL    HW214622   0.304   4.696   1.512
 4575SOL     OW14623   6.478   6.588   2.428
 4575SOL    HW114624   6.539   6.625   2.498
 4575SOL    HW214625   6.522   6.510   2.383
 4576SOL     OW14626   3.065   6.094   4.400
 4576SOL    HW114627   3.023   6.046   4.477
 4576SOL    HW214628   3.009   6.080   4.318
 4577SOL     OW14629   1.529   2.186   3.826
 4577SOL    HW114630   1.490   2.240   3.751
 4577SOL    HW214631   1.599   2.240   3.872
 4578SOL     OW14632   6.818   5.328   4.028
 4578SOL    HW114633   6.726   5.316   4.066
 4578SOL    HW214634   6.877   5.369   4.097
 4579SOL     OW14635   4.978   2.023   4.434
 4579SOL    HW114636   4.895   2.039   4.487
 4579SOL    HW214637   4.972   2.074   4.348
 4580SOL     OW14638   6.846   5.626   0.195
 4580SOL    HW114639   6.929   5.680   0.196
 4580SOL    HW214640   6.768   5.684   0.219
 4581SOL     OW14641   3.427   6.248   3.789
 4581SOL    HW114642   3.332   6.246   3.759
 4581SOL    HW214643   3.485   6.209   3.718
 4582SOL     OW14644   4.854   0.012   3.581
 4582SOL    HW114645   4.840   0.028   3.679
 4582SOL    HW214646   4.859   6.933   3.564
 4583SOL     OW14647   4.174   1.559   5.764
 4583SOL    HW114648   4.247   1.628   5.767
 4583SOL    HW214649   4.181   1.507   5.679
 4584SOL     OW14650   1.350   5.054   5.856
 4584SOL    HW114651   1.409   5.111   5.799
 4584SOL    HW214652   1.329   5.101   5.941
 4585SOL     OW14653   3.155   6.575   2.741
 4585SOL    HW114654   3.110   6.490   2.768
 4585SOL    HW214655   3.210   6.609   2.818
 4586SOL     OW14656   2.596   6.872   2.037
 4586SOL    HW114657   2.525   6.931   2.075
 4586SOL    HW214658   2.657   6.842   2.110
 4587SOL     OW14659   2.764   4.953   0.911
 4587SOL    HW114660   2.666   4.972   0.910
 4587SOL    HW214661   2.779   4.855   0.895
 4588SOL     OW14662   3.869   3.820   5.474
 4588SOL    HW114663   3.839   3.908   5.510
 4588SOL    HW214664   3.883   3.756   5.550
 4589SOL     OW14665   1.004   2.020   3.510
 4589SOL    HW114666   0.906   2.030   3.532
 4589SOL    HW214667   1.058   2.047   3.589
 4590SOL     OW14668   4.554   6.274   2.995
 4590SOL    HW114669   4.599   6.215   3.061
 4590SOL    HW214670   4.591   6.256   2.904
 4591SOL     OW14671   6.003   6.446   5.588
 4591SOL    HW114672   6.063   6.491   5.521
 4591SOL    HW214673   5.922   6.410   5.542
 4592SOL     OW14674   3.282   1.358   5.777
 4592SOL    HW114675   3.225   1.410   5.713
 4592SOL    HW214676   3.224   1.309   5.841
 4593SOL     OW14677   3.885   6.401   1.646
 4593SOL    HW114678   3.917   6.430   1.736
 4593SOL    HW214679   3.802   6.451   1.622
 4594SOL     OW14680   3.296   1.994   2.645
 4594SOL    HW114681   3.248   1.922   2.693
 4594SOL    HW214682   3.329   1.960   2.557
 4595SOL     OW14683   4.712   3.283   5.957
 4595SOL    HW114684   4.766   3.356   5.998
 4595SOL    HW214685   4.627   3.272   6.008
 4596SOL     OW14686   5.936   6.721   2.022
 4596SOL    HW114687   5.971   6.636   2.062
 4596SOL    HW214688   5.890   6.775   2.093
 4597SOL     OW14689   6.503   4.932   6.038
 4597SOL    HW114690   6.587   4.896   6.078
 4597SOL    HW214691   6.428   4.919   6.102
 4598SOL     OW14692   3.268   4.393   0.478
 4598SOL    HW114693   3.259   4.492   0.485
 4598SOL    HW214694   3.292   4.355   0.568
 4599SOL     OW14695   2.249   5.082   0.712
 4599SOL    HW114696   2.298   5.168   0.696
 4599SOL    HW214697   2.220   5.045   0.624
 4600SOL     OW14698   3.634   5.072   1.490
 4600SOL    HW114699   3.609   5.164   1.520
 4600SOL    HW214700   3.578   5.005   1.539
 4601SOL     OW14701   1.676   5.624   4.531
 4601SOL    HW114702   1.671   5.678   4.448
 4601SOL    HW214703   1.681   5.527   4.508
 4602SOL     OW14704   1.615   1.291   1.343
 4602SOL    HW114705   1.663   1.209   1.373
 4602SOL    HW214706   1.517   1.271   1.334
 4603SOL     OW14707   3.206   1.575   1.913
 4603SOL    HW114708   3.224   1.668   1.946
 4603SOL    HW214709   3.268   1.555   1.837
 4604SOL     OW14710   1.415   0.974   2.316
 4604SOL    HW114711   1.430   0.915   2.395
 4604SOL    HW214712   1.359   0.925   2.249
 4605SOL     OW14713   4.788   6.478   5.700
 4605SOL    HW114714   4.773   6.534   5.618
 4605SOL    HW214715   4.886   6.458   5.708
 4606SOL     OW14716   6.850   6.519   5.477
 4606SOL    HW114717   6.932   6.537   5.423
 4606SOL    HW214718   6.863   6.554   5.570
 4607SOL     OW14719   2.832   2.452   1.016
 4607SOL    HW114720   2.750   2.478   0.967
 4607SOL    HW214721   2.911   2.498   0.976
 4608SOL     OW14722   1.620   3.744   5.021
 4608SOL    HW114723   1.634   3.671   4.955
 4608SOL    HW214724   1.635   3.709   5.113
 4609SOL     OW14725   3.380   6.789   6.963
 4609SOL    HW114726   3.470   6.823   6.937
 4609SOL    HW214727   3.354   6.714   6.903
 4610SOL     OW14728   6.809   3.197   7.017
 4610SOL    HW114729   6.728   3.216   0.051
 4610SOL    HW214730   6.860   3.282   7.002
 4611SOL     OW14731   0.614   3.620   6.360
 4611SOL    HW114732   0.623   3.521   6.350
 4611SOL    HW214733   0.661   3.650   6.443
 4612SOL     OW14734   2.553   0.429   6.373
 4612SOL    HW114735   2.522   0.396   6.462
 4612SOL    HW214736   2.587   0.353   6.319
 4613SOL     OW14737   3.544   5.415   1.930
 4613SOL    HW114738   3.597   5.465   1.998
 4613SOL    HW214739   3.532   5.472   1.848
 4614SOL     OW14740   2.400   5.077   0.210
 4614SOL    HW114741   2.497   5.083   0.186
 4614SOL    HW214742   2.360   4.996   0.166
 4615SOL     OW14743   6.886   2.860   0.382
 4615SOL    HW114744   6.946   2.837   0.306
 4615SOL    HW214745   6.804   2.803   0.379
 4616SOL     OW14746   6.335   0.447   0.389
 4616SOL    HW114747   6.280   0.403   0.318
 4616SOL    HW214748   6.418   0.393   0.406
 4617SOL     OW14749   6.986   3.975   1.918
 4617SOL    HW114750   0.013   3.903   1.867
 4617SOL    HW214751   6.892   3.947   1.937
 4618SOL     OW14752   0.940   2.032   6.544
 4618SOL    HW114753   1.015   2.095   6.562
 4618SOL    HW214754   0.867   2.080   6.496
 4619SOL     OW14755   3.037   6.902   3.700
 4619SOL    HW114756   3.112   6.923   3.638
 4619SOL    HW214757   3.064   6.925   3.794
 4620SOL     OW14758   2.766   5.037   6.573
 4620SOL    HW114759   2.721   5.035   6.484
 4620SOL    HW214760   2.814   5.124   6.584
 4621SOL     OW14761   0.095   6.629   6.803
 4621SOL    HW114762   0.178   6.634   6.860
 4621SOL    HW214763   0.025   6.578   6.852
 4622SOL     OW14764   2.480   3.289   1.427
 4622SOL    HW114765   2.461   3.385   1.447
 4622SOL    HW214766   2.478   3.274   1.328
 4623SOL     OW14767   6.015   4.601   2.480
 4623SOL    HW114768   6.090   4.542   2.450
 4623SOL    HW214769   5.961   4.630   2.401
 4624SOL     OW14770   4.996   0.069   5.532
 4624SOL    HW114771   4.995   0.140   5.602
 4624SOL    HW214772   5.051   0.098   5.454
 4625SOL     OW14773   1.820   3.681   6.158
 4625SOL    HW114774   1.839   3.766   6.208
 4625SOL    HW214775   1.728   3.686   6.119
 4626SOL     OW14776   5.739   5.645   2.262
 4626SOL    HW114777   5.644   5.671   2.276
 4626SOL    HW214778   5.756   5.556   2.302
 4627SOL     OW14779   2.033   0.160   5.800
 4627SOL    HW114780   2.133   0.152   5.799
 4627SOL    HW214781   2.003   0.208   5.882
 4628SOL     OW14782   0.196   3.258   1.854
 4628SOL    HW114783   0.234   3.347   1.827
 4628SOL    HW214784   0.219   3.190   1.784
 4629SOL     OW14785   3.817   5.034   4.218
 4629SOL    HW114786   3.753   5.035   4.140
 4629SOL    HW214787   3.906   4.999   4.187
 4630SOL     OW14788   1.859   6.803   2.618
 4630SOL    HW114789   1.957   6.821   2.634
 4630SOL    HW214790   1.805   6.871   2.667
 4631SOL     OW14791   1.582   0.939   2.584
 4631SOL    HW114792   1.653   0.899   2.642
 4631SOL    HW214793   1.511   0.871   2.567
 4632SOL     OW14794   5.891   5.492   4.203
 4632SOL    HW114795   5.853   5.559   4.267
 4632SOL    HW214796   5.987   5.474   4.227
 4633SOL     OW14797   5.710   2.604   5.689
 4633SOL    HW114798   5.643   2.558   5.632
 4633SOL    HW214799   5.666   2.635   5.773
 4634SOL     OW14800   3.789   5.093   1.034
 4634SOL    HW114801   3.827   5.152   0.962
 4634SOL    HW214802   3.793   4.997   1.004
 4635SOL     OW14803   5.127   3.777   1.169
 4635SOL    HW114804   5.070   3.733   1.100
 4635SOL    HW214805   5.072   3.796   1.250
 4636SOL     OW14806   1.115   5.277   1.039
 4636SOL    HW114807   1.099   5.370   1.074
 4636SOL    HW214808   1.121   5.280   0.939
 4637SOL     OW14809   1.769   0.477   4.798
 4637SOL    HW114810   1.849   0.520   4.839
 4637SOL    HW214811   1.792   0.444   4.706
 4638SOL     OW14812   4.432   4.014   6.186
 4638SOL    HW114813   4.358   3.951   6.164
 4638SOL    HW214814   4.508   4.001   6.122
 4639SOL     OW14815   0.297   2.748   5.088
 4639SOL    HW114816   0.394   2.741   5.067
 4639SOL    HW214817   0.249   2.666   5.055
 4640SOL     OW14818   6.462   4.589   2.754
 4640SOL    HW114819   6.491   4.505   2.710
 4640SOL    HW214820   6.542   4.638   2.788
 4641SOL     OW14821   2.948   4.211   5.800
 4641SOL    HW114822   2.889   4.241   5.725
 4641SOL    HW214823   2.940   4.112   5.811
 4642SOL     OW14824   6.051   6.093   3.938
 4642SOL    HW114825   6.147   6.121   3.946
 4642SOL    HW214826   5.999   6.164   3.891
 4643SOL     OW14827   4.307   2.569   0.842
 4643SOL    HW114828   4.288   2.583   0.939
 4643SOL    HW214829   4.256   2.636   0.788
 4644SOL     OW14830   2.599   4.972   5.197
 4644SOL    HW114831   2.550   4.885   5.200
 4644SOL    HW214832   2.695   4.957   5.222
 4645SOL     OW14833   2.146   5.951   4.491
 4645SOL    HW114834   2.072   5.906   4.541
 4645SOL    HW214835   2.108   6.019   4.428
 4646SOL     OW14836   3.970   0.891   1.820
 4646SOL    HW114837   4.014   0.847   1.898
 4646SOL    HW214838   3.900   0.831   1.783
 4647SOL     OW14839   0.249   0.883   4.514
 4647SOL    HW114840   0.309   0.960   4.493
 4647SOL    HW214841   0.251   0.864   4.612
 4648SOL     OW14842   1.285   4.621   2.180
 4648SOL    HW114843   1.226   4.579   2.111
 4648SOL    HW214844   1.318   4.709   2.146
 4649SOL     OW14845   5.777   6.448   6.323
 4649SOL    HW114846   5.776   6.369   6.383
 4649SOL    HW214847   5.751   6.420   6.230
 4650SOL     OW14848   0.122   4.901   1.757
 4650SOL    HW114849   0.142   4.857   1.845
 4650SOL    HW214850   0.032   4.871   1.725
 4651SOL     OW14851   6.588   1.809   1.978
 4651SOL    HW114852   6.540   1.827   2.064
 4651SOL    HW214853   6.535   1.847   1.902
 4652SOL     OW14854   0.279   5.895   5.665
 4652SOL    HW114855   0.298   5.828   5.737
 4652SOL    HW214856   0.188   5.933   5.678
 4653SOL     OW14857   1.012   5.645   6.950
 4653SOL    HW114858   1.081   5.713   6.927
 4653SOL    HW214859   1.026   5.563   6.895
 4654SOL     OW14860   0.872   1.680   6.329
 4654SOL    HW114861   0.939   1.702   6.258
 4654SOL    HW214862   0.794   1.742   6.321
 4655SOL     OW14863   0.294   5.469   3.437
 4655SOL    HW114864   0.224   5.428   3.379
 4655SOL    HW214865   0.289   5.429   3.529
 4656SOL     OW14866   2.165   6.901   3.088
 4656SOL    HW114867   2.240   6.929   3.028
 4656SOL    HW214868   2.202   6.876   3.177
 4657SOL     OW14869   5.660   0.196   6.712
 4657SOL    HW114870   5.685   0.208   6.616
 4657SOL    HW214871   5.582   0.134   6.718
 4658SOL     OW14872   4.922   0.862   3.472
 4658SOL    HW114873   4.852   0.804   3.429
 4658SOL    HW214874   4.881   0.948   3.501
 4659SOL     OW14875   2.559   2.560   4.790
 4659SOL    HW114876   2.612   2.479   4.766
 4659SOL    HW214877   2.567   2.577   4.888
 4660SOL     OW14878   6.906   1.469   6.033
 4660SOL    HW114879   6.938   1.483   5.939
 4660SOL    HW214880   6.852   1.548   6.062
 4661SOL     OW14881   4.064   3.636   3.293
 4661SOL    HW114882   4.042   3.678   3.205
 4661SOL    HW214883   4.102   3.545   3.278
 4662SOL     OW14884   5.712   0.497   3.821
 4662SOL    HW114885   5.717   0.592   3.853
 4662SOL    HW214886   5.781   0.483   3.749
 4663SOL     OW14887   1.093   1.385   1.830
 4663SOL    HW114888   1.050   1.429   1.909
 4663SOL    HW214889   1.173   1.438   1.802
 4664SOL     OW14890   3.109   3.244   0.513
 4664SOL    HW114891   3.205   3.226   0.531
 4664SOL    HW214892   3.053   3.182   0.568
 4665SOL     OW14893   5.259   0.966   6.496
 4665SOL    HW114894   5.341   0.970   6.552
 4665SOL    HW214895   5.181   0.941   6.554
 4666SOL     OW14896   2.703   1.313   0.494
 4666SOL    HW114897   2.723   1.263   0.579
 4666SOL    HW214898   2.606   1.336   0.492
 4667SOL     OW14899   0.517   5.841   5.154
 4667SOL    HW114900   0.463   5.761   5.125
 4667SOL    HW214901   0.482   5.923   5.108
 4668SOL     OW14902   5.525   1.496   4.898
 4668SOL    HW114903   5.607   1.524   4.947
 4668SOL    HW214904   5.519   1.547   4.812
 4669SOL     OW14905   2.664   0.495   1.202
 4669SOL    HW114906   2.576   0.460   1.234
 4669SOL    HW214907   2.718   0.420   1.163
 4670SOL     OW14908   1.712   1.107   4.827
 4670SOL    HW114909   1.721   1.161   4.743
 4670SOL    HW214910   1.649   1.031   4.811
 4671SOL     OW14911   5.919   2.912   1.128
 4671SOL    HW114912   5.869   2.843   1.181
 4671SOL    HW214913   5.937   2.991   1.185
 4672SOL     OW14914   2.794   3.031   5.491
 4672SOL    HW114915   2.883   2.987   5.483
 4672SOL    HW214916   2.724   2.970   5.454
 4673SOL     OW14917   4.310   0.294   2.506
 4673SOL    HW114918   4.271   0.385   2.517
 4673SOL    HW214919   4.304   0.244   2.593
 4674SOL     OW14920   4.511   6.697   5.552
 4674SOL    HW114921   4.475   6.663   5.639
 4674SOL    HW214922   4.456   6.775   5.522
 4675SOL     OW14923   1.180   4.303   6.192
 4675SOL    HW114924   1.153   4.316   6.287
 4675SOL    HW214925   1.099   4.304   6.134
 4676SOL     OW14926   0.350   5.201   3.930
 4676SOL    HW114927   0.404   5.279   3.897
 4676SOL    HW214928   0.255   5.229   3.941
 4677SOL     OW14929   1.335   3.379   0.447
 4677SOL    HW114930   1.329   3.434   0.531
 4677SOL    HW214931   1.398   3.423   0.383
 4678SOL     OW14932   1.547   4.180   2.121
 4678SOL    HW114933   1.526   4.251   2.188
 4678SOL    HW214934   1.478   4.108   2.125
 4679SOL     OW14935   4.048   0.137   1.863
 4679SOL    HW114936   4.040   0.040   1.839
 4679SOL    HW214937   4.122   0.179   1.810
 4680SOL     OW14938   1.866   0.820   6.838
 4680SOL    HW114939   1.908   0.755   6.774
 4680SOL    HW214940   1.933   0.891   6.861
 4681SOL     OW14941   4.929   5.368   2.299
 4681SOL    HW114942   4.852   5.323   2.254
 4681SOL    HW214943   4.906   5.384   2.395
 4682SOL     OW14944   3.335   4.100   6.566
 4682SOL    HW114945   3.330   4.099   6.467
 4682SOL    HW214946   3.301   4.013   6.602
 4683SOL     OW14947   5.955   4.297   3.742
 4683SOL    HW114948   5.925   4.391   3.722
 4683SOL    HW214949   5.874   4.241   3.761
 4684SOL     OW14950   5.436   6.141   0.081
 4684SOL    HW114951   5.355   6.185   0.040
 4684SOL    HW214952   5.519   6.179   0.038
 4685SOL     OW14953   3.384   4.111   4.132
 4685SOL    HW114954   3.408   4.017   4.106
 4685SOL    HW214955   3.356   4.112   4.228
 4686SOL     OW14956   2.230   6.369   0.339
 4686SOL    HW114957   2.319   6.335   0.309
 4686SOL    HW214958   2.217   6.462   0.305
 4687SOL     OW14959   2.399   0.394   2.708
 4687SOL    HW114960   2.401   0.438   2.618
 4687SOL    HW214961   2.322   0.432   2.760
 4688SOL     OW14962   5.833   3.145   6.209
 4688SOL    HW114963   5.790   3.094   6.284
 4688SOL    HW214964   5.920   3.184   6.241
 4689SOL     OW14965   6.689   0.526   2.087
 4689SOL    HW114966   6.676   0.469   2.006
 4689SOL    HW214967   6.709   0.620   2.058
 4690SOL     OW14968   2.539   2.129   0.621
 4690SOL    HW114969   2.590   2.048   0.591
 4690SOL    HW214970   2.596   2.210   0.609
 4691SOL     OW14971   6.705   3.882   2.305
 4691SOL    HW114972   6.785   3.942   2.298
 4691SOL    HW214973   6.621   3.937   2.296
 4692SOL     OW14974   5.037   2.906   2.414
 4692SOL    HW114975   5.117   2.849   2.395
 4692SOL    HW214976   5.004   2.947   2.328
 4693SOL     OW14977   1.169   0.787   3.182
 4693SOL    HW114978   1.164   0.814   3.086
 4693SOL    HW214979   1.263   0.760   3.205
 4694SOL     OW14980   1.931   0.547   6.354
 4694SOL    HW114981   1.927   0.628   6.296
 4694SOL    HW214982   1.848   0.493   6.341
 4695SOL     OW14983   1.908   5.103   2.233
 4695SOL    HW114984   1.952   5.032   2.288
 4695SOL    HW214985   1.975   5.173   2.209
 4696SOL     OW14986   1.662   6.093   6.130
 4696SOL    HW114987   1.597   6.026   6.096
 4696SOL    HW214988   1.649   6.180   6.082
 4697SOL     OW14989   4.166   5.508   1.737
 4697SOL    HW114990   4.084   5.458   1.764
 4697SOL    HW214991   4.166   5.519   1.637
 4698SOL     OW14992   5.060   1.104   4.587
 4698SOL    HW114993   4.998   1.120   4.510
 4698SOL    HW214994   5.091   1.191   4.624
 4699SOL     OW14995   1.385   0.041   2.491
 4699SOL    HW114996   1.437   6.982   2.523
 4699SOL    HW214997   1.310   0.060   2.555
 4700SOL     OW14998   6.253   2.000   2.181
 4700SOL    HW114999   6.235   2.031   2.275
 4700SOL    HW215000   6.237   1.901   2.176
 4701SOL     OW15001   3.148   2.475   1.706
 4701SOL    HW115002   3.216   2.401   1.700
 4701SOL    HW215003   3.087   2.457   1.783
 4702SOL     OW15004   5.657   5.069   6.647
 4702SOL    HW115005   5.702   5.156   6.666
 4702SOL    HW215006   5.665   5.047   6.550
 4703SOL     OW15007   0.724   5.489   3.362
 4703SOL    HW115008   0.807   5.468   3.310
 4703SOL    HW215009   0.748   5.545   3.441
 4704SOL     OW15010   1.244   4.857   4.171
 4704SOL    HW115011   1.279   4.785   4.231
 4704SOL    HW215012   1.269   4.836   4.076
 4705SOL     OW15013   3.699   1.919   1.736
 4705SOL    HW115014   3.690   1.865   1.652
 4705SOL    HW215015   3.620   1.979   1.745
 4706SOL     OW15016   2.462   0.373   1.317
 4706SOL    HW115017   2.483   0.279   1.342
 4706SOL    HW215018   2.489   0.434   1.392
 4707SOL     OW15019   1.589   5.500   2.273
 4707SOL    HW115020   1.509   5.560   2.281
 4707SOL    HW215021   1.578   5.422   2.333
 4708SOL     OW15022   2.104   2.773   5.297
 4708SOL    HW115023   2.152   2.859   5.317
 4708SOL    HW215024   2.114   2.751   5.200
 4709SOL     OW15025   4.913   4.141   5.915
 4709SOL    HW115026   4.921   4.233   5.876
 4709SOL    HW215027   4.844   4.089   5.864
 4710SOL     OW15028   6.105   5.836   5.142
 4710SOL    HW115029   6.051   5.772   5.087
 4710SOL    HW215030   6.184   5.867   5.089
 4711SOL     OW15031   5.319   4.197   2.608
 4711SOL    HW115032   5.251   4.128   2.635
 4711SOL    HW215033   5.368   4.165   2.527
 4712SOL     OW15034   4.471   4.268   5.976
 4712SOL    HW115035   4.493   4.179   6.016
 4712SOL    HW215036   4.430   4.256   5.886
 4713SOL     OW15037   5.469   4.043   0.707
 4713SOL    HW115038   5.558   4.033   0.752
 4713SOL    HW215039   5.473   4.003   0.615
 4714SOL     OW15040   4.127   1.770   6.393
 4714SOL    HW115041   4.187   1.690   6.384
 4714SOL    HW215042   4.071   1.780   6.311
 4715SOL     OW15043   6.743   1.397   1.903
 4715SOL    HW115044   6.712   1.426   1.813
 4715SOL    HW215045   6.760   1.477   1.960
 4716SOL     OW15046   4.172   4.873   5.508
 4716SOL    HW115047   4.124   4.960   5.516
 4716SOL    HW215048   4.264   4.888   5.473
 4717SOL     OW15049   2.527   4.605   5.539
 4717SOL    HW115050   2.578   4.629   5.622
 4717SOL    HW215051   2.500   4.689   5.492
 4718SOL     OW15052   4.501   4.686   0.435
 4718SOL    HW115053   4.435   4.689   0.510
 4718SOL    HW215054   4.461   4.635   0.359
 4719SOL     OW15055   6.930   4.297   3.636
 4719SOL    HW115056   6.873   4.317   3.716
 4719SOL    HW215057   7.004   4.363   3.631
 4720SOL     OW15058   2.328   3.031   6.714
 4720SOL    HW115059   2.310   2.938   6.746
 4720SOL    HW215060   2.426   3.045   6.703
 4721SOL     OW15061   0.366   2.787   2.570
 4721SOL    HW115062   0.404   2.863   2.623
 4721SOL    HW215063   0.433   2.714   2.563
 4722SOL     OW15064   0.991   6.086   0.085
 4722SOL    HW115065   1.058   6.066   0.013
 4722SOL    HW215066   0.946   6.002   0.113
 4723SOL     OW15067   3.537   4.327   6.769
 4723SOL    HW115068   3.505   4.326   6.675
 4723SOL    HW215069   3.637   4.326   6.771
 4724SOL     OW15070   0.870   0.257   4.926
 4724SOL    HW115071   0.957   0.211   4.945
 4724SOL    HW215072   0.803   0.190   4.894
 4725SOL     OW15073   5.377   5.753   1.307
 4725SOL    HW115074   5.405   5.821   1.239
 4725SOL    HW215075   5.284   5.772   1.337
 4726SOL     OW15076   1.918   3.002   5.611
 4726SOL    HW115077   1.940   3.023   5.516
 4726SOL    HW215078   1.818   3.004   5.623
 4727SOL     OW15079   6.770   4.632   1.371
 4727SOL    HW115080   6.721   4.626   1.459
 4727SOL    HW215081   6.816   4.546   1.352
 4728SOL     OW15082   6.164   1.561   4.541
 4728SOL    HW115083   6.146   1.656   4.516
 4728SOL    HW215084   6.204   1.513   4.463
 4729SOL     OW15085   6.336   1.453   2.015
 4729SOL    HW115086   6.281   1.476   1.935
 4729SOL    HW215087   6.276   1.417   2.087
 4730SOL     OW15088   2.919   0.053   4.348
 4730SOL    HW115089   2.847   0.097   4.295
 4730SOL    HW215090   2.987   0.122   4.375
 4731SOL     OW15091   3.031   6.322   0.800
 4731SOL    HW115092   2.976   6.285   0.875
 4731SOL    HW215093   3.029   6.258   0.723
 4732SOL     OW15094   0.697   5.325   4.894
 4732SOL    HW115095   0.785   5.345   4.850
 4732SOL    HW215096   0.673   5.401   4.955
 4733SOL     OW15097   2.195   4.045   2.410
 4733SOL    HW115098   2.154   3.980   2.345
 4733SOL    HW215099   2.245   4.114   2.360
 4734SOL     OW15100   4.709   3.952   6.550
 4734SOL    HW115101   4.706   4.049   6.525
 4734SOL    HW215102   4.740   3.943   6.645
 4735SOL     OW15103   0.773   0.656   5.104
 4735SOL    HW115104   0.830   0.709   5.042
 4735SOL    HW215105   0.821   0.573   5.132
 4736SOL     OW15106   6.631   2.270   3.106
 4736SOL    HW115107   6.616   2.177   3.073
 4736SOL    HW215108   6.631   2.270   3.206
 4737SOL     OW15109   2.458   4.821   6.772
 4737SOL    HW115110   2.479   4.878   6.852
 4737SOL    HW215111   2.360   4.829   6.752
 4738SOL     OW15112   1.196   5.586   3.670
 4738SOL    HW115113   1.243   5.570   3.757
 4738SOL    HW215114   1.115   5.528   3.665
 4739SOL     OW15115   5.740   3.363   2.827
 4739SOL    HW115116   5.683   3.387   2.906
 4739SOL    HW215117   5.687   3.309   2.762
 4740SOL     OW15118   1.039   0.440   0.932
 4740SOL    HW115119   1.043   0.493   1.016
 4740SOL    HW215120   1.102   0.362   0.939
 4741SOL     OW15121   5.136   4.707   1.078
 4741SOL    HW115122   5.192   4.664   1.148
 4741SOL    HW215123   5.189   4.778   1.031
 4742SOL     OW15124   1.828   5.538   2.157
 4742SOL    HW115125   1.776   5.516   2.239
 4742SOL    HW215126   1.848   5.453   2.107
 4743SOL     OW15127   2.727   3.456   0.264
 4743SOL    HW115128   2.671   3.480   0.185
 4743SOL    HW215129   2.685   3.380   0.314
 4744SOL     OW15130   2.191   1.998   5.244
 4744SOL    HW115131   2.265   1.972   5.182
 4744SOL    HW215132   2.184   2.097   5.248
 4745SOL     OW15133   3.596   5.240   4.937
 4745SOL    HW115134   3.615   5.144   4.915
 4745SOL    HW215135   3.595   5.294   4.853
 4746SOL     OW15136   5.938   0.888   1.644
 4746SOL    HW115137   5.963   0.926   1.733
 4746SOL    HW215138   5.946   0.788   1.646
 4747SOL     OW15139   6.945   2.650   1.768
 4747SOL    HW115140   6.994   2.570   1.802
 4747SOL    HW215141   6.848   2.642   1.791
 4748SOL     OW15142   1.923   0.769   1.206
 4748SOL    HW115143   1.893   0.798   1.115
 4748SOL    HW215144   1.975   0.843   1.249
 4749SOL     OW15145   2.864   0.112   6.349
 4749SOL    HW115146   2.943   0.126   6.290
 4749SOL    HW215147   2.840   0.015   6.351
 4750SOL     OW15148   0.615   1.894   4.434
 4750SOL    HW115149   0.577   1.962   4.370
 4750SOL    HW215150   0.703   1.861   4.399
 4751SOL     OW15151   1.174   3.676   5.742
 4751SOL    HW115152   1.091   3.628   5.771
 4751SOL    HW215153   1.198   3.747   5.809
 4752SOL     OW15154   1.867   5.969   2.037
 4752SOL    HW115155   1.822   5.945   1.950
 4752SOL    HW215156   1.904   5.886   2.079
 4753SOL     OW15157   0.408   6.938   5.528
 4753SOL    HW115158   0.346   6.982   5.594
 4753SOL    HW215159   0.388   6.972   5.436
 4754SOL     OW15160   0.399   0.243   6.857
 4754SOL    HW115161   0.370   0.252   6.761
 4754SOL    HW215162   0.320   0.261   6.916
 4755SOL     OW15163   2.610   0.668   0.981
 4755SOL    HW115164   2.561   0.612   0.913
 4755SOL    HW215165   2.607   0.622   1.070
 4756SOL     OW15166   4.768   2.925   1.385
 4756SOL    HW115167   4.671   2.904   1.398
 4756SOL    HW215168   4.810   2.945   1.473
 4757SOL     OW15169   2.264   1.264   1.420
 4757SOL    HW115170   2.213   1.321   1.485
 4757SOL    HW215171   2.317   1.197   1.471
 4758SOL     OW15172   5.350   3.965   5.620
 4758SOL    HW115173   5.350   3.865   5.630
 4758SOL    HW215174   5.273   3.993   5.563
 4759SOL     OW15175   5.886   4.548   6.261
 4759SOL    HW115176   5.921   4.576   6.350
 4759SOL    HW215177   5.799   4.500   6.273
 4760SOL     OW15178   2.149   2.495   0.834
 4760SOL    HW115179   2.133   2.586   0.796
 4760SOL    HW215180   2.123   2.493   0.930
 4761SOL     OW15181   1.689   5.684   6.002
 4761SOL    HW115182   1.636   5.763   6.032
 4761SOL    HW215183   1.700   5.688   5.902
 4762SOL     OW15184   3.913   6.918   2.273
 4762SOL    HW115185   3.850   6.858   2.223
 4762SOL    HW215186   3.911   6.894   2.370
 4763SOL     OW15187   5.686   5.455   4.843
 4763SOL    HW115188   5.595   5.423   4.813
 4763SOL    HW215189   5.724   5.389   4.908
 4764SOL     OW15190   3.939   3.795   4.745
 4764SOL    HW115191   3.896   3.705   4.737
 4764SOL    HW215192   4.012   3.802   4.677
 4765SOL     OW15193   6.854   4.683   5.302
 4765SOL    HW115194   6.927   4.614   5.300
 4765SOL    HW215195   6.865   4.744   5.224
 4766SOL     OW15196   3.202   0.489   3.285
 4766SOL    HW115197   3.198   0.475   3.186
 4766SOL    HW215198   3.110   0.498   3.321
 4767SOL     OW15199   4.166   6.574   6.830
 4767SOL    HW115200   4.125   6.661   6.858
 4767SOL    HW215201   4.239   6.550   6.894
 4768SOL     OW15202   0.874   1.096   4.887
 4768SOL    HW115203   0.888   1.129   4.981
 4768SOL    HW215204   0.936   1.144   4.825
 4769SOL     OW15205   3.811   0.705   1.686
 4769SOL    HW115206   3.791   0.607   1.674
 4769SOL    HW215207   3.727   0.753   1.714
 4770SOL     OW15208   2.476   0.477   3.417
 4770SOL    HW115209   2.424   0.406   3.465
 4770SOL    HW215210   2.459   0.566   3.461
 4771SOL     OW15211   4.016   4.148   5.300
 4771SOL    HW115212   4.095   4.087   5.315
 4771SOL    HW215213   4.041   4.241   5.324
 4772SOL     OW15214   2.367   2.684   0.251
 4772SOL    HW115215   2.300   2.751   0.217
 4772SOL    HW215216   2.458   2.726   0.252
 4773SOL     OW15217   0.221   5.444   4.311
 4773SOL    HW115218   0.130   5.454   4.271
 4773SOL    HW215219   0.230   5.506   4.389
 4774SOL     OW15220   0.910   4.258   0.133
 4774SOL    HW115221   0.975   4.187   0.108
 4774SOL    HW215222   0.823   4.242   0.085
 4775SOL     OW15223   2.464   1.560   2.271
 4775SOL    HW115224   2.479   1.635   2.335
 4775SOL    HW215225   2.471   1.595   2.177
 4776SOL     OW15226   3.904   4.924   2.055
 4776SOL    HW115227   3.849   5.007   2.057
 4776SOL    HW215228   3.847   4.847   2.023
 4777SOL     OW15229   2.923   4.201   1.738
 4777SOL    HW115230   2.984   4.225   1.663
 4777SOL    HW215231   2.931   4.268   1.811
 4778SOL     OW15232   5.143   3.674   2.739
 4778SOL    HW115233   5.191   3.661   2.652
 4778SOL    HW215234   5.045   3.683   2.723
 4779SOL     OW15235   4.682   0.771   3.079
 4779SOL    HW115236   4.650   0.682   3.047
 4779SOL    HW215237   4.716   0.762   3.173
 4780SOL     OW15238   1.688   0.374   5.551
 4780SOL    HW115239   1.718   0.468   5.561
 4780SOL    HW215240   1.643   0.362   5.463
 4781SOL     OW15241   1.811   5.756   2.940
 4781SOL    HW115242   1.901   5.799   2.943
 4781SOL    HW215243   1.821   5.659   2.917
 4782SOL     OW15244   5.743   5.926   0.445
 4782SOL    HW115245   5.778   5.889   0.531
 4782SOL    HW215246   5.820   5.957   0.389
 4783SOL     OW15247   6.207   3.999   2.417
 4783SOL    HW115248   6.198   3.930   2.489
 4783SOL    HW215249   6.181   4.088   2.453
 4784SOL     OW15250   6.061   4.279   5.064
 4784SOL    HW115251   6.095   4.203   5.119
 4784SOL    HW215252   6.138   4.336   5.034
 4785SOL     OW15253   6.454   6.875   0.894
 4785SOL    HW115254   6.536   6.839   0.938
 4785SOL    HW215255   6.464   6.868   0.794
 4786SOL     OW15256   1.777   2.916   2.490
 4786SOL    HW115257   1.841   2.839   2.492
 4786SOL    HW215258   1.701   2.894   2.429
 4787SOL     OW15259   4.360   2.401   2.531
 4787SOL    HW115260   4.387   2.468   2.600
 4787SOL    HW215261   4.269   2.366   2.553
 4788SOL     OW15262   1.275   6.114   5.603
 4788SOL    HW115263   1.313   6.070   5.521
 4788SOL    HW215264   1.201   6.058   5.639
 4789SOL     OW15265   6.161   6.657   0.620
 4789SOL    HW115266   6.256   6.660   0.587
 4789SOL    HW215267   6.114   6.579   0.579
 4790SOL     OW15268   5.360   1.015   6.987
 4790SOL    HW115269   5.337   1.105   6.952
 4790SOL    HW215270   5.380   0.953   6.911
 4791SOL     OW15271   4.690   1.321   3.427
 4791SOL    HW115272   4.759   1.335   3.357
 4791SOL    HW215273   4.659   1.410   3.462
 4792SOL     OW15274   2.974   2.244   1.670
 4792SOL    HW115275   3.072   2.234   1.657
 4792SOL    HW215276   2.953   2.338   1.700
 4793SOL     OW15277   0.673   0.265   6.571
 4793SOL    HW115278   0.649   0.324   6.494
 4793SOL    HW215279   0.718   0.182   6.537
 4794SOL     OW15280   4.093   0.795   2.025
 4794SOL    HW115281   4.163   0.864   2.042
 4794SOL    HW215282   4.137   0.706   2.010
 4795SOL     OW15283   5.935   2.657   4.279
 4795SOL    HW115284   5.913   2.754   4.271
 4795SOL    HW215285   5.946   2.617   4.188
 4796SOL     OW15286   6.107   3.916   1.059
 4796SOL    HW115287   6.020   3.956   1.089
 4796SOL    HW215288   6.096   3.816   1.052
 4797SOL     OW15289   0.269   4.667   4.927
 4797SOL    HW115290   0.368   4.673   4.921
 4797SOL    HW215291   0.228   4.752   4.895
 4798SOL     OW15292   6.608   4.268   5.472
 4798SOL    HW115293   6.681   4.327   5.439
 4798SOL    HW215294   6.559   4.227   5.395
 4799SOL     OW15295   3.703   1.380   4.818
 4799SOL    HW115296   3.661   1.471   4.815
 4799SOL    HW215297   3.753   1.364   4.733
 4800SOL     OW15298   2.066   1.733   3.890
 4800SOL    HW115299   2.103   1.698   3.975
 4800SOL    HW215300   1.972   1.763   3.904
 4801SOL     OW15301   1.435   2.570   0.558
 4801SOL    HW115302   1.460   2.501   0.627
 4801SOL    HW215303   1.408   2.655   0.603
 4802SOL     OW15304   1.892   0.357   2.061
 4802SOL    HW115305   1.843   0.352   2.148
 4802SOL    HW215306   1.828   0.341   1.986
 4803SOL     OW15307   0.838   6.925   1.098
 4803SOL    HW115308   0.773   6.853   1.076
 4803SOL    HW215309   0.931   6.894   1.078
 4804SOL     OW15310   3.731   5.474   0.188
 4804SOL    HW115311   3.819   5.442   0.222
 4804SOL    HW215312   3.720   5.444   0.093
 4805SOL     OW15313   0.628   1.226   0.689
 4805SOL    HW115314   0.620   1.127   0.702
 4805SOL    HW215315   0.682   1.266   0.763
 4806SOL     OW15316   0.640   2.903   3.028
 4806SOL    HW115317   0.659   2.991   2.985
 4806SOL    HW215318   0.637   2.832   2.958
 4807SOL     OW15319   0.924   6.381   2.366
 4807SOL    HW115320   0.852   6.390   2.297
 4807SOL    HW215321   0.962   6.289   2.363
 4808SOL     OW15322   5.703   2.905   1.431
 4808SOL    HW115323   5.788   2.942   1.393
 4808SOL    HW215324   5.725   2.844   1.508
 4809SOL     OW15325   4.196   6.419   6.112
 4809SOL    HW115326   4.131   6.493   6.126
 4809SOL    HW215327   4.290   6.455   6.119
 4810SOL     OW15328   1.305   0.217   1.324
 4810SOL    HW115329   1.316   0.312   1.351
 4810SOL    HW215330   1.295   0.160   1.406
 4811SOL     OW15331   5.808   5.838   2.908
 4811SOL    HW115332   5.782   5.827   2.812
 4811SOL    HW215333   5.906   5.860   2.913
 4812SOL     OW15334   6.809   4.860   4.215
 4812SOL    HW115335   6.786   4.837   4.121
 4812SOL    HW215336   6.756   4.940   4.243
 4813SOL     OW15337   5.502   2.964   2.846
 4813SOL    HW115338   5.453   2.884   2.810
 4813SOL    HW215339   5.562   3.000   2.775
 4814SOL     OW15340   6.766   3.400   2.017
 4814SOL    HW115341   6.710   3.412   2.098
 4814SOL    HW215342   6.852   3.356   2.042
 4815SOL     OW15343   4.011   6.713   2.922
 4815SOL    HW115344   4.077   6.638   2.931
 4815SOL    HW215345   3.988   6.748   3.013
 4816SOL     OW15346   5.201   5.411   3.266
 4816SOL    HW115347   5.104   5.433   3.265
 4816SOL    HW215348   5.217   5.333   3.326
 4817SOL     OW15349   6.992   1.809   7.008
 4817SOL    HW115350   0.070   1.805   6.990
 4817SOL    HW215351   6.971   1.889   0.043
 4818SOL     OW15352   6.836   5.977   3.459
 4818SOL    HW115353   6.814   5.913   3.385
 4818SOL    HW215354   6.934   5.994   3.461
 4819SOL     OW15355   1.710   3.399   1.422
 4819SOL    HW115356   1.639   3.352   1.474
 4819SOL    HW215357   1.697   3.498   1.432
 4820SOL     OW15358   0.821   3.203   2.526
 4820SOL    HW115359   0.916   3.177   2.547
 4820SOL    HW215360   0.797   3.169   2.435
 4821SOL     OW15361   0.141   5.724   4.017
 4821SOL    HW115362   0.122   5.714   4.114
 4821SOL    HW215363   0.105   5.811   3.985
 4822SOL     OW15364   1.992   4.642   4.144
 4822SOL    HW115365   1.925   4.676   4.209
 4822SOL    HW215366   2.051   4.717   4.113
 4823SOL     OW15367   1.536   2.994   1.197
 4823SOL    HW115368   1.521   2.991   1.296
 4823SOL    HW215369   1.574   3.083   1.172
 4824SOL     OW15370   6.421   1.800   6.628
 4824SOL    HW115371   6.411   1.711   6.585
 4824SOL    HW215372   6.365   1.804   6.711
 4825SOL     OW15373   0.706   6.901   4.059
 4825SOL    HW115374   0.654   6.967   4.113
 4825SOL    HW215375   0.714   6.815   4.110
 4826SOL     OW15376   3.964   0.231   0.977
 4826SOL    HW115377   4.063   0.225   0.985
 4826SOL    HW215378   3.937   0.221   0.881
 4827SOL     OW15379   6.732   1.551   0.943
 4827SOL    HW115380   6.675   1.469   0.937
 4827SOL    HW215381   6.812   1.541   0.884
 4828SOL     OW15382   5.658   1.616   5.291
 4828SOL    HW115383   5.561   1.591   5.294
 4828SOL    HW215384   5.667   1.714   5.311
 4829SOL     OW15385   4.339   6.517   5.037
 4829SOL    HW115386   4.431   6.548   5.060
 4829SOL    HW215387   4.289   6.592   4.994
 4830SOL     OW15388   1.785   6.526   3.653
 4830SOL    HW115389   1.734   6.441   3.667
 4830SOL    HW215390   1.834   6.522   3.566
 4831SOL     OW15391   3.137   4.469   5.308
 4831SOL    HW115392   3.062   4.505   5.252
 4831SOL    HW215393   3.140   4.370   5.298
 4832SOL     OW15394   4.065   3.537   4.233
 4832SOL    HW115395   3.968   3.544   4.211
 4832SOL    HW215396   4.108   3.627   4.223
 4833SOL     OW15397   6.552   3.113   5.094
 4833SOL    HW115398   6.542   3.137   4.997
 4833SOL    HW215399   6.462   3.115   5.138
 4834SOL     OW15400   1.171   5.107   1.597
 4834SOL    HW115401   1.249   5.069   1.548
 4834SOL    HW215402   1.107   5.147   1.531
 4835SOL     OW15403   0.113   2.894   5.964
 4835SOL    HW115404   0.043   2.846   5.911
 4835SOL    HW215405   0.203   2.876   5.925
 4836SOL     OW15406   4.614   2.271   5.602
 4836SOL    HW115407   4.622   2.327   5.520
 4836SOL    HW215408   4.584   2.328   5.679
 4837SOL     OW15409   0.769   3.722   3.854
 4837SOL    HW115410   0.864   3.691   3.859
 4837SOL    HW215411   0.710   3.655   3.900
 4838SOL     OW15412   1.974   4.215   6.152
 4838SOL    HW115413   2.031   4.268   6.214
 4838SOL    HW215414   1.994   4.241   6.058
 4839SOL     OW15415   2.538   1.190   0.722
 4839SOL    HW115416   2.461   1.254   0.729
 4839SOL    HW215417   2.503   1.097   0.716
 4840SOL     OW15418   5.326   3.169   5.205
 4840SOL    HW115419   5.410   3.126   5.173
 4840SOL    HW215420   5.258   3.098   5.225
 4841SOL     OW15421   2.612   6.281   3.270
 4841SOL    HW115422   2.644   6.376   3.273
 4841SOL    HW215423   2.587   6.251   3.362
 4842SOL     OW15424   3.625   6.158   3.317
 4842SOL    HW115425   3.595   6.072   3.276
 4842SOL    HW215426   3.629   6.230   3.247
 4843SOL     OW15427   0.009   1.513   0.073
 4843SOL    HW115428   6.965   1.495   0.148
 4843SOL    HW215429   0.011   1.612   0.055
 4844SOL     OW15430   1.240   5.432   6.064
 4844SOL    HW115431   1.282   5.479   5.986
 4844SOL    HW215432   1.187   5.497   6.118
 4845SOL     OW15433   4.936   3.859   4.995
 4845SOL    HW115434   4.999   3.828   4.924
 4845SOL    HW215435   4.874   3.784   5.020
 4846SOL     OW15436   6.070   3.420   4.964
 4846SOL    HW115437   5.981   3.376   4.967
 4846SOL    HW215438   6.120   3.402   5.049
 4847SOL     OW15439   2.472   6.678   6.419
 4847SOL    HW115440   2.394   6.670   6.357
 4847SOL    HW215441   2.554   6.644   6.374
 4848SOL     OW15442   4.363   1.193   3.887
 4848SOL    HW115443   4.364   1.164   3.982
 4848SOL    HW215444   4.414   1.127   3.831
 4849SOL     OW15445   2.276   6.404   1.216
 4849SOL    HW115446   2.212   6.391   1.141
 4849SOL    HW215447   2.300   6.316   1.256
 4850SOL     OW15448   3.753   6.359   1.350
 4850SOL    HW115449   3.785   6.402   1.266
 4850SOL    HW215450   3.661   6.321   1.334
 4851SOL     OW15451   3.822   4.784   0.120
 4851SOL    HW115452   3.810   4.700   0.067
 4851SOL    HW215453   3.789   4.862   0.066
 4852SOL     OW15454   5.084   5.082   5.978
 4852SOL    HW115455   4.991   5.069   6.012
 4852SOL    HW215456   5.115   4.997   5.936
 4853SOL     OW15457   4.811   0.328   2.313
 4853SOL    HW115458   4.725   0.369   2.345
 4853SOL    HW215459   4.817   0.234   2.347
 4854SOL     OW15460   4.113   6.811   2.126
 4854SOL    HW115461   4.066   6.866   2.195
 4854SOL    HW215462   4.183   6.866   2.081
 4855SOL     OW15463   4.886   5.080   5.553
 4855SOL    HW115464   4.874   4.997   5.606
 4855SOL    HW215465   4.808   5.141   5.568
 4856SOL     OW15466   0.484   3.306   2.813
 4856SOL    HW115467   0.389   3.285   2.793
 4856SOL    HW215468   0.489   3.369   2.890
 4857SOL     OW15469   2.381   2.562   5.394
 4857SOL    HW115470   2.453   2.501   5.363
 4857SOL    HW215471   2.354   2.538   5.487
 4858SOL     OW15472   1.871   6.443   4.878
 4858SOL    HW115473   1.875   6.350   4.841
 4858SOL    HW215474   1.780   6.460   4.916
 4859SOL     OW15475   6.733   5.820   2.799
 4859SOL    HW115476   6.645   5.803   2.755
 4859SOL    HW215477   6.775   5.902   2.761
 4860SOL     OW15478   4.202   5.057   2.258
 4860SOL    HW115479   4.253   5.056   2.344
 4860SOL    HW215480   4.224   4.975   2.205
 4861SOL     OW15481   0.107   4.818   5.427
 4861SOL    HW115482   0.183   4.769   5.384
 4861SOL    HW215483   0.050   4.752   5.477
 4862SOL     OW15484   2.191   6.450   4.642
 4862SOL    HW115485   2.181   6.444   4.741
 4862SOL    HW215486   2.107   6.417   4.598
 4863SOL     OW15487   5.690   1.699   2.164
 4863SOL    HW115488   5.614   1.717   2.226
 4863SOL    HW215489   5.776   1.717   2.212
 4864SOL     OW15490   2.427   1.868   0.940
 4864SOL    HW115491   2.453   1.873   1.037
 4864SOL    HW215492   2.436   1.959   0.899
 4865SOL     OW15493   4.137   6.100   4.800
 4865SOL    HW115494   4.208   6.163   4.832
 4865SOL    HW215495   4.155   6.008   4.836
 4866SOL     OW15496   0.639   5.299   1.902
 4866SOL    HW115497   0.666   5.367   1.834
 4866SOL    HW215498   0.578   5.232   1.861
 4867SOL     OW15499   5.318   4.466   4.496
 4867SOL    HW115500   5.303   4.539   4.429
 4867SOL    HW215501   5.250   4.474   4.570
 4868SOL     OW15502   2.045   5.627   1.588
 4868SOL    HW115503   1.958   5.625   1.638
 4868SOL    HW215504   2.119   5.597   1.647
 4869SOL     OW15505   6.135   2.003   1.405
 4869SOL    HW115506   6.042   1.969   1.398
 4869SOL    HW215507   6.197   1.927   1.427
 4870SOL     OW15508   6.553   0.513   1.268
 4870SOL    HW115509   6.457   0.517   1.294
 4870SOL    HW215510   6.610   0.503   1.350
 4871SOL     OW15511   1.619   3.801   4.663
 4871SOL    HW115512   1.543   3.844   4.711
 4871SOL    HW215513   1.687   3.871   4.640
 4872SOL     OW15514   1.056   0.843   3.921
 4872SOL    HW115515   1.048   0.743   3.929
 4872SOL    HW215516   1.152   0.868   3.912
 4873SOL     OW15517   1.242   6.343   5.409
 4873SOL    HW115518   1.149   6.340   5.372
 4873SOL    HW215519   1.248   6.284   5.490
 4874SOL     OW15520   6.165   3.222   3.341
 4874SOL    HW115521   6.185   3.310   3.385
 4874SOL    HW215522   6.250   3.171   3.331
 4875SOL     OW15523   6.969   3.000   6.311
 4875SOL    HW115524   7.015   3.077   6.356
 4875SOL    HW215525   7.019   2.916   6.331
 4876SOL     OW15526   0.561   1.579   0.054
 4876SOL    HW115527   0.565   1.482   0.075
 4876SOL    HW215528   0.650   1.621   0.070
 4877SOL     OW15529   5.753   1.314   2.350
 4877SOL    HW115530   5.723   1.272   2.264
 4877SOL    HW215531   5.782   1.243   2.414
 4878SOL     OW15532   0.331   2.751   1.469
 4878SOL    HW115533   0.341   2.657   1.501
 4878SOL    HW215534   0.386   2.812   1.526
 4879SOL     OW15535   4.832   5.918   3.055
 4879SOL    HW115536   4.793   6.004   3.087
 4879SOL    HW215537   4.759   5.855   3.029
 4880SOL     OW15538   6.319   1.959   5.498
 4880SOL    HW115539   6.337   1.913   5.410
 4880SOL    HW215540   6.259   2.038   5.483
 4881SOL     OW15541   3.035   5.643   6.517
 4881SOL    HW115542   2.941   5.675   6.527
 4881SOL    HW215543   3.044   5.592   6.431
 4882SOL     OW15544   4.813   6.360   6.998
 4882SOL    HW115545   4.835   6.262   6.991
 4882SOL    HW215546   4.840   6.407   6.914
 4883SOL     OW15547   6.016   5.693   0.312
 4883SOL    HW115548   6.057   5.676   0.401
 4883SOL    HW215549   5.943   5.626   0.295
 4884SOL     OW15550   4.346   6.423   1.533
 4884SOL    HW115551   4.265   6.480   1.526
 4884SOL    HW215552   4.345   6.355   1.460
 4885SOL     OW15553   1.990   0.195   2.799
 4885SOL    HW115554   1.959   0.109   2.841
 4885SOL    HW215555   2.000   0.264   2.870
 4886SOL     OW15556   6.179   0.779   5.864
 4886SOL    HW115557   6.107   0.713   5.888
 4886SOL    HW215558   6.151   0.871   5.892
 4887SOL     OW15559   0.645   2.172   5.648
 4887SOL    HW115560   0.559   2.217   5.625
 4887SOL    HW215561   0.646   2.149   5.745
 4888SOL     OW15562   3.320   5.909   2.003
 4888SOL    HW115563   3.297   5.836   1.939
 4888SOL    HW215564   3.349   5.990   1.951
 4889SOL     OW15565   1.520   3.006   6.457
 4889SOL    HW115566   1.575   2.955   6.524
 4889SOL    HW215567   1.513   2.952   6.373
 4890SOL     OW15568   0.384   0.407   4.120
 4890SOL    HW115569   0.339   0.396   4.209
 4890SOL    HW215570   0.317   0.395   4.047
 4891SOL     OW15571   1.231   3.919   0.292
 4891SOL    HW115572   1.248   4.000   0.349
 4891SOL    HW215573   1.182   3.850   0.346
 4892SOL     OW15574   1.672   5.210   2.305
 4892SOL    HW115575   1.672   5.190   2.403
 4892SOL    HW215576   1.756   5.177   2.264
 4893SOL     OW15577   0.966   3.693   6.974
 4893SOL    HW115578   1.002   3.782   7.002
 4893SOL    HW215579   1.011   3.621   0.006
 4894SOL     OW15580   1.726   0.867   3.331
 4894SOL    HW115581   1.714   0.862   3.430
 4894SOL    HW215582   1.774   0.951   3.307
 4895SOL     OW15583   6.072   4.022   6.983
 4895SOL    HW115584   6.117   3.998   0.048
 4895SOL    HW215585   6.037   4.116   6.989
 4896SOL     OW15586   4.001   6.464   3.696
 4896SOL    HW115587   4.053   6.499   3.774
 4896SOL    HW215588   3.912   6.433   3.728
 4897SOL     OW15589   2.789   5.746   6.646
 4897SOL    HW115590   2.825   5.836   6.619
 4897SOL    HW215591   2.767   5.747   6.743
 4898SOL     OW15592   6.140   2.175   4.418
 4898SOL    HW115593   6.177   2.230   4.343
 4898SOL    HW215594   6.214   2.123   4.461
 4899SOL     OW15595   4.872   4.820   4.837
 4899SOL    HW115596   4.953   4.825   4.779
 4899SOL    HW215597   4.894   4.856   4.928
 4900SOL     OW15598   0.578   6.417   5.356
 4900SOL    HW115599   0.608   6.474   5.433
 4900SOL    HW215600   0.479   6.424   5.347
 4901SOL     OW15601   6.863   6.889   3.283
 4901SOL    HW115602   6.939   6.940   3.321
 4901SOL    HW215603   6.892   6.797   3.260
 4902SOL     OW15604   3.513   4.857   1.631
 4902SOL    HW115605   3.419   4.855   1.666
 4902SOL    HW215606   3.570   4.796   1.686
 4903SOL     OW15607   5.473   5.505   6.045
 4903SOL    HW115608   5.572   5.503   6.032
 4903SOL    HW215609   5.430   5.560   5.974
 4904SOL     OW15610   2.963   6.707   3.392
 4904SOL    HW115611   3.059   6.715   3.418
 4904SOL    HW215612   2.924   6.798   3.380
 4905SOL     OW15613   6.162   3.467   3.470
 4905SOL    HW115614   6.176   3.501   3.563
 4905SOL    HW215615   6.129   3.541   3.412
 4906SOL     OW15616   5.064   0.881   1.232
 4906SOL    HW115617   5.109   0.793   1.218
 4906SOL    HW215618   5.012   0.879   1.317
 4907SOL     OW15619   2.590   1.730   2.093
 4907SOL    HW115620   2.556   1.768   2.007
 4907SOL    HW215621   2.619   1.805   2.153
 4908SOL     OW15622   4.235   5.004   0.245
 4908SOL    HW115623   4.166   5.062   0.202
 4908SOL    HW215624   4.244   5.029   0.341
 4909SOL     OW15625   6.384   0.247   5.211
 4909SOL    HW115626   6.373   0.265   5.309
 4909SOL    HW215627   6.406   0.332   5.164
 4910SOL     OW15628   5.738   6.838   6.652
 4910SOL    HW115629   5.707   6.755   6.699
 4910SOL    HW215630   5.660   6.899   6.636
 4911SOL     OW15631   1.332   3.771   6.136
 4911SOL    HW115632   1.274   3.832   6.189
 4911SOL    HW215633   1.331   3.798   6.040
 4912SOL     OW15634   2.474   2.662   1.744
 4912SOL    HW115635   2.459   2.752   1.705
 4912SOL    HW215636   2.573   2.644   1.749
 4913SOL     OW15637   2.808   3.116   1.844
 4913SOL    HW115638   2.893   3.154   1.882
 4913SOL    HW215639   2.730   3.152   1.894
 4914SOL     OW15640   1.564   6.537   2.786
 4914SOL    HW115641   1.592   6.520   2.691
 4914SOL    HW215642   1.635   6.591   2.832
 4915SOL     OW15643   2.535   6.243   3.534
 4915SOL    HW115644   2.610   6.213   3.593
 4915SOL    HW215645   2.496   6.328   3.569
 4916SOL     OW15646   2.048   2.182   2.836
 4916SOL    HW115647   2.033   2.212   2.930
 4916SOL    HW215648   2.066   2.261   2.778
 4917SOL     OW15649   1.828   4.416   5.948
 4917SOL    HW115650   1.859   4.335   5.898
 4917SOL    HW215651   1.740   4.446   5.912
 4918SOL     OW15652   2.213   0.728   3.697
 4918SOL    HW115653   2.204   0.766   3.605
 4918SOL    HW215654   2.252   0.797   3.757
 4919SOL     OW15655   2.434   3.205   1.695
 4919SOL    HW115656   2.448   3.259   1.612
 4919SOL    HW215657   2.370   3.253   1.755
 4920SOL     OW15658   4.078   0.468   0.256
 4920SOL    HW115659   4.072   0.540   0.325
 4920SOL    HW215660   4.174   0.455   0.230
 4921SOL     OW15661   0.545   4.726   1.978
 4921SOL    HW115662   0.643   4.726   1.996
 4921SOL    HW215663   0.495   4.716   2.065
 4922SOL     OW15664   0.807   3.104   5.961
 4922SOL    HW115665   0.765   3.029   6.011
 4922SOL    HW215666   0.880   3.144   6.016
 4923SOL     OW15667   2.885   1.765   0.362
 4923SOL    HW115668   2.830   1.825   0.420
 4923SOL    HW215669   2.825   1.703   0.312
 4924SOL     OW15670   0.319   3.556   4.305
 4924SOL    HW115671   0.370   3.474   4.279
 4924SOL    HW215672   0.382   3.633   4.314
 4925SOL     OW15673   4.862   6.042   6.403
 4925SOL    HW115674   4.860   6.097   6.320
 4925SOL    HW215675   4.851   6.101   6.483
 4926SOL     OW15676   4.394   2.872   0.254
 4926SOL    HW115677   4.411   2.812   0.332
 4926SOL    HW215678   4.296   2.875   0.235
 4927SOL     OW15679   3.170   3.615   2.160
 4927SOL    HW115680   3.217   3.556   2.226
 4927SOL    HW215681   3.073   3.621   2.183
 4928SOL     OW15682   0.679   6.583   0.247
 4928SOL    HW115683   0.730   6.591   0.161
 4928SOL    HW215684   0.738   6.543   0.317
 4929SOL     OW15685   0.966   4.754   4.682
 4929SOL    HW115686   0.973   4.780   4.586
 4929SOL    HW215687   1.042   4.692   4.705
 4930SOL     OW15688   0.605   2.824   0.818
 4930SOL    HW115689   0.569   2.835   0.725
 4930SOL    HW215690   0.530   2.823   0.883
 4931SOL     OW15691   6.541   6.662   1.110
 4931SOL    HW115692   6.524   6.607   1.193
 4931SOL    HW215693   6.467   6.646   1.045
 4932SOL     OW15694   3.279   1.774   1.046
 4932SOL    HW115695   3.334   1.854   1.021
 4932SOL    HW215696   3.300   1.746   1.139
 4933SOL     OW15697   2.351   0.398   5.133
 4933SOL    HW115698   2.411   0.469   5.095
 4933SOL    HW215699   2.265   0.396   5.082
 4934SOL     OW15700   1.857   6.075   5.366
 4934SOL    HW115701   1.866   6.049   5.270
 4934SOL    HW215702   1.930   6.138   5.391
 4935SOL     OW15703   2.008   1.624   0.826
 4935SOL    HW115704   2.106   1.623   0.807
 4935SOL    HW215705   1.960   1.570   0.757
 4936SOL     OW15706   5.092   6.112   1.310
 4936SOL    HW115707   5.081   6.210   1.328
 4936SOL    HW215708   5.152   6.099   1.231
 4937SOL     OW15709   1.187   3.070   4.779
 4937SOL    HW115710   1.165   3.112   4.866
 4937SOL    HW215711   1.118   3.001   4.757
 4938SOL     OW15712   3.359   4.925   2.024
 4938SOL    HW115713   3.400   5.016   2.022
 4938SOL    HW215714   3.415   4.862   1.970
 4939SOL     OW15715   1.289   1.371   0.792
 4939SOL    HW115716   1.223   1.296   0.799
 4939SOL    HW215717   1.327   1.373   0.699
 4940SOL     OW15718   1.272   1.888   5.724
 4940SOL    HW115719   1.195   1.870   5.662
 4940SOL    HW215720   1.357   1.891   5.670
 4941SOL     OW15721   3.969   2.549   5.445
 4941SOL    HW115722   4.011   2.549   5.354
 4941SOL    HW215723   3.966   2.456   5.480
 4942SOL     OW15724   0.393   2.023   3.203
 4942SOL    HW115725   0.410   2.111   3.246
 4942SOL    HW215726   0.374   1.954   3.273
 4943SOL     OW15727   5.579   2.743   0.029
 4943SOL    HW115728   5.482   2.763   0.019
 4943SOL    HW215729   5.598   2.652   7.010
 4944SOL     OW15730   0.774   4.783   0.355
 4944SOL    HW115731   0.704   4.833   0.304
 4944SOL    HW215732   0.837   4.738   0.292
 4945SOL     OW15733   2.764   0.284   5.892
 4945SOL    HW115734   2.836   0.341   5.932
 4945SOL    HW215735   2.739   0.212   5.957
 4946SOL     OW15736   2.971   5.420   6.922
 4946SOL    HW115737   2.910   5.470   6.984
 4946SOL    HW215738   2.938   5.327   6.910
 4947SOL     OW15739   0.794   0.416   0.817
 4947SOL    HW115740   0.741   0.335   0.842
 4947SOL    HW215741   0.882   0.414   0.864
 4948SOL     OW15742   1.861   2.263   2.436
 4948SOL    HW115743   1.945   2.314   2.417
 4948SOL    HW215744   1.783   2.325   2.429
 4949SOL     OW15745   6.948   4.017   6.201
 4949SOL    HW115746   6.867   3.961   6.220
 4949SOL    HW215747   6.968   4.015   6.103
 4950SOL     OW15748   4.089   4.455   5.689
 4950SOL    HW115749   4.034   4.383   5.730
 4950SOL    HW215750   4.104   4.435   5.592
 4951SOL     OW15751   4.928   5.821   2.807
 4951SOL    HW115752   4.897   5.874   2.886
 4951SOL    HW215753   4.866   5.836   2.730
 4952SOL     OW15754   0.696   0.587   6.890
 4952SOL    HW115755   0.633   0.564   6.965
 4952SOL    HW215756   0.787   0.603   6.927
 4953SOL     OW15757   1.201   2.119   5.083
 4953SOL    HW115758   1.179   2.183   5.010
 4953SOL    HW215759   1.238   2.034   5.044
 4954SOL     OW15760   2.969   3.937   4.896
 4954SOL    HW115761   2.931   4.029   4.898
 4954SOL    HW215762   2.915   3.877   4.955
 4955SOL     OW15763   3.949   5.940   6.071
 4955SOL    HW115764   3.983   6.022   6.026
 4955SOL    HW215765   3.943   5.956   6.170
 4956SOL     OW15766   2.791   0.213   4.915
 4956SOL    HW115767   2.787   0.266   5.000
 4956SOL    HW215768   2.817   0.119   4.936
 4957SOL     OW15769   5.664   4.183   0.004
 4957SOL    HW115770   5.578   4.154   6.982
 4957SOL    HW215771   5.735   4.189   6.954
 4958SOL     OW15772   3.809   5.478   1.093
 4958SOL    HW115773   3.814   5.464   0.994
 4958SOL    HW215774   3.902   5.480   1.131
 4959SOL     OW15775   0.127   2.696   2.655
 4959SOL    HW115776   0.150   2.644   2.737
 4959SOL    HW215777   0.208   2.746   2.623
 4960SOL     OW15778   5.158   4.691   3.679
 4960SOL    HW115779   5.117   4.636   3.606
 4960SOL    HW215780   5.253   4.664   3.691
 4961SOL     OW15781   3.459   2.464   1.733
 4961SOL    HW115782   3.456   2.560   1.761
 4961SOL    HW215783   3.504   2.411   1.804
 4962SOL     OW15784   1.363   2.985   0.210
 4962SOL    HW115785   1.351   3.067   0.155
 4962SOL    HW215786   1.457   2.982   0.244
 4963SOL     OW15787   0.746   3.824   5.666
 4963SOL    HW115788   0.715   3.755   5.732
 4963SOL    HW215789   0.750   3.783   5.575
 4964SOL     OW15790   2.216   5.760   4.948
 4964SOL    HW115791   2.303   5.719   4.922
 4964SOL    HW215792   2.210   5.767   5.048
 4965SOL     OW15793   1.255   6.479   3.023
 4965SOL    HW115794   1.295   6.476   3.115
 4965SOL    HW215795   1.319   6.440   2.957
 4966SOL     OW15796   3.524   6.595   4.422
 4966SOL    HW115797   3.482   6.546   4.347
 4966SOL    HW215798   3.543   6.532   4.497
 4967SOL     OW15799   4.344   4.663   4.601
 4967SOL    HW115800   4.338   4.665   4.701
 4967SOL    HW215801   4.407   4.734   4.570
 4968SOL     OW15802   0.176   2.706   3.134
 4968SOL    HW115803   0.122   2.774   3.084
 4968SOL    HW215804   0.274   2.728   3.125
 4969SOL     OW15805   0.111   5.750   4.299
 4969SOL    HW115806   0.057   5.832   4.316
 4969SOL    HW215807   0.128   5.702   4.385
 4970SOL     OW15808   1.930   1.673   1.432
 4970SOL    HW115809   1.892   1.624   1.353
 4970SOL    HW215810   1.876   1.756   1.448
 4971SOL     OW15811   6.879   6.214   2.395
 4971SOL    HW115812   6.898   6.119   2.370
 4971SOL    HW215813   6.822   6.256   2.324
 4972SOL     OW15814   0.798   4.253   0.401
 4972SOL    HW115815   0.837   4.294   0.318
 4972SOL    HW215816   0.873   4.222   0.461
 4973SOL     OW15817   6.093   1.122   0.349
 4973SOL    HW115818   6.008   1.175   0.350
 4973SOL    HW215819   6.151   1.151   0.425
 4974SOL     OW15820   3.105   6.871   4.266
 4974SOL    HW115821   3.031   6.916   4.316
 4974SOL    HW215822   3.190   6.921   4.282
 4975SOL     OW15823   5.210   5.001   1.108
 4975SOL    HW115824   5.160   5.082   1.137
 4975SOL    HW215825   5.301   5.028   1.076
 4976SOL     OW15826   1.243   6.831   3.177
 4976SOL    HW115827   1.182   6.887   3.232
 4976SOL    HW215828   1.324   6.884   3.152
 4977SOL     OW15829   1.419   4.127   6.196
 4977SOL    HW115830   1.461   4.135   6.106
 4977SOL    HW215831   1.345   4.194   6.206
 4978SOL     OW15832   6.457   4.112   4.469
 4978SOL    HW115833   6.393   4.188   4.459
 4978SOL    HW215834   6.430   4.057   4.549
 4979SOL     OW15835   2.319   6.982   6.077
 4979SOL    HW115836   2.344   6.890   6.106
 4979SOL    HW215837   2.274   0.010   6.152
 4980SOL     OW15838   5.698   2.844   4.319
 4980SOL    HW115839   5.623   2.785   4.348
 4980SOL    HW215840   5.661   2.933   4.290
 4981SOL     OW15841   3.453   5.151   2.816
 4981SOL    HW115842   3.462   5.093   2.735
 4981SOL    HW215843   3.356   5.174   2.829
 4982SOL     OW15844   3.706   2.395   5.406
 4982SOL    HW115845   3.749   2.461   5.343
 4982SOL    HW215846   3.761   2.387   5.489
 4983SOL     OW15847   5.744   4.479   2.940
 4983SOL    HW115848   5.796   4.440   2.864
 4983SOL    HW215849   5.647   4.456   2.930
 4984SOL     OW15850   4.970   3.490   3.929
 4984SOL    HW115851   4.936   3.483   4.022
 4984SOL    HW215852   5.069   3.471   3.927
 4985SOL     OW15853   5.812   0.653   2.402
 4985SOL    HW115854   5.751   0.582   2.436
 4985SOL    HW215855   5.843   0.709   2.478
 4986SOL     OW15856   0.944   5.011   0.825
 4986SOL    HW115857   0.884   4.937   0.795
 4986SOL    HW215858   0.955   5.007   0.924
 4987SOL     OW15859   1.798   1.438   2.676
 4987SOL    HW115860   1.722   1.379   2.704
 4987SOL    HW215861   1.776   1.533   2.700
 4988SOL     OW15862   6.061   5.818   3.898
 4988SOL    HW115863   6.098   5.804   3.806
 4988SOL    HW215864   6.032   5.913   3.907
 4989SOL     OW15865   4.975   0.285   3.749
 4989SOL    HW115866   4.951   0.367   3.800
 4989SOL    HW215867   4.923   0.207   3.784
 4990SOL     OW15868   4.415   1.977   5.919
 4990SOL    HW115869   4.332   1.977   5.975
 4990SOL    HW215870   4.494   1.957   5.976
 4991SOL     OW15871   1.924   5.191   5.827
 4991SOL    HW115872   1.929   5.138   5.743
 4991SOL    HW215873   1.829   5.194   5.859
 4992SOL     OW15874   1.229   3.550   3.951
 4992SOL    HW115875   1.231   3.475   3.885
 4992SOL    HW215876   1.144   3.602   3.941
 4993SOL     OW15877   2.364   6.023   3.822
 4993SOL    HW115878   2.349   6.021   3.921
 4993SOL    HW215879   2.395   6.114   3.795
 4994SOL     OW15880   3.809   4.703   5.274
 4994SOL    HW115881   3.821   4.698   5.373
 4994SOL    HW215882   3.712   4.713   5.253
 4995SOL     OW15883   0.233   0.528   5.929
 4995SOL    HW115884   0.166   0.474   5.877
 4995SOL    HW215885   0.185   0.584   5.997
 4996SOL     OW15886   0.425   1.380   3.410
 4996SOL    HW115887   0.333   1.416   3.426
 4996SOL    HW215888   0.477   1.382   3.496
 4997SOL     OW15889   4.029   1.580   0.761
 4997SOL    HW115890   4.100   1.510   0.756
 4997SOL    HW215891   3.964   1.567   0.686
 4998SOL     OW15892   0.516   3.705   3.381
 4998SOL    HW115893   0.424   3.720   3.417
 4998SOL    HW215894   0.549   3.790   3.339
 4999SOL     OW15895   0.801   2.911   3.473
 4999SOL    HW115896   0.759   2.856   3.400
 4999SOL    HW215897   0.771   2.875   3.562
 5000SOL     OW15898   2.292   6.125   2.865
 5000SOL    HW115899   2.307   6.133   2.766
 5000SOL    HW215900   2.197   6.150   2.886
 5001SOL     OW15901   0.471   6.333   2.917
 5001SOL    HW115902   0.502   6.427   2.932
 5001SOL    HW215903   0.547   6.277   2.886
 5002SOL     OW15904   1.516   4.586   3.702
 5002SOL    HW115905   1.499   4.493   3.669
 5002SOL    HW215906   1.611   4.592   3.733
 5003SOL     OW15907   4.070   0.451   2.983
 5003SOL    HW115908   4.050   0.547   3.000
 5003SOL    HW215909   4.161   0.442   2.942
 5004SOL     OW15910   3.763   6.078   6.952
 5004SOL    HW115911   3.841   6.020   6.929
 5004SOL    HW215912   3.796   6.171   6.972
 5005SOL     OW15913   2.738   3.045   0.206
 5005SOL    HW115914   2.799   3.088   0.139
 5005SOL    HW215915   2.750   3.089   0.295
 5006SOL     OW15916   4.808   1.453   2.100
 5006SOL    HW115917   4.875   1.383   2.076
 5006SOL    HW215918   4.760   1.426   2.184
 5007SOL     OW15919   5.680   6.027   1.902
 5007SOL    HW115920   5.700   6.003   1.997
 5007SOL    HW215921   5.650   5.946   1.853
 5008SOL     OW15922   5.356   0.316   3.353
 5008SOL    HW115923   5.290   0.338   3.425
 5008SOL    HW215924   5.355   0.218   3.336
 5009SOL     OW15925   6.578   2.390   0.687
 5009SOL    HW115926   6.534   2.402   0.598
 5009SOL    HW215927   6.516   2.340   0.748
 5010SOL     OW15928   3.713   3.785   0.786
 5010SOL    HW115929   3.752   3.716   0.724
 5010SOL    HW215930   3.660   3.740   0.857
 5011SOL     OW15931   1.689   3.064   7.012
 5011SOL    HW115932   1.746   3.145   6.995
 5011SOL    HW215933   1.597   3.080   6.975
 5012SOL     OW15934   6.234   1.873   6.194
 5012SOL    HW115935   6.149   1.891   6.144
 5012SOL    HW215936   6.309   1.922   6.150
 5013SOL     OW15937   5.781   0.291   6.004
 5013SOL    HW115938   5.694   0.292   5.954
 5013SOL    HW215939   5.850   0.243   5.950
 5014SOL     OW15940   5.620   3.185   1.662
 5014SOL    HW115941   5.674   3.110   1.700
 5014SOL    HW215942   5.557   3.149   1.593
 5015SOL     OW15943   5.998   6.125   4.299
 5015SOL    HW115944   6.093   6.144   4.321
 5015SOL    HW215945   5.964   6.191   4.232
 5016SOL     OW15946   1.848   3.751   5.578
 5016SOL    HW115947   1.865   3.663   5.621
 5016SOL    HW215948   1.935   3.790   5.546
 5017SOL     OW15949   0.570   3.214   2.099
 5017SOL    HW115950   0.489   3.160   2.075
 5017SOL    HW215951   0.593   3.275   2.023
 5018SOL     OW15952   1.044   0.221   6.878
 5018SOL    HW115953   1.049   0.122   6.861
 5018SOL    HW215954   0.952   0.254   6.853
 5019SOL     OW15955   1.373   4.708   4.360
 5019SOL    HW115956   1.346   4.737   4.452
 5019SOL    HW215957   1.394   4.610   4.361
 5020SOL     OW15958   2.167   0.187   4.850
 5020SOL    HW115959   2.218   0.128   4.913
 5020SOL    HW215960   2.153   0.277   4.892
 5021SOL     OW15961   1.827   0.863   0.949
 5021SOL    HW115962   1.789   0.925   0.880
 5021SOL    HW215963   1.872   0.787   0.902
 5022SOL     OW15964   0.071   2.652   1.330
 5022SOL    HW115965   0.125   2.568   1.328
 5022SOL    HW215966   0.058   2.682   1.424
 5023SOL     OW15967   0.617   4.263   2.455
 5023SOL    HW115968   0.683   4.193   2.481
 5023SOL    HW215969   0.584   4.309   2.538
 5024SOL     OW15970   4.447   3.867   0.973
 5024SOL    HW115971   4.455   3.770   0.949
 5024SOL    HW215972   4.463   3.878   1.071
 5025SOL     OW15973   4.562   1.606   4.891
 5025SOL    HW115974   4.515   1.625   4.805
 5025SOL    HW215975   4.582   1.508   4.897
 5026SOL     OW15976   4.948   0.020   4.489
 5026SOL    HW115977   4.926   6.973   4.560
 5026SOL    HW215978   4.979   6.992   4.407
 5027SOL     OW15979   4.831   6.007   1.124
 5027SOL    HW115980   4.861   5.952   1.202
 5027SOL    HW215981   4.839   5.954   1.040
 5028SOL     OW15982   6.169   1.748   2.113
 5028SOL    HW115983   6.151   1.765   2.016
 5028SOL    HW215984   6.254   1.696   2.122
 5029SOL     OW15985   5.928   1.780   2.300
 5029SOL    HW115986   5.947   1.852   2.366
 5029SOL    HW215987   6.003   1.773   2.234
 5030SOL     OW15988   0.453   4.413   6.390
 5030SOL    HW115989   0.380   4.450   6.446
 5030SOL    HW215990   0.420   4.400   6.296
 5031SOL     OW15991   6.242   0.085   6.239
 5031SOL    HW115992   6.258   0.092   6.140
 5031SOL    HW215993   6.144   0.092   6.257
 5032SOL     OW15994   3.100   3.317   5.735
 5032SOL    HW115995   3.016   3.369   5.720
 5032SOL    HW215996   3.154   3.316   5.650
 5033SOL     OW15997   2.197   0.476   6.410
 5033SOL    HW115998   2.228   0.413   6.338
 5033SOL    HW215999   2.101   0.498   6.396
 5034SOL     OW16000   4.479   6.655   4.605
 5034SOL    HW116001   4.550   6.704   4.555
 5034SOL    HW216002   4.431   6.593   4.544
 5035SOL     OW16003   2.118   3.310   4.030
 5035SOL    HW116004   2.156   3.218   4.020
 5035SOL    HW216005   2.165   3.357   4.105
 5036SOL     OW16006   0.824   2.547   4.949
 5036SOL    HW116007   0.807   2.571   4.853
 5036SOL    HW216008   0.877   2.621   4.992
 5037SOL     OW16009   4.061   4.079   1.012
 5037SOL    HW116010   4.052   4.143   1.089
 5037SOL    HW216011   4.045   3.985   1.045
 5038SOL     OW16012   3.794   3.716   3.594
 5038SOL    HW116013   3.884   3.735   3.555
 5038SOL    HW216014   3.788   3.756   3.685
 5039SOL     OW16015   1.219   3.960   6.287
 5039SOL    HW116016   1.144   4.006   6.335
 5039SOL    HW216017   1.265   4.025   6.227
 5040SOL     OW16018   0.155   1.359   5.539
 5040SOL    HW116019   0.143   1.280   5.598
 5040SOL    HW216020   0.252   1.382   5.533
 5041SOL     OW16021   6.764   2.336   1.195
 5041SOL    HW116022   6.803   2.284   1.270
 5041SOL    HW216023   6.838   2.375   1.140
 5042SOL     OW16024   1.050   2.811   6.370
 5042SOL    HW116025   1.112   2.733   6.362
 5042SOL    HW216026   1.102   2.895   6.383
 5043SOL     OW16027   3.451   6.639   1.958
 5043SOL    HW116028   3.458   6.723   1.903
 5043SOL    HW216029   3.542   6.613   1.990
 5044SOL     OW16030   6.537   4.909   0.368
 5044SOL    HW116031   6.604   4.870   0.304
 5044SOL    HW216032   6.449   4.862   0.357
 5045SOL     OW16033   5.804   2.717   6.628
 5045SOL    HW116034   5.846   2.662   6.556
 5045SOL    HW216035   5.744   2.659   6.683
 5046SOL     OW16036   3.549   3.200   2.670
 5046SOL    HW116037   3.498   3.126   2.712
 5046SOL    HW216038   3.647   3.180   2.674
 5047SOL     OW16039   1.990   3.648   3.781
 5047SOL    HW116040   2.033   3.711   3.844
 5047SOL    HW216041   1.938   3.579   3.832
 5048SOL     OW16042   2.255   1.042   6.141
 5048SOL    HW116043   2.198   1.116   6.104
 5048SOL    HW216044   2.351   1.063   6.125
 5049SOL     OW16045   4.477   1.492   6.704
 5049SOL    HW116046   4.388   1.446   6.700
 5049SOL    HW216047   4.520   1.471   6.792
 5050SOL     OW16048   1.810   0.111   0.958
 5050SOL    HW116049   1.818   0.022   0.914
 5050SOL    HW216050   1.889   0.126   1.018
 5051SOL     OW16051   4.611   4.950   1.362
 5051SOL    HW116052   4.536   4.895   1.397
 5051SOL    HW216053   4.585   4.992   1.275
 5052SOL     OW16054   2.564   1.649   5.034
 5052SOL    HW116055   2.636   1.716   5.053
 5052SOL    HW216056   2.495   1.653   5.107
 5053SOL     OW16057   0.204   0.848   1.977
 5053SOL    HW116058   0.199   0.945   1.953
 5053SOL    HW216059   0.246   0.797   1.901
 5054SOL     OW16060   3.734   5.105   3.852
 5054SOL    HW116061   3.745   5.008   3.872
 5054SOL    HW216062   3.774   5.160   3.926
 5055SOL     OW16063   0.262   3.943   5.965
 5055SOL    HW116064   0.262   3.852   6.006
 5055SOL    HW216065   0.314   4.005   6.022
 5056SOL     OW16066   5.725   4.280   4.296
 5056SOL    HW116067   5.753   4.340   4.221
 5056SOL    HW216068   5.628   4.294   4.317
 5057SOL     OW16069   1.031   5.652   2.402
 5057SOL    HW116070   1.032   5.670   2.303
 5057SOL    HW216071   1.124   5.660   2.438
 5058SOL     OW16072   2.930   5.404   5.670
 5058SOL    HW116073   3.002   5.350   5.626
 5058SOL    HW216074   2.842   5.383   5.628
 5059SOL     OW16075   6.666   0.307   2.276
 5059SOL    HW116076   6.657   0.392   2.224
 5059SOL    HW216077   6.576   0.267   2.292
 5060SOL     OW16078   6.649   2.209   5.800
 5060SOL    HW116079   6.655   2.304   5.769
 5060SOL    HW216080   6.652   2.206   5.900
 5061SOL     OW16081   5.380   4.764   0.278
 5061SOL    HW116082   5.344   4.844   0.326
 5061SOL    HW216083   5.304   4.703   0.255
 5062SOL     OW16084   6.937   0.560   0.945
 5062SOL    HW116085   6.930   0.633   0.877
 5062SOL    HW216086   6.855   0.503   0.942
 5063SOL     OW16087   1.530   6.028   1.863
 5063SOL    HW116088   1.529   6.128   1.868
 5063SOL    HW216089   1.622   5.996   1.843
 5064SOL     OW16090   5.178   3.208   0.017
 5064SOL    HW116091   5.101   3.145   0.021
 5064SOL    HW216092   5.178   3.254   6.948
 5065SOL     OW16093   2.722   6.798   5.466
 5065SOL    HW116094   2.720   6.713   5.520
 5065SOL    HW216095   2.778   6.866   5.514
 5066SOL     OW16096   4.694   4.798   1.044
 5066SOL    HW116097   4.627   4.729   1.018
 5066SOL    HW216098   4.765   4.756   1.101
 5067SOL     OW16099   5.435   1.264   6.590
 5067SOL    HW116100   5.517   1.222   6.627
 5067SOL    HW216101   5.373   1.192   6.557
 5068SOL     OW16102   3.428   5.209   2.101
 5068SOL    HW116103   3.464   5.266   2.027
 5068SOL    HW216104   3.469   5.237   2.188
 5069SOL     OW16105   0.361   5.025   2.972
 5069SOL    HW116106   0.332   4.948   3.029
 5069SOL    HW216107   0.386   5.102   3.031
 5070SOL     OW16108   4.912   3.517   4.219
 5070SOL    HW116109   4.924   3.616   4.207
 5070SOL    HW216110   4.929   3.493   4.314
 5071SOL     OW16111   3.833   0.712   0.005
 5071SOL    HW116112   3.835   0.685   6.929
 5071SOL    HW216113   3.856   0.633   0.063
 5072SOL     OW16114   1.091   4.344   1.032
 5072SOL    HW116115   1.132   4.363   1.121
 5072SOL    HW216116   1.098   4.246   1.013
 5073SOL     OW16117   4.336   1.786   4.596
 5073SOL    HW116118   4.288   1.836   4.525
 5073SOL    HW216119   4.287   1.797   4.683
 5074SOL     OW16120   3.543   5.078   5.348
 5074SOL    HW116121   3.585   5.155   5.397
 5074SOL    HW216122   3.531   5.001   5.410
 5075SOL     OW16123   6.748   6.610   3.995
 5075SOL    HW116124   6.716   6.654   4.079
 5075SOL    HW216125   6.700   6.524   3.981
 5076SOL     OW16126   3.705   0.569   0.695
 5076SOL    HW116127   3.650   0.537   0.773
 5076SOL    HW216128   3.769   0.639   0.727
 5077SOL     OW16129   0.149   2.331   2.119
 5077SOL    HW116130   0.154   2.275   2.036
 5077SOL    HW216131   0.107   2.278   2.193
 5078SOL     OW16132   0.536   1.008   3.814
 5078SOL    HW116133   0.456   0.959   3.847
 5078SOL    HW216134   0.613   0.993   3.876
 5079SOL     OW16135   3.941   5.131   4.681
 5079SOL    HW116136   3.963   5.044   4.724
 5079SOL    HW216137   3.893   5.115   4.594
 5080SOL     OW16138   5.775   6.841   5.829
 5080SOL    HW116139   5.725   6.854   5.914
 5080SOL    HW216140   5.727   6.888   5.754
 5081SOL     OW16141   3.075   3.352   2.915
 5081SOL    HW116142   3.044   3.397   2.999
 5081SOL    HW216143   3.174   3.339   2.919
 5082SOL     OW16144   6.673   0.232   6.344
 5082SOL    HW116145   6.710   0.143   6.373
 5082SOL    HW216146   6.574   0.232   6.355
 5083SOL     OW16147   1.427   5.419   1.783
 5083SOL    HW116148   1.484   5.443   1.862
 5083SOL    HW216149   1.381   5.500   1.749
 5084SOL     OW16150   1.985   6.250   2.827
 5084SOL    HW116151   1.885   6.250   2.829
 5084SOL    HW216152   2.018   6.333   2.782
 5085SOL     OW16153   6.557   3.264   6.078
 5085SOL    HW116154   6.639   3.247   6.132
 5085SOL    HW216155   6.578   3.331   6.006
 5086SOL     OW16156   0.071   5.258   3.919
 5086SOL    HW116157   0.022   5.183   3.875
 5086SOL    HW216158   0.032   5.345   3.888
 5087SOL     OW16159   0.347   5.637   5.090
 5087SOL    HW116160   0.285   5.615   5.165
 5087SOL    HW216161   0.298   5.689   5.020
 5088SOL     OW16162   6.039   0.439   6.947
 5088SOL    HW116163   6.052   0.531   6.985
 5088SOL    HW216164   6.039   0.444   6.847
 5089SOL     OW16165   5.537   2.684   3.876
 5089SOL    HW116166   5.442   2.681   3.907
 5089SOL    HW216167   5.580   2.595   3.892
 5090SOL     OW16168   1.173   4.649   0.569
 5090SOL    HW116169   1.097   4.593   0.602
 5090SOL    HW216170   1.153   4.745   0.586
 5091SOL     OW16171   1.449   6.600   3.584
 5091SOL    HW116172   1.482   6.653   3.506
 5091SOL    HW216173   1.498   6.512   3.587
 5092SOL     OW16174   3.786   2.841   1.538
 5092SOL    HW116175   3.731   2.871   1.461
 5092SOL    HW216176   3.745   2.759   1.578
 5093SOL     OW16177   0.830   1.751   0.696
 5093SOL    HW116178   0.815   1.829   0.635
 5093SOL    HW216179   0.742   1.711   0.721
 5094SOL     OW16180   6.376   0.481   6.630
 5094SOL    HW116181   6.432   0.523   6.559
 5094SOL    HW216182   6.299   0.541   6.652
 5095SOL     OW16183   3.129   0.250   5.405
 5095SOL    HW116184   3.135   0.298   5.493
 5095SOL    HW216185   3.035   0.255   5.372
 5096SOL     OW16186   4.127   5.732   3.018
 5096SOL    HW116187   4.075   5.799   2.965
 5096SOL    HW216188   4.068   5.654   3.039
 5097SOL     OW16189   0.702   0.904   6.566
 5097SOL    HW116190   0.775   0.848   6.529
 5097SOL    HW216191   0.653   0.853   6.636
 5098SOL     OW16192   6.634   2.856   2.355
 5098SOL    HW116193   6.584   2.786   2.303
 5098SOL    HW216194   6.726   2.865   2.319
 5099SOL     OW16195   1.098   0.109   4.947
 5099SOL    HW116196   1.186   0.102   4.995
 5099SOL    HW216197   1.103   0.057   4.862
 5100SOL     OW16198   4.828   5.771   6.345
 5100SOL    HW116199   4.840   5.869   6.362
 5100SOL    HW216200   4.781   5.757   6.258
 5101SOL     OW16201   4.101   6.029   0.566
 5101SOL    HW116202   4.041   6.013   0.644
 5101SOL    HW216203   4.170   6.097   0.590
 5102SOL     OW16204   4.272   5.328   4.134
 5102SOL    HW116205   4.222   5.275   4.202
 5102SOL    HW216206   4.247   5.425   4.142
 5103SOL     OW16207   1.224   1.001   4.442
 5103SOL    HW116208   1.242   0.932   4.372
 5103SOL    HW216209   1.159   0.964   4.509
 5104SOL     OW16210   1.298   6.703   1.261
 5104SOL    HW116211   1.286   6.698   1.360
 5104SOL    HW216212   1.229   6.765   1.223
 5105SOL     OW16213   2.517   3.110   6.465
 5105SOL    HW116214   2.539   3.133   6.560
 5105SOL    HW216215   2.518   3.194   6.410
 5106SOL     OW16216   2.927   0.083   2.083
 5106SOL    HW116217   2.978   0.169   2.091
 5106SOL    HW216218   2.989   0.006   2.094
 5107SOL     OW16219   0.998   0.323   6.156
 5107SOL    HW116220   0.945   0.394   6.110
 5107SOL    HW216221   1.052   0.273   6.088
 5108SOL     OW16222   2.863   3.444   3.807
 5108SOL    HW116223   2.908   3.393   3.734
 5108SOL    HW216224   2.784   3.392   3.840
 5109SOL     OW16225   0.395   1.451   1.691
 5109SOL    HW116226   0.385   1.417   1.785
 5109SOL    HW216227   0.322   1.516   1.671
 5110SOL     OW16228   2.047   6.246   5.213
 5110SOL    HW116229   1.977   6.213   5.150
 5110SOL    HW216230   2.131   6.193   5.200
 5111SOL     OW16231   1.684   1.010   6.674
 5111SOL    HW116232   1.599   0.959   6.665
 5111SOL    HW216233   1.750   0.957   6.727
 5112SOL     OW16234   0.332   0.022   3.507
 5112SOL    HW116235   0.418   7.018   3.552
 5112SOL    HW216236   0.275   6.960   3.498
 5113SOL     OW16237   0.841   6.875   6.671
 5113SOL    HW116238   0.761   6.917   6.715
 5113SOL    HW216239   0.924   6.904   6.719
 5114SOL     OW16240   4.090   5.344   6.373
 5114SOL    HW116241   4.129   5.356   6.282
 5114SOL    HW216242   4.151   5.287   6.428
 5115SOL     OW16243   2.015   4.011   5.106
 5115SOL    HW116244   2.005   3.917   5.138
 5115SOL    HW216245   2.106   4.023   5.066
 5116SOL     OW16246   6.791   2.932   1.116
 5116SOL    HW116247   6.819   2.968   1.205
 5116SOL    HW216248   6.702   2.887   1.125
 5117SOL     OW16249   2.578   4.897   3.542
 5117SOL    HW116250   2.496   4.847   3.513
 5117SOL    HW216251   2.603   4.868   3.634
 5118SOL     OW16252   4.413   6.734   1.644
 5118SOL    HW116253   4.502   6.691   1.653
 5118SOL    HW216254   4.354   6.706   1.719
 5119SOL     OW16255   6.492   6.928   2.742
 5119SOL    HW116256   6.395   6.909   2.727
 5119SOL    HW216257   6.502   7.013   2.792
 5120SOL     OW16258   4.087   1.909   2.857
 5120SOL    HW116259   4.182   1.908   2.888
 5120SOL    HW216260   4.073   1.834   2.792
 5121SOL     OW16261   1.361   3.415   4.781
 5121SOL    HW116262   1.401   3.353   4.713
 5121SOL    HW216263   1.390   3.387   4.873
 5122SOL     OW16264   2.760   6.027   3.517
 5122SOL    HW116265   2.822   5.986   3.450
 5122SOL    HW216266   2.729   5.957   3.582
 5123SOL     OW16267   6.359   3.978   1.794
 5123SOL    HW116268   6.290   4.050   1.796
 5123SOL    HW216269   6.322   3.897   1.750
 5124SOL     OW16270   2.969   6.040   0.845
 5124SOL    HW116271   2.873   6.054   0.867
 5124SOL    HW216272   2.987   6.071   0.752
 5125SOL     OW16273   0.088   2.343   5.795
 5125SOL    HW116274   0.135   2.255   5.800
 5125SOL    HW216275   0.012   2.337   5.730
 5126SOL     OW16276   4.771   2.316   6.726
 5126SOL    HW116277   4.836   2.251   6.765
 5126SOL    HW216278   4.779   2.404   6.775
 5127SOL     OW16279   5.571   3.354   6.692
 5127SOL    HW116280   5.607   3.316   6.777
 5127SOL    HW216281   5.563   3.281   6.624
 5128SOL     OW16282   0.079   6.887   0.136
 5128SOL    HW116283   0.032   6.879   0.048
 5128SOL    HW216284   0.176   6.904   0.121
 5129SOL     OW16285   4.815   2.393   3.014
 5129SOL    HW116286   4.729   2.349   3.039
 5129SOL    HW216287   4.805   2.492   3.022
 5130SOL     OW16288   0.688   6.617   5.190
 5130SOL    HW116289   0.668   6.523   5.218
 5130SOL    HW216290   0.733   6.665   5.265
 5131SOL     OW16291   3.848   4.839   3.443
 5131SOL    HW116292   3.945   4.816   3.447
 5131SOL    HW216293   3.812   4.818   3.353
 5132SOL     OW16294   3.221   1.549   6.532
 5132SOL    HW116295   3.310   1.594   6.541
 5132SOL    HW216296   3.196   1.507   6.619
 5133SOL     OW16297   4.966   4.626   6.550
 5133SOL    HW116298   4.909   4.545   6.532
 5133SOL    HW216299   5.000   4.662   6.464
 5134SOL     OW16300   5.763   5.787   0.692
 5134SOL    HW116301   5.822   5.839   0.754
 5134SOL    HW216302   5.673   5.775   0.734
 5135SOL     OW16303   6.808   2.744   2.117
 5135SOL    HW116304   6.779   2.783   2.030
 5135SOL    HW216305   6.832   2.648   2.104
 5136SOL     OW16306   0.797   1.390   5.472
 5136SOL    HW116307   0.758   1.481   5.459
 5136SOL    HW216308   0.896   1.397   5.487
 5137SOL     OW16309   5.555   0.511   3.428
 5137SOL    HW116310   5.495   0.474   3.358
 5137SOL    HW216311   5.535   0.466   3.516
 5138SOL     OW16312   3.287   2.890   2.405
 5138SOL    HW116313   3.286   2.969   2.344
 5138SOL    HW216314   3.332   2.813   2.358
 5139SOL     OW16315   3.122   0.534   5.590
 5139SOL    HW116316   3.049   0.575   5.536
 5139SOL    HW216317   3.210   0.570   5.560
 5140SOL     OW16318   3.554   3.439   6.495
 5140SOL    HW116319   3.513   3.377   6.561
 5140SOL    HW216320   3.551   3.397   6.404
 5141SOL     OW16321   0.713   2.553   1.422
 5141SOL    HW116322   0.665   2.465   1.421
 5141SOL    HW216323   0.665   2.618   1.363
 5142SOL     OW16324   0.584   0.190   2.269
 5142SOL    HW116325   0.514   0.246   2.226
 5142SOL    HW216326   0.625   0.130   2.200
 5143SOL     OW16327   0.285   6.356   2.719
 5143SOL    HW116328   0.326   6.334   2.807
 5143SOL    HW216329   0.316   6.289   2.651
 5144SOL     OW16330   2.278   2.984   5.380
 5144SOL    HW116331   2.204   3.046   5.355
 5144SOL    HW216332   2.355   2.997   5.318
 5145SOL     OW16333   2.233   5.441   5.979
 5145SOL    HW116334   2.167   5.506   6.017
 5145SOL    HW216335   2.206   5.348   6.004
 5146SOL     OW16336   5.316   5.900   0.014
 5146SOL    HW116337   5.296   5.881   6.938
 5146SOL    HW216338   5.356   5.991   0.023
 5147SOL     OW16339   5.086   2.176   3.625
 5147SOL    HW116340   5.048   2.216   3.708
 5147SOL    HW216341   5.116   2.082   3.643
 5148SOL     OW16342   0.005   0.951   6.964
 5148SOL    HW116343   0.081   1.008   6.996
 5148SOL    HW216344   6.973   0.918   0.022
 5149SOL     OW16345   4.002   5.418   3.943
 5149SOL    HW116346   4.017   5.482   4.018
 5149SOL    HW216347   3.968   5.467   3.863
 5150SOL     OW16348   6.455   0.176   3.758
 5150SOL    HW116349   6.521   0.170   3.832
 5150SOL    HW216350   6.475   0.257   3.702
 5151SOL     OW16351   5.547   5.764   1.938
 5151SOL    HW116352   5.549   5.664   1.936
 5151SOL    HW216353   5.479   5.795   2.005
 5152SOL     OW16354   2.208   1.624   0.250
 5152SOL    HW116355   2.113   1.609   0.222
 5152SOL    HW216356   2.219   1.600   0.346
 5153SOL     OW16357   1.574   1.923   0.467
 5153SOL    HW116358   1.649   1.898   0.527
 5153SOL    HW216359   1.560   1.850   0.399
 5154SOL     OW16360   0.642   2.531   0.685
 5154SOL    HW116361   0.716   2.466   0.673
 5154SOL    HW216362   0.616   2.535   0.782
 5155SOL     OW16363   1.745   1.830   0.200
 5155SOL    HW116364   1.782   1.807   0.110
 5155SOL    HW216365   1.645   1.824   0.198
 5156SOL     OW16366   5.764   5.469   5.134
 5156SOL    HW116367   5.843   5.455   5.074
 5156SOL    HW216368   5.789   5.528   5.211
 5157SOL     OW16369   3.576   1.022   1.844
 5157SOL    HW116370   3.636   1.069   1.910
 5157SOL    HW216371   3.593   0.924   1.847
 5158SOL     OW16372   1.464   2.165   2.177
 5158SOL    HW116373   1.389   2.098   2.169
 5158SOL    HW216374   1.542   2.133   2.123
 5159SOL     OW16375   5.974   3.351   5.791
 5159SOL    HW116376   6.051   3.415   5.781
 5159SOL    HW216377   5.911   3.363   5.714
 5160SOL     OW16378   6.486   6.928   3.704
 5160SOL    HW116379   6.399   6.886   3.728
 5160SOL    HW216380   6.482   0.006   3.720
 5161SOL     OW16381   0.810   2.127   0.045
 5161SOL    HW116382   0.812   2.099   6.969
 5161SOL    HW216383   0.894   2.175   0.069
 5162SOL     OW16384   0.303   0.002   5.308
 5162SOL    HW116385   0.247   6.949   5.272
 5162SOL    HW216386   0.337   0.059   5.234
 5163SOL     OW16387   3.198   6.959   1.766
 5163SOL    HW116388   3.262   0.015   1.778
 5163SOL    HW216389   3.104   6.992   1.780
 5164SOL     OW16390   2.857   4.105   0.026
 5164SOL    HW116391   2.839   4.204   0.024
 5164SOL    HW216392   2.826   4.064   6.960
 5165SOL     OW16393   1.416   4.814   5.964
 5165SOL    HW116394   1.407   4.904   5.921
 5165SOL    HW216395   1.491   4.763   5.921
 5166SOL     OW16396   0.243   4.763   6.851
 5166SOL    HW116397   0.147   4.751   6.823
 5166SOL    HW216398   0.272   4.856   6.829
 5167SOL     OW16399   5.355   3.418   5.581
 5167SOL    HW116400   5.430   3.388   5.639
 5167SOL    HW216401   5.269   3.413   5.631
 5168SOL     OW16402   4.361   2.082   3.391
 5168SOL    HW116403   4.309   2.070   3.475
 5168SOL    HW216404   4.349   2.001   3.333
 5169SOL     OW16405   5.385   5.430   4.412
 5169SOL    HW116406   5.395   5.331   4.406
 5169SOL    HW216407   5.288   5.453   4.424
 5170SOL     OW16408   2.164   4.404   6.274
 5170SOL    HW116409   2.147   4.353   6.359
 5170SOL    HW216410   2.233   4.474   6.290
 5171SOL     OW16411   2.073   6.862   6.029
 5171SOL    HW116412   2.142   6.930   6.006
 5171SOL    HW216413   2.060   6.800   5.952
 5172SOL     OW16414   6.030   5.711   6.052
 5172SOL    HW116415   5.993   5.798   6.019
 5172SOL    HW216416   6.039   5.714   6.152
 5173SOL     OW16417   4.733   6.098   4.973
 5173SOL    HW116418   4.648   6.134   5.010
 5173SOL    HW216419   4.714   6.036   4.897
 5174SOL     OW16420   2.151   6.767   2.658
 5174SOL    HW116421   2.205   6.716   2.590
 5174SOL    HW216422   2.210   6.795   2.734
 5175SOL     OW16423   2.653   2.861   6.468
 5175SOL    HW116424   2.585   2.805   6.515
 5175SOL    HW216425   2.621   2.955   6.462
 5176SOL     OW16426   6.291   5.566   6.811
 5176SOL    HW116427   6.340   5.524   6.887
 5176SOL    HW216428   6.232   5.498   6.767
 5177SOL     OW16429   6.001   6.472   0.480
 5177SOL    HW116430   5.920   6.421   0.452
 5177SOL    HW216431   6.083   6.427   0.444
 5178SOL     OW16432   0.677   4.491   1.466
 5178SOL    HW116433   0.618   4.412   1.485
 5178SOL    HW216434   0.641   4.541   1.387
 5179SOL     OW16435   5.292   5.985   3.397
 5179SOL    HW116436   5.362   5.915   3.411
 5179SOL    HW216437   5.230   5.956   3.325
 5180SOL     OW16438   1.242   4.441   2.371
 5180SOL    HW116439   1.229   4.352   2.329
 5180SOL    HW216440   1.268   4.508   2.302
 5181SOL     OW16441   6.607   1.080   5.770
 5181SOL    HW116442   6.601   1.104   5.867
 5181SOL    HW216443   6.695   1.111   5.734
 5182SOL     OW16444   2.098   6.501   2.728
 5182SOL    HW116445   2.060   6.585   2.768
 5182SOL    HW216446   2.165   6.525   2.657
 5183SOL     OW16447   4.260   2.356   3.775
 5183SOL    HW116448   4.312   2.282   3.734
 5183SOL    HW216449   4.323   2.428   3.804
 5184SOL     OW16450   1.805   1.383   3.565
 5184SOL    HW116451   1.795   1.471   3.611
 5184SOL    HW216452   1.831   1.399   3.470
 5185SOL     OW16453   6.880   0.354   2.654
 5185SOL    HW116454   6.971   0.392   2.668
 5185SOL    HW216455   6.814   0.429   2.642
 5186SOL     OW16456   6.083   3.053   6.605
 5186SOL    HW116457   6.061   2.972   6.659
 5186SOL    HW216458   6.089   3.028   6.508
 5187SOL     OW16459   1.301   4.799   4.933
 5187SOL    HW116460   1.352   4.729   4.984
 5187SOL    HW216461   1.223   4.829   4.987
 5188SOL     OW16462   6.291   0.368   2.691
 5188SOL    HW116463   6.212   0.330   2.642
 5188SOL    HW216464   6.340   0.432   2.633
 5189SOL     OW16465   4.575   6.087   6.917
 5189SOL    HW116466   4.581   6.137   6.830
 5189SOL    HW216467   4.567   5.989   6.898
 5190SOL     OW16468   2.127   4.498   0.184
 5190SOL    HW116469   2.048   4.438   0.171
 5190SOL    HW216470   2.187   4.491   0.105
 5191SOL     OW16471   2.387   4.484   1.950
 5191SOL    HW116472   2.447   4.466   1.872
 5191SOL    HW216473   2.440   4.524   2.024
 5192SOL     OW16474   0.678   5.022   2.620
 5192SOL    HW116475   0.643   5.016   2.526
 5192SOL    HW216476   0.685   5.118   2.647
 5193SOL     OW16477   5.185   0.956   5.422
 5193SOL    HW116478   5.101   0.903   5.406
 5193SOL    HW216479   5.253   0.931   5.353
 5194SOL     OW16480   4.692   1.389   5.323
 5194SOL    HW116481   4.618   1.396   5.256
 5194SOL    HW216482   4.653   1.390   5.416
 5195SOL     OW16483   0.562   0.561   5.501
 5195SOL    HW116484   0.571   0.654   5.535
 5195SOL    HW216485   0.542   0.562   5.403
 5196SOL     OW16486   5.340   6.583   3.438
 5196SOL    HW116487   5.397   6.502   3.451
 5196SOL    HW216488   5.283   6.570   3.357
 5197SOL     OW16489   0.998   2.773   4.966
 5197SOL    HW116490   1.093   2.765   4.997
 5197SOL    HW216491   0.947   2.830   5.031
 5198SOL     OW16492   5.787   5.163   3.078
 5198SOL    HW116493   5.700   5.161   3.028
 5198SOL    HW216494   5.771   5.187   3.173
 5199SOL     OW16495   0.091   4.578   0.706
 5199SOL    HW116496   0.125   4.518   0.634
 5199SOL    HW216497   0.138   4.666   0.700
 5200SOL     OW16498   6.435   3.790   5.306
 5200SOL    HW116499   6.518   3.845   5.316
 5200SOL    HW216500   6.449   3.700   5.348
 5201SOL     OW16501   0.592   5.893   4.412
 5201SOL    HW116502   0.559   5.887   4.317
 5201SOL    HW216503   0.519   5.866   4.474
 5202SOL     OW16504   1.029   4.635   1.847
 5202SOL    HW116505   1.029   4.594   1.756
 5202SOL    HW216506   1.095   4.710   1.850
 5203SOL     OW16507   6.023   2.814   6.762
 5203SOL    HW116508   5.932   2.783   6.736
 5203SOL    HW216509   6.085   2.735   6.767
 5204SOL     OW16510   4.754   4.892   6.443
 5204SOL    HW116511   4.817   4.898   6.520
 5204SOL    HW216512   4.669   4.941   6.465
 5205SOL     OW16513   1.482   0.160   6.843
 5205SOL    HW116514   1.501   0.086   6.778
 5205SOL    HW216515   1.491   0.248   6.797
 5206SOL     OW16516   0.351   3.659   5.455
 5206SOL    HW116517   0.411   3.598   5.403
 5206SOL    HW216518   0.406   3.717   5.515
 5207SOL     OW16519   2.037   4.354   3.467
 5207SOL    HW116520   1.962   4.411   3.433
 5207SOL    HW216521   2.004   4.260   3.477
 5208SOL     OW16522   4.946   0.715   6.775
 5208SOL    HW116523   4.974   0.794   6.721
 5208SOL    HW216524   4.881   0.744   6.846
 5209SOL     OW16525   6.113   5.794   3.342
 5209SOL    HW116526   6.054   5.863   3.300
 5209SOL    HW216527   6.186   5.769   3.280
 5210SOL     OW16528   4.716   4.092   2.984
 5210SOL    HW116529   4.779   4.014   2.982
 5210SOL    HW216530   4.655   4.083   3.063
 5211SOL     OW16531   3.171   4.040   2.170
 5211SOL    HW116532   3.134   3.977   2.239
 5211SOL    HW216533   3.253   4.084   2.207
 5212SOL     OW16534   1.168   0.454   0.368
 5212SOL    HW116535   1.241   0.497   0.421
 5212SOL    HW216536   1.096   0.423   0.430
 5213SOL     OW16537   4.228   2.569   6.267
 5213SOL    HW116538   4.284   2.486   6.271
 5213SOL    HW216539   4.211   2.594   6.172
 5214SOL     OW16540   5.324   1.641   0.128
 5214SOL    HW116541   5.229   1.612   0.114
 5214SOL    HW216542   5.363   1.672   0.042
 5215SOL     OW16543   5.536   5.176   2.963
 5215SOL    HW116544   5.489   5.097   3.002
 5215SOL    HW216545   5.478   5.257   2.974
 5216SOL     OW16546   4.608   5.647   1.305
 5216SOL    HW116547   4.637   5.743   1.308
 5216SOL    HW216548   4.512   5.642   1.278
 5217SOL     OW16549   2.957   5.104   3.822
 5217SOL    HW116550   2.925   5.123   3.729
 5217SOL    HW216551   2.939   5.008   3.844
 5218SOL     OW16552   1.848   0.142   4.532
 5218SOL    HW116553   1.785   0.218   4.520
 5218SOL    HW216554   1.823   0.068   4.468
 5219SOL     OW16555   2.322   6.532   0.927
 5219SOL    HW116556   2.240   6.479   0.905
 5219SOL    HW216557   2.301   6.596   1.000
 5220SOL     OW16558   1.464   0.068   1.728
 5220SOL    HW116559   1.510   0.035   1.811
 5220SOL    HW216560   1.389   0.129   1.754
 5221SOL     OW16561   4.501   1.532   5.937
 5221SOL    HW116562   4.448   1.610   5.905
 5221SOL    HW216563   4.579   1.516   5.877
 5222SOL     OW16564   0.664   0.173   2.702
 5222SOL    HW116565   0.684   0.265   2.668
 5222SOL    HW216566   0.749   0.129   2.729
 5223SOL     OW16567   4.905   6.549   0.862
 5223SOL    HW116568   4.992   6.552   0.813
 5223SOL    HW216569   4.843   6.485   0.817
 5224SOL     OW16570   4.972   1.467   2.848
 5224SOL    HW116571   4.937   1.393   2.906
 5224SOL    HW216572   5.070   1.480   2.865
 5225SOL     OW16573   6.357   6.503   5.631
 5225SOL    HW116574   6.320   6.416   5.600
 5225SOL    HW216575   6.326   6.576   5.570
 5226SOL     OW16576   2.258   6.528   4.169
 5226SOL    HW116577   2.217   6.604   4.117
 5226SOL    HW216578   2.355   6.522   4.147
 5227SOL     OW16579   5.119   3.313   3.530
 5227SOL    HW116580   5.020   3.327   3.529
 5227SOL    HW216581   5.146   3.258   3.451
 5228SOL     OW16582   5.242   0.678   1.168
 5228SOL    HW116583   5.247   0.676   1.068
 5228SOL    HW216584   5.277   0.591   1.204
 5229SOL     OW16585   0.944   4.515   3.934
 5229SOL    HW116586   1.039   4.531   3.962
 5229SOL    HW216587   0.903   4.446   3.994
 5230SOL     OW16588   1.198   6.262   6.150
 5230SOL    HW116589   1.144   6.330   6.100
 5230SOL    HW216590   1.264   6.309   6.209
 5231SOL     OW16591   3.739   3.716   2.969
 5231SOL    HW116592   3.768   3.716   3.065
 5231SOL    HW216593   3.756   3.806   2.929
 5232SOL     OW16594   5.054   2.999   5.337
 5232SOL    HW116595   5.069   2.913   5.289
 5232SOL    HW216596   5.033   3.071   5.270
 5233SOL     OW16597   0.698   0.432   2.878
 5233SOL    HW116598   0.611   0.464   2.917
 5233SOL    HW216599   0.724   0.346   2.921
 5234SOL     OW16600   4.020   5.829   1.431
 5234SOL    HW116601   4.051   5.804   1.339
 5234SOL    HW216602   4.097   5.867   1.482
 5235SOL     OW16603   1.059   3.613   1.013
 5235SOL    HW116604   1.134   3.556   1.045
 5235SOL    HW216605   1.001   3.560   0.951
 5236SOL     OW16606   5.663   3.215   1.253
 5236SOL    HW116607   5.652   3.150   1.178
 5236SOL    HW216608   5.715   3.294   1.222
 5237SOL     OW16609   2.031   1.706   4.174
 5237SOL    HW116610   1.952   1.648   4.197
 5237SOL    HW216611   2.115   1.659   4.201
 5238SOL     OW16612   1.901   3.952   1.021
 5238SOL    HW116613   1.894   3.898   0.937
 5238SOL    HW216614   1.897   3.892   1.100
 5239SOL     OW16615   3.180   3.286   5.129
 5239SOL    HW116616   3.089   3.326   5.145
 5239SOL    HW216617   3.208   3.234   5.210
 5240SOL     OW16618   2.581   2.069   5.037
 5240SOL    HW116619   2.648   2.075   5.111
 5240SOL    HW216620   2.613   2.004   4.968
 5241SOL     OW16621   2.913   5.786   5.859
 5241SOL    HW116622   2.931   5.688   5.867
 5241SOL    HW216623   2.966   5.835   5.928
 5242SOL     OW16624   4.614   0.632   5.476
 5242SOL    HW116625   4.577   0.545   5.507
 5242SOL    HW216626   4.670   0.616   5.394
 5243SOL     OW16627   0.625   4.021   0.318
 5243SOL    HW116628   0.551   3.988   0.377
 5243SOL    HW216629   0.646   4.116   0.341
 5244SOL     OW16630   6.087   3.571   7.002
 5244SOL    HW116631   6.040   3.627   6.934
 5244SOL    HW216632   6.179   3.607   7.017
 5245SOL     OW16633   4.482   4.500   6.720
 5245SOL    HW116634   4.532   4.414   6.726
 5245SOL    HW216635   4.513   4.551   6.640
 5246SOL     OW16636   0.902   3.483   2.845
 5246SOL    HW116637   0.893   3.383   2.847
 5246SOL    HW216638   0.836   3.524   2.907
 5247SOL     OW16639   0.271   5.025   0.864
 5247SOL    HW116640   0.371   5.027   0.871
 5247SOL    HW216641   0.231   5.034   0.955
 5248SOL     OW16642   4.895   0.359   6.947
 5248SOL    HW116643   4.896   0.358   0.027
 5248SOL    HW216644   4.837   0.435   6.916
 5249SOL     OW16645   1.333   5.443   5.688
 5249SOL    HW116646   1.261   5.502   5.723
 5249SOL    HW216647   1.292   5.366   5.639
 5250SOL     OW16648   0.886   1.439   5.761
 5250SOL    HW116649   0.928   1.374   5.698
 5250SOL    HW216650   0.859   1.521   5.711
 5251SOL     OW16651   0.966   2.861   1.470
 5251SOL    HW116652   1.009   2.842   1.382
 5251SOL    HW216653   0.949   2.775   1.518
 5252SOL     OW16654   4.431   6.523   1.261
 5252SOL    HW116655   4.343   6.566   1.282
 5252SOL    HW216656   4.421   6.424   1.267
 5253SOL     OW16657   6.055   2.871   3.106
 5253SOL    HW116658   5.980   2.809   3.125
 5253SOL    HW216659   6.027   2.965   3.125
 5254SOL     OW16660   4.448   1.189   4.462
 5254SOL    HW116661   4.413   1.227   4.376
 5254SOL    HW216662   4.542   1.222   4.476
 5255SOL     OW16663   3.268   6.253   4.440
 5255SOL    HW116664   3.187   6.201   4.412
 5255SOL    HW216665   3.242   6.321   4.509
 5256SOL     OW16666   5.379   6.546   2.030
 5256SOL    HW116667   5.351   6.642   2.038
 5256SOL    HW216668   5.468   6.533   2.074
 5257SOL     OW16669   3.438   0.964   3.153
 5257SOL    HW116670   3.520   0.909   3.139
 5257SOL    HW216671   3.448   1.052   3.107
 5258SOL     OW16672   5.847   2.000   1.545
 5258SOL    HW116673   5.942   2.020   1.572
 5258SOL    HW216674   5.806   1.937   1.611
 5259SOL     OW16675   5.378   4.361   1.641
 5259SOL    HW116676   5.383   4.288   1.574
 5259SOL    HW216677   5.289   4.357   1.688
 5260SOL     OW16678   5.300   3.291   2.154
 5260SOL    HW116679   5.352   3.308   2.071
 5260SOL    HW216680   5.205   3.320   2.141
 5261SOL     OW16681   2.586   2.528   5.051
 5261SOL    HW116682   2.524   2.593   5.095
 5261SOL    HW216683   2.649   2.490   5.119
 5262SOL     OW16684   2.377   0.283   2.137
 5262SOL    HW116685   2.397   0.371   2.096
 5262SOL    HW216686   2.370   0.293   2.236
 5263SOL     OW16687   0.558   6.359   0.578
 5263SOL    HW116688   0.611   6.409   0.647
 5263SOL    HW216689   0.619   6.332   0.503
 5264SOL     OW16690   0.615   1.943   0.854
 5264SOL    HW116691   0.575   2.000   0.926
 5264SOL    HW216692   0.612   1.847   0.882
 5265SOL     OW16693   5.659   5.187   2.721
 5265SOL    HW116694   5.604   5.173   2.804
 5265SOL    HW216695   5.687   5.283   2.716
 5266SOL     OW16696   0.996   6.441   1.425
 5266SOL    HW116697   1.081   6.459   1.473
 5266SOL    HW216698   0.924   6.419   1.491
 5267SOL     OW16699   5.167   3.778   5.330
 5267SOL    HW116700   5.071   3.786   5.304
 5267SOL    HW216701   5.222   3.761   5.248
 5268SOL     OW16702   5.786   5.201   5.556
 5268SOL    HW116703   5.844   5.126   5.526
 5268SOL    HW216704   5.820   5.287   5.517
 5269SOL     OW16705   1.397   4.456   5.548
 5269SOL    HW116706   1.336   4.399   5.494
 5269SOL    HW216707   1.486   4.411   5.558
 5270SOL     OW16708   6.751   2.845   2.827
 5270SOL    HW116709   6.763   2.756   2.784
 5270SOL    HW216710   6.659   2.879   2.807
 5271SOL     OW16711   5.111   4.237   5.261
 5271SOL    HW116712   5.014   4.259   5.251
 5271SOL    HW216713   5.124   4.173   5.337
 5272SOL     OW16714   1.795   1.032   3.866
 5272SOL    HW116715   1.764   1.127   3.875
 5272SOL    HW216716   1.718   0.974   3.842
 5273SOL     OW16717   0.914   0.798   4.878
 5273SOL    HW116718   0.941   0.726   4.815
 5273SOL    HW216719   0.901   0.883   4.827
 5274SOL     OW16720   6.959   5.563   4.637
 5274SOL    HW116721   6.900   5.528   4.709
 5274SOL    HW216722   6.984   5.658   4.657
 5275SOL     OW16723   1.709   6.097   6.974
 5275SOL    HW116724   1.641   6.164   6.942
 5275SOL    HW216725   1.670   6.005   6.969
 5276SOL     OW16726   0.224   0.144   0.880
 5276SOL    HW116727   0.298   0.207   0.904
 5276SOL    HW216728   0.247   0.052   0.911
 5277SOL     OW16729   1.355   1.513   2.402
 5277SOL    HW116730   1.411   1.446   2.451
 5277SOL    HW216731   1.262   1.513   2.439
 5278SOL     OW16732   0.358   4.082   6.190
 5278SOL    HW116733   0.449   4.049   6.163
 5278SOL    HW216734   0.318   4.020   6.258
 5279SOL     OW16735   2.014   6.610   6.417
 5279SOL    HW116736   1.947   6.666   6.466
 5279SOL    HW216737   1.970   6.526   6.384
 5280SOL     OW16738   4.776   6.522   5.161
 5280SOL    HW116739   4.826   6.608   5.166
 5280SOL    HW216740   4.679   6.538   5.181
 5281SOL     OW16741   2.526   0.014   5.416
 5281SOL    HW116742   2.550   0.094   5.361
 5281SOL    HW216743   2.588   0.007   5.494
 5282SOL     OW16744   0.845   6.508   1.116
 5282SOL    HW116745   0.816   6.416   1.143
 5282SOL    HW216746   0.942   6.508   1.095
 5283SOL     OW16747   0.952   0.745   3.620
 5283SOL    HW116748   0.960   0.818   3.687
 5283SOL    HW216749   1.041   0.728   3.578
 5284SOL     OW16750   4.893   2.924   1.635
 5284SOL    HW116751   4.871   2.883   1.723
 5284SOL    HW216752   4.983   2.969   1.640
 5285SOL     OW16753   1.177   1.979   3.931
 5285SOL    HW116754   1.180   2.078   3.948
 5285SOL    HW216755   1.265   1.949   3.895
 5286SOL     OW16756   6.122   3.329   1.212
 5286SOL    HW116757   6.114   3.393   1.136
 5286SOL    HW216758   6.145   3.379   1.296
 5287SOL     OW16759   2.064   4.966   1.065
 5287SOL    HW116760   2.068   4.905   1.144
 5287SOL    HW216761   1.970   4.970   1.030
 5288SOL     OW16762   4.191   0.705   1.333
 5288SOL    HW116763   4.156   0.790   1.372
 5288SOL    HW216764   4.127   0.631   1.351
 5289SOL     OW16765   2.316   4.679   6.018
 5289SOL    HW116766   2.316   4.670   6.118
 5289SOL    HW216767   2.298   4.774   5.993
 5290SOL     OW16768   1.957   3.532   4.492
 5290SOL    HW116769   1.995   3.485   4.572
 5290SOL    HW216770   1.858   3.537   4.500
 5291SOL     OW16771   3.183   4.875   4.545
 5291SOL    HW116772   3.161   4.788   4.590
 5291SOL    HW216773   3.167   4.866   4.447
 5292SOL     OW16774   0.230   3.557   5.725
 5292SOL    HW116775   0.193   3.648   5.743
 5292SOL    HW216776   0.285   3.560   5.641
 5293SOL     OW16777   2.036   0.332   4.408
 5293SOL    HW116778   2.011   0.395   4.481
 5293SOL    HW216779   1.975   0.253   4.409
 5294SOL     OW16780   4.222   0.251   5.009
 5294SOL    HW116781   4.254   0.338   5.045
 5294SOL    HW216782   4.122   0.247   5.014
 5295SOL     OW16783   2.971   1.305   2.551
 5295SOL    HW116784   3.053   1.252   2.574
 5295SOL    HW216785   2.940   1.281   2.459
 5296SOL     OW16786   4.529   4.668   1.677
 5296SOL    HW116787   4.623   4.699   1.695
 5296SOL    HW216788   4.526   4.568   1.678
 5297SOL     OW16789   3.140   5.455   6.699
 5297SOL    HW116790   3.094   5.526   6.645
 5297SOL    HW216791   3.092   5.441   6.785
 5298SOL     OW16792   2.047   0.628   0.609
 5298SOL    HW116793   2.047   0.726   0.591
 5298SOL    HW216794   1.973   0.584   0.558
 5299SOL     OW16795   2.644   1.485   1.700
 5299SOL    HW116796   2.547   1.458   1.707
 5299SOL    HW216797   2.682   1.497   1.791
 5300SOL     OW16798   3.106   4.690   6.498
 5300SOL    HW116799   3.180   4.662   6.437
 5300SOL    HW216800   3.142   4.754   6.566
 5301SOL     OW16801   5.722   7.019   6.266
 5301SOL    HW116802   5.647   6.993   6.205
 5301SOL    HW216803   5.800   6.958   6.251
 5302SOL     OW16804   5.559   6.002   2.888
 5302SOL    HW116805   5.580   5.904   2.886
 5302SOL    HW216806   5.609   6.045   2.963
 5303SOL     OW16807   1.009   5.341   5.942
 5303SOL    HW116808   1.037   5.259   5.892
 5303SOL    HW216809   1.089   5.383   5.985
 5304SOL     OW16810   0.059   0.694   2.753
 5304SOL    HW116811   0.132   0.755   2.783
 5304SOL    HW216812   7.002   0.749   2.720
 5305SOL     OW16813   0.279   4.776   3.484
 5305SOL    HW116814   0.336   4.847   3.443
 5305SOL    HW216815   0.322   4.742   3.567
 5306SOL     OW16816   0.178   3.194   5.910
 5306SOL    HW116817   0.156   3.128   5.982
 5306SOL    HW216818   0.105   3.193   5.841
 5307SOL     OW16819   6.397   1.291   1.225
 5307SOL    HW116820   6.428   1.219   1.163
 5307SOL    HW216821   6.473   1.318   1.284
 5308SOL     OW16822   1.620   4.282   3.198
 5308SOL    HW116823   1.555   4.284   3.123
 5308SOL    HW216824   1.710   4.254   3.164
 5309SOL     OW16825   6.043   5.512   2.921
 5309SOL    HW116826   6.033   5.413   2.916
 5309SOL    HW216827   6.001   5.545   3.006
 5310SOL     OW16828   5.273   2.403   2.864
 5310SOL    HW116829   5.180   2.367   2.856
 5310SOL    HW216830   5.331   2.337   2.912
 5311SOL     OW16831   5.666   0.396   0.801
 5311SOL    HW116832   5.760   0.428   0.793
 5311SOL    HW216833   5.617   0.415   0.715
 5312SOL     OW16834   0.187   6.672   0.321
 5312SOL    HW116835   0.170   6.734   0.397
 5312SOL    HW216836   0.153   6.713   0.236
 5313SOL     OW16837   0.898   6.072   5.954
 5313SOL    HW116838   0.817   6.112   5.911
 5313SOL    HW216839   0.889   6.075   6.053
 5314SOL     OW16840   5.930   0.866   1.956
 5314SOL    HW116841   5.931   0.816   2.043
 5314SOL    HW216842   6.019   0.856   1.912
 5315SOL     OW16843   4.792   1.492   4.395
 5315SOL    HW116844   4.737   1.535   4.324
 5315SOL    HW216845   4.742   1.416   4.436
 5316SOL     OW16846   0.827   2.368   4.532
 5316SOL    HW116847   0.728   2.359   4.538
 5316SOL    HW216848   0.860   2.329   4.446
 5317SOL     OW16849   5.895   2.617   0.002
 5317SOL    HW116850   5.864   2.684   6.955
 5317SOL    HW216851   5.974   2.654   0.052
 5318SOL     OW16852   6.684   4.039   6.495
 5318SOL    HW116853   6.651   3.988   6.575
 5318SOL    HW216854   6.680   3.981   6.414
 5319SOL     OW16855   4.087   6.680   1.722
 5319SOL    HW116856   4.089   6.640   1.630
 5319SOL    HW216857   4.152   6.632   1.781
 5320SOL     OW16858   3.890   5.728   0.865
 5320SOL    HW116859   3.868   5.638   0.828
 5320SOL    HW216860   3.869   5.730   0.963
 5321SOL     OW16861   1.466   4.581   5.008
 5321SOL    HW116862   1.468   4.547   5.102
 5321SOL    HW216863   1.515   4.518   4.948
 5322SOL     OW16864   5.356   6.540   1.767
 5322SOL    HW116865   5.378   6.546   1.865
 5322SOL    HW216866   5.266   6.582   1.751
 5323SOL     OW16867   4.337   0.859   5.775
 5323SOL    HW116868   4.437   0.859   5.782
 5323SOL    HW216869   4.303   0.766   5.794
 5324SOL     OW16870   2.058   1.508   1.079
 5324SOL    HW116871   2.033   1.550   0.991
 5324SOL    HW216872   2.138   1.449   1.066
 5325SOL     OW16873   2.058   1.802   4.990
 5325SOL    HW116874   2.058   1.874   4.920
 5325SOL    HW216875   2.055   1.845   5.081
 5326SOL     OW16876   6.154   6.537   2.199
 5326SOL    HW116877   6.184   6.591   2.279
 5326SOL    HW216878   6.062   6.502   2.215
 5327SOL     OW16879   6.662   2.743   5.179
 5327SOL    HW116880   6.639   2.737   5.081
 5327SOL    HW216881   6.752   2.702   5.194
 5328SOL     OW16882   4.354   5.308   6.780
 5328SOL    HW116883   4.325   5.247   6.854
 5328SOL    HW216884   4.454   5.316   6.780
 5329SOL     OW16885   1.286   6.610   6.456
 5329SOL    HW116886   1.365   6.668   6.435
 5329SOL    HW216887   1.316   6.515   6.465
 5330SOL     OW16888   2.604   4.294   0.896
 5330SOL    HW116889   2.632   4.231   0.824
 5330SOL    HW216890   2.638   4.262   0.984
 5331SOL     OW16891   6.192   0.730   6.688
 5331SOL    HW116892   6.228   0.733   6.782
 5331SOL    HW216893   6.262   0.763   6.625
 5332SOL     OW16894   0.883   5.015   2.010
 5332SOL    HW116895   0.916   4.990   1.919
 5332SOL    HW216896   0.931   4.960   2.079
 5333SOL     OW16897   0.885   6.262   4.293
 5333SOL    HW116898   0.921   6.341   4.242
 5333SOL    HW216899   0.952   6.189   4.293
 5334SOL     OW16900   2.687   0.561   4.581
 5334SOL    HW116901   2.604   0.513   4.552
 5334SOL    HW216902   2.667   0.658   4.594
 5335SOL     OW16903   6.795   5.666   6.946
 5335SOL    HW116904   6.724   5.605   6.911
 5335SOL    HW216905   6.840   5.624   0.004
 5336SOL     OW16906   1.144   3.940   1.809
 5336SOL    HW116907   1.098   4.018   1.853
 5336SOL    HW216908   1.154   3.958   1.711
 5337SOL     OW16909   5.095   4.306   1.228
 5337SOL    HW116910   5.096   4.327   1.131
 5337SOL    HW216911   5.189   4.306   1.264
 5338SOL     OW16912   6.544   2.053   6.727
 5338SOL    HW116913   6.584   1.984   6.667
 5338SOL    HW216914   6.510   2.129   6.673
 5339SOL     OW16915   6.057   0.895   3.061
 5339SOL    HW116916   6.075   0.798   3.048
 5339SOL    HW216917   6.083   0.922   3.153
 5340SOL     OW16918   5.200   2.265   6.117
 5340SOL    HW116919   5.140   2.267   6.037
 5340SOL    HW216920   5.288   2.225   6.091
 5341SOL     OW16921   4.367   0.034   0.296
 5341SOL    HW116922   4.379   6.960   0.328
 5341SOL    HW216923   4.444   0.060   0.238
 5342SOL     OW16924   3.180   0.550   5.909
 5342SOL    HW116925   3.278   0.532   5.905
 5342SOL    HW216926   3.162   0.643   5.880
 5343SOL     OW16927   3.470   3.786   1.973
 5343SOL    HW116928   3.370   3.783   1.973
 5343SOL    HW216929   3.506   3.713   2.032
 5344SOL     OW16930   2.751   2.037   3.161
 5344SOL    HW116931   2.700   2.030   3.246
 5344SOL    HW216932   2.693   2.079   3.091
 5345SOL     OW16933   4.284   6.575   1.860
 5345SOL    HW116934   4.329   6.488   1.843
 5345SOL    HW216935   4.256   6.580   1.956
 5346SOL     OW16936   2.236   6.476   2.982
 5346SOL    HW116937   2.204   6.457   2.889
 5346SOL    HW216938   2.236   6.391   3.035
 5347SOL     OW16939   7.012   1.940   1.975
 5347SOL    HW116940   0.060   1.870   1.954
 5347SOL    HW216941   6.934   1.931   1.912
 5348SOL     OW16942   7.008   1.052   0.531
 5348SOL    HW116943   0.065   1.018   0.477
 5348SOL    HW216944   7.004   1.152   0.524
 5349SOL     OW16945   6.161   0.861   1.820
 5349SOL    HW116946   6.210   0.864   1.732
 5349SOL    HW216947   6.224   0.884   1.894
 5350SOL     OW16948   2.351   0.972   6.805
 5350SOL    HW116949   2.253   0.989   6.816
 5350SOL    HW216950   2.402   1.040   6.858
 5351SOL     OW16951   4.789   0.883   1.972
 5351SOL    HW116952   4.795   0.819   1.895
 5351SOL    HW216953   4.780   0.832   2.057
 5352SOL     OW16954   3.435   5.954   3.601
 5352SOL    HW116955   3.419   5.927   3.696
 5352SOL    HW216956   3.416   5.877   3.541
 5353SOL     OW16957   5.982   7.003   5.484
 5353SOL    HW116958   6.069   7.009   5.532
 5353SOL    HW216959   5.975   0.058   5.417
 5354SOL     OW16960   0.629   3.959   0.748
 5354SOL    HW116961   0.556   4.025   0.765
 5354SOL    HW216962   0.714   4.008   0.728
 5355SOL     OW16963   4.222   2.028   5.219
 5355SOL    HW116964   4.315   2.020   5.183
 5355SOL    HW216965   4.222   2.005   5.316
 5356SOL     OW16966   6.433   3.656   1.395
 5356SOL    HW116967   6.528   3.683   1.404
 5356SOL    HW216968   6.427   3.567   1.350
 5357SOL     OW16969   3.446   6.500   0.624
 5357SOL    HW116970   3.491   6.506   0.713
 5357SOL    HW216971   3.483   6.570   0.563
 5358SOL     OW16972   4.571   2.767   0.901
 5358SOL    HW116973   4.572   2.690   0.838
 5358SOL    HW216974   4.478   2.780   0.936
 5359SOL     OW16975   1.999   0.760   6.588
 5359SOL    HW116976   1.930   0.814   6.539
 5359SOL    HW216977   2.084   0.759   6.536
 5360SOL     OW16978   3.858   0.116   6.840
 5360SOL    HW116979   3.926   0.136   6.911
 5360SOL    HW216980   3.904   0.079   6.760
 5361SOL     OW16981   1.738   0.624   5.613
 5361SOL    HW116982   1.832   0.658   5.626
 5361SOL    HW216983   1.675   0.679   5.668
 5362SOL     OW16984   4.144   6.192   3.230
 5362SOL    HW116985   4.231   6.207   3.279
 5362SOL    HW216986   4.090   6.276   3.232
 5363SOL     OW16987   0.588   5.196   6.137
 5363SOL    HW116988   0.667   5.257   6.133
 5363SOL    HW216989   0.608   5.112   6.087
 5364SOL     OW16990   0.591   6.052   0.232
 5364SOL    HW116991   0.519   6.105   0.188
 5364SOL    HW216992   0.662   6.030   0.165
 5365SOL     OW16993   3.822   2.030   6.594
 5365SOL    HW116994   3.757   2.070   6.530
 5365SOL    HW216995   3.915   2.044   6.561
 5366SOL     OW16996   4.137   3.761   7.011
 5366SOL    HW116997   4.167   3.706   6.933
 5366SOL    HW216998   4.037   3.768   7.011
 5367SOL     OW16999   0.362   4.493   0.824
 5367SOL    HW117000   0.348   4.487   0.725
 5367SOL    HW217001   0.291   4.441   0.871
 5368SOL     OW17002   6.206   1.391   3.843
 5368SOL    HW117003   6.219   1.298   3.878
 5368SOL    HW217004   6.294   1.438   3.839
 5369SOL     OW17005   1.806   3.932   2.277
 5369SOL    HW117006   1.707   3.938   2.267
 5369SOL    HW217007   1.846   4.024   2.270
 5370SOL     OW17008   4.069   2.837   1.479
 5370SOL    HW117009   4.114   2.912   1.528
 5370SOL    HW217010   3.975   2.828   1.512
 5371SOL     OW17011   1.248   4.015   5.375
 5371SOL    HW117012   1.197   3.953   5.435
 5371SOL    HW217013   1.221   4.000   5.280
 5372SOL     OW17014   2.279   5.157   2.950
 5372SOL    HW117015   2.213   5.115   3.013
 5372SOL    HW217016   2.342   5.087   2.916
 5373SOL     OW17017   2.514   5.106   3.391
 5373SOL    HW117018   2.540   5.026   3.445
 5373SOL    HW217019   2.567   5.107   3.306
 5374SOL     OW17020   3.196   2.088   0.706
 5374SOL    HW117021   3.142   2.081   0.622
 5374SOL    HW217022   3.143   2.051   0.783
 5375SOL     OW17023   1.721   4.762   3.833
 5375SOL    HW117024   1.757   4.765   3.740
 5375SOL    HW217025   1.762   4.686   3.883
 5376SOL     OW17026   2.266   4.111   0.543
 5376SOL    HW117027   2.247   4.060   0.627
 5376SOL    HW217028   2.266   4.209   0.562
 5377SOL     OW17029   0.642   1.684   1.184
 5377SOL    HW117030   0.735   1.705   1.214
 5377SOL    HW217031   0.585   1.765   1.192
 5378SOL     OW17032   4.929   0.041   0.346
 5378SOL    HW117033   4.867   0.118   0.337
 5378SOL    HW217034   4.942   0.020   0.443
 5379SOL     OW17035   0.117   6.551   1.741
 5379SOL    HW117036   0.212   6.546   1.774
 5379SOL    HW217037   0.061   6.601   1.806
 5380SOL     OW17038   2.732   0.157   4.188
 5380SOL    HW117039   2.741   0.211   4.104
 5380SOL    HW217040   2.648   0.103   4.184
 5381SOL     OW17041   5.717   3.994   1.428
 5381SOL    HW117042   5.814   3.971   1.434
 5381SOL    HW217043   5.708   4.092   1.412
 5382SOL     OW17044   1.335   7.005   1.513
 5382SOL    HW117045   1.387   7.019   1.597
 5382SOL    HW217046   1.238   6.997   1.534
 5383SOL     OW17047   2.498   2.228   5.308
 5383SOL    HW117048   2.414   2.244   5.256
 5383SOL    HW217049   2.511   2.130   5.322
 5384SOL     OW17050   5.934   6.707   4.215
 5384SOL    HW117051   5.855   6.649   4.233
 5384SOL    HW217052   5.980   6.675   4.132
 5385SOL     OW17053   3.118   3.875   2.357
 5385SOL    HW117054   3.141   3.883   2.454
 5385SOL    HW217055   3.106   3.778   2.334
 5386SOL     OW17056   5.104   0.025   5.295
 5386SOL    HW117057   5.178   7.012   5.237
 5386SOL    HW217058   5.021   0.035   5.241
 5387SOL     OW17059   2.690   5.470   1.816
 5387SOL    HW117060   2.654   5.482   1.724
 5387SOL    HW217061   2.688   5.557   1.865
 5388SOL     OW17062   5.658   6.709   2.754
 5388SOL    HW117063   5.566   6.694   2.792
 5388SOL    HW217064   5.681   6.806   2.760
 5389SOL     OW17065   4.985   1.999   1.391
 5389SOL    HW117066   4.894   2.033   1.369
 5389SOL    HW217067   5.007   1.920   1.334
 5390SOL     OW17068   6.000   4.737   6.087
 5390SOL    HW117069   5.964   4.706   5.999
 5390SOL    HW217070   5.961   4.681   6.160
 5391SOL     OW17071   2.617   3.094   6.724
 5391SOL    HW117072   2.622   2.999   6.754
 5391SOL    HW217073   2.695   3.144   6.761
 5392SOL     OW17074   6.138   3.099   2.555
 5392SOL    HW117075   6.136   3.172   2.488
 5392SOL    HW217076   6.224   3.048   2.548
 5393SOL     OW17077   5.933   6.756   6.888
 5393SOL    HW117078   5.858   6.697   6.858
 5393SOL    HW217079   5.987   6.784   6.809
 5394SOL     OW17080   0.946   4.322   6.021
 5394SOL    HW117081   0.994   4.242   5.986
 5394SOL    HW217082   0.925   4.384   5.946
 5395SOL     OW17083   4.480   1.300   0.178
 5395SOL    HW117084   4.441   1.391   0.194
 5395SOL    HW217085   4.572   1.310   0.140
 5396SOL     OW17086   5.379   3.050   2.281
 5396SOL    HW117087   5.346   3.128   2.228
 5396SOL    HW217088   5.387   3.075   2.377
 5397SOL     OW17089   0.099   2.947   1.484
 5397SOL    HW117090   0.015   2.931   1.536
 5397SOL    HW217091   0.177   2.908   1.533
 5398SOL     OW17092   3.741   2.929   1.788
 5398SOL    HW117093   3.747   2.904   1.691
 5398SOL    HW217094   3.833   2.947   1.823
 5399SOL     OW17095   1.180   5.639   0.513
 5399SOL    HW117096   1.161   5.575   0.587
 5399SOL    HW217097   1.101   5.646   0.453
 5400SOL     OW17098   2.935   4.656   6.916
 5400SOL    HW117099   2.903   4.694   6.829
 5400SOL    HW217100   2.922   4.556   6.916
 5401SOL     OW17101   6.444   2.960   1.724
 5401SOL    HW117102   6.491   3.001   1.646
 5401SOL    HW217103   6.430   2.862   1.706
 5402SOL     OW17104   1.531   6.252   2.622
 5402SOL    HW117105   1.534   6.334   2.565
 5402SOL    HW217106   1.456   6.260   2.688
 5403SOL     OW17107   6.389   3.095   6.661
 5403SOL    HW117108   6.307   3.151   6.667
 5403SOL    HW217109   6.376   3.023   6.593
 5404SOL     OW17110   1.643   3.336   2.711
 5404SOL    HW117111   1.631   3.385   2.797
 5404SOL    HW217112   1.643   3.238   2.728
 5405SOL     OW17113   6.709   4.504   6.034
 5405SOL    HW117114   6.633   4.440   6.032
 5405SOL    HW217115   6.673   4.598   6.034
 5406SOL     OW17116   1.716   0.099   5.187
 5406SOL    HW117117   1.813   0.124   5.189
 5406SOL    HW217118   1.668   0.148   5.259
 5407SOL     OW17119   3.913   3.505   6.892
 5407SOL    HW117120   3.912   3.571   6.816
 5407SOL    HW217121   3.821   3.468   6.904
 5408SOL     OW17122   3.042   0.924   6.871
 5408SOL    HW117123   2.947   0.954   6.862
 5408SOL    HW217124   3.067   0.867   6.793
 5409SOL     OW17125   4.115   0.812   2.682
 5409SOL    HW117126   4.024   0.849   2.668
 5409SOL    HW217127   4.180   0.859   2.623
 5410SOL     OW17128   2.082   2.399   2.346
 5410SOL    HW117129   2.168   2.408   2.396
 5410SOL    HW217130   2.080   2.310   2.300
 5411SOL     OW17131   0.556   5.087   4.887
 5411SOL    HW117132   0.623   5.013   4.882
 5411SOL    HW217133   0.602   5.175   4.872
 5412SOL     OW17134   6.263   2.925   1.301
 5412SOL    HW117135   6.186   2.892   1.355
 5412SOL    HW217136   6.347   2.916   1.355
 5413SOL     OW17137   2.410   6.912   1.703
 5413SOL    HW117138   2.439   6.985   1.765
 5413SOL    HW217139   2.489   6.862   1.670
 5414SOL     OW17140   4.117   0.911   5.636
 5414SOL    HW117141   4.114   0.972   5.557
 5414SOL    HW217142   4.212   0.892   5.660
 5415SOL     OW17143   5.693   5.062   2.257
 5415SOL    HW117144   5.789   5.080   2.278
 5415SOL    HW217145   5.652   5.013   2.334
 5416SOL     OW17146   4.497   5.651   4.288
 5416SOL    HW117147   4.449   5.732   4.256
 5416SOL    HW217148   4.553   5.614   4.213
 5417SOL     OW17149   3.310   0.044   5.392
 5417SOL    HW117150   3.245   0.119   5.403
 5417SOL    HW217151   3.316   0.020   5.295
 5418SOL     OW17152   3.532   0.095   2.849
 5418SOL    HW117153   3.491   0.138   2.929
 5418SOL    HW217154   3.492   0.004   2.837
 5419SOL     OW17155   3.221   3.848   6.453
 5419SOL    HW117156   3.177   3.922   6.404
 5419SOL    HW217157   3.151   3.787   6.491
 5420SOL     OW17158   1.382   1.720   2.735
 5420SOL    HW117159   1.463   1.764   2.697
 5420SOL    HW217160   1.343   1.658   2.667
 5421SOL     OW17161   1.394   3.629   1.524
 5421SOL    HW117162   1.335   3.587   1.593
 5421SOL    HW217163   1.484   3.645   1.562
 5422SOL     OW17164   2.292   4.043   0.800
 5422SOL    HW117165   2.213   4.014   0.855
 5422SOL    HW217166   2.369   4.061   0.860
 5423SOL     OW17167   6.050   3.717   6.236
 5423SOL    HW117168   5.995   3.756   6.309
 5423SOL    HW217169   6.135   3.681   6.274
 5424SOL     OW17170   5.489   4.041   5.373
 5424SOL    HW117171   5.584   4.009   5.376
 5424SOL    HW217172   5.429   3.971   5.411
 5425SOL     OW17173   5.053   0.464   4.632
 5425SOL    HW117174   4.962   0.463   4.590
 5425SOL    HW217175   5.101   0.380   4.607
 5426SOL     OW17176   6.618   0.308   5.634
 5426SOL    HW117177   6.678   0.231   5.612
 5426SOL    HW217178   6.526   0.290   5.597
 5427SOL     OW17179   4.346   6.358   6.739
 5427SOL    HW117180   4.292   6.396   6.813
 5427SOL    HW217181   4.316   6.395   6.651
 5428SOL     OW17182   1.144   0.671   6.657
 5428SOL    HW117183   1.214   0.642   6.723
 5428SOL    HW217184   1.158   0.767   6.633
 5429SOL     OW17185   1.844   2.626   0.067
 5429SOL    HW117186   1.752   2.598   0.040
 5429SOL    HW217187   1.868   2.584   0.155
 5430SOL     OW17188   2.498   2.526   5.800
 5430SOL    HW117189   2.460   2.483   5.882
 5430SOL    HW217190   2.425   2.575   5.752
 5431SOL     OW17191   3.811   5.901   4.521
 5431SOL    HW117192   3.840   5.969   4.589
 5431SOL    HW217193   3.737   5.845   4.559
 5432SOL     OW17194   5.399   6.334   1.212
 5432SOL    HW117195   5.315   6.367   1.170
 5432SOL    HW217196   5.386   6.329   1.311
 5433SOL     OW17197   0.151   1.774   4.075
 5433SOL    HW117198   0.091   1.811   4.145
 5433SOL    HW217199   0.246   1.780   4.106
 5434SOL     OW17200   3.075   6.856   5.744
 5434SOL    HW117201   3.162   6.876   5.790
 5434SOL    HW217202   3.001   6.907   5.788
 5435SOL     OW17203   4.236   1.224   1.841
 5435SOL    HW117204   4.314   1.287   1.835
 5435SOL    HW217205   4.255   1.144   1.783
 5436SOL     OW17206   5.441   4.139   2.360
 5436SOL    HW117207   5.377   4.163   2.287
 5436SOL    HW217208   5.531   4.176   2.339
 5437SOL     OW17209   3.228   3.500   6.411
 5437SOL    HW117210   3.313   3.529   6.366
 5437SOL    HW217211   3.211   3.403   6.390
 5438SOL     OW17212   6.497   1.592   1.340
 5438SOL    HW117213   6.450   1.520   1.390
 5438SOL    HW217214   6.444   1.619   1.260
 5439SOL     OW17215   1.325   2.310   1.557
 5439SOL    HW117216   1.361   2.277   1.470
 5439SOL    HW217217   1.400   2.320   1.622
 5440SOL     OW17218   1.565   2.073   0.873
 5440SOL    HW117219   1.605   2.110   0.790
 5440SOL    HW217220   1.613   1.989   0.899
 5441SOL     OW17221   4.072   1.689   3.988
 5441SOL    HW117222   4.126   1.648   3.915
 5441SOL    HW217223   3.981   1.647   3.991
 5442SOL     OW17224   3.920   0.403   2.540
 5442SOL    HW117225   3.897   0.325   2.598
 5442SOL    HW217226   4.005   0.445   2.573
 5443SOL     OW17227   3.267   6.581   4.988
 5443SOL    HW117228   3.329   6.640   4.936
 5443SOL    HW217229   3.178   6.580   4.943
 5444SOL     OW17230   0.169   6.850   3.409
 5444SOL    HW117231   0.106   6.774   3.394
 5444SOL    HW217232   0.174   6.906   3.326
 5445SOL     OW17233   5.435   3.853   2.275
 5445SOL    HW117234   5.448   3.946   2.310
 5445SOL    HW217235   5.356   3.812   2.320
 5446SOL     OW17236   6.528   5.453   5.599
 5446SOL    HW117237   6.565   5.501   5.679
 5446SOL    HW217238   6.603   5.407   5.550
 5447SOL     OW17239   3.333   1.788   0.531
 5447SOL    HW117240   3.352   1.772   0.628
 5447SOL    HW217241   3.272   1.716   0.497
 5448SOL     OW17242   5.814   2.371   5.724
 5448SOL    HW117243   5.785   2.465   5.707
 5448SOL    HW217244   5.890   2.371   5.789
 5449SOL     OW17245   0.699   3.800   6.591
 5449SOL    HW117246   0.700   3.736   6.668
 5449SOL    HW217247   0.620   3.861   6.599
 5450SOL     OW17248   1.863   6.858   0.891
 5450SOL    HW117249   1.935   6.856   0.821
 5450SOL    HW217250   1.892   6.807   0.971
 5451SOL     OW17251   1.253   0.214   2.306
 5451SOL    HW117252   1.164   0.209   2.353
 5451SOL    HW217253   1.308   0.134   2.332
 5452SOL     OW17254   3.048   3.890   5.785
 5452SOL    HW117255   3.036   3.946   5.703
 5452SOL    HW217256   3.061   3.795   5.759
 5453SOL     OW17257   6.180   5.126   6.814
 5453SOL    HW117258   6.180   5.027   6.825
 5453SOL    HW217259   6.086   5.160   6.816
 5454SOL     OW17260   0.151   4.365   6.509
 5454SOL    HW117261   0.149   4.463   6.485
 5454SOL    HW217262   0.146   4.311   6.425
 5455SOL     OW17263   6.581   3.147   1.309
 5455SOL    HW117264   6.578   3.158   1.409
 5455SOL    HW217265   6.488   3.153   1.273
 5456SOL     OW17266   3.655   6.578   1.088
 5456SOL    HW117267   3.666   6.659   1.030
 5456SOL    HW217268   3.595   6.600   1.164
 5457SOL     OW17269   6.047   3.736   0.427
 5457SOL    HW117270   6.100   3.727   0.512
 5457SOL    HW217271   6.069   3.659   0.367
 5458SOL     OW17272   2.481   4.112   6.793
 5458SOL    HW117273   2.580   4.115   6.804
 5458SOL    HW217274   2.456   4.033   6.736
 5459SOL     OW17275   2.211   4.926   6.062
 5459SOL    HW117276   2.249   4.930   6.154
 5459SOL    HW217277   2.187   5.018   6.031
 5460SOL     OW17278   3.521   0.622   1.211
 5460SOL    HW117279   3.459   0.668   1.275
 5460SOL    HW217280   3.609   0.608   1.255
 5461SOL     OW17281   4.467   6.927   5.374
 5461SOL    HW117282   4.554   6.965   5.404
 5461SOL    HW217283   4.436   6.975   5.292
 5462SOL     OW17284   1.039   0.315   1.251
 5462SOL    HW117285   1.125   0.274   1.222
 5462SOL    HW217286   0.962   0.264   1.213
 5463SOL     OW17287   0.110   2.796   0.527
 5463SOL    HW117288   0.102   2.803   0.627
 5463SOL    HW217289   0.020   2.809   0.486
 5464SOL     OW17290   2.214   0.050   4.266
 5464SOL    HW117291   2.210   0.084   4.172
 5464SOL    HW217292   2.308   0.026   4.289
 5465SOL     OW17293   2.737   6.850   5.865
 5465SOL    HW117294   2.743   6.853   5.965
 5465SOL    HW217295   2.749   6.755   5.835
 5466SOL     OW17296   4.745   4.140   4.733
 5466SOL    HW117297   4.757   4.210   4.662
 5466SOL    HW217298   4.737   4.050   4.690
 5467SOL     OW17299   6.031   1.980   1.766
 5467SOL    HW117300   5.961   1.972   1.837
 5467SOL    HW217301   6.078   1.892   1.756
 5468SOL     OW17302   4.356   1.694   5.460
 5468SOL    HW117303   4.450   1.718   5.436
 5468SOL    HW217304   4.298   1.775   5.453
 5469SOL     OW17305   4.346   4.740   6.450
 5469SOL    HW117306   4.434   4.701   6.423
 5469SOL    HW217307   4.327   4.717   6.545
 5470SOL     OW17308   1.332   5.532   3.288
 5470SOL    HW117309   1.246   5.542   3.337
 5470SOL    HW217310   1.382   5.619   3.289
 5471SOL     OW17311   6.210   4.868   2.206
 5471SOL    HW117312   6.218   4.908   2.114
 5471SOL    HW217313   6.279   4.910   2.266
 5472SOL     OW17314   4.019   5.128   5.490
 5472SOL    HW117315   3.996   5.170   5.402
 5472SOL    HW217316   3.958   5.163   5.561
 5473SOL     OW17317   1.402   3.380   3.520
 5473SOL    HW117318   1.376   3.357   3.426
 5473SOL    HW217319   1.458   3.463   3.519
 5474SOL     OW17320   2.365   6.085   3.387
 5474SOL    HW117321   2.427   6.131   3.450
 5474SOL    HW217322   2.417   6.025   3.326
 5475SOL     OW17323   3.114   2.445   1.415
 5475SOL    HW117324   3.114   2.476   1.510
 5475SOL    HW217325   3.156   2.355   1.409
 5476SOL     OW17326   1.135   3.417   5.996
 5476SOL    HW117327   1.152   3.478   6.074
 5476SOL    HW217328   1.078   3.464   5.929
 5477SOL     OW17329   2.166   2.971   2.360
 5477SOL    HW117330   2.195   2.887   2.314
 5477SOL    HW217331   2.165   2.958   2.459
 5478SOL     OW17332   6.616   5.936   6.156
 5478SOL    HW117333   6.663   5.930   6.244
 5478SOL    HW217334   6.675   5.898   6.085
 5479SOL     OW17335   4.616   0.627   4.799
 5479SOL    HW117336   4.600   0.536   4.761
 5479SOL    HW217337   4.621   0.694   4.725
 5480SOL     OW17338   0.149   3.556   4.819
 5480SOL    HW117339   0.152   3.559   4.719
 5480SOL    HW217340   0.086   3.484   4.848
 5481SOL     OW17341   4.725   6.565   4.201
 5481SOL    HW117342   4.679   6.509   4.270
 5481SOL    HW217343   4.743   6.510   4.119
 5482SOL     OW17344   1.448   4.453   1.565
 5482SOL    HW117345   1.408   4.487   1.650
 5482SOL    HW217346   1.471   4.530   1.505
 5483SOL     OW17347   0.828   2.915   6.202
 5483SOL    HW117348   0.800   2.842   6.139
 5483SOL    HW217349   0.907   2.884   6.255
 5484SOL     OW17350   4.646   0.227   5.127
 5484SOL    HW117351   4.649   0.198   5.031
 5484SOL    HW217352   4.641   0.327   5.131
 5485SOL     OW17353   2.890   0.294   4.677
 5485SOL    HW117354   2.864   0.280   4.772
 5485SOL    HW217355   2.809   0.290   4.618
 5486SOL     OW17356   2.305   5.428   4.922
 5486SOL    HW117357   2.363   5.380   4.857
 5486SOL    HW217358   2.353   5.434   5.010
 5487SOL     OW17359   3.161   5.312   5.512
 5487SOL    HW117360   3.220   5.341   5.436
 5487SOL    HW217361   3.186   5.220   5.540
 5488SOL     OW17362   5.313   2.464   0.974
 5488SOL    HW117363   5.398   2.411   0.973
 5488SOL    HW217364   5.322   2.542   0.911
 5489SOL     OW17365   6.668   3.888   3.466
 5489SOL    HW117366   6.716   3.820   3.521
 5489SOL    HW217367   6.712   3.977   3.476
 5490SOL     OW17368   1.456   6.119   3.120
 5490SOL    HW117369   1.501   6.065   3.049
 5490SOL    HW217370   1.385   6.064   3.164
 5491SOL     OW17371   6.640   4.213   0.749
 5491SOL    HW117372   6.690   4.127   0.761
 5491SOL    HW217373   6.629   4.258   0.838
 5492SOL     OW17374   6.871   1.837   5.889
 5492SOL    HW117375   6.820   1.753   5.871
 5492SOL    HW217376   6.959   1.815   5.931
 5493SOL     OW17377   3.530   4.078   1.026
 5493SOL    HW117378   3.504   4.072   0.930
 5493SOL    HW217379   3.507   3.992   1.072
 5494SOL     OW17380   5.960   3.642   5.540
 5494SOL    HW117381   5.900   3.669   5.615
 5494SOL    HW217382   6.047   3.691   5.548
 5495SOL     OW17383   5.685   6.527   0.318
 5495SOL    HW117384   5.704   6.624   0.303
 5495SOL    HW217385   5.657   6.514   0.413
 5496SOL     OW17386   3.922   0.082   4.697
 5496SOL    HW117387   3.862   0.118   4.625
 5496SOL    HW217388   3.945   0.155   4.761
 5497SOL     OW17389   0.847   0.519   5.434
 5497SOL    HW117390   0.753   0.526   5.468
 5497SOL    HW217391   0.890   0.609   5.436
 5498SOL     OW17392   0.671   5.815   1.067
 5498SOL    HW117393   0.658   5.879   0.991
 5498SOL    HW217394   0.606   5.836   1.140
 5499SOL     OW17395   1.728   6.895   4.577
 5499SOL    HW117396   1.802   6.933   4.632
 5499SOL    HW217397   1.758   6.807   4.539
 5500SOL     OW17398   2.851   0.530   0.911
 5500SOL    HW117399   2.895   0.549   0.822
 5500SOL    HW217400   2.783   0.600   0.930
 5501SOL     OW17401   3.442   3.822   6.810
 5501SOL    HW117402   3.438   3.921   6.816
 5501SOL    HW217403   3.495   3.795   6.729
 5502SOL     OW17404   4.710   3.058   7.001
 5502SOL    HW117405   4.671   2.977   6.958
 5502SOL    HW217406   4.645   3.095   0.047
 5503SOL     OW17407   6.131   3.447   0.951
 5503SOL    HW117408   6.157   3.353   0.928
 5503SOL    HW217409   6.069   3.483   0.881
 5504SOL     OW17410   3.659   1.727   0.143
 5504SOL    HW117411   3.673   1.803   0.079
 5504SOL    HW217412   3.579   1.674   0.115
 5505SOL     OW17413   3.087   4.942   3.490
 5505SOL    HW117414   3.092   5.033   3.449
 5505SOL    HW217415   3.176   4.918   3.530
 5506SOL     OW17416   0.003   3.175   5.687
 5506SOL    HW117417   0.024   3.079   5.669
 5506SOL    HW217418   6.975   3.214   5.608
 5507SOL     OW17419   3.641   0.270   6.745
 5507SOL    HW117420   3.575   0.314   6.806
 5507SOL    HW217421   3.726   0.254   6.794
 5508SOL     OW17422   0.170   0.837   6.235
 5508SOL    HW117423   0.202   0.759   6.288
 5508SOL    HW217424   0.119   0.805   6.155
 5509SOL     OW17425   6.389   4.673   0.629
 5509SOL    HW117426   6.343   4.590   0.661
 5509SOL    HW217427   6.349   4.702   0.542
 5510SOL     OW17428   4.747   5.136   0.054
 5510SOL    HW117429   4.812   5.183   7.015
 5510SOL    HW217430   4.795   5.064   0.105
 5511SOL     OW17431   0.465   2.523   6.036
 5511SOL    HW117432   0.549   2.577   6.042
 5511SOL    HW217433   0.487   2.426   6.043
 5512SOL     OW17434   2.424   0.546   2.474
 5512SOL    HW117435   2.429   0.636   2.431
 5512SOL    HW217436   2.331   0.509   2.462
 5513SOL     OW17437   3.784   3.984   0.136
 5513SOL    HW117438   3.738   3.956   0.221
 5513SOL    HW217439   3.749   4.073   0.108
 5514SOL     OW17440   3.456   1.010   0.350
 5514SOL    HW117441   3.365   0.976   0.371
 5514SOL    HW217442   3.479   1.084   0.413
 5515SOL     OW17443   2.810   5.528   2.588
 5515SOL    HW117444   2.789   5.521   2.490
 5515SOL    HW217445   2.909   5.540   2.600
 5516SOL     OW17446   2.206   1.951   5.517
 5516SOL    HW117447   2.176   1.989   5.429
 5516SOL    HW217448   2.305   1.958   5.524
 5517SOL     OW17449   1.334   2.134   3.258
 5517SOL    HW117450   1.399   2.208   3.238
 5517SOL    HW217451   1.253   2.146   3.201
 5518SOL     OW17452   4.711   5.003   6.780
 5518SOL    HW117453   4.780   4.956   6.725
 5518SOL    HW217454   4.756   5.073   6.837
 5519SOL     OW17455   5.188   2.679   4.639
 5519SOL    HW117456   5.254   2.752   4.651
 5519SOL    HW217457   5.234   2.590   4.643
 5520SOL     OW17458   5.006   0.561   1.435
 5520SOL    HW117459   4.982   0.553   1.532
 5520SOL    HW217460   4.936   0.615   1.388
 5521SOL     OW17461   4.830   6.591   2.578
 5521SOL    HW117462   4.782   6.524   2.634
 5521SOL    HW217463   4.893   6.545   2.516
 5522SOL     OW17464   6.190   5.902   0.933
 5522SOL    HW117465   6.231   5.952   1.008
 5522SOL    HW217466   6.251   5.905   0.853
 5523SOL     OW17467   5.581   1.876   0.902
 5523SOL    HW117468   5.506   1.924   0.948
 5523SOL    HW217469   5.633   1.941   0.847
 5524SOL     OW17470   2.608   1.459   3.907
 5524SOL    HW117471   2.664   1.477   3.989
 5524SOL    HW217472   2.665   1.418   3.836
 5525SOL     OW17473   6.039   1.051   1.444
 5525SOL    HW117474   6.078   1.121   1.505
 5525SOL    HW217475   5.964   1.004   1.489
 5526SOL     OW17476   5.326   5.274   3.909
 5526SOL    HW117477   5.233   5.275   3.946
 5526SOL    HW217478   5.371   5.187   3.933
 5527SOL     OW17479   5.871   0.399   3.646
 5527SOL    HW117480   5.915   0.330   3.588
 5527SOL    HW217481   5.867   0.486   3.597
 5528SOL     OW17482   1.076   1.625   6.744
 5528SOL    HW117483   1.132   1.705   6.770
 5528SOL    HW217484   0.988   1.629   6.792
 5529SOL     OW17485   3.599   0.843   2.588
 5529SOL    HW117486   3.500   0.847   2.576
 5529SOL    HW217487   3.627   0.749   2.609
 5530SOL     OW17488   6.821   1.848   1.064
 5530SOL    HW117489   6.911   1.887   1.081
 5530SOL    HW217490   6.796   1.787   1.139
 5531SOL     OW17491   1.900   4.101   1.508
 5531SOL    HW117492   1.987   4.128   1.548
 5531SOL    HW217493   1.896   4.001   1.499
 5532SOL     OW17494   0.795   2.682   6.952
 5532SOL    HW117495   0.735   2.618   7.000
 5532SOL    HW217496   0.740   2.757   6.914
 5533SOL     OW17497   3.432   1.296   2.585
 5533SOL    HW117498   3.449   1.354   2.505
 5533SOL    HW217499   3.387   1.350   2.656
 5534SOL     OW17500   1.263   0.210   4.636
 5534SOL    HW117501   1.169   0.175   4.636
 5534SOL    HW217502   1.319   0.155   4.574
 5535SOL     OW17503   0.099   1.930   2.715
 5535SOL    HW117504   0.132   1.929   2.809
 5535SOL    HW217505   0.008   1.889   2.712
 5536SOL     OW17506   4.460   6.176   4.384
 5536SOL    HW117507   4.406   6.162   4.466
 5536SOL    HW217508   4.538   6.113   4.384
 5537SOL     OW17509   3.246   2.051   3.993
 5537SOL    HW117510   3.213   2.105   4.070
 5537SOL    HW217511   3.213   1.957   4.001
 5538SOL     OW17512   4.824   4.782   4.466
 5538SOL    HW117513   4.752   4.805   4.532
 5538SOL    HW217514   4.875   4.703   4.499
 5539SOL     OW17515   2.548   4.717   0.196
 5539SOL    HW117516   2.528   4.736   0.293
 5539SOL    HW217517   2.588   4.799   0.154
 5540SOL     OW17518   4.324   5.589   2.399
 5540SOL    HW117519   4.357   5.593   2.493
 5540SOL    HW217520   4.244   5.649   2.390
 5541SOL     OW17521   4.477   1.384   6.195
 5541SOL    HW117522   4.481   1.456   6.126
 5541SOL    HW217523   4.405   1.319   6.171
 5542SOL     OW17524   5.234   4.401   6.732
 5542SOL    HW117525   5.219   4.381   6.635
 5542SOL    HW217526   5.237   4.500   6.745
 5543SOL     OW17527   0.245   2.263   5.380
 5543SOL    HW117528   0.266   2.206   5.301
 5543SOL    HW217529   0.149   2.251   5.405
 5544SOL     OW17530   5.781   0.874   6.774
 5544SOL    HW117531   5.801   0.848   6.868
 5544SOL    HW217532   5.842   0.948   6.745
 5545SOL     OW17533   2.730   2.613   1.725
 5545SOL    HW117534   2.738   2.521   1.764
 5545SOL    HW217535   2.820   2.648   1.703
 5546SOL     OW17536   4.184   4.820   5.973
 5546SOL    HW117537   4.188   4.918   5.953
 5546SOL    HW217538   4.138   4.772   5.898
 5547SOL     OW17539   3.411   5.505   4.137
 5547SOL    HW117540   3.424   5.415   4.179
 5547SOL    HW217541   3.492   5.529   4.084
 5548SOL     OW17542   0.565   2.271   4.637
 5548SOL    HW117543   0.541   2.255   4.541
 5548SOL    HW217544   0.521   2.354   4.670
 5549SOL     OW17545   3.776   5.029   7.019
 5549SOL    HW117546   3.723   5.036   6.934
 5549SOL    HW217547   3.714   5.025   0.077
 5550SOL     OW17548   2.592   6.539   2.293
 5550SOL    HW117549   2.617   6.632   2.322
 5550SOL    HW217550   2.663   6.475   2.322
 5551SOL     OW17551   0.824   1.107   3.186
 5551SOL    HW117552   0.802   1.188   3.240
 5551SOL    HW217553   0.879   1.044   3.240
 5552SOL     OW17554   0.924   2.674   2.039
 5552SOL    HW117555   0.861   2.599   2.060
 5552SOL    HW217556   1.013   2.637   2.012
 5553SOL     OW17557   4.559   6.207   6.667
 5553SOL    HW117558   4.469   6.233   6.704
 5553SOL    HW217559   4.600   6.287   6.622
 5554SOL     OW17560   3.481   1.171   4.089
 5554SOL    HW117561   3.509   1.075   4.090
 5554SOL    HW217562   3.443   1.197   4.177
 5555SOL     OW17563   0.979   5.911   1.685
 5555SOL    HW117564   1.078   5.913   1.699
 5555SOL    HW217565   0.934   5.884   1.770
 5556SOL     OW17566   1.053   0.795   4.527
 5556SOL    HW117567   1.092   0.756   4.444
 5556SOL    HW217568   1.097   0.755   4.607
 5557SOL     OW17569   2.149   0.463   2.818
 5557SOL    HW117570   2.130   0.559   2.840
 5557SOL    HW217571   2.111   0.404   2.890
 5558SOL     OW17572   5.036   2.696   5.428
 5558SOL    HW117573   5.057   2.716   5.333
 5558SOL    HW217574   4.938   2.685   5.440
 5559SOL     OW17575   2.221   0.743   1.542
 5559SOL    HW117576   2.214   0.826   1.597
 5559SOL    HW217577   2.298   0.751   1.479
 5560SOL     OW17578   6.919   1.357   4.518
 5560SOL    HW117579   6.895   1.293   4.446
 5560SOL    HW217580   7.018   1.355   4.532
 5561SOL     OW17581   1.695   3.648   2.328
 5561SOL    HW117582   1.683   3.660   2.229
 5561SOL    HW217583   1.665   3.732   2.375
 5562SOL     OW17584   2.904   1.835   6.910
 5562SOL    HW117585   2.973   1.859   6.843
 5562SOL    HW217586   2.822   1.890   6.895
 5563SOL     OW17587   4.101   4.337   1.684
 5563SOL    HW117588   4.026   4.333   1.618
 5563SOL    HW217589   4.184   4.299   1.643
 5564SOL     OW17590   5.418   2.360   1.480
 5564SOL    HW117591   5.376   2.356   1.390
 5564SOL    HW217592   5.510   2.320   1.477
 5565SOL     OW17593   2.795   2.641   5.460
 5565SOL    HW117594   2.722   2.703   5.430
 5565SOL    HW217595   2.881   2.670   5.419
 5566SOL     OW17596   2.276   4.384   0.581
 5566SOL    HW117597   2.300   4.431   0.666
 5566SOL    HW217598   2.190   4.423   0.546
 5567SOL     OW17599   1.525   5.399   2.783
 5567SOL    HW117600   1.469   5.439   2.855
 5567SOL    HW217601   1.612   5.368   2.822
 5568SOL     OW17602   4.072   2.443   0.537
 5568SOL    HW117603   4.033   2.377   0.601
 5568SOL    HW217604   4.030   2.432   0.447
 5569SOL     OW17605   4.959   2.028   6.342
 5569SOL    HW117606   4.933   2.009   6.436
 5569SOL    HW217607   5.021   1.957   6.309
 5570SOL     OW17608   1.307   3.363   5.232
 5570SOL    HW117609   1.291   3.355   5.330
 5570SOL    HW217610   1.243   3.430   5.193
 5571SOL     OW17611   6.409   4.256   6.729
 5571SOL    HW117612   6.379   4.179   6.673
 5571SOL    HW217613   6.501   4.237   6.765
 5572SOL     OW17614   7.008   3.348   4.862
 5572SOL    HW117615   0.064   3.287   4.883
 5572SOL    HW217616   6.953   3.309   4.787
 5573SOL     OW17617   0.316   3.845   6.839
 5573SOL    HW117618   0.377   3.789   6.895
 5573SOL    HW217619   0.299   3.933   6.885
 5574SOL     OW17620   1.134   7.007   4.032
 5574SOL    HW117621   1.099   0.078   4.054
 5574SOL    HW217622   1.106   6.982   3.939
 5575SOL     OW17623   0.885   0.984   1.816
 5575SOL    HW117624   0.981   1.000   1.795
 5575SOL    HW217625   0.869   0.886   1.827
 5576SOL     OW17626   5.492   6.448   5.631
 5576SOL    HW117627   5.521   6.393   5.709
 5576SOL    HW217628   5.394   6.469   5.639
 5577SOL     OW17629   2.278   4.434   4.620
 5577SOL    HW117630   2.322   4.486   4.693
 5577SOL    HW217631   2.291   4.336   4.635
 5578SOL     OW17632   3.243   1.988   6.440
 5578SOL    HW117633   3.156   1.955   6.404
 5578SOL    HW217634   3.310   1.913   6.436
 5579SOL     OW17635   5.011   5.132   2.120
 5579SOL    HW117636   4.933   5.165   2.066
 5579SOL    HW217637   4.987   5.133   2.217
 5580SOL     OW17638   5.309   1.212   1.206
 5580SOL    HW117639   5.235   1.172   1.151
 5580SOL    HW217640   5.271   1.281   1.267
 5581SOL     OW17641   2.839   2.494   0.369
 5581SOL    HW117642   2.764   2.464   0.429
 5581SOL    HW217643   2.926   2.462   0.406
 5582SOL     OW17644   3.723   3.052   3.271
 5582SOL    HW117645   3.674   3.122   3.220
 5582SOL    HW217646   3.688   3.047   3.365
 5583SOL     OW17647   4.713   0.555   6.897
 5583SOL    HW117648   4.680   0.573   6.805
 5583SOL    HW217649   4.730   0.642   6.944
 5584SOL     OW17650   4.897   3.445   3.294
 5584SOL    HW117651   4.883   3.507   3.371
 5584SOL    HW217652   4.895   3.350   3.327
 5585SOL     OW17653   0.386   0.161   4.655
 5585SOL    HW117654   0.437   0.132   4.575
 5585SOL    HW217655   0.421   0.250   4.686
 5586SOL     OW17656   2.814   1.035   6.815
 5586SOL    HW117657   2.733   1.089   6.837
 5586SOL    HW217658   2.875   1.089   6.755
 5587SOL     OW17659   3.545   6.463   3.926
 5587SOL    HW117660   3.509   6.391   3.867
 5587SOL    HW217661   3.498   6.549   3.906
 5588SOL     OW17662   5.013   6.562   6.137
 5588SOL    HW117663   5.013   6.465   6.159
 5588SOL    HW217664   4.963   6.613   6.207
 5589SOL     OW17665   2.762   3.793   0.093
 5589SOL    HW117666   2.772   3.863   0.022
 5589SOL    HW217667   2.844   3.791   0.150
 5590SOL     OW17668   6.855   0.336   3.529
 5590SOL    HW117669   6.756   0.326   3.519
 5590SOL    HW217670   6.880   0.321   3.624
 5591SOL     OW17671   5.256   0.317   0.764
 5591SOL    HW117672   5.270   0.387   0.695
 5591SOL    HW217673   5.292   0.348   0.852
 5592SOL     OW17674   1.311   2.687   2.424
 5592SOL    HW117675   1.260   2.749   2.364
 5592SOL    HW217676   1.296   2.593   2.394
 5593SOL     OW17677   2.376   4.452   4.861
 5593SOL    HW117678   2.467   4.491   4.875
 5593SOL    HW217679   2.351   4.396   4.941
 5594SOL     OW17680   2.882   1.638   6.664
 5594SOL    HW117681   2.841   1.635   6.755
 5594SOL    HW217682   2.963   1.697   6.666
 5595SOL     OW17683   0.787   3.030   6.603
 5595SOL    HW117684   0.777   3.104   6.537
 5595SOL    HW217685   0.881   2.995   6.600
 5596SOL     OW17686   4.767   3.007   4.699
 5596SOL    HW117687   4.769   3.091   4.753
 5596SOL    HW217688   4.720   2.935   4.750
 5597SOL     OW17689   6.869   1.965   6.813
 5597SOL    HW117690   6.775   1.941   6.790
 5597SOL    HW217691   6.896   1.919   6.897
 5598SOL     OW17692   6.608   1.487   3.636
 5598SOL    HW117693   6.574   1.399   3.669
 5598SOL    HW217694   6.686   1.516   3.692
 5599SOL     OW17695   5.685   2.822   3.020
 5599SOL    HW117696   5.745   2.818   2.940
 5599SOL    HW217697   5.607   2.882   3.000
 5600SOL     OW17698   1.987   2.943   1.982
 5600SOL    HW117699   2.034   3.005   2.045
 5600SOL    HW217700   1.891   2.969   1.974
 5601SOL     OW17701   5.786   3.083   5.806
 5601SOL    HW117702   5.697   3.050   5.775
 5601SOL    HW217703   5.773   3.154   5.875
 5602SOL     OW17704   6.403   2.061   2.959
 5602SOL    HW117705   6.415   1.980   2.901
 5602SOL    HW217706   6.335   2.122   2.919
 5603SOL     OW17707   3.402   2.210   6.309
 5603SOL    HW117708   3.393   2.118   6.347
 5603SOL    HW217709   3.327   2.267   6.342
 5604SOL     OW17710   0.883   5.903   3.693
 5604SOL    HW117711   0.838   5.865   3.613
 5604SOL    HW217712   0.888   6.003   3.684
 5605SOL     OW17713   4.413   0.418   3.937
 5605SOL    HW117714   4.497   0.435   3.886
 5605SOL    HW217715   4.385   0.501   3.985
 5606SOL     OW17716   4.881   3.040   1.012
 5606SOL    HW117717   4.900   3.087   1.098
 5606SOL    HW217718   4.879   2.942   1.027
 5607SOL     OW17719   6.967   2.496   3.409
 5607SOL    HW117720   0.006   2.488   3.329
 5607SOL    HW217721   6.973   2.588   3.447
 5608SOL     OW17722   5.406   0.694   4.140
 5608SOL    HW117723   5.387   0.790   4.162
 5608SOL    HW217724   5.501   0.685   4.112
 5609SOL     OW17725   6.453   0.869   0.429
 5609SOL    HW117726   6.553   0.875   0.439
 5609SOL    HW217727   6.410   0.894   0.515
 5610SOL     OW17728   5.697   5.843   6.087
 5610SOL    HW117729   5.597   5.843   6.076
 5610SOL    HW217730   5.729   5.937   6.096
 5611SOL     OW17731   6.405   3.836   2.051
 5611SOL    HW117732   6.336   3.777   2.093
 5611SOL    HW217733   6.364   3.884   1.973
 5612SOL     OW17734   4.308   2.024   0.701
 5612SOL    HW117735   4.257   2.064   0.624
 5612SOL    HW217736   4.386   2.083   0.723
 5613SOL     OW17737   6.090   5.194   5.946
 5613SOL    HW117738   6.184   5.184   5.977
 5613SOL    HW217739   6.033   5.124   5.987
 5614SOL     OW17740   4.817   1.936   4.928
 5614SOL    HW117741   4.750   1.974   4.864
 5614SOL    HW217742   4.871   2.011   4.968
 5615SOL     OW17743   0.895   3.150   3.344
 5615SOL    HW117744   0.982   3.140   3.392
 5615SOL    HW217745   0.834   3.076   3.372
 5616SOL     OW17746   1.828   3.273   2.054
 5616SOL    HW117747   1.747   3.217   2.036
 5616SOL    HW217748   1.899   3.215   2.095
 5617SOL     OW17749   1.005   5.457   6.333
 5617SOL    HW117750   1.005   5.534   6.269
 5617SOL    HW217751   0.993   5.491   6.426
 5618SOL     OW17752   4.553   6.962   2.614
 5618SOL    HW117753   4.603   6.885   2.575
 5618SOL    HW217754   4.528   0.006   2.541
 5619SOL     OW17755   3.212   3.003   3.274
 5619SOL    HW117756   3.290   2.955   3.233
 5619SOL    HW217757   3.156   3.044   3.202
 5620SOL     OW17758   4.966   4.516   4.944
 5620SOL    HW117759   4.910   4.473   5.015
 5620SOL    HW217760   4.923   4.602   4.916
 5621SOL     OW17761   1.023   2.549   6.865
 5621SOL    HW117762   1.076   2.588   6.790
 5621SOL    HW217763   0.937   2.599   6.874
 5622SOL     OW17764   4.720   5.405   3.844
 5622SOL    HW117765   4.754   5.311   3.852
 5622SOL    HW217766   4.622   5.407   3.861
 5623SOL     OW17767   5.018   4.756   3.906
 5623SOL    HW117768   5.051   4.731   3.815
 5623SOL    HW217769   5.041   4.683   3.970
 5624SOL     OW17770   4.909   3.865   3.589
 5624SOL    HW117771   4.999   3.859   3.546
 5624SOL    HW217772   4.851   3.928   3.536
 5625SOL     OW17773   2.802   6.394   6.116
 5625SOL    HW117774   2.756   6.459   6.056
 5625SOL    HW217775   2.735   6.351   6.177
 5626SOL     OW17776   1.213   5.299   6.423
 5626SOL    HW117777   1.164   5.361   6.362
 5626SOL    HW217778   1.202   5.328   6.518
 5627SOL     OW17779   1.268   5.457   0.852
 5627SOL    HW117780   1.341   5.516   0.884
 5627SOL    HW217781   1.181   5.506   0.855
 5628SOL     OW17782   1.620   3.363   0.300
 5628SOL    HW117783   1.652   3.274   0.268
 5628SOL    HW217784   1.650   3.378   0.394
 5629SOL     OW17785   6.841   3.660   4.097
 5629SOL    HW117786   6.824   3.664   4.196
 5629SOL    HW217787   6.755   3.671   4.048
 5630SOL     OW17788   1.098   3.746   0.452
 5630SOL    HW117789   1.117   3.772   0.547
 5630SOL    HW217790   0.999   3.747   0.437
 5631SOL     OW17791   3.771   0.551   1.331
 5631SOL    HW117792   3.761   0.463   1.285
 5631SOL    HW217793   3.780   0.536   1.430
 5632SOL     OW17794   4.041   6.169   6.830
 5632SOL    HW117795   4.022   6.077   6.798
 5632SOL    HW217796   4.079   6.223   6.755
 5633SOL     OW17797   1.070   5.784   5.407
 5633SOL    HW117798   1.007   5.712   5.376
 5633SOL    HW217799   1.061   5.794   5.506
 5634SOL     OW17800   2.631   1.025   1.364
 5634SOL    HW117801   2.579   1.105   1.333
 5634SOL    HW217802   2.697   0.998   1.294
 5635SOL     OW17803   3.597   0.795   2.148
 5635SOL    HW117804   3.556   0.886   2.157
 5635SOL    HW217805   3.697   0.803   2.152
 5636SOL     OW17806   5.557   0.512   5.680
 5636SOL    HW117807   5.477   0.508   5.621
 5636SOL    HW217808   5.636   0.544   5.628
 5637SOL     OW17809   5.265   6.839   4.737
 5637SOL    HW117810   5.285   6.746   4.707
 5637SOL    HW217811   5.348   6.894   4.735
 5638SOL     OW17812   6.334   5.202   0.254
 5638SOL    HW117813   6.248   5.244   0.224
 5638SOL    HW217814   6.327   5.176   0.350
 5639SOL     OW17815   3.587   0.763   1.871
 5639SOL    HW117816   3.583   0.741   1.968
 5639SOL    HW217817   3.494   0.770   1.835
 5640SOL     OW17818   2.756   6.938   3.640
 5640SOL    HW117819   2.852   6.912   3.632
 5640SOL    HW217820   2.748   0.018   3.641
 5641SOL     OW17821   6.477   4.508   3.817
 5641SOL    HW117822   6.422   4.591   3.820
 5641SOL    HW217823   6.434   4.442   3.755
 5642SOL     OW17824   1.843   3.152   6.395
 5642SOL    HW117825   1.921   3.098   6.363
 5642SOL    HW217826   1.863   3.249   6.385
 5643SOL     OW17827   6.239   2.518   3.948
 5643SOL    HW117828   6.266   2.602   3.994
 5643SOL    HW217829   6.312   2.489   3.886
 5644SOL     OW17830   4.010   0.472   5.639
 5644SOL    HW117831   3.996   0.376   5.616
 5644SOL    HW217832   3.925   0.523   5.623
 5645SOL     OW17833   5.931   6.674   3.314
 5645SOL    HW117834   6.014   6.630   3.347
 5645SOL    HW217835   5.863   6.676   3.388
 5646SOL     OW17836   6.633   6.871   3.934
 5646SOL    HW117837   6.598   6.902   3.846
 5646SOL    HW217838   6.635   6.771   3.936
 5647SOL     OW17839   6.915   4.035   6.626
 5647SOL    HW117840   6.824   4.036   6.583
 5647SOL    HW217841   6.980   3.990   6.565
 5648SOL     OW17842   2.620   1.723   4.343
 5648SOL    HW117843   2.661   1.747   4.431
 5648SOL    HW217844   2.521   1.730   4.350
 5649SOL     OW17845   0.839   0.490   5.982
 5649SOL    HW117846   0.749   0.470   6.021
 5649SOL    HW217847   0.834   0.575   5.930
 5650SOL     OW17848   6.981   5.039   5.417
 5650SOL    HW117849   0.003   5.118   5.462
 5650SOL    HW217850   0.030   4.968   5.402
 5651SOL     OW17851   5.517   1.476   2.416
 5651SOL    HW117852   5.594   1.413   2.401
 5651SOL    HW217853   5.541   1.542   2.487
 5652SOL     OW17854   5.602   4.027   0.226
 5652SOL    HW117855   5.579   4.090   0.300
 5652SOL    HW217856   5.660   4.073   0.159
 5653SOL     OW17857   2.166   5.806   6.886
 5653SOL    HW117858   2.104   5.806   6.965
 5653SOL    HW217859   2.258   5.829   6.915
 5654SOL     OW17860   1.973   6.074   0.065
 5654SOL    HW117861   1.879   6.083   0.034
 5654SOL    HW217862   2.035   6.090   7.008
 5655SOL     OW17863   6.600   5.235   3.029
 5655SOL    HW117864   6.661   5.163   3.061
 5655SOL    HW217865   6.603   5.312   3.094
 5656SOL     OW17866   3.704   5.490   6.531
 5656SOL    HW117867   3.688   5.572   6.477
 5656SOL    HW217868   3.627   5.427   6.520
 5657SOL     OW17869   4.630   5.458   1.964
 5657SOL    HW117870   4.682   5.540   1.939
 5657SOL    HW217871   4.534   5.482   1.978
 5658SOL     OW17872   5.598   6.302   5.832
 5658SOL    HW117873   5.522   6.266   5.886
 5658SOL    HW217874   5.670   6.335   5.894
 5659SOL     OW17875   3.118   2.995   2.852
 5659SOL    HW117876   3.059   3.029   2.778
 5659SOL    HW217877   3.074   3.014   2.940
 5660SOL     OW17878   6.424   6.532   1.659
 5660SOL    HW117879   6.420   6.435   1.686
 5660SOL    HW217880   6.331   6.569   1.656
 5661SOL     OW17881   6.307   5.731   4.398
 5661SOL    HW117882   6.279   5.788   4.321
 5661SOL    HW217883   6.406   5.718   4.395
 5662SOL     OW17884   2.311   4.747   5.015
 5662SOL    HW117885   2.352   4.671   4.965
 5662SOL    HW217886   2.249   4.797   4.953
 5663SOL     OW17887   2.657   4.681   1.258
 5663SOL    HW117888   2.684   4.599   1.207
 5663SOL    HW217889   2.727   4.751   1.246
 5664SOL     OW17890   6.771   6.288   2.162
 5664SOL    HW117891   6.753   6.200   2.117
 5664SOL    HW217892   6.827   6.345   2.102
 5665SOL     OW17893   0.940   1.348   6.019
 5665SOL    HW117894   0.998   1.425   6.049
 5665SOL    HW217895   0.885   1.377   5.941
 5666SOL     OW17896   5.841   5.485   0.320
 5666SOL    HW117897   5.814   5.406   0.265
 5666SOL    HW217898   5.875   5.455   0.409
 5667SOL     OW17899   6.310   4.979   2.760
 5667SOL    HW117900   6.264   4.902   2.715
 5667SOL    HW217901   6.321   5.054   2.695
 5668SOL     OW17902   6.061   3.089   5.867
 5668SOL    HW117903   6.070   3.185   5.840
 5668SOL    HW217904   5.966   3.060   5.856
 5669SOL     OW17905   0.170   3.207   4.487
 5669SOL    HW117906   0.175   3.215   4.387
 5669SOL    HW217907   0.154   3.297   4.527
 5670SOL     OW17908   1.527   3.824   2.157
 5670SOL    HW117909   1.445   3.877   2.138
 5670SOL    HW217910   1.578   3.809   2.072
 5671SOL     OW17911   1.201   0.810   5.380
 5671SOL    HW117912   1.269   0.882   5.366
 5671SOL    HW217913   1.234   0.745   5.448
 5672SOL     OW17914   5.096   3.944   5.880
 5672SOL    HW117915   5.096   3.959   5.781
 5672SOL    HW217916   5.023   3.998   5.922
 5673SOL     OW17917   1.443   7.015   0.757
 5673SOL    HW117918   1.457   0.010   0.659
 5673SOL    HW217919   1.469   0.078   0.807
 5674SOL     OW17920   6.720   3.316   1.142
 5674SOL    HW117921   6.690   3.263   1.222
 5674SOL    HW217922   6.748   3.253   1.069
 5675SOL     OW17923   3.471   0.939   6.430
 5675SOL    HW117924   3.485   0.912   6.525
 5675SOL    HW217925   3.416   0.870   6.383
 5676SOL     OW17926   3.171   6.976   1.386
 5676SOL    HW117927   3.126   6.887   1.386
 5676SOL    HW217928   3.230   6.984   1.306
 5677SOL     OW17929   6.734   0.610   3.462
 5677SOL    HW117930   6.645   0.657   3.463
 5677SOL    HW217931   6.720   0.511   3.463
 5678SOL     OW17932   1.720   5.859   3.566
 5678SOL    HW117933   1.674   5.806   3.637
 5678SOL    HW217934   1.767   5.798   3.503
 5679SOL     OW17935   3.291   5.375   5.298
 5679SOL    HW117936   3.365   5.374   5.230
 5679SOL    HW217937   3.261   5.469   5.312
 5680SOL     OW17938   1.870   0.076   6.569
 5680SOL    HW117939   1.847   0.023   6.650
 5680SOL    HW217940   1.953   0.130   6.586
 5681SOL     OW17941   2.739   4.020   6.826
 5681SOL    HW117942   2.692   3.933   6.844
 5681SOL    HW217943   2.788   4.013   6.739
 5682SOL     OW17944   1.260   3.882   3.929
 5682SOL    HW117945   1.259   3.979   3.907
 5682SOL    HW217946   1.213   3.831   3.857
 5683SOL     OW17947   4.193   3.481   4.734
 5683SOL    HW117948   4.279   3.431   4.735
 5683SOL    HW217949   4.177   3.521   4.825
 5684SOL     OW17950   3.034   3.105   3.075
 5684SOL    HW117951   3.051   3.191   3.027
 5684SOL    HW217952   2.988   3.124   3.162
 5685SOL     OW17953   0.046   6.136   2.141
 5685SOL    HW117954   0.050   6.228   2.180
 5685SOL    HW217955   0.136   6.111   2.106
 5686SOL     OW17956   3.343   4.548   0.215
 5686SOL    HW117957   3.247   4.522   0.200
 5686SOL    HW217958   3.347   4.646   0.237
 5687SOL     OW17959   3.824   5.268   6.415
 5687SOL    HW117960   3.917   5.291   6.386
 5687SOL    HW217961   3.794   5.335   6.483
 5688SOL     OW17962   5.791   1.830   1.937
 5688SOL    HW117963   5.738   1.913   1.953
 5688SOL    HW217964   5.764   1.760   2.004
 5689SOL     OW17965   4.459   3.091   5.987
 5689SOL    HW117966   4.430   3.011   6.039
 5689SOL    HW217967   4.437   3.174   6.039
 5690SOL     OW17968   4.490   6.558   2.374
 5690SOL    HW117969   4.548   6.628   2.417
 5690SOL    HW217970   4.395   6.586   2.379
 5691SOL     OW17971   2.435   0.081   3.885
 5691SOL    HW117972   2.451   7.006   3.859
 5691SOL    HW217973   2.505   0.139   3.843
 5692SOL     OW17974   5.756   2.950   6.396
 5692SOL    HW117975   5.727   2.868   6.346
 5692SOL    HW217976   5.800   2.923   6.482
 5693SOL     OW17977   4.791   2.071   2.752
 5693SOL    HW117978   4.838   2.021   2.679
 5693SOL    HW217979   4.811   2.169   2.742
 5694SOL     OW17980   1.285   1.579   3.926
 5694SOL    HW117981   1.284   1.493   3.873
 5694SOL    HW217982   1.266   1.559   4.022
 5695SOL     OW17983   1.914   3.777   3.519
 5695SOL    HW117984   1.846   3.833   3.566
 5695SOL    HW217985   1.956   3.715   3.585
 5696SOL     OW17986   3.402   0.341   6.056
 5696SOL    HW117987   3.488   0.385   6.081
 5696SOL    HW217988   3.330   0.368   6.119
 5697SOL     OW17989   6.334   3.642   0.055
 5697SOL    HW117990   6.408   3.629   7.010
 5697SOL    HW217991   6.355   3.719   0.115
 5698SOL     OW17992   0.842   4.227   3.310
 5698SOL    HW117993   0.926   4.280   3.307
 5698SOL    HW217994   0.858   4.143   3.362
 5699SOL     OW17995   6.685   2.498   5.012
 5699SOL    HW117996   6.605   2.525   4.958
 5699SOL    HW217997   6.768   2.520   4.962
 5700SOL     OW17998   1.068   5.673   3.303
 5700SOL    HW117999   1.106   5.709   3.388
 5700SOL    HW218000   1.014   5.744   3.257
 5701SOL     OW18001   5.553   4.595   2.102
 5701SOL    HW118002   5.573   4.526   2.171
 5701SOL    HW218003   5.639   4.634   2.068
 5702SOL     OW18004   2.177   0.226   6.854
 5702SOL    HW118005   2.090   0.257   6.891
 5702SOL    HW218006   2.249   0.293   6.875
 5703SOL     OW18007   4.887   4.367   1.948
 5703SOL    HW118008   4.848   4.292   1.894
 5703SOL    HW218009   4.863   4.355   2.044
 5704SOL     OW18010   4.847   4.052   3.341
 5704SOL    HW118011   4.859   3.962   3.299
 5704SOL    HW218012   4.936   4.098   3.346
 5705SOL     OW18013   6.193   1.868   3.114
 5705SOL    HW118014   6.217   1.927   3.191
 5705SOL    HW218015   6.276   1.841   3.066
 5706SOL     OW18016   1.687   1.512   6.806
 5706SOL    HW118017   1.673   1.437   6.742
 5706SOL    HW218018   1.603   1.529   6.857
 5707SOL     OW18019   2.915   1.284   6.702
 5707SOL    HW118020   2.951   1.270   6.610
 5707SOL    HW218021   2.969   1.354   6.749
 5708SOL     OW18022   6.608   6.993   1.710
 5708SOL    HW118023   6.541   6.964   1.642
 5708SOL    HW218024   6.700   6.971   1.678
 5709SOL     OW18025   1.156   1.790   1.841
 5709SOL    HW118026   1.203   1.711   1.801
 5709SOL    HW218027   1.136   1.856   1.769
 5710SOL     OW18028   3.288   4.102   6.297
 5710SOL    HW118029   3.348   4.067   6.225
 5710SOL    HW218030   3.216   4.158   6.256
 5711SOL     OW18031   4.892   1.142   4.373
 5711SOL    HW118032   4.906   1.171   4.278
 5711SOL    HW218033   4.853   1.050   4.375
 5712SOL     OW18034   6.500   6.059   6.892
 5712SOL    HW118035   6.597   6.075   6.875
 5712SOL    HW218036   6.489   5.979   6.951
 5713SOL     OW18037   0.116   2.513   2.407
 5713SOL    HW118038   0.091   2.573   2.482
 5713SOL    HW218039   0.212   2.526   2.384
 5714SOL     OW18040   2.221   0.758   6.132
 5714SOL    HW118041   2.227   0.857   6.144
 5714SOL    HW218042   2.313   0.720   6.123
 5715SOL     OW18043   0.919   6.697   3.421
 5715SOL    HW118044   0.864   6.632   3.473
 5715SOL    HW218045   1.012   6.661   3.409
 5716SOL     OW18046   2.267   2.303   5.150
 5716SOL    HW118047   2.228   2.371   5.212
 5716SOL    HW218048   2.257   2.334   5.056
 5717SOL     OW18049   0.693   3.651   6.814
 5717SOL    HW118050   0.745   3.704   6.882
 5717SOL    HW218051   0.745   3.570   6.787
 5718SOL     OW18052   2.501   5.106   5.468
 5718SOL    HW118053   2.502   5.046   5.388
 5718SOL    HW218054   2.595   5.132   5.491
 5719SOL     OW18055   2.445   0.305   0.241
 5719SOL    HW118056   2.437   0.386   0.183
 5719SOL    HW218057   2.489   0.232   0.189
 5720SOL     OW18058   1.591   5.929   3.958
 5720SOL    HW118059   1.491   5.924   3.948
 5720SOL    HW218060   1.634   5.859   3.901
 5721SOL     OW18061   6.893   4.489   0.892
 5721SOL    HW118062   6.941   4.516   0.808
 5721SOL    HW218063   6.911   4.557   0.963
 5722SOL     OW18064   5.336   1.558   3.704
 5722SOL    HW118065   5.393   1.498   3.761
 5722SOL    HW218066   5.369   1.553   3.609
 5723SOL     OW18067   1.064   4.075   1.001
 5723SOL    HW118068   1.108   4.008   1.060
 5723SOL    HW218069   0.965   4.059   1.001
 5724SOL     OW18070   4.794   2.319   6.111
 5724SOL    HW118071   4.703   2.289   6.140
 5724SOL    HW218072   4.849   2.342   6.191
 5725SOL     OW18073   5.246   5.952   5.664
 5725SOL    HW118074   5.314   5.925   5.732
 5725SOL    HW218075   5.257   5.896   5.582
 5726SOL     OW18076   4.206   3.952   5.313
 5726SOL    HW118077   4.168   3.866   5.277
 5726SOL    HW218078   4.303   3.956   5.293
 5727SOL     OW18079   6.031   2.154   3.481
 5727SOL    HW118080   5.955   2.093   3.501
 5727SOL    HW218081   6.029   2.232   3.544
 5728SOL     OW18082   4.767   0.565   5.780
 5728SOL    HW118083   4.718   0.537   5.863
 5728SOL    HW218084   4.777   0.664   5.780
 5729SOL     OW18085   1.449   3.048   4.795
 5729SOL    HW118086   1.349   3.046   4.783
 5729SOL    HW218087   1.470   3.056   4.892
 5730SOL     OW18088   3.922   5.131   0.804
 5730SOL    HW118089   3.841   5.184   0.778
 5730SOL    HW218090   3.939   5.060   0.736
 5731SOL     OW18091   4.205   1.497   5.069
 5731SOL    HW118092   4.114   1.514   5.108
 5731SOL    HW218093   4.197   1.475   4.972
 5732SOL     OW18094   5.470   4.463   4.104
 5732SOL    HW118095   5.516   4.550   4.089
 5732SOL    HW218096   5.508   4.394   4.042
 5733SOL     OW18097   2.696   6.914   1.436
 5733SOL    HW118098   2.779   6.926   1.490
 5733SOL    HW218099   2.645   6.834   1.470
 5734SOL     OW18100   1.391   6.336   6.358
 5734SOL    HW118101   1.398   6.240   6.385
 5734SOL    HW218102   1.442   6.392   6.424
 5735SOL     OW18103   5.365   0.903   2.009
 5735SOL    HW118104   5.289   0.950   2.054
 5735SOL    HW218105   5.331   0.855   1.928
 5736SOL     OW18106   6.113   4.267   6.523
 5736SOL    HW118107   6.185   4.203   6.552
 5736SOL    HW218108   6.156   4.346   6.479
 5737SOL     OW18109   4.932   5.662   2.085
 5737SOL    HW118110   5.011   5.615   2.124
 5737SOL    HW218111   4.921   5.751   2.129
 5738SOL     OW18112   2.194   0.513   0.998
 5738SOL    HW118113   2.189   0.480   1.093
 5738SOL    HW218114   2.272   0.470   0.952
 5739SOL     OW18115   2.297   1.069   5.833
 5739SOL    HW118116   2.259   1.055   5.924
 5739SOL    HW218117   2.396   1.084   5.841
 5740SOL     OW18118   4.853   3.426   2.851
 5740SOL    HW118119   4.880   3.333   2.824
 5740SOL    HW218120   4.868   3.437   2.950
 5741SOL     OW18121   1.365   3.794   4.175
 5741SOL    HW118122   1.308   3.807   4.094
 5741SOL    HW218123   1.452   3.842   4.163
 5742SOL     OW18124   5.976   6.929   3.281
 5742SOL    HW118125   6.076   6.932   3.287
 5742SOL    HW218126   5.946   6.834   3.287
 5743SOL     OW18127   3.493   5.627   0.153
 5743SOL    HW118128   3.582   5.591   0.181
 5743SOL    HW218129   3.429   5.552   0.141
 5744SOL     OW18130   5.231   6.236   3.411
 5744SOL    HW118131   5.246   6.289   3.327
 5744SOL    HW218132   5.265   6.143   3.397
 5745SOL     OW18133   1.001   3.151   1.952
 5745SOL    HW118134   1.027   3.218   2.022
 5745SOL    HW218135   1.052   3.066   1.967
 5746SOL     OW18136   5.298   0.085   2.729
 5746SOL    HW118137   5.390   0.061   2.700
 5746SOL    HW218138   5.296   0.097   2.828
 5747SOL     OW18139   1.540   6.812   1.237
 5747SOL    HW118140   1.444   6.788   1.227
 5747SOL    HW218141   1.579   6.762   1.314
 5748SOL     OW18142   6.782   6.132   0.542
 5748SOL    HW118143   6.782   6.222   0.500
 5748SOL    HW218144   6.779   6.141   0.642
 5749SOL     OW18145   2.005   5.726   6.306
 5749SOL    HW118146   2.090   5.734   6.357
 5749SOL    HW218147   2.023   5.687   6.216
 5750SOL     OW18148   0.015   3.008   4.278
 5750SOL    HW118149   0.030   3.105   4.258
 5750SOL    HW218150   6.952   2.977   4.232
 5751SOL     OW18151   0.958   3.995   4.610
 5751SOL    HW118152   1.044   3.951   4.631
 5751SOL    HW218153   0.921   4.040   4.692
 5752SOL     OW18154   5.299   0.958   0.240
 5752SOL    HW118155   5.370   0.992   0.178
 5752SOL    HW218156   5.335   0.958   0.334
 5753SOL     OW18157   3.422   4.099   4.399
 5753SOL    HW118158   3.458   4.006   4.401
 5753SOL    HW218159   3.409   4.131   4.493
 5754SOL     OW18160   0.281   5.833   1.416
 5754SOL    HW118161   0.221   5.897   1.465
 5754SOL    HW218162   0.226   5.762   1.373
 5755SOL     OW18163   0.936   3.455   6.448
 5755SOL    HW118164   0.959   3.533   6.507
 5755SOL    HW218165   1.020   3.417   6.409
 5756SOL     OW18166   6.031   5.864   1.804
 5756SOL    HW118167   6.074   5.794   1.860
 5756SOL    HW218168   6.092   5.889   1.729
 5757SOL     OW18169   0.017   1.169   3.920
 5757SOL    HW118170   0.048   1.195   4.012
 5757SOL    HW218171   0.076   1.098   3.883
 5758SOL     OW18172   5.965   6.511   2.888
 5758SOL    HW118173   5.911   6.543   2.966
 5758SOL    HW218174   5.909   6.512   2.805
 5759SOL     OW18175   3.406   0.148   1.767
 5759SOL    HW118176   3.422   0.130   1.670
 5759SOL    HW218177   3.492   0.170   1.812
 5760SOL     OW18178   1.635   2.717   0.432
 5760SOL    HW118179   1.609   2.759   0.345
 5760SOL    HW218180   1.568   2.647   0.457
 5761SOL     OW18181   6.523   0.049   4.772
 5761SOL    HW118182   6.551   0.144   4.757
 5761SOL    HW218183   6.583   7.008   4.721
 5762SOL     OW18184   0.732   5.636   6.436
 5762SOL    HW118185   0.714   5.613   6.340
 5762SOL    HW218186   0.702   5.729   6.454
 5763SOL     OW18187   5.538   0.366   0.529
 5763SOL    HW118188   5.545   0.283   0.473
 5763SOL    HW218189   5.443   0.380   0.556
 5764SOL     OW18190   4.392   6.243   3.887
 5764SOL    HW118191   4.359   6.214   3.976
 5764SOL    HW218192   4.456   6.319   3.898
 5765SOL     OW18193   6.382   4.907   2.401
 5765SOL    HW118194   6.481   4.915   2.407
 5765SOL    HW218195   6.350   4.840   2.468
 5766SOL     OW18196   0.384   1.260   4.226
 5766SOL    HW118197   0.292   1.279   4.192
 5766SOL    HW218198   0.380   1.187   4.295
 5767SOL     OW18199   4.016   6.783   6.952
 5767SOL    HW118200   4.034   6.867   7.002
 5767SOL    HW218201   3.947   6.729   7.001
 5768SOL     OW18202   0.968   1.160   5.179
 5768SOL    HW118203   1.005   1.178   5.270
 5768SOL    HW218204   0.926   1.069   5.178
 5769SOL     OW18205   1.578   3.721   5.489
 5769SOL    HW118206   1.667   3.725   5.535
 5769SOL    HW218207   1.549   3.813   5.464
 5770SOL     OW18208   2.023   3.966   1.966
 5770SOL    HW118209   1.929   3.962   1.933
 5770SOL    HW218210   2.035   4.047   2.024
 5771SOL     OW18211   3.501   5.196   3.981
 5771SOL    HW118212   3.587   5.173   3.936
 5771SOL    HW218213   3.520   5.238   4.070
 5772SOL     OW18214   3.234   6.637   2.494
 5772SOL    HW118215   3.214   6.732   2.470
 5772SOL    HW218216   3.217   6.623   2.591
 5773SOL     OW18217   5.728   1.066   2.485
 5773SOL    HW118218   5.760   0.992   2.545
 5773SOL    HW218219   5.700   1.027   2.397
 5774SOL     OW18220   0.722   6.512   2.501
 5774SOL    HW118221   0.797   6.472   2.448
 5774SOL    HW218222   0.754   6.596   2.546
 5775SOL     OW18223   6.409   5.031   1.573
 5775SOL    HW118224   6.328   4.988   1.533
 5775SOL    HW218225   6.439   5.107   1.515
 5776SOL     OW18226   2.317   0.856   3.977
 5776SOL    HW118227   2.285   0.950   3.988
 5776SOL    HW218228   2.416   0.853   3.991
 5777SOL     OW18229   1.831   0.042   1.849
 5777SOL    HW118230   1.743   0.010   1.881
 5777SOL    HW218231   1.818   0.120   1.786
 5778SOL     OW18232   0.399   0.892   0.842
 5778SOL    HW118233   0.496   0.896   0.817
 5778SOL    HW218234   0.342   0.901   0.761
 5779SOL     OW18235   6.021   0.986   6.108
 5779SOL    HW118236   5.935   0.961   6.153
 5779SOL    HW218237   6.001   1.020   6.015
 5780SOL     OW18238   5.447   5.036   4.016
 5780SOL    HW118239   5.375   4.966   4.015
 5780SOL    HW218240   5.465   5.063   4.111
 5781SOL     OW18241   1.452   5.587   5.892
 5781SOL    HW118242   1.493   5.584   5.801
 5781SOL    HW218243   1.524   5.596   5.961
 5782SOL     OW18244   0.734   0.475   0.239
 5782SOL    HW118245   0.679   0.412   0.186
 5782SOL    HW218246   0.791   0.530   0.178
 5783SOL     OW18247   2.424   2.734   0.546
 5783SOL    HW118248   2.437   2.643   0.585
 5783SOL    HW218249   2.376   2.726   0.459
 5784SOL     OW18250   6.753   6.100   6.774
 5784SOL    HW118251   6.844   6.142   6.774
 5784SOL    HW218252   6.739   6.050   6.689
 5785SOL     OW18253   1.036   1.350   0.558
 5785SOL    HW118254   1.046   1.294   0.641
 5785SOL    HW218255   1.055   1.446   0.581
 5786SOL     OW18256   5.808   5.312   1.598
 5786SOL    HW118257   5.783   5.251   1.673
 5786SOL    HW218258   5.733   5.376   1.581
 5787SOL     OW18259   2.448   2.698   6.554
 5787SOL    HW118260   2.468   2.668   6.647
 5787SOL    HW218261   2.356   2.738   6.550
 5788SOL     OW18262   2.921   0.479   3.290
 5788SOL    HW118263   2.838   0.492   3.235
 5788SOL    HW218264   2.914   0.534   3.373
 5789SOL     OW18265   3.509   4.672   6.139
 5789SOL    HW118266   3.473   4.588   6.100
 5789SOL    HW218267   3.605   4.658   6.165
 5790SOL     OW18268   1.375   3.379   3.238
 5790SOL    HW118269   1.366   3.291   3.191
 5790SOL    HW218270   1.320   3.448   3.190
 5791SOL     OW18271   1.764   0.834   2.758
 5791SOL    HW118272   1.834   0.829   2.829
 5791SOL    HW218273   1.702   0.757   2.766
 5792SOL     OW18274   6.627   2.643   2.561
 5792SOL    HW118275   6.723   2.643   2.592
 5792SOL    HW218276   6.618   2.700   2.480
 5793SOL     OW18277   0.296   0.884   3.956
 5793SOL    HW118278   0.280   0.787   3.976
 5793SOL    HW218279   0.239   0.912   3.879
 5794SOL     OW18280   5.277   4.629   6.165
 5794SOL    HW118281   5.254   4.546   6.113
 5794SOL    HW218282   5.355   4.610   6.224
 5795SOL     OW18283   5.680   4.223   6.691
 5795SOL    HW118284   5.656   4.255   6.600
 5795SOL    HW218285   5.597   4.210   6.745
 5796SOL     OW18286   3.622   2.287   0.756
 5796SOL    HW118287   3.573   2.214   0.709
 5796SOL    HW218288   3.589   2.376   0.724
 5797SOL     OW18289   3.448   2.968   6.065
 5797SOL    HW118290   3.537   3.001   6.034
 5797SOL    HW218291   3.434   2.994   6.160
 5798SOL     OW18292   6.573   5.586   4.239
 5798SOL    HW118293   6.629   5.551   4.314
 5798SOL    HW218294   6.630   5.599   4.158
 5799SOL     OW18295   5.310   0.624   3.635
 5799SOL    HW118296   5.366   0.542   3.642
 5799SOL    HW218297   5.298   0.664   3.726
 5800SOL     OW18298   5.858   5.067   0.529
 5800SOL    HW118299   5.881   5.015   0.611
 5800SOL    HW218300   5.759   5.079   0.524
 5801SOL     OW18301   2.557   0.889   2.888
 5801SOL    HW118302   2.529   0.916   2.795
 5801SOL    HW218303   2.592   0.969   2.936
 5802SOL     OW18304   0.382   2.490   4.786
 5802SOL    HW118305   0.371   2.464   4.882
 5802SOL    HW218306   0.366   2.588   4.777
 5803SOL     OW18307   2.069   4.531   0.485
 5803SOL    HW118308   1.971   4.551   0.488
 5803SOL    HW218309   2.104   4.549   0.393
 5804SOL     OW18310   6.300   3.265   5.425
 5804SOL    HW118311   6.399   3.268   5.441
 5804SOL    HW218312   6.257   3.210   5.496
 5805SOL     OW18313   5.792   3.040   6.682
 5805SOL    HW118314   5.706   3.081   6.651
 5805SOL    HW218315   5.780   3.004   6.774
 5806SOL     OW18316   0.342   6.943   0.102
 5806SOL    HW118317   0.409   6.878   0.141
 5806SOL    HW218318   0.384   0.013   0.094
 5807SOL     OW18319   2.141   3.747   1.831
 5807SOL    HW118320   2.119   3.825   1.890
 5807SOL    HW218321   2.159   3.667   1.888
 5808SOL     OW18322   6.500   2.806   3.374
 5808SOL    HW118323   6.585   2.794   3.323
 5808SOL    HW218324   6.433   2.738   3.343
 5809SOL     OW18325   6.683   3.208   4.023
 5809SOL    HW118326   6.616   3.205   3.950
 5809SOL    HW218327   6.639   3.238   4.108
 5810SOL     OW18328   2.680   2.367   2.618
 5810SOL    HW118329   2.610   2.297   2.603
 5810SOL    HW218330   2.730   2.383   2.533
 5811SOL     OW18331   2.474   1.302   3.177
 5811SOL    HW118332   2.387   1.266   3.144
 5811SOL    HW218333   2.491   1.391   3.133
 5812SOL     OW18334   4.092   0.581   4.745
 5812SOL    HW118335   4.134   0.490   4.740
 5812SOL    HW218336   3.993   0.572   4.743
 5813SOL     OW18337   1.525   1.223   5.475
 5813SOL    HW118338   1.569   1.135   5.494
 5813SOL    HW218339   1.586   1.280   5.421
 5814SOL     OW18340   0.432   5.247   1.105
 5814SOL    HW118341   0.469   5.186   1.035
 5814SOL    HW218342   0.498   5.256   1.180
 5815SOL     OW18343   3.622   1.331   3.334
 5815SOL    HW118344   3.589   1.373   3.250
 5815SOL    HW218345   3.555   1.344   3.407
 5816SOL     OW18346   4.803   6.608   1.097
 5816SOL    HW118347   4.812   6.706   1.080
 5816SOL    HW218348   4.845   6.557   1.022
 5817SOL     OW18349   5.053   1.966   5.200
 5817SOL    HW118350   5.025   1.893   5.262
 5817SOL    HW218351   5.139   1.942   5.156
 5818SOL     OW18352   6.033   6.003   6.053
 5818SOL    HW118353   6.122   6.010   6.097
 5818SOL    HW218354   6.040   5.945   5.972
 5819SOL     OW18355   5.970   0.414   0.756
 5819SOL    HW118356   6.035   0.432   0.682
 5819SOL    HW218357   5.974   0.317   0.780
 5820SOL     OW18358   6.246   6.084   3.123
 5820SOL    HW118359   6.198   6.091   3.210
 5820SOL    HW218360   6.257   6.175   3.083
 5821SOL     OW18361   3.795   0.414   1.597
 5821SOL    HW118362   3.884   0.371   1.603
 5821SOL    HW218363   3.729   0.350   1.558
 5822SOL     OW18364   0.391   1.397   2.535
 5822SOL    HW118365   0.299   1.426   2.562
 5822SOL    HW218366   0.428   1.463   2.469
 5823SOL     OW18367   2.502   2.575   4.346
 5823SOL    HW118368   2.520   2.609   4.254
 5823SOL    HW218369   2.405   2.552   4.355
 5824SOL     OW18370   4.453   0.586   3.522
 5824SOL    HW118371   4.436   0.677   3.484
 5824SOL    HW218372   4.418   0.583   3.616
 5825SOL     OW18373   2.717   0.886   0.597
 5825SOL    HW118374   2.774   0.811   0.565
 5825SOL    HW218375   2.725   0.963   0.533
 5826SOL     OW18376   6.209   0.932   4.838
 5826SOL    HW118377   6.256   1.019   4.823
 5826SOL    HW218378   6.159   0.907   4.755
 5827SOL     OW18379   1.146   5.220   5.552
 5827SOL    HW118380   1.083   5.298   5.561
 5827SOL    HW218381   1.094   5.138   5.531
 5828SOL     OW18382   6.928   3.233   1.750
 5828SOL    HW118383   6.911   3.152   1.806
 5828SOL    HW218384   0.006   3.246   1.739
 5829SOL     OW18385   1.740   1.106   1.975
 5829SOL    HW118386   1.743   1.012   2.011
 5829SOL    HW218387   1.701   1.167   2.044
 5830SOL     OW18388   1.920   1.250   5.667
 5830SOL    HW118389   2.013   1.258   5.630
 5830SOL    HW218390   1.910   1.161   5.711
 5831SOL     OW18391   5.736   6.268   3.015
 5831SOL    HW118392   5.749   6.265   2.916
 5831SOL    HW218393   5.825   6.266   3.061
 5832SOL     OW18394   3.628   3.763   5.057
 5832SOL    HW118395   3.608   3.710   4.975
 5832SOL    HW218396   3.708   3.821   5.042
 5833SOL     OW18397   3.687   3.226   4.631
 5833SOL    HW118398   3.760   3.259   4.571
 5833SOL    HW218399   3.603   3.215   4.579
 5834SOL     OW18400   6.137   0.642   0.316
 5834SOL    HW118401   6.182   0.732   0.322
 5834SOL    HW218402   6.182   0.578   0.378
 5835SOL     OW18403   5.106   2.414   4.118
 5835SOL    HW118404   5.197   2.453   4.103
 5835SOL    HW218405   5.096   2.386   4.213
 5836SOL     OW18406   3.470   6.137   2.439
 5836SOL    HW118407   3.409   6.168   2.366
 5836SOL    HW218408   3.475   6.038   2.439
 5837SOL     OW18409   5.107   4.737   6.342
 5837SOL    HW118410   5.158   4.821   6.361
 5837SOL    HW218411   5.157   4.683   6.274
 5838SOL     OW18412   0.576   1.936   5.577
 5838SOL    HW118413   0.579   2.029   5.615
 5838SOL    HW218414   0.561   1.870   5.651
 5839SOL     OW18415   0.067   3.104   2.523
 5839SOL    HW118416   0.154   3.072   2.487
 5839SOL    HW218417   0.038   3.044   2.598
 5840SOL     OW18418   2.063   5.177   6.817
 5840SOL    HW118419   2.017   5.102   6.770
 5840SOL    HW218420   2.140   5.210   6.762
 5841SOL     OW18421   6.789   2.447   2.835
 5841SOL    HW118422   6.710   2.487   2.881
 5841SOL    HW218423   6.838   2.388   2.900
 5842SOL     OW18424   4.149   3.005   0.484
 5842SOL    HW118425   4.056   2.986   0.514
 5842SOL    HW218426   4.155   2.995   0.385
 5843SOL     OW18427   1.244   3.037   1.697
 5843SOL    HW118428   1.169   2.973   1.711
 5843SOL    HW218429   1.321   3.012   1.757
 5844SOL     OW18430   1.078   6.226   0.492
 5844SOL    HW118431   1.151   6.277   0.538
 5844SOL    HW218432   1.083   6.243   0.393
 5845SOL     OW18433   1.217   2.042   4.729
 5845SOL    HW118434   1.252   1.958   4.687
 5845SOL    HW218435   1.127   2.024   4.768
 5846SOL     OW18436   0.063   3.205   6.434
 5846SOL    HW118437   0.109   3.195   6.523
 5846SOL    HW218438   0.106   3.279   6.383
 5847SOL     OW18439   2.013   2.585   3.396
 5847SOL    HW118440   2.060   2.672   3.380
 5847SOL    HW218441   2.069   2.528   3.457
 5848SOL     OW18442   1.205   5.047   3.855
 5848SOL    HW118443   1.175   4.956   3.881
 5848SOL    HW218444   1.278   5.078   3.917
 5849SOL     OW18445   3.280   6.932   5.889
 5849SOL    HW118446   3.268   0.005   5.854
 5849SOL    HW218447   3.368   6.896   5.856
 5850SOL     OW18448   0.836   4.246   2.983
 5850SOL    HW118449   0.887   4.223   3.066
 5850SOL    HW218450   0.750   4.193   2.982
 5851SOL     OW18451   5.782   3.216   2.404
 5851SOL    HW118452   5.819   3.303   2.373
 5851SOL    HW218453   5.712   3.184   2.339
 5852SOL     OW18454   3.617   5.722   2.828
 5852SOL    HW118455   3.636   5.820   2.836
 5852SOL    HW218456   3.567   5.691   2.908
 5853SOL     OW18457   3.761   3.873   5.739
 5853SOL    HW118458   3.750   3.853   5.836
 5853SOL    HW218459   3.676   3.850   5.691
 5854SOL     OW18460   0.291   1.089   6.514
 5854SOL    HW118461   0.369   1.027   6.507
 5854SOL    HW218462   0.261   1.094   6.610
 5855SOL     OW18463   1.537   0.901   4.793
 5855SOL    HW118464   1.484   0.870   4.872
 5855SOL    HW218465   1.556   0.823   4.733
 5856SOL     OW18466   2.069   5.050   3.865
 5856SOL    HW118467   2.032   5.064   3.773
 5856SOL    HW218468   2.097   4.955   3.875
 5857SOL     OW18469   0.030   2.742   6.158
 5857SOL    HW118470   0.009   2.666   6.096
 5857SOL    HW218471   0.079   2.813   6.108
 5858SOL     OW18472   3.222   6.957   2.774
 5858SOL    HW118473   3.140   7.008   2.799
 5858SOL    HW218474   3.280   6.944   2.855
 5859SOL     OW18475   6.565   5.712   1.530
 5859SOL    HW118476   6.574   5.764   1.615
 5859SOL    HW218477   6.652   5.670   1.506
 5860SOL     OW18478   1.699   3.819   1.208
 5860SOL    HW118479   1.758   3.829   1.288
 5860SOL    HW218480   1.647   3.903   1.194
 5861SOL     OW18481   6.293   2.112   3.687
 5861SOL    HW118482   6.214   2.169   3.665
 5861SOL    HW218483   6.271   2.054   3.765
 5862SOL     OW18484   5.074   4.496   3.493
 5862SOL    HW118485   5.058   4.418   3.554
 5862SOL    HW218486   5.161   4.483   3.445
 5863SOL     OW18487   2.058   0.892   0.595
 5863SOL    HW118488   1.975   0.938   0.564
 5863SOL    HW218489   2.135   0.919   0.538
 5864SOL     OW18490   4.806   4.783   0.776
 5864SOL    HW118491   4.770   4.871   0.743
 5864SOL    HW218492   4.751   4.751   0.853
 5865SOL     OW18493   4.133   0.879   3.347
 5865SOL    HW118494   4.033   0.884   3.354
 5865SOL    HW218495   4.163   0.785   3.363
 5866SOL     OW18496   4.072   0.419   6.629
 5866SOL    HW118497   4.095   0.516   6.626
 5866SOL    HW218498   4.155   0.364   6.624
 5867SOL     OW18499   0.282   2.487   0.994
 5867SOL    HW118500   0.260   2.427   0.917
 5867SOL    HW218501   0.249   2.579   0.975
 5868SOL     OW18502   1.348   0.023   4.998
 5868SOL    HW118503   1.426   6.984   4.980
 5868SOL    HW218504   1.380   0.113   5.030
 5869SOL     OW18505   2.784   5.126   3.581
 5869SOL    HW118506   2.805   5.104   3.486
 5869SOL    HW218507   2.696   5.087   3.606
 5870SOL     OW18508   5.341   4.825   4.502
 5870SOL    HW118509   5.312   4.747   4.447
 5870SOL    HW218510   5.438   4.815   4.525
 5871SOL     OW18511   2.924   3.193   6.508
 5871SOL    HW118512   2.929   3.165   6.604
 5871SOL    HW218513   2.909   3.291   6.502
 5872SOL     OW18514   3.882   5.694   4.244
 5872SOL    HW118515   3.808   5.638   4.279
 5872SOL    HW218516   3.853   5.790   4.242
 5873SOL     OW18517   2.603   3.536   0.035
 5873SOL    HW118518   2.503   3.540   0.045
 5873SOL    HW218519   2.641   3.626   0.054
 5874SOL     OW18520   1.551   4.375   0.493
 5874SOL    HW118521   1.603   4.427   0.561
 5874SOL    HW218522   1.526   4.435   0.417
 5875SOL     OW18523   4.476   1.962   0.178
 5875SOL    HW118524   4.521   1.916   0.254
 5875SOL    HW218525   4.438   2.050   0.208
 5876SOL     OW18526   3.835   4.038   6.003
 5876SOL    HW118527   3.844   4.027   5.904
 5876SOL    HW218528   3.878   4.124   6.031
 5877SOL     OW18529   6.601   0.024   2.474
 5877SOL    HW118530   6.555   0.030   2.563
 5877SOL    HW218531   6.548   0.073   2.405
 5878SOL     OW18532   5.302   4.790   2.340
 5878SOL    HW118533   5.272   4.884   2.324
 5878SOL    HW218534   5.285   4.735   2.258
 5879SOL     OW18535   3.879   3.212   5.296
 5879SOL    HW118536   3.837   3.270   5.226
 5879SOL    HW218537   3.962   3.171   5.259
 5880SOL     OW18538   5.712   2.703   6.260
 5880SOL    HW118539   5.801   2.658   6.270
 5880SOL    HW218540   5.708   2.750   6.172
 5881SOL     OW18541   1.487   6.023   2.508
 5881SOL    HW118542   1.424   5.998   2.582
 5881SOL    HW218543   1.542   6.101   2.536
 5882SOL     OW18544   1.707   5.085   5.553
 5882SOL    HW118545   1.679   4.994   5.521
 5882SOL    HW218546   1.802   5.082   5.584
 5883SOL     OW18547   6.647   4.563   6.946
 5883SOL    HW118548   6.597   4.650   6.947
 5883SOL    HW218549   6.722   4.567   7.012
 5884SOL     OW18550   6.730   1.693   2.602
 5884SOL    HW118551   6.659   1.714   2.668
 5884SOL    HW218552   6.691   1.638   2.528
 5885SOL     OW18553   6.697   5.467   0.659
 5885SOL    HW118554   6.618   5.428   0.610
 5885SOL    HW218555   6.696   5.436   0.754
 5886SOL     OW18556   1.978   4.085   3.522
 5886SOL    HW118557   2.038   4.005   3.513
 5886SOL    HW218558   1.890   4.056   3.559
 5887SOL     OW18559   2.300   2.856   0.761
 5887SOL    HW118560   2.352   2.807   0.690
 5887SOL    HW218561   2.343   2.840   0.850
 5888SOL     OW18562   3.070   6.409   1.779
 5888SOL    HW118563   2.991   6.350   1.762
 5888SOL    HW218564   3.042   6.490   1.829
 5889SOL     OW18565   6.026   1.174   2.036
 5889SOL    HW118566   5.981   1.127   2.112
 5889SOL    HW218567   5.969   1.169   1.955
 5890SOL     OW18568   1.850   5.502   3.106
 5890SOL    HW118569   1.919   5.439   3.144
 5890SOL    HW218570   1.759   5.464   3.122
 5891SOL     OW18571   2.434   3.609   6.601
 5891SOL    HW118572   2.350   3.630   6.652
 5891SOL    HW218573   2.410   3.566   6.515
 5892SOL     OW18574   0.823   3.109   0.147
 5892SOL    HW118575   0.760   3.077   0.218
 5892SOL    HW218576   0.893   3.039   0.131
 5893SOL     OW18577   0.691   6.526   0.746
 5893SOL    HW118578   0.658   6.619   0.760
 5893SOL    HW218579   0.788   6.530   0.720
 5894SOL     OW18580   2.291   5.583   6.688
 5894SOL    HW118581   2.379   5.606   6.729
 5894SOL    HW218582   2.247   5.666   6.653
 5895SOL     OW18583   5.144   3.988   3.344
 5895SOL    HW118584   5.124   3.890   3.343
 5895SOL    HW218585   5.238   4.003   3.375
 5896SOL     OW18586   5.707   2.801   2.220
 5896SOL    HW118587   5.688   2.899   2.226
 5896SOL    HW218588   5.622   2.750   2.234
 5897SOL     OW18589   3.604   2.115   0.420
 5897SOL    HW118590   3.629   2.020   0.405
 5897SOL    HW218591   3.553   2.123   0.506
 5898SOL     OW18592   1.836   1.458   6.499
 5898SOL    HW118593   1.902   1.458   6.424
 5898SOL    HW218594   1.840   1.371   6.547
 5899SOL     OW18595   0.334   6.502   6.327
 5899SOL    HW118596   0.304   6.414   6.362
 5899SOL    HW218597   0.273   6.574   6.361
 5900SOL     OW18598   5.801   6.562   3.109
 5900SOL    HW118599   5.782   6.467   3.135
 5900SOL    HW218600   5.853   6.607   3.181
 5901SOL     OW18601   2.203   0.983   4.841
 5901SOL    HW118602   2.214   0.921   4.763
 5901SOL    HW218603   2.128   0.951   4.898
 5902SOL     OW18604   4.623   3.520   5.762
 5902SOL    HW118605   4.718   3.510   5.733
 5902SOL    HW218606   4.563   3.474   5.696
 5903SOL     OW18607   6.437   1.862   5.252
 5903SOL    HW118608   6.401   1.909   5.172
 5903SOL    HW218609   6.526   1.902   5.276
 5904SOL     OW18610   0.641   4.949   1.782
 5904SOL    HW118611   0.739   4.968   1.781
 5904SOL    HW218612   0.626   4.853   1.808
 5905SOL     OW18613   6.044   1.860   4.300
 5905SOL    HW118614   6.053   1.936   4.235
 5905SOL    HW218615   6.001   1.782   4.256
 5906SOL     OW18616   4.394   1.158   5.736
 5906SOL    HW118617   4.318   1.093   5.729
 5906SOL    HW218618   4.369   1.231   5.799
 5907SOL     OW18619   1.530   3.977   5.384
 5907SOL    HW118620   1.432   3.987   5.405
 5907SOL    HW218621   1.553   4.035   5.306
 5908SOL     OW18622   4.578   3.805   6.364
 5908SOL    HW118623   4.643   3.849   6.426
 5908SOL    HW218624   4.501   3.867   6.347
 5909SOL     OW18625   6.470   4.871   3.770
 5909SOL    HW118626   6.433   4.963   3.760
 5909SOL    HW218627   6.395   4.805   3.765
 5910SOL     OW18628   3.457   4.875   0.941
 5910SOL    HW118629   3.414   4.865   1.031
 5910SOL    HW218630   3.429   4.799   0.882
 5911SOL     OW18631   5.828   6.443   0.087
 5911SOL    HW118632   5.921   6.408   0.079
 5911SOL    HW218633   5.813   6.475   0.181
 5912SOL     OW18634   0.685   3.455   5.099
 5912SOL    HW118635   0.684   3.441   4.999
 5912SOL    HW218636   0.755   3.397   5.140
 5913SOL     OW18637   1.542   1.973   5.116
 5913SOL    HW118638   1.615   1.928   5.167
 5913SOL    HW218639   1.459   1.975   5.170
 5914SOL     OW18640   1.686   5.633   0.566
 5914SOL    HW118641   1.621   5.559   0.582
 5914SOL    HW218642   1.773   5.609   0.610
 5915SOL     OW18643   5.307   3.093   4.122
 5915SOL    HW118644   5.336   3.077   4.028
 5915SOL    HW218645   5.386   3.087   4.183
 5916SOL     OW18646   3.173   0.085   6.217
 5916SOL    HW118647   3.209   0.178   6.219
 5916SOL    HW218648   3.221   0.029   6.284
 5917SOL     OW18649   3.581   4.030   2.683
 5917SOL    HW118650   3.524   4.065   2.609
 5917SOL    HW218651   3.544   3.942   2.714
 5918SOL     OW18652   2.512   2.549   3.698
 5918SOL    HW118653   2.574   2.515   3.628
 5918SOL    HW218654   2.554   2.537   3.788
 5919SOL     OW18655   1.298   2.270   6.894
 5919SOL    HW118656   1.335   2.333   6.825
 5919SOL    HW218657   1.340   2.180   6.882
 5920SOL     OW18658   2.825   5.563   0.112
 5920SOL    HW118659   2.810   5.472   0.151
 5920SOL    HW218660   2.891   5.613   0.168
 5921SOL     OW18661   3.818   5.237   5.658
 5921SOL    HW118662   3.739   5.248   5.597
 5921SOL    HW218663   3.846   5.327   5.692
 5922SOL     OW18664   6.179   4.164   1.779
 5922SOL    HW118665   6.175   4.242   1.842
 5922SOL    HW218666   6.095   4.160   1.725
 5923SOL     OW18667   7.008   0.744   3.801
 5923SOL    HW118668   6.998   0.779   3.894
 5923SOL    HW218669   6.951   0.799   3.739
 5924SOL     OW18670   5.946   1.714   4.911
 5924SOL    HW118671   6.037   1.687   4.881
 5924SOL    HW218672   5.892   1.743   4.831
 5925SOL     OW18673   6.298   5.526   0.927
 5925SOL    HW118674   6.204   5.548   0.901
 5925SOL    HW218675   6.349   5.496   0.847
 5926SOL     OW18676   3.602   4.893   2.220
 5926SOL    HW118677   3.621   4.989   2.199
 5926SOL    HW218678   3.601   4.840   2.136
 5927SOL     OW18679   2.359   5.119   2.346
 5927SOL    HW118680   2.427   5.144   2.415
 5927SOL    HW218681   2.399   5.055   2.281
 5928SOL     OW18682   0.822   6.395   1.618
 5928SOL    HW118683   0.739   6.440   1.651
 5928SOL    HW218684   0.814   6.296   1.633
 5929SOL     OW18685   1.371   6.953   5.688
 5929SOL    HW118686   1.421   6.974   5.604
 5929SOL    HW218687   1.406   6.868   5.727
 5930SOL     OW18688   6.733   1.097   5.178
 5930SOL    HW118689   6.727   1.001   5.150
 5930SOL    HW218690   6.652   1.146   5.147
 5931SOL     OW18691   5.978   5.266   1.370
 5931SOL    HW118692   5.926   5.268   1.455
 5931SOL    HW218693   6.029   5.351   1.359
 5932SOL     OW18694   2.274   7.013   0.019
 5932SOL    HW118695   2.237   0.012   0.110
 5932SOL    HW218696   2.231   0.053   6.972
 5933SOL     OW18697   6.175   3.746   2.628
 5933SOL    HW118698   6.091   3.793   2.655
 5933SOL    HW218699   6.242   3.755   2.701
 5934SOL     OW18700   2.903   3.685   2.241
 5934SOL    HW118701   2.906   3.714   2.337
 5934SOL    HW218702   2.833   3.737   2.193
 5935SOL     OW18703   4.112   3.542   2.979
 5935SOL    HW118704   4.155   3.554   3.068
 5935SOL    HW218705   4.051   3.463   2.982
 5936SOL     OW18706   5.781   6.099   6.089
 5936SOL    HW118707   5.771   6.188   6.045
 5936SOL    HW218708   5.877   6.071   6.088
 5937SOL     OW18709   1.116   4.102   0.078
 5937SOL    HW118710   1.191   4.143   0.027
 5937SOL    HW218711   1.152   4.039   0.147
 5938SOL     OW18712   1.912   4.241   1.252
 5938SOL    HW118713   1.916   4.188   1.336
 5938SOL    HW218714   1.847   4.317   1.263
 5939SOL     OW18715   2.444   1.288   2.689
 5939SOL    HW118716   2.538   1.320   2.686
 5939SOL    HW218717   2.405   1.306   2.780
 5940SOL     OW18718   3.966   5.125   3.620
 5940SOL    HW118719   3.899   5.185   3.664
 5940SOL    HW218720   3.983   5.157   3.527
 5941SOL     OW18721   6.633   4.118   2.626
 5941SOL    HW118722   6.694   4.039   2.625
 5941SOL    HW218723   6.625   4.156   2.533
 5942SOL     OW18724   6.282   2.040   5.094
 5942SOL    HW118725   6.201   2.002   5.050
 5942SOL    HW218726   6.278   2.140   5.092
 5943SOL     OW18727   0.772   5.050   0.447
 5943SOL    HW118728   0.757   4.951   0.441
 5943SOL    HW218729   0.743   5.093   0.361
 5944SOL     OW18730   4.733   2.073   3.026
 5944SOL    HW118731   4.740   2.048   2.929
 5944SOL    HW218732   4.676   2.154   3.035
 5945SOL     OW18733   6.930   4.999   5.825
 5945SOL    HW118734   6.938   4.942   5.907
 5945SOL    HW218735   0.000   5.029   5.796
 5946SOL     OW18736   3.921   2.802   5.244
 5946SOL    HW118737   3.910   2.876   5.178
 5946SOL    HW218738   3.996   2.742   5.214
 5947SOL     OW18739   4.253   3.932   1.434
 5947SOL    HW118740   4.318   3.927   1.358
 5947SOL    HW218741   4.265   3.852   1.493
 5948SOL     OW18742   3.605   5.517   3.263
 5948SOL    HW118743   3.520   5.480   3.300
 5948SOL    HW218744   3.631   5.468   3.180
 5949SOL     OW18745   4.585   4.470   2.508
 5949SOL    HW118746   4.597   4.516   2.597
 5949SOL    HW218747   4.661   4.406   2.494
 5950SOL     OW18748   6.697   2.280   3.615
 5950SOL    HW118749   6.692   2.250   3.519
 5950SOL    HW218750   6.604   2.290   3.651
 5951SOL     OW18751   2.045   6.411   4.059
 5951SOL    HW118752   2.134   6.449   4.084
 5951SOL    HW218753   1.973   6.456   4.112
 5952SOL     OW18754   6.874   6.918   4.878
 5952SOL    HW118755   6.853   6.991   4.812
 5952SOL    HW218756   6.940   6.950   4.945
 5953SOL     OW18757   0.397   3.239   6.179
 5953SOL    HW118758   0.453   3.245   6.262
 5953SOL    HW218759   0.334   3.317   6.176
 5954SOL     OW18760   1.171   4.916   6.582
 5954SOL    HW118761   1.072   4.926   6.572
 5954SOL    HW218762   1.194   4.914   6.679
 5955SOL     OW18763   4.953   5.396   2.984
 5955SOL    HW118764   4.927   5.378   3.079
 5955SOL    HW218765   4.870   5.406   2.928
 5956SOL     OW18766   6.303   2.334   6.685
 5956SOL    HW118767   6.222   2.278   6.671
 5956SOL    HW218768   6.328   2.334   6.782
 5957SOL     OW18769   4.783   6.688   5.510
 5957SOL    HW118770   4.685   6.703   5.522
 5957SOL    HW218771   4.816   6.743   5.433
 5958SOL     OW18772   0.938   5.449   2.551
 5958SOL    HW118773   0.935   5.526   2.488
 5958SOL    HW218774   1.032   5.417   2.560
 5959SOL     OW18775   1.641   1.286   6.664
 5959SOL    HW118776   1.591   1.231   6.598
 5959SOL    HW218777   1.687   1.225   6.730
 5960SOL     OW18778   3.345   6.936   4.890
 5960SOL    HW118779   3.434   6.965   4.856
 5960SOL    HW218780   3.277   7.007   4.872
 5961SOL     OW18781   2.723   1.087   6.170
 5961SOL    HW118782   2.672   1.048   6.247
 5961SOL    HW218783   2.787   1.156   6.204
 5962SOL     OW18784   5.370   5.570   2.775
 5962SOL    HW118785   5.460   5.613   2.772
 5962SOL    HW218786   5.353   5.520   2.690
 5963SOL     OW18787   3.942   3.887   1.943
 5963SOL    HW118788   3.990   3.955   1.888
 5963SOL    HW218789   3.922   3.924   2.033
 5964SOL     OW18790   1.160   4.207   5.862
 5964SOL    HW118791   1.111   4.189   5.777
 5964SOL    HW218792   1.213   4.291   5.853
 5965SOL     OW18793   2.274   1.578   4.194
 5965SOL    HW118794   2.322   1.526   4.123
 5965SOL    HW218795   2.334   1.651   4.228
 5966SOL     OW18796   1.610   6.567   4.338
 5966SOL    HW118797   1.533   6.534   4.392
 5966SOL    HW218798   1.592   6.556   4.241
 5967SOL     OW18799   4.575   6.801   1.941
 5967SOL    HW118800   4.576   6.702   1.932
 5967SOL    HW218801   4.627   6.842   1.867
 5968SOL     OW18802   0.523   2.066   4.231
 5968SOL    HW118803   0.539   2.144   4.291
 5968SOL    HW218804   0.527   2.096   4.135
 5969SOL     OW18805   5.936   3.383   2.996
 5969SOL    HW118806   5.938   3.291   3.036
 5969SOL    HW218807   5.857   3.391   2.935
 5970SOL     OW18808   2.242   3.058   3.974
 5970SOL    HW118809   2.158   3.006   3.962
 5970SOL    HW218810   2.286   3.034   4.061
 5971SOL     OW18811   2.347   7.004   2.901
 5971SOL    HW118812   2.442   0.012   2.910
 5971SOL    HW218813   2.311   0.015   2.813
 5972SOL     OW18814   4.766   6.671   1.549
 5972SOL    HW118815   4.725   6.619   1.624
 5972SOL    HW218816   4.776   6.612   1.469
 5973SOL     OW18817   0.763   4.788   3.708
 5973SOL    HW118818   0.824   4.845   3.655
 5973SOL    HW218819   0.797   4.780   3.802
 5974SOL     OW18820   1.013   4.082   6.446
 5974SOL    HW118821   1.039   4.175   6.473
 5974SOL    HW218822   1.050   4.017   6.513
 5975SOL     OW18823   1.836   3.301   7.000
 5975SOL    HW118824   1.885   3.291   0.067
 5975SOL    HW218825   1.795   3.392   6.995
 5976SOL     OW18826   3.538   3.509   4.551
 5976SOL    HW118827   3.532   3.420   4.506
 5976SOL    HW218828   3.627   3.549   4.533
 5977SOL     OW18829   1.037   3.297   3.125
 5977SOL    HW118830   1.024   3.306   3.224
 5977SOL    HW218831   1.098   3.369   3.092
 5978SOL     OW18832   5.353   5.369   3.005
 5978SOL    HW118833   5.293   5.388   3.082
 5978SOL    HW218834   5.366   5.451   2.950
 5979SOL     OW18835   0.743   0.964   2.717
 5979SOL    HW118836   0.774   0.997   2.807
 5979SOL    HW218837   0.644   0.980   2.709
 5980SOL     OW18838   6.091   3.644   5.978
 5980SOL    HW118839   6.061   3.549   5.977
 5980SOL    HW218840   6.074   3.684   6.068
 5981SOL     OW18841   3.918   1.891   1.117
 5981SOL    HW118842   3.996   1.906   1.056
 5981SOL    HW218843   3.884   1.979   1.149
 5982SOL     OW18844   5.917   2.539   6.472
 5982SOL    HW118845   6.016   2.523   6.471
 5982SOL    HW218846   5.874   2.487   6.398
 5983SOL     OW18847   1.088   1.491   4.751
 5983SOL    HW118848   1.180   1.454   4.741
 5983SOL    HW218849   1.021   1.417   4.735
 5984SOL     OW18850   0.665   6.953   5.635
 5984SOL    HW118851   0.713   7.006   5.706
 5984SOL    HW218852   0.598   7.012   5.589
 5985SOL     OW18853   4.907   3.320   4.426
 5985SOL    HW118854   4.982   3.349   4.485
 5985SOL    HW218855   4.820   3.352   4.464
 5986SOL     OW18856   3.998   3.257   2.143
 5986SOL    HW118857   4.083   3.309   2.138
 5986SOL    HW218858   3.938   3.298   2.212
 5987SOL     OW18859   4.281   6.941   5.577
 5987SOL    HW118860   4.216   6.866   5.567
 5987SOL    HW218861   4.333   6.952   5.492
 5988SOL     OW18862   3.995   0.623   4.178
 5988SOL    HW118863   3.930   0.568   4.126
 5988SOL    HW218864   4.040   0.689   4.117
 5989SOL     OW18865   2.658   0.937   6.392
 5989SOL    HW118866   2.757   0.953   6.396
 5989SOL    HW218867   2.616   0.982   6.471
 5990SOL     OW18868   3.160   5.235   2.152
 5990SOL    HW118869   3.157   5.136   2.168
 5990SOL    HW218870   3.236   5.256   2.091
 5991SOL     OW18871   3.451   5.400   3.774
 5991SOL    HW118872   3.388   5.329   3.741
 5991SOL    HW218873   3.483   5.375   3.865
 5992SOL     OW18874   4.358   1.581   4.397
 5992SOL    HW118875   4.337   1.648   4.468
 5992SOL    HW218876   4.281   1.573   4.334
 5993SOL     OW18877   3.674   5.514   3.967
 5993SOL    HW118878   3.716   5.439   4.017
 5993SOL    HW218879   3.733   5.541   3.891
 5994SOL     OW18880   6.673   2.674   1.834
 5994SOL    HW118881   6.653   2.771   1.847
 5994SOL    HW218882   6.591   2.628   1.798
 5995SOL     OW18883   0.508   4.563   1.243
 5995SOL    HW118884   0.491   4.596   1.151
 5995SOL    HW218885   0.458   4.621   1.309
 5996SOL     OW18886   0.816   5.367   6.132
 5996SOL    HW118887   0.883   5.380   6.058
 5996SOL    HW218888   0.864   5.357   6.219
 5997SOL     OW18889   0.770   0.358   1.738
 5997SOL    HW118890   0.857   0.309   1.747
 5997SOL    HW218891   0.734   0.344   1.645
 5998SOL     OW18892   4.198   1.989   3.669
 5998SOL    HW118893   4.278   1.953   3.717
 5998SOL    HW218894   4.132   1.915   3.653
 5999SOL     OW18895   2.337   2.155   3.080
 5999SOL    HW118896   2.314   2.086   3.012
 5999SOL    HW218897   2.255   2.179   3.133
 6000SOL     OW18898   4.604   6.659   2.874
 6000SOL    HW118899   4.563   6.624   2.958
 6000SOL    HW218900   4.692   6.701   2.896
 6001SOL     OW18901   6.250   1.718   0.100
 6001SOL    HW118902   6.172   1.708   0.161
 6001SOL    HW218903   6.318   1.778   0.143
 6002SOL     OW18904   1.838   0.054   2.166
 6002SOL    HW118905   1.773   0.121   2.130
 6002SOL    HW218906   1.930   0.076   2.133
 6003SOL     OW18907   5.005   4.087   3.913
 6003SOL    HW118908   4.962   3.997   3.913
 6003SOL    HW218909   5.004   4.124   3.820
 6004SOL     OW18910   0.276   3.614   1.464
 6004SOL    HW118911   0.219   3.533   1.480
 6004SOL    HW218912   0.338   3.626   1.542
 6005SOL     OW18913   2.647   5.814   2.395
 6005SOL    HW118914   2.713   5.829   2.322
 6005SOL    HW218915   2.693   5.821   2.484
 6006SOL     OW18916   2.557   5.490   6.809
 6006SOL    HW118917   2.508   5.440   6.880
 6006SOL    HW218918   2.616   5.559   6.851
 6007SOL     OW18919   5.400   2.428   4.160
 6007SOL    HW118920   5.457   2.451   4.239
 6007SOL    HW218921   5.348   2.345   4.180
 6008SOL     OW18922   4.271   5.153   6.988
 6008SOL    HW118923   4.217   5.069   6.990
 6008SOL    HW218924   4.358   5.139   0.016
 6009SOL     OW18925   3.308   1.622   4.081
 6009SOL    HW118926   3.280   1.597   4.173
 6009SOL    HW218927   3.254   1.700   4.049
 6010SOL     OW18928   1.495   2.995   3.802
 6010SOL    HW118929   1.559   3.040   3.739
 6010SOL    HW218930   1.498   3.040   3.891
 6011SOL     OW18931   0.068   2.862   2.225
 6011SOL    HW118932   0.047   2.959   2.227
 6011SOL    HW218933   7.004   2.810   2.208
 6012SOL     OW18934   0.171   3.103   1.043
 6012SOL    HW118935   0.248   3.055   1.085
 6012SOL    HW218936   0.086   3.060   1.071
 6013SOL     OW18937   6.057   0.506   2.529
 6013SOL    HW118938   6.123   0.553   2.469
 6013SOL    HW218939   5.989   0.572   2.560
 6014SOL     OW18940   5.384   0.456   1.246
 6014SOL    HW118941   5.336   0.370   1.264
 6014SOL    HW218942   5.470   0.457   1.297
 6015SOL     OW18943   5.006   1.481   4.810
 6015SOL    HW118944   5.002   1.460   4.907
 6015SOL    HW218945   4.989   1.579   4.796
 6016SOL     OW18946   1.733   6.939   5.472
 6016SOL    HW118947   1.642   6.981   5.471
 6016SOL    HW218948   1.802   7.011   5.464
 6017SOL     OW18949   6.812   3.911   2.678
 6017SOL    HW118950   6.865   3.934   2.760
 6017SOL    HW218951   6.851   3.831   2.634
 6018SOL     OW18952   2.641   5.427   0.737
 6018SOL    HW118953   2.713   5.457   0.801
 6018SOL    HW218954   2.675   5.435   0.643
 6019SOL     OW18955   5.334   6.683   3.692
 6019SOL    HW118956   5.274   6.615   3.736
 6019SOL    HW218957   5.358   6.651   3.601
 6020SOL     OW18958   3.046   0.307   2.263
 6020SOL    HW118959   3.059   0.399   2.300
 6020SOL    HW218960   2.984   0.256   2.322
 6021SOL     OW18961   4.352   0.709   3.091
 6021SOL    HW118962   4.278   0.673   3.033
 6021SOL    HW218963   4.428   0.645   3.091
 6022SOL     OW18964   3.791   1.131   6.135
 6022SOL    HW118965   3.853   1.053   6.124
 6022SOL    HW218966   3.697   1.098   6.140
 6023SOL     OW18967   0.459   2.018   2.474
 6023SOL    HW118968   0.486   2.052   2.565
 6023SOL    HW218969   0.362   2.035   2.460
 6024SOL     OW18970   0.632   5.488   2.261
 6024SOL    HW118971   0.676   5.413   2.212
 6024SOL    HW218972   0.604   5.558   2.195
 6025SOL     OW18973   3.962   2.169   2.365
 6025SOL    HW118974   3.884   2.137   2.311
 6025SOL    HW218975   4.000   2.252   2.323
 6026SOL     OW18976   0.990   4.588   5.592
 6026SOL    HW118977   0.940   4.564   5.509
 6026SOL    HW218978   1.082   4.618   5.569
 6027SOL     OW18979   3.195   3.337   0.865
 6027SOL    HW118980   3.198   3.427   0.821
 6027SOL    HW218981   3.102   3.316   0.893
 6028SOL     OW18982   1.238   4.538   6.778
 6028SOL    HW118983   1.213   4.603   6.849
 6028SOL    HW218984   1.262   4.587   6.695
 6029SOL     OW18985   1.489   5.219   1.642
 6029SOL    HW118986   1.462   5.299   1.694
 6029SOL    HW218987   1.586   5.200   1.658
 6030SOL     OW18988   1.888   6.826   1.574
 6030SOL    HW118989   1.830   6.803   1.652
 6030SOL    HW218990   1.969   6.875   1.607
 6031SOL     OW18991   5.600   6.983   4.784
 6031SOL    HW118992   5.667   6.957   4.854
 6031SOL    HW218993   5.606   0.061   4.766
 6032SOL     OW18994   0.260   3.703   2.919
 6032SOL    HW118995   0.321   3.735   2.847
 6032SOL    HW218996   0.299   3.623   2.964
 6033SOL     OW18997   0.453   0.592   4.515
 6033SOL    HW118998   0.439   0.588   4.614
 6033SOL    HW218999   0.504   0.511   4.485
 6034SOL     OW19000   2.234   4.089   4.746
 6034SOL    HW119001   2.316   4.092   4.690
 6034SOL    HW219002   2.260   4.080   4.842
 6035SOL     OW19003   5.766   0.569   4.177
 6035SOL    HW119004   5.756   0.664   4.146
 6035SOL    HW219005   5.792   0.569   4.274
 6036SOL     OW19006   0.710   1.212   3.971
 6036SOL    HW119007   0.685   1.169   4.057
 6036SOL    HW219008   0.632   1.262   3.934
 6037SOL     OW19009   6.705   5.756   4.924
 6037SOL    HW119010   6.733   5.680   4.984
 6037SOL    HW219011   6.640   5.723   4.856
 6038SOL     OW19012   5.238   4.336   6.074
 6038SOL    HW119013   5.287   4.317   5.989
 6038SOL    HW219014   5.282   4.286   6.149
 6039SOL     OW19015   3.567   3.256   3.599
 6039SOL    HW119016   3.623   3.272   3.681
 6039SOL    HW219017   3.589   3.326   3.530
 6040SOL     OW19018   1.326   1.594   0.369
 6040SOL    HW119019   1.382   1.552   0.298
 6040SOL    HW219020   1.239   1.623   0.330
 6041SOL     OW19021   0.660   2.832   0.241
 6041SOL    HW119022   0.612   2.854   0.157
 6041SOL    HW219023   0.647   2.906   0.308
 6042SOL     OW19024   5.706   5.084   4.582
 6042SOL    HW119025   5.675   4.992   4.558
 6042SOL    HW219026   5.760   5.081   4.665
 6043SOL     OW19027   0.355   4.841   4.135
 6043SOL    HW119028   0.443   4.883   4.109
 6043SOL    HW219029   0.356   4.745   4.109
 6044SOL     OW19030   1.148   0.781   1.432
 6044SOL    HW119031   1.242   0.791   1.401
 6044SOL    HW219032   1.111   0.871   1.457
 6045SOL     OW19033   0.235   3.423   0.708
 6045SOL    HW119034   0.209   3.404   0.613
 6045SOL    HW219035   0.331   3.399   0.721
 6046SOL     OW19036   2.644   3.240   0.446
 6046SOL    HW119037   2.554   3.214   0.410
 6046SOL    HW219038   2.655   3.203   0.538
 6047SOL     OW19039   0.549   6.326   4.714
 6047SOL    HW119040   0.560   6.388   4.636
 6047SOL    HW219041   0.530   6.379   4.797
 6048SOL     OW19042   4.919   6.051   5.201
 6048SOL    HW119043   4.823   6.073   5.180
 6048SOL    HW219044   4.963   6.131   5.241
 6049SOL     OW19045   6.345   5.413   1.167
 6049SOL    HW119046   6.273   5.428   1.234
 6049SOL    HW219047   6.327   5.466   1.084
 6050SOL     OW19048   5.094   4.467   5.448
 6050SOL    HW119049   5.097   4.382   5.395
 6050SOL    HW219050   5.174   4.523   5.424
 6051SOL     OW19051   2.387   2.242   3.525
 6051SOL    HW119052   2.434   2.323   3.490
 6051SOL    HW219053   2.290   2.262   3.537
 6052SOL     OW19054   6.558   1.193   0.490
 6052SOL    HW119055   6.636   1.252   0.508
 6052SOL    HW219056   6.579   1.100   0.518
 6053SOL     OW19057   1.990   0.318   6.009
 6053SOL    HW119058   2.062   0.386   5.996
 6053SOL    HW219059   1.985   0.292   6.105
 6054SOL     OW19060   2.505   4.549   6.746
 6054SOL    HW119061   2.510   4.649   6.750
 6054SOL    HW219062   2.594   4.510   6.773
 6055SOL     OW19063   5.067   0.820   3.964
 6055SOL    HW119064   5.068   0.784   4.057
 6055SOL    HW219065   4.980   0.866   3.947
 6056SOL     OW19066   5.168   3.086   6.663
 6056SOL    HW119067   5.245   3.025   6.681
 6056SOL    HW219068   5.083   3.040   6.686
 6057SOL     OW19069   2.918   0.481   6.298
 6057SOL    HW119070   2.866   0.403   6.334
 6057SOL    HW219071   2.876   0.566   6.329
 6058SOL     OW19072   5.551   1.450   4.025
 6058SOL    HW119073   5.464   1.420   4.064
 6058SOL    HW219074   5.625   1.391   4.058
 6059SOL     OW19075   6.706   6.083   6.383
 6059SOL    HW119076   6.675   6.178   6.392
 6059SOL    HW219077   6.647   6.023   6.438
 6060SOL     OW19078   3.388   6.441   6.327
 6060SOL    HW119079   3.323   6.482   6.392
 6060SOL    HW219080   3.431   6.513   6.273
 6061SOL     OW19081   1.968   1.774   6.365
 6061SOL    HW119082   1.876   1.739   6.346
 6061SOL    HW219083   1.964   1.837   6.443
 6062SOL     OW19084   1.669   0.341   4.466
 6062SOL    HW119085   1.724   0.424   4.454
 6062SOL    HW219086   1.575   0.359   4.437
 6063SOL     OW19087   4.798   6.803   0.255
 6063SOL    HW119088   4.805   6.792   0.155
 6063SOL    HW219089   4.869   6.865   0.287
 6064SOL     OW19090   0.501   5.688   3.722
 6064SOL    HW119091   0.599   5.683   3.740
 6064SOL    HW219092   0.451   5.654   3.801
 6065SOL     OW19093   6.207   6.894   0.773
 6065SOL    HW119094   6.196   6.814   0.714
 6065SOL    HW219095   6.281   6.877   0.839
 6066SOL     OW19096   4.239   2.227   6.664
 6066SOL    HW119097   4.205   2.318   6.687
 6066SOL    HW219098   4.281   2.186   6.744
 6067SOL     OW19099   5.685   2.083   6.833
 6067SOL    HW119100   5.685   2.137   6.749
 6067SOL    HW219101   5.642   2.135   6.906
 6068SOL     OW19102   4.973   2.168   4.995
 6068SOL    HW119103   4.973   2.262   5.028
 6068SOL    HW219104   5.011   2.108   5.066
 6069SOL     OW19105   6.087   3.980   4.150
 6069SOL    HW119106   6.089   3.973   4.050
 6069SOL    HW219107   6.100   3.890   4.190
 6070SOL     OW19108   3.665   2.661   0.038
 6070SOL    HW119109   3.763   2.640   0.035
 6070SOL    HW219110   3.652   2.760   0.041
 6071SOL     OW19111   4.653   6.232   5.423
 6071SOL    HW119112   4.748   6.259   5.433
 6071SOL    HW219113   4.605   6.298   5.364
 6072SOL     OW19114   6.920   1.838   0.797
 6072SOL    HW119115   6.893   1.847   0.893
 6072SOL    HW219116   6.992   1.769   0.789
 6073SOL     OW19117   6.549   1.942   1.217
 6073SOL    HW119118   6.606   1.980   1.290
 6073SOL    HW219119   6.488   2.014   1.182
 6074SOL     OW19120   0.749   0.436   4.763
 6074SOL    HW119121   0.756   0.369   4.689
 6074SOL    HW219122   0.774   0.392   4.849
 6075SOL     OW19123   4.671   4.293   6.742
 6075SOL    HW119124   4.635   4.204   6.770
 6075SOL    HW219125   4.762   4.306   6.781
 6076SOL     OW19126   2.231   6.906   3.674
 6076SOL    HW119127   2.181   6.991   3.694
 6076SOL    HW219128   2.175   6.828   3.701
 6077SOL     OW19129   5.631   5.541   2.572
 6077SOL    HW119130   5.602   5.451   2.538
 6077SOL    HW219131   5.721   5.533   2.615
 6078SOL     OW19132   2.364   4.768   3.449
 6078SOL    HW119133   2.292   4.799   3.511
 6078SOL    HW219134   2.379   4.670   3.460
 6079SOL     OW19135   2.056   1.313   0.543
 6079SOL    HW119136   1.976   1.371   0.558
 6079SOL    HW219137   2.070   1.255   0.623
 6080SOL     OW19138   5.904   2.055   2.883
 6080SOL    HW119139   5.906   2.033   2.981
 6080SOL    HW219140   5.877   1.974   2.832
 6081SOL     OW19141   0.650   3.684   2.604
 6081SOL    HW119142   0.657   3.587   2.626
 6081SOL    HW219143   0.719   3.735   2.656
 6082SOL     OW19144   3.647   1.838   4.423
 6082SOL    HW119145   3.741   1.808   4.437
 6082SOL    HW219146   3.646   1.931   4.386
 6083SOL     OW19147   1.964   6.920   0.564
 6083SOL    HW119148   2.047   6.871   0.538
 6083SOL    HW219149   1.886   6.857   0.559
 6084SOL     OW19150   0.190   4.927   6.178
 6084SOL    HW119151   0.267   4.864   6.182
 6084SOL    HW219152   0.194   4.990   6.256
 6085SOL     OW19153   4.980   4.323   1.510
 6085SOL    HW119154   4.915   4.389   1.545
 6085SOL    HW219155   4.978   4.324   1.410
 6086SOL     OW19156   2.543   1.768   3.337
 6086SOL    HW119157   2.526   1.715   3.420
 6086SOL    HW219158   2.621   1.829   3.352
 6087SOL     OW19159   4.124   6.995   0.454
 6087SOL    HW119160   4.201   6.947   0.495
 6087SOL    HW219161   4.127   0.071   0.481
 6088SOL     OW19162   6.890   0.171   5.568
 6088SOL    HW119163   6.990   0.174   5.563
 6088SOL    HW219164   6.851   0.213   5.486
 6089SOL     OW19165   6.591   3.356   0.141
 6089SOL    HW119166   6.625   3.437   0.190
 6089SOL    HW219167   6.532   3.303   0.202
 6090SOL     OW19168   0.355   5.597   3.916
 6090SOL    HW119169   0.274   5.649   3.939
 6090SOL    HW219170   0.394   5.557   3.999
 6091SOL     OW19171   6.022   1.678   1.590
 6091SOL    HW119172   5.939   1.640   1.632
 6091SOL    HW219173   6.090   1.695   1.661
 6092SOL     OW19174   1.767   2.534   1.038
 6092SOL    HW119175   1.861   2.503   1.051
 6092SOL    HW219176   1.704   2.472   1.085
 6093SOL     OW19177   1.456   3.373   0.872
 6093SOL    HW119178   1.429   3.437   0.801
 6093SOL    HW219179   1.400   3.291   0.866
 6094SOL     OW19180   0.823   0.800   0.985
 6094SOL    HW119181   0.781   0.717   1.019
 6094SOL    HW219182   0.921   0.785   0.972
 6095SOL     OW19183   6.470   4.139   5.278
 6095SOL    HW119184   6.401   4.138   5.351
 6095SOL    HW219185   6.425   4.150   5.190
 6096SOL     OW19186   3.765   1.771   3.225
 6096SOL    HW119187   3.672   1.807   3.231
 6096SOL    HW219188   3.820   1.828   3.165
 6097SOL     OW19189   3.262   1.996   1.580
 6097SOL    HW119190   3.354   1.973   1.614
 6097SOL    HW219191   3.201   1.917   1.595
 6098SOL     OW19192   1.306   1.264   6.186
 6098SOL    HW119193   1.254   1.332   6.239
 6098SOL    HW219194   1.367   1.311   6.122
 6099SOL     OW19195   5.875   5.032   4.787
 6099SOL    HW119196   5.866   4.942   4.829
 6099SOL    HW219197   5.961   5.037   4.735
 6100SOL     OW19198   6.937   2.192   0.381
 6100SOL    HW119199   6.944   2.172   0.479
 6100SOL    HW219200   6.901   2.284   0.369
 6101SOL     OW19201   5.647   1.120   4.140
 6101SOL    HW119202   5.664   1.099   4.236
 6101SOL    HW219203   5.732   1.152   4.097
 6102SOL     OW19204   2.974   0.560   5.020
 6102SOL    HW119205   2.901   0.538   4.955
 6102SOL    HW219206   2.940   0.627   5.086
 6103SOL     OW19207   6.205   0.840   5.371
 6103SOL    HW119208   6.218   0.762   5.309
 6103SOL    HW219209   6.237   0.814   5.462
 6104SOL     OW19210   1.964   3.319   0.827
 6104SOL    HW119211   2.033   3.298   0.896
 6104SOL    HW219212   1.952   3.239   0.767
 6105SOL     OW19213   3.188   5.416   4.665
 6105SOL    HW119214   3.240   5.377   4.589
 6105SOL    HW219215   3.180   5.348   4.738
 6106SOL     OW19216   3.394   5.349   4.487
 6106SOL    HW119217   3.372   5.252   4.480
 6106SOL    HW219218   3.322   5.402   4.443
 6107SOL     OW19219   2.343   5.319   5.461
 6107SOL    HW119220   2.272   5.319   5.531
 6107SOL    HW219221   2.400   5.237   5.471
 6108SOL     OW19222   6.484   1.968   4.099
 6108SOL    HW119223   6.579   1.979   4.069
 6108SOL    HW219224   6.475   1.883   4.151
 6109SOL     OW19225   6.474   4.403   1.823
 6109SOL    HW119226   6.443   4.356   1.741
 6109SOL    HW219227   6.549   4.351   1.865
 6110SOL     OW19228   3.617   2.127   3.896
 6110SOL    HW119229   3.691   2.103   3.834
 6110SOL    HW219230   3.530   2.130   3.846
 6111SOL     OW19231   0.366   4.601   2.931
 6111SOL    HW119232   0.462   4.628   2.922
 6111SOL    HW219233   0.314   4.640   2.856
 6112SOL     OW19234   1.301   2.123   1.880
 6112SOL    HW119235   1.343   2.034   1.894
 6112SOL    HW219236   1.201   2.114   1.885
 6113SOL     OW19237   2.164   5.723   5.223
 6113SOL    HW119238   2.219   5.776   5.289
 6113SOL    HW219239   2.114   5.651   5.272
 6114SOL     OW19240   5.208   5.325   1.007
 6114SOL    HW119241   5.207   5.267   0.925
 6114SOL    HW219242   5.158   5.410   0.988
 6115SOL     OW19243   6.288   4.731   2.601
 6115SOL    HW119244   6.210   4.679   2.567
 6115SOL    HW219245   6.333   4.680   2.675
 6116SOL     OW19246   3.244   2.349   0.818
 6116SOL    HW119247   3.266   2.273   0.756
 6116SOL    HW219248   3.206   2.312   0.903
 6117SOL     OW19249   5.539   6.669   4.099
 6117SOL    HW119250   5.555   6.757   4.145
 6117SOL    HW219251   5.607   6.603   4.129
 6118SOL     OW19252   5.886   0.267   2.956
 6118SOL    HW119253   5.806   0.327   2.950
 6118SOL    HW219254   5.865   0.190   3.016
 6119SOL     OW19255   6.346   5.479   3.799
 6119SOL    HW119256   6.328   5.426   3.717
 6119SOL    HW219257   6.426   5.442   3.846
 6120SOL     OW19258   2.811   0.909   3.388
 6120SOL    HW119259   2.802   0.841   3.315
 6120SOL    HW219260   2.737   0.975   3.380
 6121SOL     OW19261   6.915   2.098   4.396
 6121SOL    HW119262   6.846   2.166   4.370
 6121SOL    HW219263   6.876   2.036   4.465
 6122SOL     OW19264   4.377   5.993   3.792
 6122SOL    HW119265   4.353   5.916   3.850
 6122SOL    HW219266   4.381   6.077   3.846
 6123SOL     OW19267   6.988   1.348   1.776
 6123SOL    HW119268   6.904   1.368   1.826
 6123SOL    HW219269   6.967   1.286   1.700
 6124SOL     OW19270   2.805   0.537   5.302
 6124SOL    HW119271   2.882   0.589   5.338
 6124SOL    HW219272   2.735   0.600   5.269
 6125SOL     OW19273   1.964   4.824   2.379
 6125SOL    HW119274   2.059   4.847   2.401
 6125SOL    HW219275   1.962   4.736   2.331
 6126SOL     OW19276   4.566   5.578   2.276
 6126SOL    HW119277   4.468   5.579   2.299
 6126SOL    HW219278   4.591   5.489   2.239
 6127SOL     OW19279   2.053   3.857   2.238
 6127SOL    HW119280   1.960   3.859   2.277
 6127SOL    HW219281   2.056   3.913   2.155
 6128SOL     OW19282   4.918   2.310   1.060
 6128SOL    HW119283   4.983   2.259   1.003
 6128SOL    HW219284   4.959   2.330   1.148
 6129SOL     OW19285   5.623   4.055   3.504
 6129SOL    HW119286   5.696   3.992   3.477
 6129SOL    HW219287   5.647   4.098   3.591
 6130SOL     OW19288   5.477   4.361   2.897
 6130SOL    HW119289   5.418   4.385   2.820
 6130SOL    HW219290   5.504   4.265   2.889
 6131SOL     OW19291   6.547   0.836   5.328
 6131SOL    HW119292   6.515   0.912   5.384
 6131SOL    HW219293   6.472   0.772   5.312
 6132SOL     OW19294   6.359   2.082   0.499
 6132SOL    HW119295   6.398   2.033   0.577
 6132SOL    HW219296   6.433   2.113   0.440
 6133SOL     OW19297   1.432   4.643   0.505
 6133SOL    HW119298   1.332   4.652   0.510
 6133SOL    HW219299   1.467   4.615   0.595
 6134SOL     OW19300   4.502   3.091   0.179
 6134SOL    HW119301   4.474   3.002   0.215
 6134SOL    HW219302   4.514   3.155   0.255
 6135SOL     OW19303   5.412   0.383   2.195
 6135SOL    HW119304   5.396   0.369   2.293
 6135SOL    HW219305   5.338   0.339   2.143
 6136SOL     OW19306   6.925   1.402   2.296
 6136SOL    HW119307   7.008   1.438   2.254
 6136SOL    HW219308   6.922   1.427   2.392
 6137SOL     OW19309   3.143   6.598   5.835
 6137SOL    HW119310   3.075   6.579   5.906
 6137SOL    HW219311   3.149   6.697   5.821
 6138SOL     OW19312   4.433   7.015   3.000
 6138SOL    HW119313   4.362   0.018   2.933
 6138SOL    HW219314   4.406   6.934   3.051
 6139SOL     OW19315   2.326   5.516   4.256
 6139SOL    HW119316   2.322   5.584   4.330
 6139SOL    HW219317   2.233   5.487   4.232
 6140SOL     OW19318   1.840   5.858   1.317
 6140SOL    HW119319   1.930   5.823   1.342
 6140SOL    HW219320   1.820   5.836   1.222
 6141SOL     OW19321   6.727   6.019   5.578
 6141SOL    HW119322   6.756   6.083   5.507
 6141SOL    HW219323   6.763   5.928   5.560
 6142SOL     OW19324   0.459   4.060   2.725
 6142SOL    HW119325   0.479   4.092   2.632
 6142SOL    HW219326   0.426   3.966   2.721
 6143SOL     OW19327   6.565   4.298   6.375
 6143SOL    HW119328   6.613   4.382   6.399
 6143SOL    HW219329   6.622   4.219   6.399
 6144SOL     OW19330   0.297   4.950   4.366
 6144SOL    HW119331   0.198   4.940   4.373
 6144SOL    HW219332   0.328   4.910   4.280
 6145SOL     OW19333   5.031   5.559   3.527
 6145SOL    HW119334   5.093   5.629   3.492
 6145SOL    HW219335   5.075   5.509   3.602
 6146SOL     OW19336   5.278   1.344   3.332
 6146SOL    HW119337   5.223   1.383   3.258
 6146SOL    HW219338   5.355   1.294   3.292
 6147SOL     OW19339   1.064   3.730   3.396
 6147SOL    HW119340   1.032   3.734   3.301
 6147SOL    HW219341   1.058   3.637   3.430
 6148SOL     OW19342   5.674   6.033   3.953
 6148SOL    HW119343   5.730   6.024   4.036
 6148SOL    HW219344   5.610   5.957   3.948
 6149SOL     OW19345   2.222   0.162   4.581
 6149SOL    HW119346   2.196   0.158   4.677
 6149SOL    HW219347   2.143   0.187   4.525
 6150SOL     OW19348   4.105   5.786   5.685
 6150SOL    HW119349   4.009   5.773   5.710
 6150SOL    HW219350   4.155   5.822   5.764
 6151SOL     OW19351   4.589   0.961   5.778
 6151SOL    HW119352   4.543   1.045   5.749
 6151SOL    HW219353   4.662   0.939   5.714
 6152SOL     OW19354   6.632   5.033   5.814
 6152SOL    HW119355   6.731   5.044   5.823
 6152SOL    HW219356   6.593   5.009   5.903
 6153SOL     OW19357   4.878   4.022   0.000
 6153SOL    HW119358   4.871   4.116   6.987
 6153SOL    HW219359   4.800   3.969   6.989
 6154SOL     OW19360   5.122   2.882   3.230
 6154SOL    HW119361   5.210   2.927   3.211
 6154SOL    HW219362   5.138   2.785   3.249
 6155SOL     OW19363   1.720   3.623   4.066
 6155SOL    HW119364   1.783   3.672   4.126
 6155SOL    HW219365   1.673   3.552   4.119
 6156SOL     OW19366   6.344   0.734   4.372
 6156SOL    HW119367   6.275   0.709   4.304
 6156SOL    HW219368   6.307   0.719   4.463
 6157SOL     OW19369   1.248   1.659   3.516
 6157SOL    HW119370   1.319   1.598   3.482
 6157SOL    HW219371   1.290   1.744   3.548
 6158SOL     OW19372   4.234   0.625   0.641
 6158SOL    HW119373   4.302   0.601   0.573
 6158SOL    HW219374   4.242   0.722   0.665
 6159SOL     OW19375   5.486   3.118   6.955
 6159SOL    HW119376   5.555   3.189   6.966
 6159SOL    HW219377   5.395   3.161   6.955
 6160SOL     OW19378   6.681   4.894   1.666
 6160SOL    HW119379   6.586   4.874   1.688
 6160SOL    HW219380   6.709   4.978   1.712
 6161SOL     OW19381   5.807   0.514   6.382
 6161SOL    HW119382   5.853   0.519   6.471
 6161SOL    HW219383   5.870   0.480   6.313
 6162SOL     OW19384   6.045   5.184   3.938
 6162SOL    HW119385   5.996   5.111   3.985
 6162SOL    HW219386   5.980   5.250   3.902
 6163SOL     OW19387   0.035   4.166   2.166
 6163SOL    HW119388   7.007   4.194   2.083
 6163SOL    HW219389   0.125   4.131   2.142
 6164SOL     OW19390   4.766   2.977   0.319
 6164SOL    HW119391   4.787   2.883   0.348
 6164SOL    HW219392   4.668   2.985   0.301
 6165SOL     OW19393   4.451   6.540   0.526
 6165SOL    HW119394   4.503   6.582   0.452
 6165SOL    HW219395   4.511   6.524   0.604
 6166SOL     OW19396   3.798   1.394   6.696
 6166SOL    HW119397   3.867   1.465   6.710
 6166SOL    HW219398   3.708   1.429   6.723
 6167SOL     OW19399   0.097   4.952   3.155
 6167SOL    HW119400   0.064   4.896   3.232
 6167SOL    HW219401   0.029   4.951   3.082
 6168SOL     OW19402   0.395   2.495   1.560
 6168SOL    HW119403   0.430   2.508   1.652
 6168SOL    HW219404   0.470   2.473   1.498
 6169SOL     OW19405   1.815   4.333   1.990
 6169SOL    HW119406   1.746   4.271   2.027
 6169SOL    HW219407   1.790   4.359   1.897
 6170SOL     OW19408   6.903   2.220   3.393
 6170SOL    HW119409   6.888   2.317   3.411
 6170SOL    HW219410   6.969   2.183   3.457
 6171SOL     OW19411   6.431   0.767   6.514
 6171SOL    HW119412   6.503   0.834   6.530
 6171SOL    HW219413   6.469   0.687   6.469
 6172SOL     OW19414   1.191   4.537   4.033
 6172SOL    HW119415   1.221   4.495   4.118
 6172SOL    HW219416   1.261   4.601   4.001
 6173SOL     OW19417   5.886   6.394   3.473
 6173SOL    HW119418   5.971   6.359   3.434
 6173SOL    HW219419   5.809   6.364   3.417
 6174SOL     OW19420   6.444   2.764   2.023
 6174SOL    HW119421   6.372   2.743   1.957
 6174SOL    HW219422   6.445   2.695   2.095
 6175SOL     OW19423   3.656   2.070   6.380
 6175SOL    HW119424   3.598   2.146   6.350
 6175SOL    HW219425   3.674   2.010   6.302
 6176SOL     OW19426   3.719   4.018   6.349
 6176SOL    HW119427   3.694   4.066   6.265
 6176SOL    HW219428   3.703   3.920   6.337
 6177SOL     OW19429   5.935   6.645   1.378
 6177SOL    HW119430   5.866   6.684   1.317
 6177SOL    HW219431   5.962   6.714   1.445
 6178SOL     OW19432   4.108   4.857   1.710
 6178SOL    HW119433   4.168   4.779   1.693
 6178SOL    HW219434   4.021   4.825   1.747
 6179SOL     OW19435   5.536   4.966   4.898
 6179SOL    HW119436   5.466   4.904   4.934
 6179SOL    HW219437   5.492   5.046   4.857
 6180SOL     OW19438   2.763   4.579   6.528
 6180SOL    HW119439   2.673   4.620   6.518
 6180SOL    HW219440   2.828   4.649   6.557
 6181SOL     OW19441   6.092   6.365   0.099
 6181SOL    HW119442   6.158   6.426   0.143
 6181SOL    HW219443   6.137   6.316   0.025
 6182SOL     OW19444   3.102   2.420   0.316
 6182SOL    HW119445   3.202   2.421   0.317
 6182SOL    HW219446   3.070   2.330   0.286
 6183SOL     OW19447   6.807   6.543   0.902
 6183SOL    HW119448   6.725   6.529   0.959
 6183SOL    HW219449   6.797   6.492   0.817
 6184SOL     OW19450   3.389   6.369   5.421
 6184SOL    HW119451   3.351   6.442   5.479
 6184SOL    HW219452   3.381   6.281   5.468
 6185SOL     OW19453   3.966   3.432   4.947
 6185SOL    HW119454   3.930   3.467   4.861
 6185SOL    HW219455   4.046   3.486   4.975
 6186SOL     OW19456   1.032   1.689   2.270
 6186SOL    HW119457   0.939   1.652   2.278
 6186SOL    HW219458   1.081   1.676   2.355
 6187SOL     OW19459   3.186   1.509   6.065
 6187SOL    HW119460   3.173   1.410   6.053
 6187SOL    HW219461   3.276   1.534   6.029
 6188SOL     OW19462   1.905   1.355   4.753
 6188SOL    HW119463   1.912   1.407   4.838
 6188SOL    HW219464   1.991   1.307   4.737
 6189SOL     OW19465   6.713   5.347   0.903
 6189SOL    HW119466   6.625   5.300   0.892
 6189SOL    HW219467   6.784   5.279   0.926
 6190SOL     OW19468   0.653   2.880   4.196
 6190SOL    HW119469   0.566   2.870   4.147
 6190SOL    HW219470   0.719   2.928   4.139
 6191SOL     OW19471   3.325   3.615   0.379
 6191SOL    HW119472   3.250   3.590   0.440
 6191SOL    HW219473   3.307   3.705   0.339
 6192SOL     OW19474   2.865   1.818   1.132
 6192SOL    HW119475   2.787   1.878   1.114
 6192SOL    HW219476   2.832   1.729   1.164
 6193SOL     OW19477   4.144   5.737   6.720
 6193SOL    HW119478   4.239   5.706   6.716
 6193SOL    HW219479   4.086   5.672   6.670
 6194SOL     OW19480   5.473   6.984   6.813
 6194SOL    HW119481   5.435   6.910   6.757
 6194SOL    HW219482   5.496   6.948   6.903
 6195SOL     OW19483   5.745   6.270   6.519
 6195SOL    HW119484   5.696   6.283   6.605
 6195SOL    HW219485   5.706   6.193   6.469
 6196SOL     OW19486   6.139   3.519   3.147
 6196SOL    HW119487   6.095   3.459   3.081
 6196SOL    HW219488   6.238   3.514   3.135
 6197SOL     OW19489   0.848   5.304   1.059
 6197SOL    HW119490   0.929   5.245   1.060
 6197SOL    HW219491   0.792   5.282   0.978
 6198SOL     OW19492   5.675   1.527   6.540
 6198SOL    HW119493   5.593   1.471   6.535
 6198SOL    HW219494   5.756   1.469   6.533
 6199SOL     OW19495   1.833   6.928   6.190
 6199SOL    HW119496   1.882   6.885   6.114
 6199SOL    HW219497   1.748   6.969   6.156
 6200SOL     OW19498   1.706   0.568   1.170
 6200SOL    HW119499   1.728   0.533   1.080
 6200SOL    HW219500   1.767   0.644   1.192
 6201SOL     OW19501   0.266   4.346   3.075
 6201SOL    HW119502   0.219   4.339   2.987
 6201SOL    HW219503   0.339   4.414   3.068
 6202SOL     OW19504   6.030   1.030   2.749
 6202SOL    HW119505   5.963   1.042   2.822
 6202SOL    HW219506   6.122   1.035   2.787
 6203SOL     OW19507   6.054   0.042   2.008
 6203SOL    HW119508   6.140   0.074   1.968
 6203SOL    HW219509   5.977   0.086   1.962
 6204SOL     OW19510   0.986   6.190   4.816
 6204SOL    HW119511   1.000   6.174   4.719
 6204SOL    HW219512   1.040   6.269   4.845
 6205SOL     OW19513   5.657   4.511   3.658
 6205SOL    HW119514   5.658   4.577   3.583
 6205SOL    HW219515   5.742   4.520   3.710
 6206SOL     OW19516   5.815   1.979   3.537
 6206SOL    HW119517   5.812   1.889   3.493
 6206SOL    HW219518   5.837   1.968   3.634
 6207SOL     OW19519   0.531   6.006   4.131
 6207SOL    HW119520   0.599   6.012   4.058
 6207SOL    HW219521   0.533   6.091   4.184
 6208SOL     OW19522   4.568   3.865   5.569
 6208SOL    HW119523   4.522   3.921   5.500
 6208SOL    HW219524   4.642   3.814   5.526
 6209SOL     OW19525   3.769   2.294   1.389
 6209SOL    HW119526   3.831   2.275   1.466
 6209SOL    HW219527   3.798   2.242   1.309
 6210SOL     OW19528   5.777   1.732   4.447
 6210SOL    HW119529   5.800   1.682   4.364
 6210SOL    HW219530   5.801   1.828   4.436
 6211SOL     OW19531   5.889   3.810   5.019
 6211SOL    HW119532   5.802   3.765   5.000
 6211SOL    HW219533   5.938   3.825   4.933
 6212SOL     OW19534   5.499   4.410   4.744
 6212SOL    HW119535   5.569   4.358   4.793
 6212SOL    HW219536   5.429   4.348   4.711
 6213SOL     OW19537   4.022   5.703   0.548
 6213SOL    HW119538   3.939   5.758   0.545
 6213SOL    HW219539   4.022   5.647   0.631
 6214SOL     OW19540   5.773   6.785   0.270
 6214SOL    HW119541   5.776   6.848   0.192
 6214SOL    HW219542   5.831   6.820   0.343
 6215SOL     OW19543   5.871   2.427   5.011
 6215SOL    HW119544   5.835   2.343   5.052
 6215SOL    HW219545   5.882   2.496   5.082
 6216SOL     OW19546   4.420   1.501   4.673
 6216SOL    HW119547   4.464   1.533   4.588
 6216SOL    HW219548   4.474   1.427   4.713
 6217SOL     OW19549   0.803   4.095   2.622
 6217SOL    HW119550   0.860   4.017   2.596
 6217SOL    HW219551   0.863   4.169   2.654
 6218SOL     OW19552   4.375   6.238   0.388
 6218SOL    HW119553   4.369   6.209   0.292
 6218SOL    HW219554   4.469   6.267   0.407
 6219SOL     OW19555   1.900   1.147   0.000
 6219SOL    HW119556   1.924   1.083   0.073
 6219SOL    HW219557   1.888   1.239   0.039
 6220SOL     OW19558   3.342   6.269   0.891
 6220SOL    HW119559   3.251   6.295   0.859
 6220SOL    HW219560   3.399   6.351   0.897
 6221SOL     OW19561   5.076   5.740   6.231
 6221SOL    HW119562   4.985   5.731   6.271
 6221SOL    HW219563   5.141   5.684   6.283
 6222SOL     OW19564   6.763   1.607   2.065
 6222SOL    HW119565   6.805   1.623   2.154
 6222SOL    HW219566   6.697   1.680   2.045
 6223SOL     OW19567   6.971   5.126   4.448
 6223SOL    HW119568   6.980   5.027   4.454
 6223SOL    HW219569   6.998   5.157   4.357
 6224SOL     OW19570   3.809   6.899   0.140
 6224SOL    HW119571   3.869   6.979   0.130
 6224SOL    HW219572   3.841   6.843   0.216
 6225SOL     OW19573   5.008   6.406   6.490
 6225SOL    HW119574   5.069   6.473   6.532
 6225SOL    HW219575   5.043   6.382   6.399
 6226SOL     OW19576   0.872   1.079   4.321
 6226SOL    HW119577   0.777   1.089   4.292
 6226SOL    HW219578   0.883   0.992   4.370
 6227SOL     OW19579   3.051   4.485   5.889
 6227SOL    HW119580   3.050   4.516   5.794
 6227SOL    HW219581   3.012   4.393   5.894
 6228SOL     OW19582   1.234   3.027   3.709
 6228SOL    HW119583   1.325   3.050   3.744
 6228SOL    HW219584   1.170   3.019   3.786
 6229SOL     OW19585   0.626   3.565   4.082
 6229SOL    HW119586   0.640   3.582   4.180
 6229SOL    HW219587   0.529   3.546   4.066
 6230SOL     OW19588   0.564   1.233   1.313
 6230SOL    HW119589   0.657   1.215   1.346
 6230SOL    HW219590   0.508   1.269   1.387
 6231SOL     OW19591   2.067   5.402   5.682
 6231SOL    HW119592   2.156   5.368   5.712
 6231SOL    HW219593   1.995   5.361   5.738
 6232SOL     OW19594   4.350   0.556   6.344
 6232SOL    HW119595   4.447   0.530   6.338
 6232SOL    HW219596   4.337   0.617   6.422
 6233SOL     OW19597   6.917   3.471   1.250
 6233SOL    HW119598   6.877   3.415   1.177
 6233SOL    HW219599   6.944   3.411   1.326
 6234SOL     OW19600   5.038   4.834   4.278
 6234SOL    HW119601   4.985   4.877   4.351
 6234SOL    HW219602   5.030   4.734   4.286
 6235SOL     OW19603   6.995   0.743   2.061
 6235SOL    HW119604   0.065   0.773   2.030
 6235SOL    HW219605   6.971   0.791   2.146
 6236SOL     OW19606   6.839   5.654   1.483
 6236SOL    HW119607   6.832   5.736   1.427
 6236SOL    HW219608   6.918   5.600   1.455
 6237SOL     OW19609   3.248   1.219   2.390
 6237SOL    HW119610   3.221   1.311   2.362
 6237SOL    HW219611   3.313   1.223   2.466
 6238SOL     OW19612   2.472   0.775   3.584
 6238SOL    HW119613   2.374   0.774   3.566
 6238SOL    HW219614   2.494   0.852   3.644
 6239SOL     OW19615   4.726   1.264   4.544
 6239SOL    HW119616   4.790   1.234   4.473
 6239SOL    HW219617   4.771   1.259   4.633
 6240SOL     OW19618   4.140   3.658   3.865
 6240SOL    HW119619   4.171   3.674   3.771
 6240SOL    HW219620   4.162   3.564   3.892
 6241SOL     OW19621   3.644   6.996   3.632
 6241SOL    HW119622   3.621   0.061   3.678
 6241SOL    HW219623   3.651   6.923   3.700
 6242SOL     OW19624   2.946   2.079   3.832
 6242SOL    HW119625   2.877   2.084   3.904
 6242SOL    HW219626   3.032   2.045   3.870
 6243SOL     OW19627   4.339   1.769   6.884
 6243SOL    HW119628   4.289   1.716   6.953
 6243SOL    HW219629   4.298   1.755   6.794
 6244SOL     OW19630   4.603   2.616   1.843
 6244SOL    HW119631   4.553   2.542   1.799
 6244SOL    HW219632   4.601   2.604   1.942
 6245SOL     OW19633   0.286   5.411   2.539
 6245SOL    HW119634   0.376   5.367   2.538
 6245SOL    HW219635   0.251   5.417   2.445
 6246SOL     OW19636   6.982   0.094   4.638
 6246SOL    HW119637   6.974   0.176   4.582
 6246SOL    HW219638   6.984   0.014   4.578
 6247SOL     OW19639   6.625   6.155   3.467
 6247SOL    HW119640   6.564   6.114   3.398
 6247SOL    HW219641   6.706   6.099   3.477
 6248SOL     OW19642   4.034   3.176   5.042
 6248SOL    HW119643   3.993   3.251   4.988
 6248SOL    HW219644   4.108   3.212   5.098
 6249SOL     OW19645   5.654   3.517   2.421
 6249SOL    HW119646   5.707   3.549   2.342
 6249SOL    HW219647   5.576   3.464   2.390
 6250SOL     OW19648   5.481   6.892   6.297
 6250SOL    HW119649   5.513   6.803   6.327
 6250SOL    HW219650   5.433   6.938   6.372
 6251SOL     OW19651   2.452   1.400   4.651
 6251SOL    HW119652   2.402   1.409   4.565
 6251SOL    HW219653   2.551   1.402   4.632
 6252SOL     OW19654   3.409   5.207   0.013
 6252SOL    HW119655   3.421   5.301   0.045
 6252SOL    HW219656   3.461   5.194   6.949
 6253SOL     OW19657   3.878   6.228   3.997
 6253SOL    HW119658   3.858   6.261   3.904
 6253SOL    HW219659   3.961   6.271   4.031
 6254SOL     OW19660   0.618   0.105   1.777
 6254SOL    HW119661   0.580   0.160   1.852
 6254SOL    HW219662   0.718   0.102   1.786
 6255SOL     OW19663   1.067   1.605   0.600
 6255SOL    HW119664   1.131   1.679   0.577
 6255SOL    HW219665   0.978   1.643   0.622
 6256SOL     OW19666   6.005   5.772   2.099
 6256SOL    HW119667   5.943   5.694   2.107
 6256SOL    HW219668   5.992   5.833   2.178
 6257SOL     OW19669   3.681   4.653   0.783
 6257SOL    HW119670   3.600   4.603   0.752
 6257SOL    HW219671   3.763   4.609   0.746
 6258SOL     OW19672   4.300   5.619   4.635
 6258SOL    HW119673   4.202   5.639   4.641
 6258SOL    HW219674   4.318   5.566   4.553
 6259SOL     OW19675   4.400   1.007   5.417
 6259SOL    HW119676   4.500   1.008   5.414
 6259SOL    HW219677   4.367   0.914   5.398
 6260SOL     OW19678   2.438   1.456   0.825
 6260SOL    HW119679   2.394   1.546   0.820
 6260SOL    HW219680   2.516   1.461   0.887
 6261SOL     OW19681   3.451   0.098   0.885
 6261SOL    HW119682   3.448   0.008   0.928
 6261SOL    HW219683   3.361   0.121   0.847
 6262SOL     OW19684   6.229   0.891   2.492
 6262SOL    HW119685   6.316   0.906   2.539
 6262SOL    HW219686   6.181   0.978   2.481
 6263SOL     OW19687   6.377   5.782   6.194
 6263SOL    HW119688   6.289   5.824   6.172
 6263SOL    HW219689   6.450   5.849   6.182
 6264SOL     OW19690   2.373   5.997   0.235
 6264SOL    HW119691   2.439   6.057   0.281
 6264SOL    HW219692   2.280   6.025   0.259
 6265SOL     OW19693   4.178   6.130   6.184
 6265SOL    HW119694   4.141   6.222   6.167
 6265SOL    HW219695   4.278   6.133   6.178
 6266SOL     OW19696   3.654   5.345   3.029
 6266SOL    HW119697   3.691   5.259   2.994
 6266SOL    HW219698   3.554   5.339   3.036
 6267SOL     OW19699   0.852   6.383   4.630
 6267SOL    HW119700   0.788   6.319   4.671
 6267SOL    HW219701   0.909   6.424   4.701
 6268SOL     OW19702   3.037   1.847   0.918
 6268SOL    HW119703   2.964   1.830   0.985
 6268SOL    HW219704   3.126   1.839   0.963
 6269SOL     OW19705   6.914   5.805   6.490
 6269SOL    HW119706   6.860   5.769   6.565
 6269SOL    HW219707   6.982   5.737   6.462
 6270SOL     OW19708   1.831   6.496   0.891
 6270SOL    HW119709   1.795   6.542   0.972
 6270SOL    HW219710   1.794   6.403   0.886
 6271SOL     OW19711   6.879   3.006   6.063
 6271SOL    HW119712   6.879   3.019   6.162
 6271SOL    HW219713   6.967   2.969   6.033
 6272SOL     OW19714   0.097   1.117   6.708
 6272SOL    HW119715   0.003   1.083   6.706
 6272SOL    HW219716   0.100   1.206   6.754
 6273SOL     OW19717   0.518   6.904   2.879
 6273SOL    HW119718   0.470   6.956   2.808
 6273SOL    HW219719   0.615   6.900   2.858
 6274SOL     OW19720   2.992   5.668   3.772
 6274SOL    HW119721   2.990   5.589   3.834
 6274SOL    HW219722   2.955   5.748   3.818
 6275SOL     OW19723   2.853   6.026   6.605
 6275SOL    HW119724   2.884   6.059   6.516
 6275SOL    HW219725   2.930   6.026   6.669
 6276SOL     OW19726   1.656   5.210   2.571
 6276SOL    HW119727   1.689   5.298   2.604
 6276SOL    HW219728   1.679   5.139   2.638
 6277SOL     OW19729   5.220   2.692   1.387
 6277SOL    HW119730   5.177   2.630   1.453
 6277SOL    HW219731   5.166   2.776   1.380
 6278SOL     OW19732   4.544   2.147   0.639
 6278SOL    HW119733   4.568   2.209   0.714
 6278SOL    HW219734   4.495   2.198   0.568
 6279SOL     OW19735   3.048   6.740   1.404
 6279SOL    HW119736   3.129   6.690   1.436
 6279SOL    HW219737   2.989   6.760   1.482
 6280SOL     OW19738   5.137   2.174   6.652
 6280SOL    HW119739   5.062   2.126   6.607
 6280SOL    HW219740   5.223   2.127   6.632
 6281SOL     OW19741   5.021   4.688   5.900
 6281SOL    HW119742   4.987   4.733   5.982
 6281SOL    HW219743   5.111   4.724   5.876
 6282SOL     OW19744   0.674   3.789   5.997
 6282SOL    HW119745   0.623   3.706   5.976
 6282SOL    HW219746   0.753   3.766   6.055
 6283SOL     OW19747   2.561   6.755   4.777
 6283SOL    HW119748   2.502   6.768   4.697
 6283SOL    HW219749   2.563   6.658   4.801
 6284SOL     OW19750   1.650   3.131   5.655
 6284SOL    HW119751   1.694   3.198   5.596
 6284SOL    HW219752   1.619   3.053   5.601
 6285SOL     OW19753   1.295   3.286   2.732
 6285SOL    HW119754   1.290   3.382   2.759
 6285SOL    HW219755   1.369   3.240   2.780
 6286SOL     OW19756   0.740   2.304   6.780
 6286SOL    HW119757   0.658   2.314   6.837
 6286SOL    HW219758   0.737   2.370   6.705
 6287SOL     OW19759   4.131   4.817   4.956
 6287SOL    HW119760   4.111   4.840   5.052
 6287SOL    HW219761   4.213   4.760   4.953
 6288SOL     OW19762   2.730   3.866   5.533
 6288SOL    HW119763   2.663   3.892   5.602
 6288SOL    HW219764   2.822   3.891   5.564
 6289SOL     OW19765   1.991   4.861   4.406
 6289SOL    HW119766   2.089   4.848   4.416
 6289SOL    HW219767   1.965   4.950   4.442
 6290SOL     OW19768   5.807   0.164   4.109
 6290SOL    HW119769   5.735   0.112   4.063
 6290SOL    HW219770   5.863   0.210   4.040
 6291SOL     OW19771   3.576   3.551   2.121
 6291SOL    HW119772   3.611   3.463   2.087
 6291SOL    HW219773   3.630   3.579   2.201
 6292SOL     OW19774   1.494   4.920   4.755
 6292SOL    HW119775   1.447   4.895   4.840
 6292SOL    HW219776   1.537   4.839   4.716
 6293SOL     OW19777   2.969   1.866   6.385
 6293SOL    HW119778   2.900   1.901   6.323
 6293SOL    HW219779   3.009   1.783   6.347
 6294SOL     OW19780   2.160   1.388   2.188
 6294SOL    HW119781   2.204   1.393   2.277
 6294SOL    HW219782   2.072   1.342   2.197
 6295SOL     OW19783   4.241   3.543   6.221
 6295SOL    HW119784   4.203   3.453   6.198
 6295SOL    HW219785   4.261   3.546   6.319
 6296SOL     OW19786   0.620   2.734   6.668
 6296SOL    HW119787   0.683   2.704   6.596
 6296SOL    HW219788   0.657   2.815   6.713
 6297SOL     OW19789   6.779   1.161   3.952
 6297SOL    HW119790   6.754   1.185   4.046
 6297SOL    HW219791   6.876   1.178   3.937
 6298SOL     OW19792   0.162   6.410   0.638
 6298SOL    HW119793   0.248   6.460   0.651
 6298SOL    HW219794   0.162   6.329   0.697
 6299SOL     OW19795   3.881   1.517   4.262
 6299SOL    HW119796   3.813   1.450   4.289
 6299SOL    HW219797   3.866   1.544   4.166
 6300SOL     OW19798   3.034   2.069   0.494
 6300SOL    HW119799   2.958   2.011   0.524
 6300SOL    HW219800   3.006   2.123   0.415
 6301SOL     OW19801   4.069   6.294   6.519
 6301SOL    HW119802   4.141   6.360   6.496
 6301SOL    HW219803   4.106   6.201   6.515
 6302SOL     OW19804   1.394   3.233   6.819
 6302SOL    HW119805   1.386   3.281   6.906
 6302SOL    HW219806   1.339   3.279   6.750
 6303SOL     OW19807   0.548   5.111   4.612
 6303SOL    HW119808   0.525   5.062   4.696
 6303SOL    HW219809   0.498   5.198   4.609
 6304SOL     OW19810   2.710   1.051   4.063
 6304SOL    HW119811   2.787   1.033   4.002
 6304SOL    HW219812   2.743   1.054   4.157
 6305SOL     OW19813   0.602   6.097   5.903
 6305SOL    HW119814   0.579   6.083   5.807
 6305SOL    HW219815   0.519   6.111   5.956
 6306SOL     OW19816   0.225   4.401   4.559
 6306SOL    HW119817   0.223   4.476   4.492
 6306SOL    HW219818   0.279   4.429   4.638
 6307SOL     OW19819   3.887   3.018   2.258
 6307SOL    HW119820   3.851   2.958   2.187
 6307SOL    HW219821   3.929   3.099   2.216
 6308SOL     OW19822   1.030   2.086   0.637
 6308SOL    HW119823   1.033   2.185   0.624
 6308SOL    HW219824   1.109   2.058   0.692
 6309SOL     OW19825   1.959   6.181   4.724
 6309SOL    HW119826   1.869   6.139   4.731
 6309SOL    HW219827   2.028   6.119   4.763
 6310SOL     OW19828   0.971   6.920   3.822
 6310SOL    HW119829   0.890   6.862   3.813
 6310SOL    HW219830   0.943   7.015   3.832
 6311SOL     OW19831   6.341   1.462   6.350
 6311SOL    HW119832   6.271   1.525   6.316
 6311SOL    HW219833   6.412   1.450   6.280
 6312SOL     OW19834   3.038   5.586   0.333
 6312SOL    HW119835   3.130   5.593   0.370
 6312SOL    HW219836   3.014   5.490   0.320
 6313SOL     OW19837   5.915   4.569   3.732
 6313SOL    HW119838   5.923   4.610   3.641
 6313SOL    HW219839   5.942   4.636   3.801
 6314SOL     OW19840   1.716   6.199   2.848
 6314SOL    HW119841   1.706   6.102   2.869
 6314SOL    HW219842   1.640   6.229   2.791
 6315SOL     OW19843   2.212   1.615   3.703
 6315SOL    HW119844   2.165   1.656   3.781
 6315SOL    HW219845   2.204   1.515   3.708
 6316SOL     OW19846   4.500   0.847   4.968
 6316SOL    HW119847   4.517   0.825   5.064
 6316SOL    HW219848   4.557   0.789   4.910
 6317SOL     OW19849   4.802   4.506   2.757
 6317SOL    HW119850   4.826   4.601   2.736
 6317SOL    HW219851   4.876   4.446   2.728
 6318SOL     OW19852   6.310   6.949   6.939
 6318SOL    HW119853   6.344   6.911   6.853
 6318SOL    HW219854   6.258   6.880   6.989
 6319SOL     OW19855   4.677   1.854   4.504
 6319SOL    HW119856   4.624   1.815   4.579
 6319SOL    HW219857   4.747   1.788   4.476
 6320SOL     OW19858   6.607   1.420   5.452
 6320SOL    HW119859   6.593   1.518   5.439
 6320SOL    HW219860   6.702   1.396   5.430
 6321SOL     OW19861   0.322   2.682   0.396
 6321SOL    HW119862   0.265   2.753   0.437
 6321SOL    HW219863   0.268   2.632   0.328
 6322SOL     OW19864   1.442   1.396   3.137
 6322SOL    HW119865   1.505   1.426   3.064
 6322SOL    HW219866   1.366   1.461   3.143
 6323SOL     OW19867   2.189   4.847   0.883
 6323SOL    HW119868   2.167   4.890   0.970
 6323SOL    HW219869   2.207   4.917   0.814
 6324SOL     OW19870   4.589   3.552   1.368
 6324SOL    HW119871   4.686   3.547   1.346
 6324SOL    HW219872   4.559   3.465   1.406
 6325SOL     OW19873   1.599   3.064   4.075
 6325SOL    HW119874   1.621   3.162   4.080
 6325SOL    HW219875   1.645   3.016   4.150
 6326SOL     OW19876   5.405   5.418   5.350
 6326SOL    HW119877   5.426   5.363   5.431
 6326SOL    HW219878   5.469   5.396   5.277
 6327SOL     OW19879   0.838   1.314   3.469
 6327SOL    HW119880   0.755   1.293   3.522
 6327SOL    HW219881   0.878   1.400   3.502
 6328SOL     OW19882   4.725   3.916   5.203
 6328SOL    HW119883   4.721   3.819   5.181
 6328SOL    HW219884   4.792   3.961   5.144
 6329SOL     OW19885   1.173   2.373   5.989
 6329SOL    HW119886   1.268   2.346   6.006
 6329SOL    HW219887   1.114   2.293   5.992
 6330SOL     OW19888   4.516   1.603   4.026
 6330SOL    HW119889   4.556   1.529   3.972
 6330SOL    HW219890   4.441   1.645   3.975
 6331SOL     OW19891   1.201   3.348   3.750
 6331SOL    HW119892   1.118   3.292   3.748
 6331SOL    HW219893   1.254   3.332   3.666
 6332SOL     OW19894   3.225   1.839   0.059
 6332SOL    HW119895   3.163   1.761   0.067
 6332SOL    HW219896   3.249   1.872   0.150
 6333SOL     OW19897   5.554   0.715   0.735
 6333SOL    HW119898   5.472   0.695   0.790
 6333SOL    HW219899   5.629   0.742   0.795
 6334SOL     OW19900   1.753   1.069   1.706
 6334SOL    HW119901   1.774   1.152   1.654
 6334SOL    HW219902   1.716   1.094   1.795
 6335SOL     OW19903   0.128   3.383   6.199
 6335SOL    HW119904   0.078   3.343   6.123
 6335SOL    HW219905   0.183   3.460   6.167
 6336SOL     OW19906   0.353   4.108   5.426
 6336SOL    HW119907   0.308   4.155   5.501
 6336SOL    HW219908   0.381   4.016   5.455
 6337SOL     OW19909   5.849   0.181   4.952
 6337SOL    HW119910   5.920   0.199   5.021
 6337SOL    HW219911   5.877   0.221   4.865
 6338SOL     OW19912   1.229   1.083   3.366
 6338SOL    HW119913   1.288   1.064   3.288
 6338SOL    HW219914   1.184   1.172   3.352
 6339SOL     OW19915   0.134   3.441   3.290
 6339SOL    HW119916   0.230   3.468   3.289
 6339SOL    HW219917   0.111   3.396   3.203
 6340SOL     OW19918   2.759   4.840   0.433
 6340SOL    HW119919   2.731   4.745   0.418
 6340SOL    HW219920   2.698   4.882   0.500
 6341SOL     OW19921   6.925   5.591   2.048
 6341SOL    HW119922   6.879   5.608   1.961
 6341SOL    HW219923   6.991   5.517   2.037
 6342SOL     OW19924   2.221   0.930   1.760
 6342SOL    HW119925   2.236   0.837   1.795
 6342SOL    HW219926   2.155   0.978   1.818
 6343SOL     OW19927   1.397   5.425   0.449
 6343SOL    HW119928   1.441   5.423   0.359
 6343SOL    HW219929   1.346   5.510   0.459
 6344SOL     OW19930   1.485   1.251   4.343
 6344SOL    HW119931   1.409   1.237   4.279
 6344SOL    HW219932   1.453   1.232   4.436
 6345SOL     OW19933   5.876   2.862   2.823
 6345SOL    HW119934   5.951   2.923   2.847
 6345SOL    HW219935   5.899   2.768   2.850
 6346SOL     OW19936   0.333   4.229   4.997
 6346SOL    HW119937   0.305   4.291   4.925
 6346SOL    HW219938   0.287   4.141   4.986
 6347SOL     OW19939   2.026   2.624   3.848
 6347SOL    HW119940   1.943   2.663   3.809
 6347SOL    HW219941   2.055   2.679   3.927
 6348SOL     OW19942   1.063   2.961   6.636
 6348SOL    HW119943   1.062   2.861   6.646
 6348SOL    HW219944   1.139   2.999   6.688
 6349SOL     OW19945   5.759   0.775   0.913
 6349SOL    HW119946   5.711   0.738   0.992
 6349SOL    HW219947   5.748   0.874   0.911
 6350SOL     OW19948   1.012   6.134   1.383
 6350SOL    HW119949   0.988   6.181   1.468
 6350SOL    HW219950   0.941   6.069   1.359
 6351SOL     OW19951   5.926   3.724   1.336
 6351SOL    HW119952   5.864   3.686   1.404
 6351SOL    HW219953   5.965   3.810   1.370
 6352SOL     OW19954   3.796   0.466   4.640
 6352SOL    HW119955   3.705   0.498   4.613
 6352SOL    HW219956   3.861   0.483   4.565
 6353SOL     OW19957   3.705   6.076   5.200
 6353SOL    HW119958   3.674   5.987   5.166
 6353SOL    HW219959   3.634   6.144   5.182
 6354SOL     OW19960   5.141   5.033   2.352
 6354SOL    HW119961   5.187   5.071   2.433
 6354SOL    HW219962   5.145   5.100   2.278
 6355SOL     OW19963   3.809   5.808   1.110
 6355SOL    HW119964   3.724   5.780   1.154
 6355SOL    HW219965   3.838   5.896   1.146
 6356SOL     OW19966   0.257   6.274   6.464
 6356SOL    HW119967   0.231   6.311   6.553
 6356SOL    HW219968   0.175   6.240   6.417
 6357SOL     OW19969   4.790   1.257   3.086
 6357SOL    HW119970   4.866   1.194   3.104
 6357SOL    HW219971   4.804   1.342   3.136
 6358SOL     OW19972   1.100   1.792   4.496
 6358SOL    HW119973   1.065   1.789   4.590
 6358SOL    HW219974   1.199   1.808   4.498
 6359SOL     OW19975   5.456   5.893   1.594
 6359SOL    HW119976   5.397   5.845   1.529
 6359SOL    HW219977   5.463   5.839   1.678
 6360SOL     OW19978   1.972   2.071   1.178
 6360SOL    HW119979   1.982   1.981   1.135
 6360SOL    HW219980   2.024   2.138   1.126
 6361SOL     OW19981   0.347   1.404   1.247
 6361SOL    HW119982   0.368   1.308   1.228
 6361SOL    HW219983   0.420   1.444   1.302
 6362SOL     OW19984   1.729   5.242   0.284
 6362SOL    HW119985   1.644   5.192   0.272
 6362SOL    HW219986   1.761   5.233   0.378
 6363SOL     OW19987   1.580   3.485   1.842
 6363SOL    HW119988   1.510   3.484   1.770
 6363SOL    HW219989   1.662   3.436   1.809
 6364SOL     OW19990   2.572   1.700   3.795
 6364SOL    HW119991   2.586   1.621   3.854
 6364SOL    HW219992   2.499   1.757   3.832
 6365SOL     OW19993   6.089   7.011   2.967
 6365SOL    HW119994   6.130   6.922   2.985
 6365SOL    HW219995   6.009   0.003   3.026
 6366SOL     OW19996   5.697   0.762   5.327
 6366SOL    HW119997   5.604   0.792   5.306
 6366SOL    HW219998   5.749   0.752   5.242
 6367SOL     OW19999   1.147   2.218   3.650
 6367SOL    HW120000   1.243   2.245   3.662
 6367SOL    HW220001   1.120   2.235   3.555
 6368SOL     OW20002   5.016   3.510   4.875
 6368SOL    HW120003   5.091   3.464   4.922
 6368SOL    HW220004   4.946   3.535   4.942
 6369SOL     OW20005   4.261   4.739   0.631
 6369SOL    HW120006   4.340   4.771   0.684
 6369SOL    HW220007   4.183   4.798   0.651
 6370SOL     OW20008   5.677   4.558   4.573
 6370SOL    HW120009   5.739   4.491   4.533
 6370SOL    HW220010   5.616   4.514   4.638
 6371SOL     OW20011   5.669   4.744   1.030
 6371SOL    HW120012   5.719   4.708   1.108
 6371SOL    HW220013   5.675   4.844   1.029
 6372SOL     OW20014   6.664   1.426   1.623
 6372SOL    HW120015   6.699   1.346   1.575
 6372SOL    HW220016   6.574   1.450   1.587
 6373SOL     OW20017   4.961   3.075   2.203
 6373SOL    HW120018   4.905   3.071   2.121
 6373SOL    HW220019   5.004   3.165   2.209
 6374SOL     OW20020   4.891   3.236   6.293
 6374SOL    HW120021   4.839   3.253   6.377
 6374SOL    HW220022   4.863   3.302   6.224
 6375SOL     OW20023   4.877   1.128   1.882
 6375SOL    HW120024   4.926   1.173   1.957
 6375SOL    HW220025   4.814   1.059   1.919
 6376SOL     OW20026   2.851   0.129   0.307
 6376SOL    HW120027   2.876   0.088   0.220
 6376SOL    HW220028   2.934   0.157   0.356
 6377SOL     OW20029   0.256   0.716   6.921
 6377SOL    HW120030   0.298   0.654   6.855
 6377SOL    HW220031   0.181   0.668   6.967
 6378SOL     OW20032   5.629   4.475   2.360
 6378SOL    HW120033   5.709   4.534   2.350
 6378SOL    HW220034   5.559   4.521   2.415
 6379SOL     OW20035   1.982   5.355   6.216
 6379SOL    HW120036   1.915   5.424   6.187
 6379SOL    HW220037   2.027   5.385   6.300
 6380SOL     OW20038   1.443   3.048   5.378
 6380SOL    HW120039   1.416   2.954   5.401
 6380SOL    HW220040   1.411   3.071   5.287
 6381SOL     OW20041   4.021   3.984   0.347
 6381SOL    HW120042   4.011   4.046   0.425
 6381SOL    HW220043   3.943   3.994   0.286
 6382SOL     OW20044   1.729   1.228   0.530
 6382SOL    HW120045   1.760   1.317   0.563
 6382SOL    HW220046   1.716   1.233   0.431
 6383SOL     OW20047   2.417   2.506   2.156
 6383SOL    HW120048   2.508   2.473   2.130
 6383SOL    HW220049   2.405   2.498   2.255
 6384SOL     OW20050   6.617   2.945   1.926
 6384SOL    HW120051   6.559   2.984   1.854
 6384SOL    HW220052   6.560   2.894   1.991
 6385SOL     OW20053   6.485   3.700   0.490
 6385SOL    HW120054   6.483   3.771   0.561
 6385SOL    HW220055   6.515   3.614   0.530
 6386SOL     OW20056   3.139   3.356   0.274
 6386SOL    HW120057   3.109   3.340   0.368
 6386SOL    HW220058   3.072   3.415   0.228
 6387SOL     OW20059   6.668   0.059   6.726
 6387SOL    HW120060   6.765   0.072   6.746
 6387SOL    HW220061   6.621   0.147   6.731
 6388SOL     OW20062   5.580   5.501   1.994
 6388SOL    HW120063   5.675   5.529   2.004
 6388SOL    HW220064   5.574   5.401   1.997
 6389SOL     OW20065   6.784   6.797   0.392
 6389SOL    HW120066   6.823   6.706   0.402
 6389SOL    HW220067   6.719   6.814   0.467
 6390SOL     OW20068   5.480   0.176   0.152
 6390SOL    HW120069   5.515   0.112   0.084
 6390SOL    HW220070   5.474   0.130   0.241
 6391SOL     OW20071   1.607   1.909   4.846
 6391SOL    HW120072   1.597   1.919   4.945
 6391SOL    HW220073   1.629   1.997   4.805
 6392SOL     OW20074   4.604   0.158   4.086
 6392SOL    HW120075   4.666   0.234   4.103
 6392SOL    HW220076   4.539   0.183   4.013
 6393SOL     OW20077   1.646   4.464   0.749
 6393SOL    HW120078   1.726   4.409   0.725
 6393SOL    HW220079   1.676   4.555   0.777
 6394SOL     OW20080   1.960   4.901   1.531
 6394SOL    HW120081   2.005   4.920   1.618
 6394SOL    HW220082   1.956   4.802   1.517
 6395SOL     OW20083   1.967   4.349   4.195
 6395SOL    HW120084   2.007   4.311   4.278
 6395SOL    HW220085   1.983   4.448   4.192
 6396SOL     OW20086   2.053   2.747   5.591
 6396SOL    HW120087   2.026   2.842   5.603
 6396SOL    HW220088   2.060   2.726   5.493
 6397SOL     OW20089   6.401   3.450   5.052
 6397SOL    HW120090   6.412   3.546   5.028
 6397SOL    HW220091   6.316   3.438   5.103
 6398SOL     OW20092   1.910   0.415   2.608
 6398SOL    HW120093   1.966   0.438   2.529
 6398SOL    HW220094   1.968   0.388   2.684
 6399SOL     OW20095   3.390   6.933   0.211
 6399SOL    HW120096   3.416   6.867   0.140
 6399SOL    HW220097   3.467   6.948   0.273
 6400SOL     OW20098   0.261   0.109   2.585
 6400SOL    HW120099   0.162   0.120   2.594
 6400SOL    HW220100   0.280   0.030   2.527
 6401SOL     OW20101   3.991   5.180   2.516
 6401SOL    HW120102   3.898   5.167   2.551
 6401SOL    HW220103   3.990   5.175   2.416
 6402SOL     OW20104   3.146   4.549   5.582
 6402SOL    HW120105   3.114   4.517   5.493
 6402SOL    HW220106   3.190   4.638   5.572
 6403SOL     OW20107   5.200   5.359   5.694
 6403SOL    HW120108   5.198   5.350   5.594
 6403SOL    HW220109   5.108   5.377   5.728
 6404SOL     OW20110   4.772   5.986   0.239
 6404SOL    HW120111   4.725   6.041   0.307
 6404SOL    HW220112   4.865   5.966   0.271
 6405SOL     OW20113   4.283   1.192   2.791
 6405SOL    HW120114   4.235   1.190   2.703
 6405SOL    HW220115   4.373   1.150   2.781
 6406SOL     OW20116   0.245   3.154   2.833
 6406SOL    HW120117   0.245   3.162   2.933
 6406SOL    HW220118   0.153   3.174   2.798
 6407SOL     OW20119   0.343   6.936   2.414
 6407SOL    HW120120   0.401   6.941   2.333
 6407SOL    HW220121   0.248   6.929   2.386
 6408SOL     OW20122   0.064   1.117   1.925
 6408SOL    HW120123   0.034   1.209   1.900
 6408SOL    HW220124   0.087   1.115   2.022
 6409SOL     OW20125   5.569   4.518   3.346
 6409SOL    HW120126   5.493   4.486   3.402
 6409SOL    HW220127   5.538   4.594   3.289
 6410SOL     OW20128   1.940   1.366   0.248
 6410SOL    HW120129   1.998   1.328   0.320
 6410SOL    HW220130   1.845   1.364   0.277
 6411SOL     OW20131   0.567   2.873   2.340
 6411SOL    HW120132   0.622   2.952   2.314
 6411SOL    HW220133   0.476   2.903   2.366
 6412SOL     OW20134   3.856   0.644   6.765
 6412SOL    HW120135   3.876   0.734   6.728
 6412SOL    HW220136   3.840   0.580   6.689
 6413SOL     OW20137   4.958   6.483   3.401
 6413SOL    HW120138   4.995   6.432   3.479
 6413SOL    HW220139   4.936   6.420   3.327
 6414SOL     OW20140   2.884   0.718   0.453
 6414SOL    HW120141   2.822   0.710   0.375
 6414SOL    HW220142   2.916   0.627   0.479
 6415SOL     OW20143   0.962   1.696   3.527
 6415SOL    HW120144   0.997   1.789   3.521
 6415SOL    HW220145   0.969   1.664   3.622
 6416SOL     OW20146   3.323   5.032   0.200
 6416SOL    HW120147   3.396   4.975   0.235
 6416SOL    HW220148   3.357   5.089   0.124
 6417SOL     OW20149   4.194   2.833   6.969
 6417SOL    HW120150   4.291   2.817   6.986
 6417SOL    HW220151   4.173   2.816   6.873
 6418SOL     OW20152   5.215   4.994   0.396
 6418SOL    HW120153   5.174   4.951   0.477
 6418SOL    HW220154   5.201   5.093   0.400
 6419SOL     OW20155   0.836   6.415   6.820
 6419SOL    HW120156   0.891   6.440   6.740
 6419SOL    HW220157   0.775   6.339   6.795
 6420SOL     OW20158   2.690   4.837   3.804
 6420SOL    HW120159   2.656   4.747   3.833
 6420SOL    HW220160   2.768   4.862   3.860
 6421SOL     OW20161   4.723   6.900   1.714
 6421SOL    HW120162   4.653   6.965   1.684
 6421SOL    HW220163   4.758   6.850   1.635
 6422SOL     OW20164   6.928   3.159   4.577
 6422SOL    HW120165   6.938   3.081   4.639
 6422SOL    HW220166   7.010   3.169   4.522
 6423SOL     OW20167   1.086   4.510   4.899
 6423SOL    HW120168   1.140   4.535   4.979
 6423SOL    HW220169   0.998   4.472   4.929
 6424SOL     OW20170   6.961   4.636   5.878
 6424SOL    HW120171   6.946   4.616   5.782
 6424SOL    HW220172   6.887   4.595   5.933
 6425SOL     OW20173   6.892   6.197   4.286
 6425SOL    HW120174   6.985   6.165   4.305
 6425SOL    HW220175   6.895   6.291   4.253
 6426SOL     OW20176   4.712   5.088   4.499
 6426SOL    HW120177   4.702   5.020   4.427
 6426SOL    HW220178   4.633   5.150   4.497
 6427SOL     OW20179   4.115   3.343   3.201
 6427SOL    HW120180   4.030   3.322   3.249
 6427SOL    HW220181   4.106   3.319   3.104
 6428SOL     OW20182   5.681   3.052   0.270
 6428SOL    HW120183   5.614   3.105   0.321
 6428SOL    HW220184   5.672   2.955   0.293
 6429SOL     OW20185   2.183   1.457   5.418
 6429SOL    HW120186   2.196   1.477   5.515
 6429SOL    HW220187   2.169   1.543   5.369
 6430SOL     OW20188   6.191   1.110   5.303
 6430SOL    HW120189   6.230   1.020   5.323
 6430SOL    HW220190   6.117   1.099   5.236
 6431SOL     OW20191   3.399   5.265   2.559
 6431SOL    HW120192   3.454   5.185   2.582
 6431SOL    HW220193   3.430   5.343   2.612
 6432SOL     OW20194   4.886   3.022   5.767
 6432SOL    HW120195   4.791   3.053   5.756
 6432SOL    HW220196   4.939   3.053   5.688
 6433SOL     OW20197   3.723   4.952   5.601
 6433SOL    HW120198   3.774   5.035   5.579
 6433SOL    HW220199   3.696   4.953   5.697
 6434SOL     OW20200   5.573   5.255   5.951
 6434SOL    HW120201   5.523   5.335   5.982
 6434SOL    HW220202   5.538   5.227   5.861
 6435SOL     OW20203   4.732   1.144   0.884
 6435SOL    HW120204   4.663   1.134   0.956
 6435SOL    HW220205   4.722   1.070   0.818
 6436SOL     OW20206   0.500   3.505   3.751
 6436SOL    HW120207   0.454   3.492   3.839
 6436SOL    HW220208   0.433   3.537   3.683
 6437SOL     OW20209   1.400   2.767   5.961
 6437SOL    HW120210   1.312   2.727   5.985
 6437SOL    HW220211   1.388   2.834   5.888
 6438SOL     OW20212   0.461   5.341   0.093
 6438SOL    HW120213   0.418   5.305   0.010
 6438SOL    HW220214   0.494   5.434   0.077
 6439SOL     OW20215   5.549   6.872   2.278
 6439SOL    HW120216   5.557   6.800   2.347
 6439SOL    HW220217   5.574   6.960   2.318
 6440SOL     OW20218   2.616   1.670   6.027
 6440SOL    HW120219   2.634   1.610   6.105
 6440SOL    HW220220   2.586   1.759   6.060
 6441SOL     OW20221   0.131   2.155   1.906
 6441SOL    HW120222   0.159   2.137   1.812
 6441SOL    HW220223   0.079   2.077   1.941
 6442SOL     OW20224   2.498   2.293   4.928
 6442SOL    HW120225   2.513   2.382   4.971
 6442SOL    HW220226   2.546   2.222   4.980
 6443SOL     OW20227   3.652   3.033   6.497
 6443SOL    HW120228   3.702   3.023   6.411
 6443SOL    HW220229   3.716   3.062   6.569
 6444SOL     OW20230   6.893   4.044   4.764
 6444SOL    HW120231   6.850   4.064   4.675
 6444SOL    HW220232   6.991   4.059   4.758
 6445SOL     OW20233   3.577   2.959   3.503
 6445SOL    HW120234   3.525   2.934   3.421
 6445SOL    HW220235   3.527   2.930   3.585
 6446SOL     OW20236   1.423   0.890   0.265
 6446SOL    HW120237   1.431   0.834   0.347
 6446SOL    HW220238   1.379   0.838   0.192
 6447SOL     OW20239   5.747   3.560   2.050
 6447SOL    HW120240   5.676   3.568   1.981
 6447SOL    HW220241   5.753   3.644   2.103
 6448SOL     OW20242   4.496   4.631   1.251
 6448SOL    HW120243   4.588   4.621   1.288
 6448SOL    HW220244   4.500   4.630   1.151
 6449SOL     OW20245   3.400   5.063   0.719
 6449SOL    HW120246   3.494   5.041   0.744
 6449SOL    HW220247   3.340   4.989   0.747
 6450SOL     OW20248   6.257   3.595   6.688
 6450SOL    HW120249   6.234   3.504   6.723
 6450SOL    HW220250   6.187   3.624   6.622
 6451SOL     OW20251   4.294   2.727   1.651
 6451SOL    HW120252   4.216   2.780   1.684
 6451SOL    HW220253   4.378   2.780   1.662
 6452SOL     OW20254   3.802   2.108   5.062
 6452SOL    HW120255   3.835   2.192   5.105
 6452SOL    HW220256   3.867   2.034   5.078
 6453SOL     OW20257   1.663   0.139   2.952
 6453SOL    HW120258   1.588   0.098   2.900
 6453SOL    HW220259   1.673   0.090   3.039
 6454SOL     OW20260   5.042   2.716   4.407
 6454SOL    HW120261   5.022   2.814   4.401
 6454SOL    HW220262   5.101   2.698   4.486
 6455SOL     OW20263   6.922   2.897   3.803
 6455SOL    HW120264   6.861   2.908   3.882
 6455SOL    HW220265   6.968   2.983   3.783
 6456SOL     OW20266   6.488   2.130   2.117
 6456SOL    HW120267   6.525   2.156   2.207
 6456SOL    HW220268   6.408   2.071   2.130
 6457SOL     OW20269   2.548   6.299   2.623
 6457SOL    HW120270   2.544   6.390   2.580
 6457SOL    HW220271   2.469   6.245   2.595
 6458SOL     OW20272   0.195   6.956   4.669
 6458SOL    HW120273   0.272   7.017   4.689
 6458SOL    HW220274   0.109   7.007   4.678
 6459SOL     OW20275   0.543   3.168   3.164
 6459SOL    HW120276   0.555   3.083   3.112
 6459SOL    HW220277   0.592   3.242   3.118
 6460SOL     OW20278   1.627   5.392   6.374
 6460SOL    HW120279   1.596   5.297   6.370
 6460SOL    HW220280   1.689   5.411   6.298
 6461SOL     OW20281   0.899   6.164   0.956
 6461SOL    HW120282   0.899   6.158   0.856
 6461SOL    HW220283   0.983   6.210   0.986
 6462SOL     OW20284   1.984   3.780   5.245
 6462SOL    HW120285   2.005   3.837   5.325
 6462SOL    HW220286   1.898   3.731   5.261
 6463SOL     OW20287   5.191   3.084   1.166
 6463SOL    HW120288   5.174   3.121   1.075
 6463SOL    HW220289   5.219   3.158   1.227
 6464SOL     OW20290   0.730   4.179   3.701
 6464SOL    HW120291   0.751   4.141   3.790
 6464SOL    HW220292   0.798   4.248   3.677
 6465SOL     OW20293   2.778   0.815   3.775
 6465SOL    HW120294   2.856   0.857   3.821
 6465SOL    HW220295   2.697   0.872   3.787
 6466SOL     OW20296   7.005   5.027   6.846
 6466SOL    HW120297   6.973   5.054   6.937
 6466SOL    HW220298   6.926   5.013   6.786
 6467SOL     OW20299   2.116   2.093   6.278
 6467SOL    HW120300   2.107   2.089   6.378
 6467SOL    HW220301   2.035   2.137   6.239
 6468SOL     OW20302   1.955   0.331   1.372
 6468SOL    HW120303   2.001   0.415   1.344
 6468SOL    HW220304   1.856   0.347   1.375
 6469SOL     OW20305   2.410   1.097   1.595
 6469SOL    HW120306   2.360   1.018   1.632
 6469SOL    HW220307   2.496   1.065   1.555
 6470SOL     OW20308   6.494   1.577   0.008
 6470SOL    HW120309   6.406   1.613   0.039
 6470SOL    HW220310   6.525   1.505   0.070
 6471SOL     OW20311   0.158   6.322   5.699
 6471SOL    HW120312   0.081   6.379   5.726
 6471SOL    HW220313   0.224   6.318   5.773
 6472SOL     OW20314   6.843   6.398   2.611
 6472SOL    HW120315   6.853   6.315   2.556
 6472SOL    HW220316   6.760   6.391   2.667
 6473SOL     OW20317   2.505   0.628   3.022
 6473SOL    HW120318   2.518   0.687   2.942
 6473SOL    HW220319   2.536   0.676   3.104
 6474SOL     OW20320   3.675   6.503   4.161
 6474SOL    HW120321   3.604   6.466   4.221
 6474SOL    HW220322   3.646   6.496   4.066
 6475SOL     OW20323   5.602   5.632   3.029
 6475SOL    HW120324   5.614   5.601   3.123
 6475SOL    HW220325   5.680   5.688   3.002
 6476SOL     OW20326   4.596   3.182   6.290
 6476SOL    HW120327   4.687   3.181   6.331
 6476SOL    HW220328   4.527   3.189   6.362
 6477SOL     OW20329   0.522   6.339   0.992
 6477SOL    HW120330   0.584   6.417   0.983
 6477SOL    HW220331   0.529   6.282   0.910
 6478SOL     OW20332   2.189   5.886   1.105
 6478SOL    HW120333   2.159   5.801   1.149
 6478SOL    HW220334   2.255   5.866   1.034
 6479SOL     OW20335   4.660   6.099   3.181
 6479SOL    HW120336   4.688   6.172   3.244
 6479SOL    HW220337   4.571   6.063   3.208
 6480SOL     OW20338   3.549   1.746   6.103
 6480SOL    HW120339   3.599   1.686   6.166
 6480SOL    HW220340   3.503   1.690   6.034
 6481SOL     OW20341   4.238   3.333   1.914
 6481SOL    HW120342   4.264   3.400   1.844
 6481SOL    HW220343   4.281   3.245   1.894
 6482SOL     OW20344   5.058   3.387   5.448
 6482SOL    HW120345   5.145   3.383   5.398
 6482SOL    HW220346   4.985   3.415   5.386
 6483SOL     OW20347   1.919   5.852   5.169
 6483SOL    HW120348   2.003   5.798   5.160
 6483SOL    HW220349   1.842   5.791   5.190
 6484SOL     OW20350   4.119   1.319   3.508
 6484SOL    HW120351   4.131   1.223   3.533
 6484SOL    HW220352   4.175   1.376   3.568
 6485SOL     OW20353   2.538   5.547   5.047
 6485SOL    HW120354   2.613   5.539   4.982
 6485SOL    HW220355   2.574   5.541   5.140
 6486SOL     OW20356   6.947   4.620   2.354
 6486SOL    HW120357   0.008   4.620   2.412
 6486SOL    HW220358   6.865   4.624   2.411
 6487SOL     OW20359   6.633   5.203   3.625
 6487SOL    HW120360   6.622   5.255   3.710
 6487SOL    HW220361   6.666   5.262   3.553
 6488SOL     OW20362   3.475   5.254   4.249
 6488SOL    HW120363   3.481   5.155   4.261
 6488SOL    HW220364   3.518   5.299   4.328
 6489SOL     OW20365   5.366   3.187   4.459
 6489SOL    HW120366   5.339   3.282   4.476
 6489SOL    HW220367   5.306   3.126   4.510
 6490SOL     OW20368   2.278   2.425   0.377
 6490SOL    HW120369   2.299   2.520   0.352
 6490SOL    HW220370   2.192   2.422   0.428
 6491SOL     OW20371   1.796   6.616   1.798
 6491SOL    HW120372   1.895   6.625   1.791
 6491SOL    HW220373   1.769   6.613   1.894
 6492SOL     OW20374   4.063   3.782   4.093
 6492SOL    HW120375   3.997   3.855   4.076
 6492SOL    HW220376   4.086   3.737   4.007
 6493SOL     OW20377   1.373   4.747   3.919
 6493SOL    HW120378   1.448   4.731   3.854
 6493SOL    HW220379   1.289   4.766   3.868
 6494SOL     OW20380   6.524   0.883   1.286
 6494SOL    HW120381   6.547   0.868   1.190
 6494SOL    HW220382   6.604   0.918   1.335
 6495SOL     OW20383   0.018   0.134   3.465
 6495SOL    HW120384   6.969   0.150   3.535
 6495SOL    HW220385   0.077   0.059   3.493
 6496SOL     OW20386   3.235   2.173   1.865
 6496SOL    HW120387   3.234   2.114   1.784
 6496SOL    HW220388   3.325   2.169   1.908
 6497SOL     OW20389   6.994   1.470   0.830
 6497SOL    HW120390   0.021   1.558   0.820
 6497SOL    HW220391   0.040   1.399   0.854
 6498SOL     OW20392   2.255   4.290   4.336
 6498SOL    HW120393   2.297   4.328   4.418
 6498SOL    HW220394   2.269   4.353   4.259
 6499SOL     OW20395   4.642   2.426   3.614
 6499SOL    HW120396   4.718   2.476   3.572
 6499SOL    HW220397   4.614   2.473   3.698
 6500SOL     OW20398   1.213   3.920   3.550
 6500SOL    HW120399   1.243   3.987   3.482
 6500SOL    HW220400   1.201   3.831   3.505
 6501SOL     OW20401   5.936   1.506   3.108
 6501SOL    HW120402   5.938   1.407   3.090
 6501SOL    HW220403   5.956   1.522   3.205
 6502SOL     OW20404   0.470   3.425   1.574
 6502SOL    HW120405   0.397   3.431   1.642
 6502SOL    HW220406   0.432   3.400   1.486
 6503SOL     OW20407   6.592   3.506   5.602
 6503SOL    HW120408   6.542   3.494   5.516
 6503SOL    HW220409   6.528   3.522   5.677
 6504SOL     OW20410   3.327   0.223   6.450
 6504SOL    HW120411   3.394   0.149   6.461
 6504SOL    HW220412   3.331   0.284   6.529
 6505SOL     OW20413   0.169   6.640   0.846
 6505SOL    HW120414   0.249   6.601   0.800
 6505SOL    HW220415   0.123   6.569   0.899
 6506SOL     OW20416   0.513   3.673   2.189
 6506SOL    HW120417   0.552   3.662   2.098
 6506SOL    HW220418   0.521   3.587   2.240
 6507SOL     OW20419   4.092   5.481   1.186
 6507SOL    HW120420   4.090   5.382   1.181
 6507SOL    HW220421   4.170   5.511   1.241
 6508SOL     OW20422   6.777   0.925   3.457
 6508SOL    HW120423   6.707   0.893   3.392
 6508SOL    HW220424   6.840   0.851   3.477
 6509SOL     OW20425   2.673   1.636   0.179
 6509SOL    HW120426   2.584   1.591   0.177
 6509SOL    HW220427   2.715   1.629   0.088
 6510SOL     OW20428   3.230   5.191   4.881
 6510SOL    HW120429   3.184   5.106   4.905
 6510SOL    HW220430   3.279   5.227   4.960
 6511SOL     OW20431   3.010   2.177   0.234
 6511SOL    HW120432   3.056   2.124   0.163
 6511SOL    HW220433   2.911   2.168   0.224
 6512SOL     OW20434   4.848   0.656   0.282
 6512SOL    HW120435   4.884   0.593   0.352
 6512SOL    HW220436   4.899   0.643   0.197
 6513SOL     OW20437   2.793   4.723   3.141
 6513SOL    HW120438   2.757   4.675   3.062
 6513SOL    HW220439   2.753   4.683   3.225
 6514SOL     OW20440   5.146   6.196   5.610
 6514SOL    HW120441   5.184   6.106   5.632
 6514SOL    HW220442   5.219   6.264   5.610
 6515SOL     OW20443   0.675   4.752   2.865
 6515SOL    HW120444   0.676   4.653   2.854
 6515SOL    HW220445   0.614   4.792   2.797
 6516SOL     OW20446   6.639   2.375   2.577
 6516SOL    HW120447   6.631   2.473   2.559
 6516SOL    HW220448   6.689   2.361   2.663
 6517SOL     OW20449   6.337   3.775   0.286
 6517SOL    HW120450   6.391   3.750   0.366
 6517SOL    HW220451   6.316   3.873   0.289
 6518SOL     OW20452   1.230   0.842   2.176
 6518SOL    HW120453   1.156   0.888   2.127
 6518SOL    HW220454   1.200   0.750   2.204
 6519SOL     OW20455   1.430   1.260   2.862
 6519SOL    HW120456   1.355   1.308   2.907
 6519SOL    HW220457   1.516   1.309   2.880
 6520SOL     OW20458   6.584   5.323   0.240
 6520SOL    HW120459   6.644   5.303   0.317
 6520SOL    HW220460   6.499   5.270   0.249
 6521SOL     OW20461   1.659   4.967   4.007
 6521SOL    HW120462   1.665   4.906   3.928
 6521SOL    HW220463   1.637   4.913   4.089
 6522SOL     OW20464   2.589   2.827   5.410
 6522SOL    HW120465   2.519   2.833   5.482
 6522SOL    HW220466   2.566   2.891   5.337
 6523SOL     OW20467   6.386   6.438   0.921
 6523SOL    HW120468   6.390   6.497   0.841
 6523SOL    HW220469   6.302   6.384   0.918
 6524SOL     OW20470   3.053   2.997   1.303
 6524SOL    HW120471   3.052   3.082   1.251
 6524SOL    HW220472   2.959   2.971   1.327
 6525SOL     OW20473   1.242   4.845   3.428
 6525SOL    HW120474   1.306   4.874   3.498
 6525SOL    HW220475   1.211   4.751   3.447
 6526SOL     OW20476   6.896   6.417   0.658
 6526SOL    HW120477   6.990   6.446   0.643
 6526SOL    HW220478   6.895   6.334   0.714
 6527SOL     OW20479   6.044   1.628   1.196
 6527SOL    HW120480   6.042   1.534   1.162
 6527SOL    HW220481   5.974   1.639   1.267
 6528SOL     OW20482   4.579   6.875   0.589
 6528SOL    HW120483   4.522   6.851   0.511
 6528SOL    HW220484   4.652   6.807   0.600
 6529SOL     OW20485   4.691   0.334   2.023
 6529SOL    HW120486   4.712   0.239   1.999
 6529SOL    HW220487   4.690   0.344   2.122
 6530SOL     OW20488   0.483   2.581   3.326
 6530SOL    HW120489   0.439   2.560   3.413
 6530SOL    HW220490   0.475   2.679   3.307
 6531SOL     OW20491   3.861   3.920   3.964
 6531SOL    HW120492   3.789   3.990   3.961
 6531SOL    HW220493   3.820   3.830   3.967
 6532SOL     OW20494   0.893   6.196   0.685
 6532SOL    HW120495   0.836   6.129   0.638
 6532SOL    HW220496   0.972   6.219   0.628
 6533SOL     OW20497   4.843   4.619   1.433
 6533SOL    HW120498   4.812   4.561   1.508
 6533SOL    HW220499   4.858   4.712   1.466
 6534SOL     OW20500   6.987   4.501   3.417
 6534SOL    HW120501   0.034   4.434   3.385
 6534SOL    HW220502   6.895   4.465   3.404
 6535SOL     OW20503   5.134   4.114   5.532
 6535SOL    HW120504   5.079   4.034   5.559
 6535SOL    HW220505   5.115   4.190   5.594
 6536SOL     OW20506   0.174   4.470   5.563
 6536SOL    HW120507   0.152   4.544   5.628
 6536SOL    HW220508   0.203   4.510   5.476
 6537SOL     OW20509   7.013   5.497   3.815
 6537SOL    HW120510   0.030   5.588   3.796
 6537SOL    HW220511   6.939   5.477   3.751
 6538SOL     OW20512   1.009   2.536   4.649
 6538SOL    HW120513   0.948   2.487   4.587
 6538SOL    HW220514   0.955   2.592   4.713
 6539SOL     OW20515   4.304   6.465   6.470
 6539SOL    HW120516   4.366   6.401   6.425
 6539SOL    HW220517   4.328   6.559   6.444
 6540SOL     OW20518   0.060   2.920   5.564
 6540SOL    HW120519   6.999   2.925   5.506
 6540SOL    HW220520   0.138   2.891   5.509
 6541SOL     OW20521   4.749   1.892   5.510
 6541SOL    HW120522   4.692   1.846   5.443
 6541SOL    HW220523   4.707   1.884   5.601
 6542SOL     OW20524   1.754   3.807   2.647
 6542SOL    HW120525   1.826   3.756   2.599
 6542SOL    HW220526   1.769   3.905   2.633
 6543SOL     OW20527   3.823   1.417   4.566
 6543SOL    HW120528   3.905   1.458   4.605
 6543SOL    HW220529   3.849   1.341   4.506
 6544SOL     OW20530   0.521   0.280   0.631
 6544SOL    HW120531   0.595   0.298   0.566
 6544SOL    HW220532   0.442   0.243   0.582
 6545SOL     OW20533   4.911   6.277   1.071
 6545SOL    HW120534   4.865   6.190   1.090
 6545SOL    HW220535   4.940   6.279   0.975
 6546SOL     OW20536   4.659   5.121   6.000
 6546SOL    HW120537   4.610   5.041   5.963
 6546SOL    HW220538   4.746   5.092   6.039
 6547SOL     OW20539   0.712   6.210   5.241
 6547SOL    HW120540   0.668   6.295   5.269
 6547SOL    HW220541   0.696   6.194   5.144
 6548SOL     OW20542   0.839   1.864   5.905
 6548SOL    HW120543   0.868   1.807   5.829
 6548SOL    HW220544   0.753   1.910   5.882
 6549SOL     OW20545   3.481   1.699   2.632
 6549SOL    HW120546   3.558   1.636   2.617
 6549SOL    HW220547   3.469   1.757   2.552
 6550SOL     OW20548   5.902   6.448   2.243
 6550SOL    HW120549   5.885   6.434   2.341
 6550SOL    HW220550   5.844   6.386   2.190
 6551SOL     OW20551   3.046   4.985   0.696
 6551SOL    HW120552   3.086   5.071   0.728
 6551SOL    HW220553   3.048   4.917   0.770
 6552SOL     OW20554   2.051   4.594   6.922
 6552SOL    HW120555   1.994   4.645   6.858
 6552SOL    HW220556   1.999   4.577   7.006
 6553SOL     OW20557   0.727   2.121   3.504
 6553SOL    HW120558   0.704   2.095   3.598
 6553SOL    HW220559   0.699   2.048   3.442
 6554SOL     OW20560   1.422   2.718   4.152
 6554SOL    HW120561   1.360   2.640   4.142
 6554SOL    HW220562   1.368   2.801   4.171
 6555SOL     OW20563   1.316   3.912   4.439
 6555SOL    HW120564   1.331   3.878   4.346
 6555SOL    HW220565   1.304   3.835   4.501
 6556SOL     OW20566   4.711   2.786   2.751
 6556SOL    HW120567   4.686   2.877   2.784
 6556SOL    HW220568   4.755   2.793   2.662
 6557SOL     OW20569   2.307   1.118   2.025
 6557SOL    HW120570   2.216   1.079   2.011
 6557SOL    HW220571   2.331   1.111   2.122
 6558SOL     OW20572   5.477   5.894   1.125
 6558SOL    HW120573   5.566   5.923   1.161
 6558SOL    HW220574   5.491   5.830   1.050
 6559SOL     OW20575   6.999   2.328   6.152
 6559SOL    HW120576   7.004   2.343   6.251
 6559SOL    HW220577   0.013   2.408   6.104
 6560SOL     OW20578   6.336   4.512   6.725
 6560SOL    HW120579   6.361   4.415   6.727
 6560SOL    HW220580   6.419   4.568   6.735
 6561SOL     OW20581   2.546   4.143   0.635
 6561SOL    HW120582   2.584   4.053   0.612
 6561SOL    HW220583   2.451   4.147   0.605
 6562SOL     OW20584   4.900   2.648   1.588
 6562SOL    HW120585   4.872   2.744   1.575
 6562SOL    HW220586   4.927   2.634   1.683
 6563SOL     OW20587   6.553   5.063   5.477
 6563SOL    HW120588   6.457   5.090   5.475
 6563SOL    HW220589   6.560   4.968   5.509
 6564SOL     OW20590   5.435   3.352   2.397
 6564SOL    HW120591   5.431   3.268   2.451
 6564SOL    HW220592   5.403   3.334   2.304
 6565SOL     OW20593   5.345   6.822   2.107
 6565SOL    HW120594   5.313   6.880   2.032
 6565SOL    HW220595   5.440   6.844   2.129
 6566SOL     OW20596   5.111   5.411   3.752
 6566SOL    HW120597   5.064   5.428   3.839
 6566SOL    HW220598   5.177   5.337   3.764
 6567SOL     OW20599   3.687   0.568   2.555
 6567SOL    HW120600   3.766   0.511   2.577
 6567SOL    HW220601   3.636   0.526   2.480
 6568SOL     OW20602   4.908   1.028   0.697
 6568SOL    HW120603   4.912   1.120   0.736
 6568SOL    HW220604   4.990   1.013   0.641
 6569SOL     OW20605   1.126   5.093   4.216
 6569SOL    HW120606   1.041   5.072   4.265
 6569SOL    HW220607   1.170   5.008   4.188
 6570SOL     OW20608   4.436   0.189   2.250
 6570SOL    HW120609   4.402   0.258   2.187
 6570SOL    HW220610   4.384   0.193   2.335
 6571SOL     OW20611   2.827   6.116   3.226
 6571SOL    HW120612   2.900   6.175   3.260
 6571SOL    HW220613   2.739   6.161   3.240
 6572SOL     OW20614   1.760   6.145   3.908
 6572SOL    HW120615   1.706   6.062   3.894
 6572SOL    HW220616   1.713   6.205   3.973
 6573SOL     OW20617   6.911   2.276   3.039
 6573SOL    HW120618   6.816   2.280   3.069
 6573SOL    HW220619   6.971   2.303   3.114
 6574SOL     OW20620   1.550   4.540   2.032
 6574SOL    HW120621   1.631   4.558   1.976
 6574SOL    HW220622   1.512   4.626   2.065
 6575SOL     OW20623   0.058   1.805   3.427
 6575SOL    HW120624   7.006   1.789   3.494
 6575SOL    HW220625   0.020   1.851   3.347
 6576SOL     OW20626   3.792   0.027   1.629
 6576SOL    HW120627   3.772   0.065   1.719
 6576SOL    HW220628   3.755   6.954   1.624
 6577SOL     OW20629   3.614   0.984   4.450
 6577SOL    HW120630   3.582   0.915   4.515
 6577SOL    HW220631   3.681   0.943   4.388
 6578SOL     OW20632   1.441   4.695   0.955
 6578SOL    HW120633   1.364   4.658   0.903
 6578SOL    HW220634   1.518   4.712   0.893
 6579SOL     OW20635   1.180   1.175   3.670
 6579SOL    HW120636   1.081   1.160   3.671
 6579SOL    HW220637   1.227   1.087   3.671
 6580SOL     OW20638   2.747   2.171   0.244
 6580SOL    HW120639   2.694   2.088   0.224
 6580SOL    HW220640   2.684   2.246   0.267
 6581SOL     OW20641   0.557   1.966   1.133
 6581SOL    HW120642   0.645   1.957   1.182
 6581SOL    HW220643   0.483   1.940   1.195
 6582SOL     OW20644   5.233   0.558   3.227
 6582SOL    HW120645   5.214   0.640   3.280
 6582SOL    HW220646   5.263   0.484   3.287
 6583SOL     OW20647   3.026   4.109   0.452
 6583SOL    HW120648   3.118   4.146   0.437
 6583SOL    HW220649   2.969   4.180   0.494
 6584SOL     OW20650   4.087   2.056   6.513
 6584SOL    HW120651   4.155   2.004   6.460
 6584SOL    HW220652   4.135   2.117   6.576
 6585SOL     OW20653   5.606   0.108   1.679
 6585SOL    HW120654   5.661   0.190   1.692
 6585SOL    HW220655   5.641   0.035   1.738
 6586SOL     OW20656   6.557   1.344   6.235
 6586SOL    HW120657   6.656   1.331   6.229
 6586SOL    HW220658   6.521   1.296   6.315
 6587SOL     OW20659   2.892   5.067   4.753
 6587SOL    HW120660   2.819   5.131   4.778
 6587SOL    HW220661   2.980   5.114   4.757
 6588SOL     OW20662   0.909   1.912   0.265
 6588SOL    HW120663   0.988   1.961   0.303
 6588SOL    HW220664   0.868   1.967   0.192
 6589SOL     OW20665   6.501   6.532   1.943
 6589SOL    HW120666   6.473   6.469   2.014
 6589SOL    HW220667   6.504   6.485   1.855
 6590SOL     OW20668   1.318   6.151   4.507
 6590SOL    HW120669   1.397   6.210   4.525
 6590SOL    HW220670   1.236   6.208   4.496
 6591SOL     OW20671   6.266   3.178   3.656
 6591SOL    HW120672   6.247   3.080   3.650
 6591SOL    HW220673   6.299   3.211   3.568
 6592SOL     OW20674   6.414   0.505   3.886
 6592SOL    HW120675   6.400   0.442   3.962
 6592SOL    HW220676   6.347   0.580   3.892
 6593SOL     OW20677   2.364   1.534   2.000
 6593SOL    HW120678   2.383   1.471   1.925
 6593SOL    HW220679   2.317   1.485   2.074
 6594SOL     OW20680   5.171   6.862   6.928
 6594SOL    HW120681   5.171   6.779   6.984
 6594SOL    HW220682   5.154   6.942   6.987
 6595SOL     OW20683   0.994   1.897   5.134
 6595SOL    HW120684   1.021   1.978   5.187
 6595SOL    HW220685   1.074   1.859   5.088
 6596SOL     OW20686   5.205   1.041   2.230
 6596SOL    HW120687   5.230   1.114   2.294
 6596SOL    HW220688   5.110   1.013   2.247
 6597SOL     OW20689   0.860   4.574   0.972
 6597SOL    HW120690   0.924   4.504   0.941
 6597SOL    HW220691   0.768   4.534   0.979
 6598SOL     OW20692   1.338   5.276   3.339
 6598SOL    HW120693   1.319   5.373   3.330
 6598SOL    HW220694   1.375   5.257   3.430
 6599SOL     OW20695   0.227   5.860   6.396
 6599SOL    HW120696   0.200   5.767   6.372
 6599SOL    HW220697   0.190   5.923   6.328
 6600SOL     OW20698   4.787   6.904   4.803
 6600SOL    HW120699   4.822   6.848   4.728
 6600SOL    HW220700   4.695   6.875   4.826
 6601SOL     OW20701   1.500   2.615   1.746
 6601SOL    HW120702   1.564   2.664   1.687
 6601SOL    HW220703   1.524   2.518   1.747
 6602SOL     OW20704   6.957   5.499   1.251
 6602SOL    HW120705   6.949   5.400   1.261
 6602SOL    HW220706   6.926   5.526   1.159
 6603SOL     OW20707   0.313   4.454   2.141
 6603SOL    HW120708   0.260   4.428   2.222
 6603SOL    HW220709   0.408   4.426   2.152
 6604SOL     OW20710   1.800   5.700   3.284
 6604SOL    HW120711   1.860   5.777   3.305
 6604SOL    HW220712   1.833   5.652   3.203
 6605SOL     OW20713   0.198   5.282   1.200
 6605SOL    HW120714   0.130   5.331   1.145
 6605SOL    HW220715   0.283   5.276   1.149
 6606SOL     OW20716   1.519   3.709   2.809
 6606SOL    HW120717   1.538   3.676   2.902
 6606SOL    HW220718   1.605   3.742   2.768
 6607SOL     OW20719   6.341   3.161   4.110
 6607SOL    HW120720   6.395   3.107   4.175
 6607SOL    HW220721   6.321   3.250   4.150
 6608SOL     OW20722   1.175   0.278   5.867
 6608SOL    HW120723   1.096   0.324   5.826
 6608SOL    HW220724   1.238   0.347   5.902
 6609SOL     OW20725   3.661   2.210   7.007
 6609SOL    HW120726   3.657   2.251   0.078
 6609SOL    HW220727   3.618   2.272   6.941
 6610SOL     OW20728   3.066   6.041   1.107
 6610SOL    HW120729   3.034   6.053   1.013
 6610SOL    HW220730   2.989   6.049   1.170
 6611SOL     OW20731   2.971   1.924   4.798
 6611SOL    HW120732   3.045   1.958   4.739
 6611SOL    HW220733   3.000   1.838   4.840
 6612SOL     OW20734   0.968   0.182   0.178
 6612SOL    HW120735   1.064   0.188   0.206
 6612SOL    HW220736   0.964   0.157   0.081
 6613SOL     OW20737   4.689   6.415   0.723
 6613SOL    HW120738   4.641   6.345   0.776
 6613SOL    HW220739   4.734   6.372   0.644
 6614SOL     OW20740   4.120   4.672   1.130
 6614SOL    HW120741   4.198   4.731   1.150
 6614SOL    HW220742   4.041   4.701   1.183
 6615SOL     OW20743   3.591   5.480   5.876
 6615SOL    HW120744   3.518   5.425   5.836
 6615SOL    HW220745   3.552   5.542   5.944
 6616SOL     OW20746   4.140   1.139   7.009
 6616SOL    HW120747   4.088   1.205   0.042
 6616SOL    HW220748   4.232   1.129   0.028
 6617SOL     OW20749   3.597   0.624   3.822
 6617SOL    HW120750   3.697   0.626   3.818
 6617SOL    HW220751   3.560   0.710   3.786
 6618SOL     OW20752   5.891   2.233   4.261
 6618SOL    HW120753   5.914   2.196   4.171
 6618SOL    HW220754   5.975   2.248   4.313
 6619SOL     OW20755   5.063   5.262   3.986
 6619SOL    HW120756   5.065   5.222   4.077
 6619SOL    HW220757   4.978   5.235   3.940
 6620SOL     OW20758   1.138   2.642   3.280
 6620SOL    HW120759   1.112   2.702   3.356
 6620SOL    HW220760   1.062   2.635   3.216
 6621SOL     OW20761   3.110   3.422   3.981
 6621SOL    HW120762   3.089   3.398   4.075
 6621SOL    HW220763   3.025   3.429   3.928
 6622SOL     OW20764   6.990   4.901   1.104
 6622SOL    HW120765   6.941   4.976   1.059
 6622SOL    HW220766   0.054   4.936   1.144
 6623SOL     OW20767   3.036   3.957   3.728
 6623SOL    HW120768   3.069   4.017   3.800
 6623SOL    HW220769   3.012   3.868   3.767
 6624SOL     OW20770   2.714   2.387   2.906
 6624SOL    HW120771   2.711   2.387   2.806
 6624SOL    HW220772   2.802   2.350   2.936
 6625SOL     OW20773   6.762   4.053   5.564
 6625SOL    HW120774   6.791   4.050   5.660
 6625SOL    HW220775   6.690   4.121   5.553
 6626SOL     OW20776   3.242   5.650   5.252
 6626SOL    HW120777   3.248   5.725   5.317
 6626SOL    HW220778   3.301   5.669   5.174
 6627SOL     OW20779   2.421   5.991   4.533
 6627SOL    HW120780   2.428   6.082   4.573
 6627SOL    HW220781   2.325   5.973   4.508
 6628SOL     OW20782   3.885   6.997   3.479
 6628SOL    HW120783   3.933   0.059   3.450
 6628SOL    HW220784   3.801   0.002   3.527
 6629SOL     OW20785   4.765   5.477   5.163
 6629SOL    HW120786   4.708   5.558   5.148
 6629SOL    HW220787   4.841   5.477   5.097
 6630SOL     OW20788   1.672   0.731   0.467
 6630SOL    HW120789   1.709   0.784   0.390
 6630SOL    HW220790   1.591   0.777   0.503
 6631SOL     OW20791   2.171   3.085   6.004
 6631SOL    HW120792   2.163   3.128   5.914
 6631SOL    HW220793   2.267   3.086   6.033
 6632SOL     OW20794   1.350   0.560   6.816
 6632SOL    HW120795   1.386   0.472   6.783
 6632SOL    HW220796   1.275   0.543   6.880
 6633SOL     OW20797   4.419   5.633   6.268
 6633SOL    HW120798   4.338   5.670   6.223
 6633SOL    HW220799   4.418   5.534   6.264
 6634SOL     OW20800   3.439   2.024   4.251
 6634SOL    HW120801   3.503   2.039   4.176
 6634SOL    HW220802   3.371   1.956   4.224
 6635SOL     OW20803   5.154   5.330   5.427
 6635SOL    HW120804   5.081   5.397   5.416
 6635SOL    HW220805   5.228   5.349   5.363
 6636SOL     OW20806   4.375   1.080   0.112
 6636SOL    HW120807   4.432   0.999   0.128
 6636SOL    HW220808   4.428   1.162   0.134
 6637SOL     OW20809   0.062   2.198   6.931
 6637SOL    HW120810   0.060   2.109   6.884
 6637SOL    HW220811   0.026   2.268   6.870
 6638SOL     OW20812   3.245   3.632   3.630
 6638SOL    HW120813   3.189   3.666   3.705
 6638SOL    HW220814   3.316   3.700   3.609
 6639SOL     OW20815   5.154   2.498   1.560
 6639SOL    HW120816   5.233   2.436   1.561
 6639SOL    HW220817   5.101   2.485   1.644
 6640SOL     OW20818   1.493   4.190   4.903
 6640SOL    HW120819   1.507   4.092   4.888
 6640SOL    HW220820   1.412   4.204   4.960
 6641SOL     OW20821   6.051   2.331   6.989
 6641SOL    HW120822   6.052   2.412   0.027
 6641SOL    HW220823   6.141   2.319   6.947
 6642SOL     OW20824   1.281   5.813   0.048
 6642SOL    HW120825   1.370   5.814   0.093
 6642SOL    HW220826   1.264   5.722   0.010
 6643SOL     OW20827   3.262   6.200   6.216
 6643SOL    HW120828   3.244   6.155   6.303
 6643SOL    HW220829   3.307   6.288   6.232
 6644SOL     OW20830   2.195   6.801   4.120
 6644SOL    HW120831   2.232   6.866   4.186
 6644SOL    HW220832   2.180   6.846   4.033
 6645SOL     OW20833   5.084   2.543   6.030
 6645SOL    HW120834   5.033   2.629   6.021
 6645SOL    HW220835   5.128   2.540   6.120
 6646SOL     OW20836   4.082   6.907   5.104
 6646SOL    HW120837   4.057   6.993   5.059
 6646SOL    HW220838   4.002   6.847   5.107
 6647SOL     OW20839   3.956   5.107   0.451
 6647SOL    HW120840   4.053   5.099   0.471
 6647SOL    HW220841   3.917   5.181   0.506
 6648SOL     OW20842   2.975   5.564   5.153
 6648SOL    HW120843   3.067   5.546   5.187
 6648SOL    HW220844   2.931   5.477   5.129
 6649SOL     OW20845   4.529   2.748   6.131
 6649SOL    HW120846   4.539   2.667   6.188
 6649SOL    HW220847   4.608   2.808   6.144
 6650SOL     OW20848   1.817   1.321   5.405
 6650SOL    HW120849   1.833   1.301   5.502
 6650SOL    HW220850   1.766   1.406   5.397
 6651SOL     OW20851   0.084   1.983   5.626
 6651SOL    HW120852   7.013   1.989   5.666
 6651SOL    HW220853   0.099   2.060   5.564
 6652SOL     OW20854   6.970   4.356   6.979
 6652SOL    HW120855   6.953   4.280   6.916
 6652SOL    HW220856   0.042   4.391   6.963
 6653SOL     OW20857   5.944   4.277   6.755
 6653SOL    HW120858   6.014   4.253   6.687
 6653SOL    HW220859   5.854   4.250   6.720
 6654SOL     OW20860   6.395   3.065   3.334
 6654SOL    HW120861   6.434   2.973   3.336
 6654SOL    HW220862   6.459   3.129   3.375
 6655SOL     OW20863   0.199   6.196   1.656
 6655SOL    HW120864   0.199   6.295   1.669
 6655SOL    HW220865   0.214   6.174   1.559
 6656SOL     OW20866   4.036   1.194   2.908
 6656SOL    HW120867   4.020   1.223   3.002
 6656SOL    HW220868   4.134   1.192   2.889
 6657SOL     OW20869   5.398   1.597   4.676
 6657SOL    HW120870   5.412   1.634   4.584
 6657SOL    HW220871   5.350   1.509   4.669
 6658SOL     OW20872   6.892   5.850   5.232
 6658SOL    HW120873   6.956   5.892   5.296
 6658SOL    HW220874   6.892   5.902   5.146
 6659SOL     OW20875   0.750   5.575   1.182
 6659SOL    HW120876   0.700   5.499   1.141
 6659SOL    HW220877   0.710   5.662   1.151
 6660SOL     OW20878   0.271   0.358   4.792
 6660SOL    HW120879   0.217   0.367   4.875
 6660SOL    HW220880   0.265   0.265   4.758
 6661SOL     OW20881   4.161   5.640   3.691
 6661SOL    HW120882   4.165   5.720   3.631
 6661SOL    HW220883   4.105   5.660   3.771
 6662SOL     OW20884   3.592   6.395   2.487
 6662SOL    HW120885   3.647   6.336   2.546
 6662SOL    HW220886   3.537   6.339   2.425
 6663SOL     OW20887   1.267   4.439   5.784
 6663SOL    HW120888   1.298   4.520   5.834
 6663SOL    HW220889   1.312   4.436   5.695
 6664SOL     OW20890   3.405   0.481   1.662
 6664SOL    HW120891   3.463   0.453   1.738
 6664SOL    HW220892   3.437   0.437   1.578
 6665SOL     OW20893   2.674   0.354   6.838
 6665SOL    HW120894   2.683   0.423   6.766
 6665SOL    HW220895   2.746   0.286   6.829
 6666SOL     OW20896   3.935   6.191   5.133
 6666SOL    HW120897   3.846   6.156   5.164
 6666SOL    HW220898   3.964   6.142   5.051
 6667SOL     OW20899   1.368   5.833   6.505
 6667SOL    HW120900   1.372   5.808   6.408
 6667SOL    HW220901   1.460   5.827   6.544
 6668SOL     OW20902   6.871   3.989   0.166
 6668SOL    HW120903   6.895   3.971   0.071
 6668SOL    HW220904   6.806   3.920   0.198
 6669SOL     OW20905   1.743   2.339   3.556
 6669SOL    HW120906   1.788   2.356   3.468
 6669SOL    HW220907   1.697   2.422   3.587
 6670SOL     OW20908   3.561   3.493   0.430
 6670SOL    HW120909   3.606   3.536   0.351
 6670SOL    HW220910   3.464   3.520   0.431
 6671SOL     OW20911   4.728   4.923   0.256
 6671SOL    HW120912   4.809   4.888   0.211
 6671SOL    HW220913   4.646   4.888   0.210
 6672SOL     OW20914   1.440   2.136   1.363
 6672SOL    HW120915   1.532   2.121   1.327
 6672SOL    HW220916   1.378   2.157   1.288
 6673SOL     OW20917   6.614   2.798   4.038
 6673SOL    HW120918   6.611   2.737   3.959
 6673SOL    HW220919   6.520   2.817   4.068
 6674SOL     OW20920   0.222   0.906   0.658
 6674SOL    HW120921   0.144   0.963   0.686
 6674SOL    HW220922   0.197   0.809   0.666
 6675SOL     OW20923   5.002   0.399   0.182
 6675SOL    HW120924   5.064   0.338   0.231
 6675SOL    HW220925   5.055   0.463   0.128
 6676SOL     OW20926   0.827   3.749   4.569
 6676SOL    HW120927   0.866   3.841   4.573
 6676SOL    HW220928   0.849   3.701   4.654
 6677SOL     OW20929   0.695   1.881   6.309
 6677SOL    HW120930   0.669   1.866   6.213
 6677SOL    HW220931   0.628   1.837   6.368
 6678SOL     OW20932   3.011   4.382   6.492
 6678SOL    HW120933   2.969   4.472   6.504
 6678SOL    HW220934   3.030   4.341   6.581
 6679SOL     OW20935   2.024   0.363   3.778
 6679SOL    HW120936   2.067   0.444   3.817
 6679SOL    HW220937   1.978   0.311   3.851
 6680SOL     OW20938   6.486   5.251   1.382
 6680SOL    HW120939   6.567   5.289   1.425
 6680SOL    HW220940   6.441   5.321   1.326
 6681SOL     OW20941   2.992   5.996   1.821
 6681SOL    HW120942   2.949   5.920   1.871
 6681SOL    HW220943   3.080   6.018   1.863
 6682SOL     OW20944   3.340   5.399   5.740
 6682SOL    HW120945   3.321   5.419   5.644
 6682SOL    HW220946   3.259   5.357   5.782
 6683SOL     OW20947   6.931   5.320   5.817
 6683SOL    HW120948   6.846   5.293   5.773
 6683SOL    HW220949   6.932   5.286   5.911
 6684SOL     OW20950   2.709   5.717   6.929
 6684SOL    HW120951   2.749   5.656   6.997
 6684SOL    HW220952   2.742   5.810   6.944
 6685SOL     OW20953   4.838   2.783   0.854
 6685SOL    HW120954   4.900   2.747   0.924
 6685SOL    HW220955   4.744   2.770   0.885
 6686SOL     OW20956   4.957   4.860   5.095
 6686SOL    HW120957   5.048   4.853   5.137
 6686SOL    HW220958   4.894   4.902   5.160
 6687SOL     OW20959   0.136   1.529   1.650
 6687SOL    HW120960   0.092   1.475   1.722
 6687SOL    HW220961   0.068   1.554   1.581
 6688SOL     OW20962   4.165   5.323   0.141
 6688SOL    HW120963   4.224   5.400   0.164
 6688SOL    HW220964   4.215   5.258   0.084
 6689SOL     OW20965   3.029   4.069   5.541
 6689SOL    HW120966   3.092   4.032   5.472
 6689SOL    HW220967   3.065   4.154   5.578
 6690SOL     OW20968   0.733   0.873   6.971
 6690SOL    HW120969   0.668   0.863   6.896
 6690SOL    HW220970   0.800   0.944   6.949
 6691SOL     OW20971   2.815   1.634   2.413
 6691SOL    HW120972   2.835   1.600   2.322
 6691SOL    HW220973   2.894   1.622   2.472
 6692SOL     OW20974   4.448   6.029   2.819
 6692SOL    HW120975   4.465   6.098   2.749
 6692SOL    HW220976   4.383   6.065   2.886
 6693SOL     OW20977   3.252   1.092   5.326
 6693SOL    HW120978   3.215   1.016   5.272
 6693SOL    HW220979   3.342   1.067   5.362
 6694SOL     OW20980   4.265   4.193   1.493
 6694SOL    HW120981   4.237   4.102   1.463
 6694SOL    HW220982   4.341   4.225   1.437
 6695SOL     OW20983   2.624   2.440   0.539
 6695SOL    HW120984   2.605   2.448   0.441
 6695SOL    HW220985   2.538   2.444   0.590
 6696SOL     OW20986   4.120   3.256   4.281
 6696SOL    HW120987   4.123   3.203   4.196
 6696SOL    HW220988   4.094   3.351   4.261
 6697SOL     OW20989   4.753   2.196   2.232
 6697SOL    HW120990   4.711   2.258   2.299
 6697SOL    HW220991   4.706   2.108   2.234
 6698SOL     OW20992   3.938   4.352   1.448
 6698SOL    HW120993   3.887   4.269   1.429
 6698SOL    HW220994   3.884   4.412   1.507
 6699SOL     OW20995   1.366   3.238   5.931
 6699SOL    HW120996   1.419   3.285   5.861
 6699SOL    HW220997   1.285   3.292   5.953
 6700SOL     OW20998   5.797   0.133   0.935
 6700SOL    HW120999   5.743   0.089   1.007
 6700SOL    HW221000   5.761   0.106   0.845
 6701SOL     OW21001   6.159   6.967   1.712
 6701SOL    HW121002   6.197   6.875   1.719
 6701SOL    HW221003   6.216   0.011   1.764
 6702SOL     OW21004   3.688   2.951   1.063
 6702SOL    HW121005   3.599   2.986   1.094
 6702SOL    HW221006   3.673   2.868   1.008
 6703SOL     OW21007   0.160   1.266   0.278
 6703SOL    HW121008   0.171   1.286   0.181
 6703SOL    HW221009   0.182   1.170   0.295
 6704SOL     OW21010   3.549   6.863   5.638
 6704SOL    HW121011   3.593   6.870   5.728
 6704SOL    HW221012   3.452   6.841   5.650
 6705SOL     OW21013   0.177   4.347   2.353
 6705SOL    HW121014   0.112   4.290   2.303
 6705SOL    HW221015   0.168   4.330   2.451
 6706SOL     OW21016   0.276   6.957   1.315
 6706SOL    HW121017   0.223   6.907   1.247
 6706SOL    HW221018   0.372   6.957   1.289
 6707SOL     OW21019   4.104   1.201   2.552
 6707SOL    HW121020   4.141   1.283   2.508
 6707SOL    HW221021   4.019   1.224   2.600
 6708SOL     OW21022   0.853   3.378   0.112
 6708SOL    HW121023   0.761   3.412   0.133
 6708SOL    HW221024   0.854   3.278   0.118
 6709SOL     OW21025   2.266   4.328   2.230
 6709SOL    HW121026   2.291   4.424   2.245
 6709SOL    HW221027   2.290   4.302   2.136
 6710SOL     OW21028   4.569   1.377   0.836
 6710SOL    HW121029   4.482   1.391   0.883
 6710SOL    HW221030   4.607   1.288   0.860
 6711SOL     OW21031   3.492   6.074   6.091
 6711SOL    HW121032   3.422   6.100   6.158
 6711SOL    HW221033   3.461   6.099   5.999
 6712SOL     OW21034   5.284   4.591   1.268
 6712SOL    HW121035   5.228   4.593   1.351
 6712SOL    HW221036   5.381   4.586   1.292
 6713SOL     OW21037   1.313   5.018   4.543
 6713SOL    HW121038   1.234   4.959   4.524
 6713SOL    HW221039   1.353   4.993   4.631
 6714SOL     OW21040   5.563   1.284   1.581
 6714SOL    HW121041   5.570   1.253   1.486
 6714SOL    HW221042   5.552   1.205   1.641
 6715SOL     OW21043   1.736   0.365   6.334
 6715SOL    HW121044   1.808   0.297   6.325
 6715SOL    HW221045   1.677   0.341   6.412
 6716SOL     OW21046   0.301   6.022   2.115
 6716SOL    HW121047   0.334   5.986   2.202
 6716SOL    HW221048   0.262   5.947   2.061
 6717SOL     OW21049   5.834   1.697   5.632
 6717SOL    HW121050   5.774   1.626   5.669
 6717SOL    HW221051   5.892   1.734   5.704
 6718SOL     OW21052   4.883   1.314   0.766
 6718SOL    HW121053   4.813   1.247   0.790
 6718SOL    HW221054   4.892   1.381   0.839
 6719SOL     OW21055   1.791   1.735   6.974
 6719SOL    HW121056   1.864   1.693   0.008
 6719SOL    HW221057   1.751   1.666   6.914
 6720SOL     OW21058   1.478   1.025   6.148
 6720SOL    HW121059   1.414   1.088   6.191
 6720SOL    HW221060   1.451   1.009   6.053
 6721SOL     OW21061   6.134   6.866   1.109
 6721SOL    HW121062   6.039   6.856   1.138
 6721SOL    HW221063   6.137   6.891   1.012
 6722SOL     OW21064   5.367   3.639   0.301
 6722SOL    HW121065   5.394   3.593   0.216
 6722SOL    HW221066   5.433   3.618   0.373
 6723SOL     OW21067   0.993   3.092   5.756
 6723SOL    HW121068   1.083   3.101   5.799
 6723SOL    HW221069   0.922   3.095   5.826
 6724SOL     OW21070   2.131   3.746   4.496
 6724SOL    HW121071   2.205   3.723   4.433
 6724SOL    HW221072   2.052   3.688   4.477
 6725SOL     OW21073   5.163   2.840   4.011
 6725SOL    HW121074   5.203   2.789   4.087
 6725SOL    HW221075   5.157   2.937   4.034
 6726SOL     OW21076   0.572   0.765   6.168
 6726SOL    HW121077   0.517   0.819   6.232
 6726SOL    HW221078   0.668   0.773   6.191
 6727SOL     OW21079   1.515   5.237   5.751
 6727SOL    HW121080   1.477   5.329   5.739
 6727SOL    HW221081   1.573   5.215   5.673
 6728SOL     OW21082   3.752   1.193   3.699
 6728SOL    HW121083   3.778   1.278   3.652
 6728SOL    HW221084   3.832   1.133   3.705
 6729SOL     OW21085   4.029   1.025   2.309
 6729SOL    HW121086   4.021   1.086   2.230
 6729SOL    HW221087   4.068   1.075   2.386
 6730SOL     OW21088   6.745   1.723   0.607
 6730SOL    HW121089   6.818   1.773   0.654
 6730SOL    HW221090   6.696   1.666   0.673
 6731SOL     OW21091   4.177   0.355   6.241
 6731SOL    HW121092   4.227   0.349   6.154
 6731SOL    HW221093   4.216   0.428   6.297
 6732SOL     OW21094   6.822   4.897   5.580
 6732SOL    HW121095   6.859   4.940   5.497
 6732SOL    HW221096   6.837   4.958   5.658
 6733SOL     OW21097   4.767   4.947   5.305
 6733SOL    HW121098   4.697   5.012   5.277
 6733SOL    HW221099   4.827   4.990   5.373
 6734SOL     OW21100   6.161   1.837   4.566
 6734SOL    HW121101   6.116   1.863   4.651
 6734SOL    HW221102   6.119   1.885   4.490
 6735SOL     OW21103   6.481   2.541   3.658
 6735SOL    HW121104   6.470   2.447   3.691
 6735SOL    HW221105   6.506   2.539   3.561
 6736SOL     OW21106   4.134   3.661   0.783
 6736SOL    HW121107   4.092   3.581   0.741
 6736SOL    HW221108   4.156   3.728   0.711
 6737SOL     OW21109   6.790   3.514   0.563
 6737SOL    HW121110   6.830   3.566   0.638
 6737SOL    HW221111   6.691   3.508   0.576
 6738SOL     OW21112   1.922   5.850   4.259
 6738SOL    HW121113   1.941   5.946   4.279
 6738SOL    HW221114   2.005   5.805   4.226
 6739SOL     OW21115   0.055   0.544   5.557
 6739SOL    HW121116   0.145   0.509   5.583
 6739SOL    HW221117   0.058   0.576   5.462
 6740SOL     OW21118   0.016   0.182   2.451
 6740SOL    HW121119   6.966   0.124   2.411
 6740SOL    HW221120   6.998   0.233   2.529
 6741SOL     OW21121   3.614   1.818   0.405
 6741SOL    HW121122   3.515   1.819   0.416
 6741SOL    HW221123   3.637   1.772   0.319
 6742SOL     OW21124   5.770   4.342   3.321
 6742SOL    HW121125   5.711   4.423   3.326
 6742SOL    HW221126   5.726   4.266   3.369
 6743SOL     OW21127   4.052   3.705   0.330
 6743SOL    HW121128   4.042   3.738   0.236
 6743SOL    HW221129   4.027   3.778   0.394
 6744SOL     OW21130   6.471   6.666   5.848
 6744SOL    HW121131   6.442   6.621   5.763
 6744SOL    HW221132   6.497   6.596   5.915
 6745SOL     OW21133   0.289   4.348   5.229
 6745SOL    HW121134   0.268   4.283   5.302
 6745SOL    HW221135   0.302   4.298   5.143
 6746SOL     OW21136   1.042   2.535   2.800
 6746SOL    HW121137   1.105   2.513   2.875
 6746SOL    HW221138   1.053   2.467   2.727
 6747SOL     OW21139   0.918   6.131   5.515
 6747SOL    HW121140   0.955   6.100   5.602
 6747SOL    HW221141   0.826   6.094   5.502
 6748SOL     OW21142   1.785   0.781   5.146
 6748SOL    HW121143   1.872   0.821   5.116
 6748SOL    HW221144   1.802   0.693   5.190
 6749SOL     OW21145   4.570   4.744   2.324
 6749SOL    HW121146   4.562   4.644   2.324
 6749SOL    HW221147   4.585   4.776   2.418
 6750SOL     OW21148   3.454   0.988   4.999
 6750SOL    HW121149   3.540   1.038   4.989
 6750SOL    HW221150   3.466   0.913   5.065
 6751SOL     OW21151   4.202   0.338   4.739
 6751SOL    HW121152   4.236   0.325   4.832
 6751SOL    HW221153   4.178   0.250   4.699
 6752SOL     OW21154   2.002   4.598   2.238
 6752SOL    HW121155   2.012   4.513   2.290
 6752SOL    HW221156   2.035   4.584   2.144
 6753SOL     OW21157   4.051   3.061   6.531
 6753SOL    HW121158   4.123   3.069   6.462
 6753SOL    HW221159   3.962   3.071   6.487
 6754SOL     OW21160   6.237   1.529   0.374
 6754SOL    HW121161   6.186   1.578   0.303
 6754SOL    HW221162   6.264   1.439   0.340
 6755SOL     OW21163   2.977   5.884   6.154
 6755SOL    HW121164   3.062   5.845   6.118
 6755SOL    HW221165   2.994   5.923   6.244
 6756SOL     OW21166   3.632   2.713   6.387
 6756SOL    HW121167   3.577   2.630   6.396
 6756SOL    HW221168   3.638   2.739   6.290
 6757SOL     OW21169   4.098   0.277   1.425
 6757SOL    HW121170   4.017   0.302   1.373
 6757SOL    HW221171   4.173   0.255   1.363
 6758SOL     OW21172   5.555   2.411   3.155
 6758SOL    HW121173   5.482   2.347   3.128
 6758SOL    HW221174   5.519   2.476   3.222
 6759SOL     OW21175   0.727   1.811   2.586
 6759SOL    HW121176   0.678   1.891   2.553
 6759SOL    HW221177   0.668   1.758   2.647
 6760SOL     OW21178   5.178   2.320   4.669
 6760SOL    HW121179   5.131   2.232   4.681
 6760SOL    HW221180   5.245   2.312   4.596
 6761SOL     OW21181   3.158   1.605   5.219
 6761SOL    HW121182   3.150   1.596   5.319
 6761SOL    HW221183   3.182   1.516   5.180
 6762SOL     OW21184   6.783   5.332   4.471
 6762SOL    HW121185   6.844   5.402   4.509
 6762SOL    HW221186   6.827   5.243   4.476
 6763SOL     OW21187   5.852   6.083   4.568
 6763SOL    HW121188   5.872   6.173   4.529
 6763SOL    HW221189   5.754   6.065   4.562
 6764SOL     OW21190   0.743   4.779   1.215
 6764SOL    HW121191   0.835   4.750   1.191
 6764SOL    HW221192   0.689   4.700   1.243
 6765SOL     OW21193   0.397   3.768   2.696
 6765SOL    HW121194   0.327   3.721   2.643
 6765SOL    HW221195   0.487   3.735   2.670
 6766SOL     OW21196   5.950   0.377   1.525
 6766SOL    HW121197   6.040   0.357   1.563
 6766SOL    HW221198   5.944   0.339   1.433
 6767SOL     OW21199   3.243   0.391   0.629
 6767SOL    HW121200   3.148   0.406   0.601
 6767SOL    HW221201   3.303   0.444   0.570
 6768SOL     OW21202   1.654   0.834   7.016
 6768SOL    HW121203   1.732   0.850   6.955
 6768SOL    HW221204   1.667   0.749   0.045
 6769SOL     OW21205   4.524   2.830   1.708
 6769SOL    HW121206   4.552   2.743   1.748
 6769SOL    HW221207   4.557   2.905   1.764
 6770SOL     OW21208   0.193   0.983   1.577
 6770SOL    HW121209   0.257   0.906   1.578
 6770SOL    HW221210   0.244   1.068   1.560
 6771SOL     OW21211   4.682   1.727   3.272
 6771SOL    HW121212   4.642   1.699   3.185
 6771SOL    HW221213   4.688   1.826   3.277
 6772SOL     OW21214   3.326   1.367   3.942
 6772SOL    HW121215   3.341   1.457   3.982
 6772SOL    HW221216   3.385   1.299   3.986
 6773SOL     OW21217   0.308   3.888   1.047
 6773SOL    HW121218   0.382   3.885   1.115
 6773SOL    HW221219   0.301   3.799   1.003
 6774SOL     OW21220   0.610   2.572   6.357
 6774SOL    HW121221   0.600   2.486   6.307
 6774SOL    HW221222   0.522   2.619   6.360
 6775SOL     OW21223   2.197   4.792   0.232
 6775SOL    HW121224   2.210   4.837   0.320
 6775SOL    HW221225   2.184   4.694   0.246
 6776SOL     OW21226   6.002   5.542   0.023
 6776SOL    HW121227   6.044   5.614   6.988
 6776SOL    HW221228   5.915   5.514   7.002
 6777SOL     OW21229   4.934   4.878   6.672
 6777SOL    HW121230   4.962   4.795   6.623
 6777SOL    HW221231   5.014   4.936   6.687
 6778SOL     OW21232   0.244   5.928   3.119
 6778SOL    HW121233   0.151   5.913   3.086
 6778SOL    HW221234   0.271   6.023   3.102
 6779SOL     OW21235   0.377   4.238   6.935
 6779SOL    HW121236   0.294   4.247   6.880
 6779SOL    HW221237   0.374   4.152   6.986
 6780SOL     OW21238   0.525   2.514   1.812
 6780SOL    HW121239   0.547   2.612   1.812
 6780SOL    HW221240   0.465   2.493   1.889
 6781SOL     OW21241   5.938   4.671   5.685
 6781SOL    HW121242   6.027   4.716   5.692
 6781SOL    HW221243   5.868   4.727   5.729
 6782SOL     OW21244   6.205   1.531   2.549
 6782SOL    HW121245   6.187   1.503   2.643
 6782SOL    HW221246   6.119   1.528   2.496
 6783SOL     OW21247   0.466   5.997   6.847
 6783SOL    HW121248   0.385   6.045   6.879
 6783SOL    HW221249   0.456   5.976   6.750
 6784SOL     OW21250   3.567   3.122   0.219
 6784SOL    HW121251   3.580   3.106   0.317
 6784SOL    HW221252   3.493   3.188   0.206
 6785SOL     OW21253   5.825   6.223   1.742
 6785SOL    HW121254   5.777   6.175   1.816
 6785SOL    HW221255   5.923   6.223   1.760
 6786SOL     OW21256   1.839   3.015   6.654
 6786SOL    HW121257   1.902   3.044   6.726
 6786SOL    HW221258   1.851   3.074   6.574
 6787SOL     OW21259   1.216   3.554   1.749
 6787SOL    HW121260   1.235   3.617   1.825
 6787SOL    HW221261   1.262   3.467   1.765
 6788SOL     OW21262   2.820   4.668   0.910
 6788SOL    HW121263   2.918   4.685   0.902
 6788SOL    HW221264   2.801   4.614   0.992
 6789SOL     OW21265   0.157   6.409   3.385
 6789SOL    HW121266   0.253   6.439   3.382
 6789SOL    HW221267   0.137   6.353   3.304
 6790SOL     OW21268   1.508   3.524   0.096
 6790SOL    HW121269   1.501   3.564   0.187
 6790SOL    HW221270   1.577   3.452   0.096
 6791SOL     OW21271   3.986   3.654   6.375
 6791SOL    HW121272   3.986   3.567   6.326
 6791SOL    HW221273   3.962   3.728   6.312
 6792SOL     OW21274   0.212   4.840   0.649
 6792SOL    HW121275   0.253   4.874   0.733
 6792SOL    HW221276   0.282   4.830   0.579
 6793SOL     OW21277   6.128   1.832   1.057
 6793SOL    HW121278   6.088   1.759   1.113
 6793SOL    HW221279   6.055   1.875   1.003
 6794SOL     OW21280   4.692   1.151   5.117
 6794SOL    HW121281   4.777   1.204   5.114
 6794SOL    HW221282   4.636   1.174   5.038
 6795SOL     OW21283   2.814   6.193   0.170
 6795SOL    HW121284   2.744   6.231   0.110
 6795SOL    HW221285   2.875   6.266   0.199
 6796SOL     OW21286   4.345   2.168   3.016
 6796SOL    HW121287   4.266   2.166   3.078
 6796SOL    HW221288   4.316   2.139   2.925
 6797SOL     OW21289   6.938   3.352   2.505
 6797SOL    HW121290   6.854   3.327   2.553
 6797SOL    HW221291   7.013   3.293   2.536
 6798SOL     OW21292   6.385   6.837   2.167
 6798SOL    HW121293   6.298   6.840   2.217
 6798SOL    HW221294   6.438   6.759   2.198
 6799SOL     OW21295   5.363   6.152   1.684
 6799SOL    HW121296   5.357   6.119   1.779
 6799SOL    HW221297   5.402   6.079   1.627
 6800SOL     OW21298   3.218   4.653   6.894
 6800SOL    HW121299   3.231   4.560   6.859
 6800SOL    HW221300   3.120   4.672   6.903
 6801SOL     OW21301   1.572   2.010   2.811
 6801SOL    HW121302   1.606   1.936   2.753
 6801SOL    HW221303   1.649   2.058   2.853
 6802SOL     OW21304   2.059   5.318   2.494
 6802SOL    HW121305   2.055   5.283   2.400
 6802SOL    HW221306   2.135   5.273   2.542
 6803SOL     OW21307   5.242   2.696   0.410
 6803SOL    HW121308   5.166   2.652   0.456
 6803SOL    HW221309   5.236   2.795   0.423
 6804SOL     OW21310   1.679   0.001   3.952
 6804SOL    HW121311   1.715   6.938   3.910
 6804SOL    HW221312   1.669   0.071   3.881
 6805SOL     OW21313   5.073   0.724   4.460
 6805SOL    HW121314   5.051   0.647   4.520
 6805SOL    HW221315   5.142   0.782   4.504
 6806SOL     OW21316   4.693   0.355   5.469
 6806SOL    HW121317   4.767   0.389   5.526
 6806SOL    HW221318   4.715   0.264   5.435
 6807SOL     OW21319   3.074   2.899   0.037
 6807SOL    HW121320   2.986   2.852   0.038
 6807SOL    HW221321   3.061   2.996   0.060
 6808SOL     OW21322   1.988   3.071   5.013
 6808SOL    HW121323   2.054   3.132   5.058
 6808SOL    HW221324   2.029   3.034   4.930
 6809SOL     OW21325   1.942   3.853   6.821
 6809SOL    HW121326   1.956   3.880   6.917
 6809SOL    HW221327   1.845   3.859   6.799
 6810SOL     OW21328   5.606   1.681   2.627
 6810SOL    HW121329   5.564   1.703   2.715
 6810SOL    HW221330   5.698   1.644   2.643
 6811SOL     OW21331   5.070   5.447   1.471
 6811SOL    HW121332   5.105   5.356   1.446
 6811SOL    HW221333   4.978   5.458   1.434
 6812SOL     OW21334   3.628   2.879   2.524
 6812SOL    HW121335   3.619   2.911   2.429
 6812SOL    HW221336   3.542   2.892   2.572
 6813SOL     OW21337   4.555   4.077   1.348
 6813SOL    HW121338   4.622   4.046   1.415
 6813SOL    HW221339   4.554   4.177   1.346
 6814SOL     OW21340   2.454   4.135   0.245
 6814SOL    HW121341   2.507   4.091   0.173
 6814SOL    HW221342   2.395   4.068   0.290
 6815SOL     OW21343   2.080   6.933   1.967
 6815SOL    HW121344   2.123   7.017   2.000
 6815SOL    HW221345   2.007   6.956   1.903
 6816SOL     OW21346   6.400   4.278   1.604
 6816SOL    HW121347   6.333   4.255   1.675
 6816SOL    HW221348   6.382   4.223   1.523
 6817SOL     OW21349   0.234   1.842   5.812
 6817SOL    HW121350   0.170   1.882   5.746
 6817SOL    HW221351   0.185   1.816   5.895
 6818SOL     OW21352   3.263   5.899   2.533
 6818SOL    HW121353   3.362   5.896   2.518
 6818SOL    HW221354   3.226   5.982   2.491
 6819SOL     OW21355   2.931   1.035   3.900
 6819SOL    HW121356   3.010   0.982   3.929
 6819SOL    HW221357   2.962   1.114   3.846
 6820SOL     OW21358   1.252   4.159   3.852
 6820SOL    HW121359   1.179   4.163   3.784
 6820SOL    HW221360   1.340   4.172   3.807
 6821SOL     OW21361   2.211   2.044   4.806
 6821SOL    HW121362   2.119   2.008   4.788
 6821SOL    HW221363   2.247   2.002   4.890
 6822SOL     OW21364   4.974   2.197   5.936
 6822SOL    HW121365   4.920   2.228   6.014
 6822SOL    HW221366   4.913   2.182   5.857
 6823SOL     OW21367   3.111   2.885   1.881
 6823SOL    HW121368   3.021   2.860   1.846
 6823SOL    HW221369   3.108   2.978   1.917
 6824SOL     OW21370   1.198   4.576   6.347
 6824SOL    HW121371   1.270   4.519   6.307
 6824SOL    HW221372   1.202   4.668   6.308
 6825SOL     OW21373   4.915   0.165   4.093
 6825SOL    HW121374   4.965   0.235   4.143
 6825SOL    HW221375   4.874   0.100   4.157
 6826SOL     OW21376   1.175   2.978   3.055
 6826SOL    HW121377   1.229   3.028   2.987
 6826SOL    HW221378   1.197   3.012   3.147
 6827SOL     OW21379   5.737   6.296   5.232
 6827SOL    HW121380   5.642   6.268   5.221
 6827SOL    HW221381   5.750   6.333   5.324
 6828SOL     OW21382   1.585   2.380   1.145
 6828SOL    HW121383   1.510   2.327   1.105
 6828SOL    HW221384   1.644   2.319   1.198
 6829SOL     OW21385   4.751   5.131   3.629
 6829SOL    HW121386   4.805   5.047   3.634
 6829SOL    HW221387   4.793   5.193   3.562
 6830SOL     OW21388   5.327   2.178   3.803
 6830SOL    HW121389   5.375   2.134   3.879
 6830SOL    HW221390   5.231   2.193   3.828
 6831SOL     OW21391   0.123   1.151   5.708
 6831SOL    HW121392   0.038   1.138   5.759
 6831SOL    HW221393   0.198   1.104   5.755
 6832SOL     OW21394   3.131   4.831   2.526
 6832SOL    HW121395   3.226   4.836   2.495
 6832SOL    HW221396   3.072   4.810   2.448
 6833SOL     OW21397   3.967   5.434   0.306
 6833SOL    HW121398   4.023   5.372   0.252
 6833SOL    HW221399   3.993   5.427   0.402
 6834SOL     OW21400   3.970   5.189   2.245
 6834SOL    HW121401   3.888   5.142   2.211
 6834SOL    HW221402   4.051   5.136   2.221
 6835SOL     OW21403   4.021   6.718   4.705
 6835SOL    HW121404   3.933   6.759   4.728
 6835SOL    HW221405   4.010   6.619   4.694
 6836SOL     OW21406   3.037   5.966   6.822
 6836SOL    HW121407   3.098   6.020   6.880
 6836SOL    HW221408   3.089   5.894   6.777
 6837SOL     OW21409   1.143   2.895   2.001
 6837SOL    HW121410   1.241   2.911   1.988
 6837SOL    HW221411   1.106   2.850   1.919
 6838SOL     OW21412   2.496   1.857   6.863
 6838SOL    HW121413   2.575   1.917   6.873
 6838SOL    HW221414   2.451   1.876   6.775
 6839SOL     OW21415   3.922   0.509   1.020
 6839SOL    HW121416   3.918   0.418   0.981
 6839SOL    HW221417   3.893   0.506   1.116
 6840SOL     OW21418   1.100   1.891   6.375
 6840SOL    HW121419   1.057   1.889   6.285
 6840SOL    HW221420   1.035   1.925   6.442
 6841SOL     OW21421   6.646   3.562   6.051
 6841SOL    HW121422   6.711   3.579   6.125
 6841SOL    HW221423   6.696   3.548   5.966
 6842SOL     OW21424   2.264   4.277   2.936
 6842SOL    HW121425   2.287   4.268   3.033
 6842SOL    HW221426   2.221   4.366   2.920
 6843SOL     OW21427   4.212   6.665   0.151
 6843SOL    HW121428   4.192   6.600   0.224
 6843SOL    HW221429   4.127   6.698   0.111
 6844SOL     OW21430   5.305   0.338   5.607
 6844SOL    HW121431   5.268   0.411   5.664
 6844SOL    HW221432   5.301   0.251   5.657
 6845SOL     OW21433   5.191   1.919   2.139
 6845SOL    HW121434   5.219   1.881   2.227
 6845SOL    HW221435   5.236   1.869   2.065
 6846SOL     OW21436   2.237   3.881   0.187
 6846SOL    HW121437   2.168   3.811   0.170
 6846SOL    HW221438   2.192   3.968   0.209
 6847SOL     OW21439   6.884   3.389   3.959
 6847SOL    HW121440   6.807   3.330   3.982
 6847SOL    HW221441   6.904   3.450   4.036
 6848SOL     OW21442   6.031   4.447   3.286
 6848SOL    HW121443   6.065   4.505   3.213
 6848SOL    HW221444   5.933   4.431   3.273
 6849SOL     OW21445   2.870   3.980   6.561
 6849SOL    HW121446   2.918   3.943   6.481
 6849SOL    HW221447   2.774   3.994   6.538
 6850SOL     OW21448   4.148   1.490   4.222
 6850SOL    HW121449   4.056   1.521   4.244
 6850SOL    HW221450   4.144   1.428   4.143
 6851SOL     OW21451   2.132   3.178   3.351
 6851SOL    HW121452   2.150   3.259   3.295
 6851SOL    HW221453   2.168   3.193   3.443
 6852SOL     OW21454   3.104   4.374   0.216
 6852SOL    HW121455   3.117   4.375   0.315
 6852SOL    HW221456   3.010   4.345   0.196
 6853SOL     OW21457   4.939   3.630   6.402
 6853SOL    HW121458   5.009   3.644   6.472
 6853SOL    HW221459   4.961   3.685   6.322
 6854SOL     OW21460   5.633   6.098   6.331
 6854SOL    HW121461   5.701   6.130   6.264
 6854SOL    HW221462   5.636   5.998   6.336
 6855SOL     OW21463   4.090   4.870   3.682
 6855SOL    HW121464   4.126   4.801   3.620
 6855SOL    HW221465   4.047   4.944   3.630
 6856SOL     OW21466   0.163   2.110   6.143
 6856SOL    HW121467   0.098   2.186   6.136
 6856SOL    HW221468   0.195   2.086   6.052
 6857SOL     OW21469   0.699   3.841   5.381
 6857SOL    HW121470   0.638   3.797   5.315
 6857SOL    HW221471   0.768   3.895   5.332
 6858SOL     OW21472   2.447   3.773   1.696
 6858SOL    HW121473   2.502   3.689   1.693
 6858SOL    HW221474   2.351   3.749   1.711
 6859SOL     OW21475   1.612   1.825   2.571
 6859SOL    HW121476   1.675   1.880   2.517
 6859SOL    HW221477   1.534   1.799   2.515
 6860SOL     OW21478   1.015   6.557   1.816
 6860SOL    HW121479   0.945   6.504   1.768
 6860SOL    HW221480   1.022   6.648   1.775
 6861SOL     OW21481   6.404   3.105   5.909
 6861SOL    HW121482   6.423   3.134   6.003
 6861SOL    HW221483   6.312   3.067   5.903
 6862SOL     OW21484   0.883   4.421   4.509
 6862SOL    HW121485   0.885   4.483   4.431
 6862SOL    HW221486   0.904   4.328   4.478
 6863SOL     OW21487   5.819   1.028   5.379
 6863SOL    HW121488   5.802   0.950   5.439
 6863SOL    HW221489   5.863   0.996   5.295
 6864SOL     OW21490   1.163   3.899   5.911
 6864SOL    HW121491   1.070   3.902   5.947
 6864SOL    HW221492   1.191   3.992   5.886
 6865SOL     OW21493   2.288   0.159   3.288
 6865SOL    HW121494   2.338   0.244   3.270
 6865SOL    HW221495   2.203   0.181   3.337
 6866SOL     OW21496   1.287   4.894   0.313
 6866SOL    HW121497   1.309   4.856   0.403
 6866SOL    HW221498   1.320   4.833   0.241
 6867SOL     OW21499   2.209   3.750   6.140
 6867SOL    HW121500   2.228   3.700   6.224
 6867SOL    HW221501   2.140   3.700   6.087
 6868SOL     OW21502   2.808   5.407   3.690
 6868SOL    HW121503   2.807   5.328   3.629
 6868SOL    HW221504   2.876   5.473   3.657
 6869SOL     OW21505   3.540   1.020   6.163
 6869SOL    HW121506   3.584   0.942   6.117
 6869SOL    HW221507   3.513   0.992   6.255
 6870SOL     OW21508   5.955   2.182   0.388
 6870SOL    HW121509   5.996   2.180   0.479
 6870SOL    HW221510   5.955   2.276   0.353
 6871SOL     OW21511   6.650   3.460   2.583
 6871SOL    HW121512   6.711   3.520   2.530
 6871SOL    HW221513   6.605   3.514   2.654
 6872SOL     OW21514   1.993   3.845   0.743
 6872SOL    HW121515   2.003   3.879   0.650
 6872SOL    HW221516   1.991   3.745   0.742
 6873SOL     OW21517   0.637   4.306   3.450
 6873SOL    HW121518   0.715   4.282   3.391
 6873SOL    HW221519   0.629   4.237   3.522
 6874SOL     OW21520   5.567   6.676   3.353
 6874SOL    HW121521   5.570   6.710   3.259
 6874SOL    HW221522   5.472   6.666   3.382
 6875SOL     OW21523   2.420   1.318   0.472
 6875SOL    HW121524   2.382   1.258   0.402
 6875SOL    HW221525   2.346   1.355   0.528
 6876SOL     OW21526   4.999   5.221   3.513
 6876SOL    HW121527   5.087   5.177   3.497
 6876SOL    HW221528   5.002   5.316   3.481
 6877SOL     OW21529   0.969   3.451   1.461
 6877SOL    HW121530   0.916   3.508   1.398
 6877SOL    HW221531   0.939   3.356   1.454
 6878SOL     OW21532   2.016   0.552   4.578
 6878SOL    HW121533   1.952   0.623   4.610
 6878SOL    HW221534   2.110   0.584   4.589
 6879SOL     OW21535   1.709   1.039   1.131
 6879SOL    HW121536   1.755   0.982   1.063
 6879SOL    HW221537   1.639   1.094   1.086
 6880SOL     OW21538   1.358   5.388   6.976
 6880SOL    HW121539   1.383   5.448   0.032
 6880SOL    HW221540   1.273   5.340   6.999
 6881SOL     OW21541   0.471   2.894   0.596
 6881SOL    HW121542   0.442   2.985   0.565
 6881SOL    HW221543   0.445   2.826   0.527
 6882SOL     OW21544   2.282   6.382   6.795
 6882SOL    HW121545   2.223   6.413   6.869
 6882SOL    HW221546   2.324   6.294   6.819
 6883SOL     OW21547   4.539   0.438   1.170
 6883SOL    HW121548   4.609   0.502   1.139
 6883SOL    HW221549   4.459   0.446   1.110
 6884SOL     OW21550   1.792   3.930   3.033
 6884SOL    HW121551   1.809   3.854   3.096
 6884SOL    HW221552   1.879   3.966   3.000
 6885SOL     OW21553   6.103   5.336   4.593
 6885SOL    HW121554   6.200   5.329   4.616
 6885SOL    HW221555   6.081   5.430   4.569
 6886SOL     OW21556   4.877   2.457   0.135
 6886SOL    HW121557   4.825   2.490   0.214
 6886SOL    HW221558   4.916   2.367   0.157
 6887SOL     OW21559   5.732   5.542   5.970
 6887SOL    HW121560   5.766   5.629   5.934
 6887SOL    HW221561   5.780   5.467   5.925
 6888SOL     OW21562   6.009   4.666   6.533
 6888SOL    HW121563   6.017   4.765   6.520
 6888SOL    HW221564   6.095   4.622   6.506
 6889SOL     OW21565   6.725   2.719   6.134
 6889SOL    HW121566   6.814   2.763   6.125
 6889SOL    HW221567   6.656   2.787   6.160
 6890SOL     OW21568   4.575   4.337   3.678
 6890SOL    HW121569   4.619   4.269   3.737
 6890SOL    HW221570   4.566   4.423   3.728
 6891SOL     OW21571   1.811   1.307   1.612
 6891SOL    HW121572   1.803   1.332   1.516
 6891SOL    HW221573   1.766   1.377   1.668
 6892SOL     OW21574   3.198   0.950   4.406
 6892SOL    HW121575   3.234   1.038   4.374
 6892SOL    HW221576   3.265   0.878   4.389
 6893SOL     OW21577   6.768   3.124   0.899
 6893SOL    HW121578   6.780   3.042   0.956
 6893SOL    HW221579   6.770   3.098   0.802
 6894SOL     OW21580   6.314   5.056   0.494
 6894SOL    HW121581   6.397   5.010   0.524
 6894SOL    HW221582   6.246   4.988   0.466
 6895SOL     OW21583   0.545   6.599   2.276
 6895SOL    HW121584   0.615   6.568   2.340
 6895SOL    HW221585   0.455   6.573   2.310
 6896SOL     OW21586   4.815   1.263   4.830
 6896SOL    HW121587   4.880   1.191   4.853
 6896SOL    HW221588   4.864   1.349   4.814
 6897SOL     OW21589   4.898   2.846   4.984
 6897SOL    HW121590   4.804   2.837   5.018
 6897SOL    HW221591   4.907   2.796   4.898
 6898SOL     OW21592   1.608   6.185   1.331
 6898SOL    HW121593   1.629   6.217   1.424
 6898SOL    HW221594   1.688   6.197   1.273
 6899SOL     OW21595   6.191   6.128   2.152
 6899SOL    HW121596   6.241   6.041   2.159
 6899SOL    HW221597   6.256   6.201   2.129
 6900SOL     OW21598   6.399   3.708   4.982
 6900SOL    HW121599   6.321   3.771   4.983
 6900SOL    HW221600   6.477   3.751   5.027
 6901SOL     OW21601   5.108   4.815   7.000
 6901SOL    HW121602   5.077   4.796   0.073
 6901SOL    HW221603   5.182   4.882   7.003
 6902SOL     OW21604   0.195   5.898   6.091
 6902SOL    HW121605   0.221   5.819   6.034
 6902SOL    HW221606   0.096   5.900   6.101
 6903SOL     OW21607   0.976   5.674   4.440
 6903SOL    HW121608   1.074   5.656   4.433
 6903SOL    HW221609   0.962   5.764   4.482
 6904SOL     OW21610   6.777   0.481   6.341
 6904SOL    HW121611   6.858   0.482   6.283
 6904SOL    HW221612   6.746   0.387   6.353
 6905SOL     OW21613   5.112   6.155   5.934
 6905SOL    HW121614   5.138   6.086   6.002
 6905SOL    HW221615   5.134   6.121   5.843
 6906SOL     OW21616   3.229   0.935   3.886
 6906SOL    HW121617   3.261   0.912   3.794
 6906SOL    HW221618   3.275   1.019   3.917
 6907SOL     OW21619   5.603   2.443   1.002
 6907SOL    HW121620   5.658   2.413   1.081
 6907SOL    HW221621   5.627   2.537   0.978
 6908SOL     OW21622   3.179   5.289   0.395
 6908SOL    HW121623   3.239   5.361   0.430
 6908SOL    HW221624   3.088   5.299   0.436
 6909SOL     OW21625   5.740   4.978   2.000
 6909SOL    HW121626   5.755   4.990   2.098
 6909SOL    HW221627   5.646   4.951   1.983
 6910SOL     OW21628   1.127   2.893   2.665
 6910SOL    HW121629   1.031   2.919   2.660
 6910SOL    HW221630   1.176   2.932   2.587
 6911SOL     OW21631   1.522   6.488   5.672
 6911SOL    HW121632   1.561   6.476   5.581
 6911SOL    HW221633   1.531   6.402   5.723
 6912SOL     OW21634   2.586   3.771   6.817
 6912SOL    HW121635   2.508   3.807   6.868
 6912SOL    HW221636   2.555   3.697   6.757
 6913SOL     OW21637   4.837   6.141   6.128
 6913SOL    HW121638   4.839   6.050   6.087
 6913SOL    HW221639   4.757   6.191   6.096
 6914SOL     OW21640   6.028   2.788   2.235
 6914SOL    HW121641   6.110   2.837   2.205
 6914SOL    HW221642   5.979   2.843   2.303
 6915SOL     OW21643   6.733   3.696   3.633
 6915SOL    HW121644   6.680   3.615   3.656
 6915SOL    HW221645   6.816   3.699   3.689
 6916SOL     OW21646   5.068   6.152   6.602
 6916SOL    HW121647   5.000   6.087   6.635
 6916SOL    HW221648   5.023   6.235   6.570
 6917SOL     OW21649   3.994   6.896   1.866
 6917SOL    HW121650   4.024   6.829   1.797
 6917SOL    HW221651   4.018   6.862   1.957
 6918SOL     OW21652   2.440   3.564   0.580
 6918SOL    HW121653   2.387   3.643   0.611
 6918SOL    HW221654   2.413   3.540   0.487
 6919SOL     OW21655   5.330   6.097   3.717
 6919SOL    HW121656   5.260   6.112   3.647
 6919SOL    HW221657   5.420   6.096   3.674
 6920SOL     OW21658   6.284   1.052   6.128
 6920SOL    HW121659   6.195   1.007   6.130
 6920SOL    HW221660   6.300   1.098   6.215
 6921SOL     OW21661   4.273   0.137   4.181
 6921SOL    HW121662   4.360   0.157   4.227
 6921SOL    HW221663   4.224   0.067   4.233
 6922SOL     OW21664   1.852   4.816   6.382
 6922SOL    HW121665   1.833   4.913   6.365
 6922SOL    HW221666   1.778   4.777   6.436
 6923SOL     OW21667   5.855   6.845   2.284
 6923SOL    HW121668   5.847   6.937   2.245
 6923SOL    HW221669   5.767   6.817   2.323
 6924SOL     OW21670   3.158   5.625   2.209
 6924SOL    HW121671   3.194   5.624   2.302
 6924SOL    HW221672   3.176   5.714   2.167
 6925SOL     OW21673   5.975   6.796   5.326
 6925SOL    HW121674   5.972   6.874   5.389
 6925SOL    HW221675   5.897   6.736   5.343
 6926SOL     OW21676   3.391   2.429   0.320
 6926SOL    HW121677   3.421   2.515   0.279
 6926SOL    HW221678   3.445   2.354   0.282
 6927SOL     OW21679   4.570   0.445   0.667
 6927SOL    HW121680   4.528   0.529   0.635
 6927SOL    HW221681   4.521   0.366   0.629
 6928SOL     OW21682   3.926   5.309   7.009
 6928SOL    HW121683   4.015   5.313   0.035
 6928SOL    HW221684   3.896   5.213   7.004
 6929SOL     OW21685   5.560   5.240   2.046
 6929SOL    HW121686   5.535   5.162   1.989
 6929SOL    HW221687   5.629   5.212   2.113
 6930SOL     OW21688   0.295   6.807   1.580
 6930SOL    HW121689   0.333   6.878   1.641
 6930SOL    HW221690   0.292   6.843   1.487
 6931SOL     OW21691   2.946   3.302   0.968
 6931SOL    HW121692   2.922   3.354   1.050
 6931SOL    HW221693   2.930   3.358   0.887
 6932SOL     OW21694   4.091   6.671   6.574
 6932SOL    HW121695   4.100   6.577   6.608
 6932SOL    HW221696   4.162   6.728   6.615
 6933SOL     OW21697   3.470   5.676   6.077
 6933SOL    HW121698   3.496   5.612   6.150
 6933SOL    HW221699   3.548   5.734   6.055
 6934SOL     OW21700   4.835   4.702   6.894
 6934SOL    HW121701   4.924   4.680   6.934
 6934SOL    HW221702   4.844   4.784   6.837
 6935SOL     OW21703   4.082   6.218   1.570
 6935SOL    HW121704   4.012   6.282   1.600
 6935SOL    HW221705   4.076   6.203   1.472
 6936SOL     OW21706   0.122   1.726   5.426
 6936SOL    HW121707   0.158   1.647   5.477
 6936SOL    HW221708   0.058   1.776   5.484
 6937SOL     OW21709   5.542   5.148   0.222
 6937SOL    HW121710   5.543   5.048   0.225
 6937SOL    HW221711   5.510   5.179   0.132
 6938SOL     OW21712   2.704   1.679   4.751
 6938SOL    HW121713   2.617   1.660   4.797
 6938SOL    HW221714   2.763   1.598   4.756
 6939SOL     OW21715   5.646   3.175   3.235
 6939SOL    HW121716   5.627   3.269   3.264
 6939SOL    HW221717   5.612   3.162   3.141
 6940SOL     OW21718   2.710   6.096   0.826
 6940SOL    HW121719   2.636   6.043   0.786
 6940SOL    HW221720   2.702   6.191   0.797
 6941SOL     OW21721   3.514   3.761   2.757
 6941SOL    HW121722   3.569   3.692   2.804
 6941SOL    HW221723   3.465   3.719   2.681
 6942SOL     OW21724   6.208   5.696   2.466
 6942SOL    HW121725   6.178   5.757   2.539
 6942SOL    HW221726   6.289   5.734   2.422
 6943SOL     OW21727   4.556   4.415   6.308
 6943SOL    HW121728   4.457   4.401   6.315
 6943SOL    HW221729   4.584   4.403   6.213
 6944SOL     OW21730   1.222   4.170   4.985
 6944SOL    HW121731   1.206   4.267   5.005
 6944SOL    HW221732   1.224   4.157   4.886
 6945SOL     OW21733   5.364   1.470   1.032
 6945SOL    HW121734   5.455   1.459   0.993
 6945SOL    HW221735   5.326   1.380   1.055
 6946SOL     OW21736   5.179   6.544   2.981
 6946SOL    HW121737   5.140   6.636   2.981
 6946SOL    HW221738   5.208   6.520   2.888
 6947SOL     OW21739   6.252   4.451   4.942
 6947SOL    HW121740   6.247   4.491   4.850
 6947SOL    HW221741   6.346   4.423   4.961
 6948SOL     OW21742   0.328   4.528   6.654
 6948SOL    HW121743   0.246   4.472   6.666
 6948SOL    HW221744   0.305   4.610   6.601
 6949SOL     OW21745   2.585   2.146   3.677
 6949SOL    HW121746   2.599   2.047   3.670
 6949SOL    HW221747   2.491   2.168   3.649
 6950SOL     OW21748   0.429   1.077   4.481
 6950SOL    HW121749   0.397   1.145   4.547
 6950SOL    HW221750   0.516   1.038   4.512
 6951SOL     OW21751   0.888   4.533   7.004
 6951SOL    HW121752   0.900   4.442   0.023
 6951SOL    HW221753   0.869   4.598   0.058
 6952SOL     OW21754   4.936   5.538   3.999
 6952SOL    HW121755   4.844   5.536   3.960
 6952SOL    HW221756   4.993   5.600   3.945
 6953SOL     OW21757   6.377   1.719   1.102
 6953SOL    HW121758   6.426   1.798   1.139
 6953SOL    HW221759   6.281   1.743   1.086
 6954SOL     OW21760   0.009   4.614   6.672
 6954SOL    HW121761   6.989   4.528   6.642
 6954SOL    HW221762   6.981   4.648   6.753
 6955SOL     OW21763   4.919   6.452   3.137
 6955SOL    HW121764   4.949   6.539   3.097
 6955SOL    HW221765   4.914   6.383   3.066
 6956SOL     OW21766   5.589   5.336   2.389
 6956SOL    HW121767   5.524   5.389   2.335
 6956SOL    HW221768   5.571   5.238   2.376
 6957SOL     OW21769   6.132   5.629   5.389
 6957SOL    HW121770   6.165   5.558   5.327
 6957SOL    HW221771   6.032   5.627   5.393
 6958SOL     OW21772   3.005   3.530   3.095
 6958SOL    HW121773   2.970   3.591   3.025
 6958SOL    HW221774   3.088   3.569   3.135
 6959SOL     OW21775   1.564   4.028   2.945
 6959SOL    HW121776   1.634   3.997   3.009
 6959SOL    HW221777   1.514   3.950   2.909
 6960SOL     OW21778   3.945   4.380   0.166
 6960SOL    HW121779   3.989   4.443   0.102
 6960SOL    HW221780   3.965   4.286   0.138
 6961SOL     OW21781   4.719   2.506   5.180
 6961SOL    HW121782   4.662   2.431   5.214
 6961SOL    HW221783   4.738   2.570   5.254
 6962SOL     OW21784   2.250   6.487   6.544
 6962SOL    HW121785   2.162   6.517   6.507
 6962SOL    HW221786   2.236   6.441   6.631
 6963SOL     OW21787   6.374   5.805   0.290
 6963SOL    HW121788   6.345   5.882   0.347
 6963SOL    HW221789   6.340   5.720   0.330
 6964SOL     OW21790   2.047   1.296   5.258
 6964SOL    HW121791   1.956   1.295   5.299
 6964SOL    HW221792   2.112   1.340   5.320
 6965SOL     OW21793   1.388   1.380   0.547
 6965SOL    HW121794   1.411   1.285   0.525
 6965SOL    HW221795   1.350   1.426   0.467
 6966SOL     OW21796   1.387   6.175   1.145
 6966SOL    HW121797   1.334   6.099   1.183
 6966SOL    HW221798   1.481   6.171   1.179
 6967SOL     OW21799   4.272   0.951   6.808
 6967SOL    HW121800   4.234   0.982   6.721
 6967SOL    HW221801   4.219   0.988   6.883
 6968SOL     OW21802   3.899   6.806   3.160
 6968SOL    HW121803   3.857   6.760   3.239
 6968SOL    HW221804   3.836   6.876   3.126
 6969SOL     OW21805   2.054   2.159   2.180
 6969SOL    HW121806   2.053   2.062   2.156
 6969SOL    HW221807   2.048   2.214   2.096
 6970SOL     OW21808   3.874   5.085   5.117
 6970SOL    HW121809   3.837   5.072   5.025
 6970SOL    HW221810   3.809   5.048   5.184
 6971SOL     OW21811   6.335   4.103   0.323
 6971SOL    HW121812   6.361   4.137   0.414
 6971SOL    HW221813   6.391   4.148   0.254
 6972SOL     OW21814   5.378   4.272   1.255
 6972SOL    HW121815   5.395   4.365   1.222
 6972SOL    HW221816   5.451   4.211   1.224
 6973SOL     OW21817   1.647   2.058   3.106
 6973SOL    HW121818   1.706   2.101   3.037
 6973SOL    HW221819   1.594   2.129   3.152
 6974SOL     OW21820   4.012   3.858   2.634
 6974SOL    HW121821   4.104   3.883   2.604
 6974SOL    HW221822   3.979   3.781   2.579
 6975SOL     OW21823   3.198   5.496   4.383
 6975SOL    HW121824   3.101   5.490   4.404
 6975SOL    HW221825   3.212   5.555   4.303
 6976SOL     OW21826   4.606   3.929   5.995
 6976SOL    HW121827   4.570   3.893   5.909
 6976SOL    HW221828   4.689   3.878   6.020
 6977SOL     OW21829   4.657   4.990   2.507
 6977SOL    HW121830   4.742   4.959   2.465
 6977SOL    HW221831   4.644   5.088   2.490
 6978SOL     OW21832   0.272   3.377   1.142
 6978SOL    HW121833   0.199   3.355   1.206
 6978SOL    HW221834   0.317   3.462   1.170
 6979SOL     OW21835   1.308   3.764   2.356
 6979SOL    HW121836   1.351   3.851   2.382
 6979SOL    HW221837   1.379   3.697   2.335
 6980SOL     OW21838   1.881   5.150   2.948
 6980SOL    HW121839   1.927   5.062   2.962
 6980SOL    HW221840   1.948   5.219   2.922
 6981SOL     OW21841   4.077   2.409   6.950
 6981SOL    HW121842   3.993   2.359   6.927
 6981SOL    HW221843   4.053   2.495   6.996
 6982SOL     OW21844   1.166   0.613   2.342
 6982SOL    HW121845   1.066   0.622   2.341
 6982SOL    HW221846   1.193   0.531   2.292
 6983SOL     OW21847   6.193   0.913   4.064
 6983SOL    HW121848   6.149   0.823   4.060
 6983SOL    HW221849   6.182   0.952   4.155
 6984SOL     OW21850   1.561   2.870   3.126
 6984SOL    HW121851   1.653   2.895   3.159
 6984SOL    HW221852   1.505   2.840   3.202
 6985SOL     OW21853   5.665   3.430   6.369
 6985SOL    HW121854   5.609   3.475   6.299
 6985SOL    HW221855   5.606   3.376   6.429
 6986SOL     OW21856   4.956   4.715   5.387
 6986SOL    HW121857   4.993   4.631   5.427
 6986SOL    HW221858   5.031   4.779   5.368
 6987SOL     OW21859   0.295   0.954   6.795
 6987SOL    HW121860   0.212   1.000   6.762
 6987SOL    HW221861   0.269   0.873   6.848
 6988SOL     OW21862   2.635   1.299   6.737
 6988SOL    HW121863   2.733   1.312   6.723
 6988SOL    HW221864   2.586   1.380   6.703
 6989SOL     OW21865   0.608   4.074   2.969
 6989SOL    HW121866   0.590   4.058   2.872
 6989SOL    HW221867   0.523   4.099   3.015
 6990SOL     OW21868   3.740   3.839   0.385
 6990SOL    HW121869   3.735   3.769   0.314
 6990SOL    HW221870   3.653   3.842   0.434
 6991SOL     OW21871   6.183   3.279   2.342
 6991SOL    HW121872   6.257   3.340   2.372
 6991SOL    HW221873   6.199   3.253   2.247
 6992SOL     OW21874   0.924   5.565   0.396
 6992SOL    HW121875   0.834   5.602   0.370
 6992SOL    HW221876   0.912   5.482   0.450
 6993SOL     OW21877   4.306   2.080   1.709
 6993SOL    HW121878   4.222   2.119   1.747
 6993SOL    HW221879   4.385   2.132   1.742
 6994SOL     OW21880   2.704   1.322   3.485
 6994SOL    HW121881   2.767   1.344   3.560
 6994SOL    HW221882   2.734   1.238   3.440
 6995SOL     OW21883   6.867   4.083   0.885
 6995SOL    HW121884   6.920   4.002   0.908
 6995SOL    HW221885   6.820   4.116   0.966
 6996SOL     OW21886   0.663   1.167   6.641
 6996SOL    HW121887   0.607   1.193   6.720
 6996SOL    HW221888   0.669   1.067   6.636
 6997SOL     OW21889   6.263   6.022   6.229
 6997SOL    HW121890   6.253   6.058   6.322
 6997SOL    HW221891   6.275   6.099   6.165
 6998SOL     OW21892   0.017   1.330   0.488
 6998SOL    HW121893   0.061   1.409   0.531
 6998SOL    HW221894   0.068   1.304   0.406
 6999SOL     OW21895   6.959   3.183   6.730
 6999SOL    HW121896   6.913   3.270   6.746
 6999SOL    HW221897   6.893   3.114   6.701
 7000SOL     OW21898   0.151   5.721   3.434
 7000SOL    HW121899   0.182   5.802   3.385
 7000SOL    HW221900   0.229   5.662   3.455
 7001SOL     OW21901   6.728   2.020   3.980
 7001SOL    HW121902   6.792   2.093   4.004
 7001SOL    HW221903   6.775   1.932   3.977
 7002SOL     OW21904   0.880   5.644   2.789
 7002SOL    HW121905   0.828   5.703   2.727
 7002SOL    HW221906   0.886   5.552   2.750
 7003SOL     OW21907   0.308   4.182   0.660
 7003SOL    HW121908   0.335   4.187   0.757
 7003SOL    HW221909   0.209   4.171   0.654
 7004SOL     OW21910   1.885   0.096   0.339
 7004SOL    HW121911   1.917   0.189   0.356
 7004SOL    HW221912   1.925   0.033   0.405
 7005SOL     OW21913   1.151   5.166   0.498
 7005SOL    HW121914   1.142   5.070   0.522
 7005SOL    HW221915   1.245   5.185   0.471
 7006SOL     OW21916   0.502   0.213   3.918
 7006SOL    HW121917   0.457   0.281   3.860
 7006SOL    HW221918   0.442   0.135   3.932
 7007SOL     OW21919   2.160   0.520   5.976
 7007SOL    HW121920   2.258   0.524   5.955
 7007SOL    HW221921   2.136   0.595   6.037
 7008SOL     OW21922   5.680   3.490   3.067
 7008SOL    HW121923   5.631   3.559   3.013
 7008SOL    HW221924   5.624   3.464   3.145
 7009SOL     OW21925   5.051   6.004   2.544
 7009SOL    HW121926   4.980   5.933   2.546
 7009SOL    HW221927   5.134   5.966   2.504
 7010SOL     OW21928   4.968   3.507   2.432
 7010SOL    HW121929   4.920   3.580   2.384
 7010SOL    HW221930   4.914   3.423   2.429
 7011SOL     OW21931   2.736   6.838   6.282
 7011SOL    HW121932   2.699   6.896   6.354
 7011SOL    HW221933   2.743   6.744   6.315
 7012SOL     OW21934   6.825   2.936   0.023
 7012SOL    HW121935   6.824   3.033   7.018
 7012SOL    HW221936   6.736   2.912   0.063
 7013SOL     OW21937   3.123   2.818   0.395
 7013SOL    HW121938   3.027   2.793   0.388
 7013SOL    HW221939   3.160   2.838   0.305
 7014SOL     OW21940   5.369   3.284   0.743
 7014SOL    HW121941   5.284   3.237   0.718
 7014SOL    HW221942   5.388   3.270   0.840
 7015SOL     OW21943   5.855   6.291   1.320
 7015SOL    HW121944   5.874   6.301   1.417
 7015SOL    HW221945   5.775   6.232   1.308
 7016SOL     OW21946   3.362   5.369   1.060
 7016SOL    HW121947   3.375   5.280   1.015
 7016SOL    HW221948   3.380   5.442   0.995
 7017SOL     OW21949   5.862   4.451   5.569
 7017SOL    HW121950   5.905   4.526   5.619
 7017SOL    HW221951   5.923   4.421   5.496
 7018SOL     OW21952   5.371   3.770   4.742
 7018SOL    HW121953   5.434   3.772   4.664
 7018SOL    HW221954   5.410   3.823   4.817
 7019SOL     OW21955   4.250   5.414   2.202
 7019SOL    HW121956   4.251   5.457   2.292
 7019SOL    HW221957   4.197   5.329   2.207
 7020SOL     OW21958   0.865   2.649   6.490
 7020SOL    HW121959   0.788   2.654   6.427
 7020SOL    HW221960   0.932   2.719   6.466
 7021SOL     OW21961   0.573   1.978   4.677
 7021SOL    HW121962   0.583   1.944   4.583
 7021SOL    HW221963   0.563   2.078   4.675
 7022SOL     OW21964   3.038   2.714   0.829
 7022SOL    HW121965   3.087   2.791   0.789
 7022SOL    HW221966   3.082   2.628   0.801
 7023SOL     OW21967   0.342   1.301   0.716
 7023SOL    HW121968   0.325   1.359   0.636
 7023SOL    HW221969   0.441   1.287   0.725
 7024SOL     OW21970   3.174   3.580   4.603
 7024SOL    HW121971   3.090   3.573   4.550
 7024SOL    HW221972   3.216   3.489   4.610
 7025SOL     OW21973   3.044   0.418   1.184
 7025SOL    HW121974   3.060   0.443   1.088
 7025SOL    HW221975   3.042   0.502   1.239
 7026SOL     OW21976   3.226   3.001   1.001
 7026SOL    HW121977   3.162   3.045   0.937
 7026SOL    HW221978   3.187   2.915   1.033
 7027SOL     OW21979   3.152   4.876   2.790
 7027SOL    HW121980   3.060   4.898   2.820
 7027SOL    HW221981   3.150   4.843   2.695
 7028SOL     OW21982   3.441   6.957   3.460
 7028SOL    HW121983   3.525   6.953   3.514
 7028SOL    HW221984   3.433   0.027   3.417
 7029SOL     OW21985   3.438   3.860   3.525
 7029SOL    HW121986   3.389   3.937   3.484
 7029SOL    HW221987   3.507   3.827   3.461
 7030SOL     OW21988   6.683   0.693   4.817
 7030SOL    HW121989   6.750   0.761   4.787
 7030SOL    HW221990   6.667   0.702   4.915
 7031SOL     OW21991   4.905   6.323   0.542
 7031SOL    HW121992   4.969   6.251   0.516
 7031SOL    HW221993   4.932   6.409   0.498
 7032SOL     OW21994   4.637   5.015   4.185
 7032SOL    HW121995   4.548   4.976   4.163
 7032SOL    HW221996   4.709   4.958   4.147
 7033SOL     OW21997   1.942   1.765   5.489
 7033SOL    HW121998   1.855   1.793   5.450
 7033SOL    HW221999   1.973   1.834   5.554
 7034SOL     OW22000   6.491   0.952   2.690
 7034SOL    HW122001   6.530   0.944   2.598
 7034SOL    HW222002   6.517   0.872   2.744
 7035SOL     OW22003   2.281   0.965   1.155
 7035SOL    HW122004   2.356   1.025   1.127
 7035SOL    HW222005   2.274   0.888   1.093
 7036SOL     OW22006   6.538   1.480   2.187
 7036SOL    HW122007   6.624   1.495   2.139
 7036SOL    HW222008   6.462   1.480   2.122
 7037SOL     OW22009   1.285   0.535   5.946
 7037SOL    HW122010   1.355   0.532   6.017
 7037SOL    HW222011   1.200   0.571   5.985
 7038SOL     OW22012   1.476   3.622   0.414
 7038SOL    HW122013   1.531   3.630   0.497
 7038SOL    HW222014   1.461   3.713   0.375
 7039SOL     OW22015   0.096   6.912   2.283
 7039SOL    HW122016   0.035   6.835   2.265
 7039SOL    HW222017   0.058   6.995   2.242
 7040SOL     OW22018   5.874   2.572   4.777
 7040SOL    HW122019   5.971   2.596   4.775
 7040SOL    HW222020   5.855   2.514   4.856
 7041SOL     OW22021   1.194   6.790   4.170
 7041SOL    HW122022   1.263   6.830   4.229
 7041SOL    HW222023   1.158   6.861   4.109
 7042SOL     OW22024   5.653   6.008   5.091
 7042SOL    HW122025   5.609   6.089   5.130
 7042SOL    HW222026   5.596   5.927   5.109
 7043SOL     OW22027   1.917   5.571   0.697
 7043SOL    HW122028   1.904   5.582   0.795
 7043SOL    HW222029   1.992   5.508   0.680
 7044SOL     OW22030   5.864   6.563   5.072
 7044SOL    HW122031   5.868   6.566   5.172
 7044SOL    HW222032   5.892   6.472   5.041
 7045SOL     OW22033   6.396   5.677   1.840
 7045SOL    HW122034   6.395   5.728   1.754
 7045SOL    HW222035   6.458   5.600   1.832
 7046SOL     OW22036   1.734   1.557   3.891
 7046SOL    HW122037   1.662   1.604   3.942
 7046SOL    HW222038   1.745   1.600   3.801
 7047SOL     OW22039   1.287   6.383   0.561
 7047SOL    HW122040   1.374   6.425   0.536
 7047SOL    HW222041   1.245   6.435   0.635
 7048SOL     OW22042   0.282   6.261   4.033
 7048SOL    HW122043   0.201   6.319   4.019
 7048SOL    HW222044   0.312   6.268   4.128
 7049SOL     OW22045   3.782   1.294   3.956
 7049SOL    HW122046   3.736   1.258   3.875
 7049SOL    HW222047   3.715   1.302   4.030
 7050SOL     OW22048   4.240   4.467   0.543
 7050SOL    HW122049   4.173   4.424   0.604
 7050SOL    HW222050   4.247   4.565   0.566
 7051SOL     OW22051   1.271   1.574   1.746
 7051SOL    HW122052   1.353   1.581   1.803
 7051SOL    HW222053   1.298   1.574   1.650
 7052SOL     OW22054   4.343   1.450   2.954
 7052SOL    HW122055   4.410   1.383   2.984
 7052SOL    HW222056   4.326   1.439   2.856
 7053SOL     OW22057   1.252   3.841   3.103
 7053SOL    HW122058   1.313   3.830   3.181
 7053SOL    HW222059   1.159   3.816   3.130
 7054SOL     OW22060   5.474   0.985   6.695
 7054SOL    HW122061   5.478   0.885   6.690
 7054SOL    HW222062   5.557   1.019   6.739
 7055SOL     OW22063   2.695   0.586   0.267
 7055SOL    HW122064   2.738   0.503   0.233
 7055SOL    HW222065   2.604   0.595   0.228
 7056SOL     OW22066   6.650   4.899   0.919
 7056SOL    HW122067   6.670   4.806   0.888
 7056SOL    HW222068   6.564   4.899   0.970
 7057SOL     OW22069   2.915   5.729   4.932
 7057SOL    HW122070   2.943   5.666   5.004
 7057SOL    HW222071   2.926   5.685   4.843
 7058SOL     OW22072   5.999   2.654   6.246
 7058SOL    HW122073   6.098   2.644   6.256
 7058SOL    HW222074   5.973   2.634   6.152
 7059SOL     OW22075   1.792   6.858   5.161
 7059SOL    HW122076   1.745   6.945   5.156
 7059SOL    HW222077   1.853   6.857   5.241
 7060SOL     OW22078   3.155   2.191   1.043
 7060SOL    HW122079   3.056   2.200   1.034
 7060SOL    HW222080   3.177   2.155   1.133
 7061SOL     OW22081   1.093   1.069   1.436
 7061SOL    HW122082   1.176   1.065   1.490
 7061SOL    HW222083   1.113   1.044   1.341
 7062SOL     OW22084   3.237   0.395   3.720
 7062SOL    HW122085   3.217   0.487   3.689
 7062SOL    HW222086   3.302   0.399   3.797
 7063SOL     OW22087   6.789   1.088   1.166
 7063SOL    HW122088   6.772   1.033   1.248
 7063SOL    HW222089   6.832   1.174   1.193
 7064SOL     OW22090   2.948   1.236   5.092
 7064SOL    HW122091   2.869   1.248   5.153
 7064SOL    HW222092   3.027   1.285   5.129
 7065SOL     OW22093   4.075   5.556   5.167
 7065SOL    HW122094   4.126   5.640   5.188
 7065SOL    HW222095   4.117   5.510   5.089
 7066SOL     OW22096   3.489   0.271   1.096
 7066SOL    HW122097   3.497   0.226   1.007
 7066SOL    HW222098   3.489   0.370   1.083
 7067SOL     OW22099   1.926   3.939   6.217
 7067SOL    HW122100   2.005   3.903   6.266
 7067SOL    HW222101   1.941   4.036   6.195
 7068SOL     OW22102   5.461   4.073   4.527
 7068SOL    HW122103   5.418   4.103   4.613
 7068SOL    HW222104   5.472   4.152   4.467
 7069SOL     OW22105   4.798   0.795   6.050
 7069SOL    HW122106   4.755   0.876   6.010
 7069SOL    HW222107   4.813   0.810   6.148
 7070SOL     OW22108   0.555   0.307   5.803
 7070SOL    HW122109   0.605   0.225   5.777
 7070SOL    HW222110   0.457   0.294   5.785
 7071SOL     OW22111   4.795   6.022   6.696
 7071SOL    HW122112   4.786   5.923   6.686
 7071SOL    HW222113   4.704   6.062   6.707
 7072SOL     OW22114   0.602   4.021   6.096
 7072SOL    HW122115   0.610   3.928   6.060
 7072SOL    HW222116   0.669   4.035   6.168
 7073SOL     OW22117   4.883   1.873   3.820
 7073SOL    HW122118   4.869   1.858   3.918
 7073SOL    HW222119   4.840   1.959   3.793
 7074SOL     OW22120   5.443   3.925   3.013
 7074SOL    HW122121   5.477   3.977   2.935
 7074SOL    HW222122   5.482   3.964   3.097
 7075SOL     OW22123   2.344   5.384   3.111
 7075SOL    HW122124   2.318   5.300   3.062
 7075SOL    HW222125   2.440   5.378   3.138
 7076SOL     OW22126   5.474   2.612   1.561
 7076SOL    HW122127   5.441   2.666   1.483
 7076SOL    HW222128   5.448   2.516   1.548
 7077SOL     OW22129   3.684   6.283   1.860
 7077SOL    HW122130   3.752   6.212   1.839
 7077SOL    HW222131   3.731   6.371   1.869
 7078SOL     OW22132   6.638   0.747   6.834
 7078SOL    HW122133   6.731   0.778   6.816
 7078SOL    HW222134   6.637   0.649   6.851
 7079SOL     OW22135   1.648   5.673   4.795
 7079SOL    HW122136   1.649   5.653   4.697
 7079SOL    HW222137   1.635   5.771   4.809
 7080SOL     OW22138   3.946   2.002   6.123
 7080SOL    HW122139   3.853   2.014   6.089
 7080SOL    HW222140   3.982   2.089   6.155
 7081SOL     OW22141   2.688   6.773   0.630
 7081SOL    HW122142   2.673   6.706   0.702
 7081SOL    HW222143   2.649   6.861   0.657
 7082SOL     OW22144   0.563   3.873   2.373
 7082SOL    HW122145   0.637   3.842   2.432
 7082SOL    HW222146   0.542   3.802   2.305
 7083SOL     OW22147   5.047   2.568   3.208
 7083SOL    HW122148   5.139   2.548   3.242
 7083SOL    HW222149   4.982   2.559   3.283
 7084SOL     OW22150   0.915   5.202   0.072
 7084SOL    HW122151   0.994   5.258   0.046
 7084SOL    HW222152   0.894   5.137   7.019
 7085SOL     OW22153   0.808   4.151   2.074
 7085SOL    HW122154   0.739   4.167   2.146
 7085SOL    HW222155   0.796   4.217   2.001
 7086SOL     OW22156   5.410   1.037   3.739
 7086SOL    HW122157   5.312   1.029   3.720
 7086SOL    HW222158   5.424   1.101   3.815
 7087SOL     OW22159   4.735   2.918   3.438
 7087SOL    HW122160   4.827   2.881   3.455
 7087SOL    HW222161   4.691   2.866   3.366
 7088SOL     OW22162   6.298   2.302   5.072
 7088SOL    HW122163   6.349   2.370   5.125
 7088SOL    HW222164   6.293   2.331   4.976
 7089SOL     OW22165   2.558   5.535   1.560
 7089SOL    HW122166   2.586   5.492   1.474
 7089SOL    HW222167   2.496   5.475   1.609
 7090SOL     OW22168   4.143   3.128   1.158
 7090SOL    HW122169   4.077   3.053   1.149
 7090SOL    HW222170   4.110   3.194   1.225
 7091SOL     OW22171   0.422   6.853   0.598
 7091SOL    HW122172   0.464   6.928   0.546
 7091SOL    HW222173   0.323   6.862   0.594
 7092SOL     OW22174   4.279   6.848   6.687
 7092SOL    HW122175   4.356   6.912   6.689
 7092SOL    HW222176   4.256   6.821   6.781
 7093SOL     OW22177   3.445   3.020   0.704
 7093SOL    HW122178   3.505   2.944   0.732
 7093SOL    HW222179   3.461   3.098   0.763
 7094SOL     OW22180   3.717   0.295   5.508
 7094SOL    HW122181   3.700   0.324   5.602
 7094SOL    HW222182   3.755   0.202   5.508
 7095SOL     OW22183   2.542   4.956   4.645
 7095SOL    HW122184   2.578   4.986   4.733
 7095SOL    HW222185   2.556   4.857   4.635
 7096SOL     OW22186   6.553   0.212   1.044
 7096SOL    HW122187   6.518   0.260   1.124
 7096SOL    HW222188   6.616   0.139   1.073
 7097SOL     OW22189   4.696   1.467   2.354
 7097SOL    HW122190   4.764   1.397   2.376
 7097SOL    HW222191   4.732   1.557   2.378
 7098SOL     OW22192   0.976   0.951   3.340
 7098SOL    HW122193   1.004   0.865   3.298
 7098SOL    HW222194   1.050   1.018   3.332
 7099SOL     OW22195   3.451   1.713   4.611
 7099SOL    HW122196   3.433   1.615   4.607
 7099SOL    HW222197   3.518   1.738   4.542
 7100SOL     OW22198   6.805   4.100   1.316
 7100SOL    HW122199   6.756   4.138   1.395
 7100SOL    HW222200   6.860   4.022   1.346
 7101SOL     OW22201   2.528   6.150   4.925
 7101SOL    HW122202   2.606   6.212   4.938
 7101SOL    HW222203   2.558   6.067   4.878
 7102SOL     OW22204   5.285   1.244   2.419
 7102SOL    HW122205   5.327   1.195   2.495
 7102SOL    HW222206   5.272   1.340   2.445
 7103SOL     OW22207   4.855   3.605   3.513
 7103SOL    HW122208   4.858   3.702   3.540
 7103SOL    HW222209   4.861   3.548   3.594
 7104SOL     OW22210   4.845   2.910   4.466
 7104SOL    HW122211   4.820   2.959   4.549
 7104SOL    HW222212   4.855   2.974   4.390
 7105SOL     OW22213   2.908   3.322   3.289
 7105SOL    HW122214   2.878   3.395   3.227
 7105SOL    HW222215   2.953   3.362   3.368
 7106SOL     OW22216   3.355   1.817   2.411
 7106SOL    HW122217   3.270   1.768   2.391
 7106SOL    HW222218   3.367   1.891   2.345
 7107SOL     OW22219   3.925   0.507   6.273
 7107SOL    HW122220   3.996   0.442   6.300
 7107SOL    HW222221   3.866   0.526   6.352
 7108SOL     OW22222   4.329   0.402   2.098
 7108SOL    HW122223   4.234   0.432   2.096
 7108SOL    HW222224   4.388   0.481   2.116
 7109SOL     OW22225   3.224   5.770   6.717
 7109SOL    HW122226   3.207   5.736   6.625
 7109SOL    HW222227   3.322   5.785   6.730
 7110SOL     OW22228   3.003   6.536   4.890
 7110SOL    HW122229   3.023   6.451   4.841
 7110SOL    HW222230   2.937   6.590   4.837
 7111SOL     OW22231   6.635   0.699   5.106
 7111SOL    HW122232   6.557   0.637   5.108
 7111SOL    HW222233   6.613   0.783   5.156
 7112SOL     OW22234   1.085   4.899   5.089
 7112SOL    HW122235   1.145   4.957   5.144
 7112SOL    HW222236   0.996   4.892   5.132
 7113SOL     OW22237   3.276   6.478   4.684
 7113SOL    HW122238   3.349   6.541   4.711
 7113SOL    HW222239   3.196   6.530   4.655
 7114SOL     OW22240   5.866   4.057   1.130
 7114SOL    HW122241   5.847   4.111   1.048
 7114SOL    HW222242   5.782   4.048   1.184
 7115SOL     OW22243   5.663   3.230   6.010
 7115SOL    HW122244   5.699   3.193   6.095
 7115SOL    HW222245   5.687   3.326   6.002
 7116SOL     OW22246   0.189   3.967   4.705
 7116SOL    HW122247   0.218   3.984   4.799
 7116SOL    HW222248   0.212   3.873   4.679
 7117SOL     OW22249   5.132   6.816   3.024
 7117SOL    HW122250   5.136   6.910   2.990
 7117SOL    HW222251   5.090   6.815   3.115
 7118SOL     OW22252   4.263   4.208   6.254
 7118SOL    HW122253   4.192   4.189   6.187
 7118SOL    HW222254   4.342   4.150   6.236
 7119SOL     OW22255   3.467   6.233   5.797
 7119SOL    HW122256   3.453   6.165   5.726
 7119SOL    HW222257   3.564   6.257   5.802
 7120SOL     OW22258   4.241   1.372   0.696
 7120SOL    HW122259   4.306   1.425   0.640
 7120SOL    HW222260   4.257   1.392   0.792
 7121SOL     OW22261   1.357   5.628   2.309
 7121SOL    HW122262   1.372   5.598   2.403
 7121SOL    HW222263   1.351   5.728   2.306
 7122SOL     OW22264   3.393   1.858   6.863
 7122SOL    HW122265   3.344   1.857   6.950
 7122SOL    HW222266   3.492   1.856   6.880
 7123SOL     OW22267   5.885   4.988   6.090
 7123SOL    HW122268   5.913   5.044   6.168
 7123SOL    HW222269   5.951   4.914   6.076
 7124SOL     OW22270   1.871   3.208   1.118
 7124SOL    HW122271   1.847   3.147   1.194
 7124SOL    HW222272   1.923   3.157   1.049
 7125SOL     OW22273   0.319   6.560   2.406
 7125SOL    HW122274   0.297   6.628   2.477
 7125SOL    HW222275   0.235   6.517   2.374
 7126SOL     OW22276   3.602   5.386   1.210
 7126SOL    HW122277   3.681   5.432   1.170
 7126SOL    HW222278   3.527   5.385   1.145
 7127SOL     OW22279   2.471   6.293   6.523
 7127SOL    HW122280   2.559   6.306   6.568
 7127SOL    HW222281   2.412   6.373   6.541
 7128SOL     OW22282   3.246   4.181   0.039
 7128SOL    HW122283   3.171   4.127   0.002
 7128SOL    HW222284   3.210   4.249   0.103
 7129SOL     OW22285   0.511   0.142   0.134
 7129SOL    HW122286   0.518   0.203   0.055
 7129SOL    HW222287   0.600   0.134   0.178
 7130SOL     OW22288   3.406   6.733   4.004
 7130SOL    HW122289   3.311   6.738   4.035
 7130SOL    HW222290   3.461   6.801   4.052
 7131SOL     OW22291   2.378   1.377   1.732
 7131SOL    HW122292   2.301   1.389   1.670
 7131SOL    HW222293   2.413   1.284   1.724
 7132SOL     OW22294   4.927   4.131   0.907
 7132SOL    HW122295   4.912   4.040   0.868
 7132SOL    HW222296   4.918   4.126   1.007
 7133SOL     OW22297   5.100   6.072   2.821
 7133SOL    HW122298   5.197   6.062   2.845
 7133SOL    HW222299   5.088   6.056   2.723
 7134SOL     OW22300   5.116   5.215   0.001
 7134SOL    HW122301   5.174   5.156   6.965
 7134SOL    HW222302   5.172   5.287   0.042
 7135SOL     OW22303   1.896   3.819   1.431
 7135SOL    HW122304   1.874   3.729   1.468
 7135SOL    HW222305   1.973   3.812   1.369
 7136SOL     OW22306   1.173   2.538   1.950
 7136SOL    HW122307   1.261   2.523   1.994
 7136SOL    HW222308   1.185   2.544   1.851
 7137SOL     OW22309   3.005   1.223   1.539
 7137SOL    HW122310   3.029   1.292   1.608
 7137SOL    HW222311   2.906   1.225   1.524
 7138SOL     OW22312   0.262   3.062   0.299
 7138SOL    HW122313   0.283   3.092   0.392
 7138SOL    HW222314   0.168   3.085   0.276
 7139SOL     OW22315   5.782   6.469   1.137
 7139SOL    HW122316   5.814   6.404   1.206
 7139SOL    HW222317   5.689   6.499   1.161
 7140SOL     OW22318   6.835   4.119   6.888
 7140SOL    HW122319   6.745   4.088   6.920
 7140SOL    HW222320   6.874   4.050   6.828
 7141SOL     OW22321   3.214   0.539   0.962
 7141SOL    HW122322   3.255   0.452   0.990
 7141SOL    HW222323   3.254   0.568   0.875
 7142SOL     OW22324   4.194   0.049   4.723
 7142SOL    HW122325   4.233   6.983   4.692
 7142SOL    HW222326   4.096   0.050   4.705
 7143SOL     OW22327   2.592   3.363   6.312
 7143SOL    HW122328   2.660   3.434   6.330
 7143SOL    HW222329   2.505   3.406   6.288
 7144SOL     OW22330   6.895   1.066   6.336
 7144SOL    HW122331   6.849   1.153   6.321
 7144SOL    HW222332   6.840   0.992   6.296
 7145SOL     OW22333   5.677   1.390   6.041
 7145SOL    HW122334   5.757   1.369   6.099
 7145SOL    HW222335   5.608   1.318   6.052
 7146SOL     OW22336   1.264   2.221   5.556
 7146SOL    HW122337   1.191   2.221   5.625
 7146SOL    HW222338   1.352   2.205   5.600
 7147SOL     OW22339   6.355   6.288   1.827
 7147SOL    HW122340   6.357   6.307   1.925
 7147SOL    HW222341   6.269   6.321   1.788
 7148SOL     OW22342   6.750   6.916   1.432
 7148SOL    HW122343   6.683   6.845   1.452
 7148SOL    HW222344   6.831   6.902   1.488
 7149SOL     OW22345   5.581   4.491   5.595
 7149SOL    HW122346   5.537   4.424   5.535
 7149SOL    HW222347   5.679   4.473   5.598
 7150SOL     OW22348   3.083   2.552   0.065
 7150SOL    HW122349   3.079   2.526   0.161
 7150SOL    HW222350   3.175   2.538   0.030
 7151SOL     OW22351   5.280   1.290   6.836
 7151SOL    HW122352   5.290   1.384   6.868
 7151SOL    HW222353   5.319   1.282   6.744
 7152SOL     OW22354   4.849   0.511   6.049
 7152SOL    HW122355   4.942   0.489   6.019
 7152SOL    HW222356   4.847   0.605   6.083
 7153SOL     OW22357   3.366   5.745   0.362
 7153SOL    HW122358   3.390   5.718   0.268
 7153SOL    HW222359   3.378   5.844   0.371
 7154SOL     OW22360   4.372   1.441   2.169
 7154SOL    HW122361   4.448   1.377   2.181
 7154SOL    HW222362   4.289   1.401   2.205
 7155SOL     OW22363   1.504   0.496   1.884
 7155SOL    HW122364   1.450   0.446   1.952
 7155SOL    HW222365   1.452   0.504   1.799
 7156SOL     OW22366   6.482   3.505   5.356
 7156SOL    HW122367   6.402   3.468   5.308
 7156SOL    HW222368   6.547   3.542   5.289
 7157SOL     OW22369   0.416   4.491   5.884
 7157SOL    HW122370   0.493   4.554   5.898
 7157SOL    HW222371   0.451   4.401   5.860
 7158SOL     OW22372   5.152   6.848   3.954
 7158SOL    HW122373   5.163   6.943   3.981
 7158SOL    HW222374   5.130   6.843   3.856
 7159SOL     OW22375   0.551   6.598   2.954
 7159SOL    HW122376   0.582   6.650   2.875
 7159SOL    HW222377   0.527   6.662   3.028
 7160SOL     OW22378   5.998   0.188   3.534
 7160SOL    HW122379   6.060   0.199   3.611
 7160SOL    HW222380   6.047   0.209   3.449
 7161SOL     OW22381   3.635   3.998   2.062
 7161SOL    HW122382   3.721   3.965   2.101
 7161SOL    HW222383   3.576   3.920   2.039
 7162SOL     OW22384   0.548   6.440   1.311
 7162SOL    HW122385   0.623   6.405   1.255
 7162SOL    HW222386   0.577   6.523   1.359
 7163SOL     OW22387   6.879   0.782   0.786
 7163SOL    HW122388   6.785   0.788   0.752
 7163SOL    HW222389   6.894   0.852   0.856
 7164SOL     OW22390   1.207   0.888   6.872
 7164SOL    HW122391   1.110   0.901   6.851
 7164SOL    HW222392   1.259   0.968   6.843
 7165SOL     OW22393   5.947   2.104   0.111
 7165SOL    HW122394   5.958   2.182   0.050
 7165SOL    HW222395   5.972   2.130   0.204
 7166SOL     OW22396   6.790   5.851   5.956
 7166SOL    HW122397   6.772   5.784   5.884
 7166SOL    HW222398   6.825   5.936   5.915
 7167SOL     OW22399   0.111   2.882   5.261
 7167SOL    HW122400   0.105   2.982   5.262
 7167SOL    HW222401   0.155   2.852   5.176
 7168SOL     OW22402   1.790   2.000   2.434
 7168SOL    HW122403   1.762   1.954   2.349
 7168SOL    HW222404   1.802   2.098   2.417
 7169SOL     OW22405   1.859   4.601   5.235
 7169SOL    HW122406   1.868   4.630   5.139
 7169SOL    HW222407   1.904   4.668   5.294
 7170SOL     OW22408   3.414   1.633   1.299
 7170SOL    HW122409   3.505   1.618   1.261
 7170SOL    HW222410   3.378   1.547   1.335
 7171SOL     OW22411   6.889   3.725   0.796
 7171SOL    HW122412   6.873   3.798   0.730
 7171SOL    HW222413   6.921   3.765   0.882
 7172SOL     OW22414   0.390   2.545   3.938
 7172SOL    HW122415   0.372   2.513   3.845
 7172SOL    HW222416   0.306   2.537   3.992
 7173SOL     OW22417   4.651   5.343   6.178
 7173SOL    HW122418   4.737   5.392   6.164
 7173SOL    HW222419   4.648   5.263   6.119
 7174SOL     OW22420   6.602   4.245   2.359
 7174SOL    HW122421   6.539   4.179   2.318
 7174SOL    HW222422   6.679   4.260   2.296
 7175SOL     OW22423   6.719   3.898   5.363
 7175SOL    HW122424   6.702   3.966   5.434
 7175SOL    HW222425   6.789   3.933   5.300
 7176SOL     OW22426   0.218   1.216   6.184
 7176SOL    HW122427   0.238   1.246   6.091
 7176SOL    HW222428   0.163   1.286   6.231
 7177SOL     OW22429   1.193   6.156   3.785
 7177SOL    HW122430   1.099   6.135   3.757
 7177SOL    HW222431   1.193   6.237   3.843
 7178SOL     OW22432   1.632   6.906   4.939
 7178SOL    HW122433   1.678   6.909   4.850
 7178SOL    HW222434   1.698   6.880   5.009
 7179SOL     OW22435   3.994   4.748   6.212
 7179SOL    HW122436   3.976   4.730   6.115
 7179SOL    HW222437   4.087   4.785   6.222
 7180SOL     OW22438   1.685   2.855   1.715
 7180SOL    HW122439   1.769   2.832   1.666
 7180SOL    HW222440   1.666   2.953   1.704
 7181SOL     OW22441   1.970   1.444   6.836
 7181SOL    HW122442   1.900   1.493   6.784
 7181SOL    HW222443   1.984   1.353   6.796
 7182SOL     OW22444   1.676   1.297   3.795
 7182SOL    HW122445   1.689   1.383   3.845
 7182SOL    HW222446   1.687   1.314   3.697
 7183SOL     OW22447   1.432   6.912   2.208
 7183SOL    HW122448   1.341   6.886   2.240
 7183SOL    HW222449   1.501   6.873   2.268
 7184SOL     OW22450   6.790   0.946   3.764
 7184SOL    HW122451   6.808   1.020   3.829
 7184SOL    HW222452   6.814   0.976   3.672
 7185SOL     OW22453   4.261   0.613   4.048
 7185SOL    HW122454   4.185   0.649   3.994
 7185SOL    HW222455   4.291   0.682   4.113
 7186SOL     OW22456   6.351   0.754   6.908
 7186SOL    HW122457   6.339   0.827   6.976
 7186SOL    HW222458   6.445   0.756   6.873
 7187SOL     OW22459   3.804   3.661   3.879
 7187SOL    HW122460   3.845   3.576   3.845
 7187SOL    HW222461   3.704   3.655   3.871
 7188SOL     OW22462   4.478   4.559   0.182
 7188SOL    HW122463   4.528   4.559   0.096
 7188SOL    HW222464   4.469   4.465   0.216
 7189SOL     OW22465   6.667   2.740   5.688
 7189SOL    HW122466   6.591   2.735   5.752
 7189SOL    HW222467   6.642   2.799   5.611
 7190SOL     OW22468   5.912   5.226   6.844
 7190SOL    HW122469   5.813   5.241   6.843
 7190SOL    HW222470   5.945   5.225   6.939
 7191SOL     OW22471   6.833   5.075   2.740
 7191SOL    HW122472   6.863   4.979   2.738
 7191SOL    HW222473   6.878   5.122   2.816
 7192SOL     OW22474   2.338   4.034   5.857
 7192SOL    HW122475   2.438   4.025   5.852
 7192SOL    HW222476   2.313   4.130   5.869
 7193SOL     OW22477   3.150   1.664   3.263
 7193SOL    HW122478   3.093   1.714   3.198
 7193SOL    HW222479   3.121   1.569   3.266
 7194SOL     OW22480   2.905   2.668   6.146
 7194SOL    HW122481   2.967   2.745   6.166
 7194SOL    HW222482   2.942   2.584   6.186
 7195SOL     OW22483   0.733   4.243   5.321
 7195SOL    HW122484   0.654   4.237   5.260
 7195SOL    HW222485   0.715   4.311   5.392
 7196SOL     OW22486   3.453   4.096   1.880
 7196SOL    HW122487   3.505   4.060   1.957
 7196SOL    HW222488   3.357   4.072   1.890
 7197SOL     OW22489   3.402   4.364   6.542
 7197SOL    HW122490   3.364   4.427   6.475
 7197SOL    HW222491   3.342   4.284   6.549
 7198SOL     OW22492   0.727   0.671   1.795
 7198SOL    HW122493   0.646   0.638   1.842
 7198SOL    HW222494   0.755   0.604   1.726
 7199SOL     OW22495   5.955   1.479   2.424
 7199SOL    HW122496   5.937   1.559   2.366
 7199SOL    HW222497   5.885   1.410   2.408
 7200SOL     OW22498   0.859   2.618   0.259
 7200SOL    HW122499   0.818   2.547   0.202
 7200SOL    HW222500   0.798   2.698   0.261
 7201SOL     OW22501   6.214   5.603   4.015
 7201SOL    HW122502   6.143   5.653   3.966
 7201SOL    HW222503   6.264   5.544   3.951
 7202SOL     OW22504   4.685   6.315   6.017
 7202SOL    HW122505   4.594   6.324   6.057
 7202SOL    HW222506   4.678   6.321   5.917
 7203SOL     OW22507   0.133   1.523   1.150
 7203SOL    HW122508   0.206   1.467   1.189
 7203SOL    HW222509   0.081   1.469   1.083
 7204SOL     OW22510   6.692   0.668   2.369
 7204SOL    HW122511   6.750   0.743   2.340
 7204SOL    HW222512   6.669   0.611   2.290
 7205SOL     OW22513   2.779   2.076   4.472
 7205SOL    HW122514   2.757   2.173   4.459
 7205SOL    HW222515   2.870   2.067   4.512
 7206SOL     OW22516   1.714   4.034   6.946
 7206SOL    HW122517   1.698   4.043   0.024
 7206SOL    HW222518   1.629   4.050   6.896
 7207SOL     OW22519   1.956   1.084   3.379
 7207SOL    HW122520   1.884   1.126   3.324
 7207SOL    HW222521   1.915   1.038   3.458
 7208SOL     OW22522   2.947   0.644   4.025
 7208SOL    HW122523   2.950   0.703   4.106
 7208SOL    HW222524   2.862   0.590   4.026
 7209SOL     OW22525   3.383   1.181   1.749
 7209SOL    HW122526   3.365   1.158   1.653
 7209SOL    HW222527   3.455   1.122   1.784
 7210SOL     OW22528   3.388   1.307   3.499
 7210SOL    HW122529   3.336   1.240   3.447
 7210SOL    HW222530   3.332   1.343   3.573
 7211SOL     OW22531   4.371   6.435   5.323
 7211SOL    HW122532   4.312   6.381   5.383
 7211SOL    HW222533   4.319   6.464   5.242
 7212SOL     OW22534   0.807   5.148   5.639
 7212SOL    HW122535   0.844   5.060   5.668
 7212SOL    HW222536   0.707   5.143   5.637
 7213SOL     OW22537   3.903   1.916   6.912
 7213SOL    HW122538   3.969   1.904   6.986
 7213SOL    HW222539   3.952   1.920   6.824
 7214SOL     OW22540   6.069   6.921   6.656
 7214SOL    HW122541   6.139   6.991   6.646
 7214SOL    HW222542   5.982   6.964   6.682
 7215SOL     OW22543   6.440   1.650   2.598
 7215SOL    HW122544   6.498   1.586   2.547
 7215SOL    HW222545   6.344   1.625   2.586
 7216SOL     OW22546   4.374   6.789   3.216
 7216SOL    HW122547   4.380   6.689   3.212
 7216SOL    HW222548   4.289   6.815   3.263
 7217SOL     OW22549   0.970   2.788   2.913
 7217SOL    HW122550   1.044   2.823   2.971
 7217SOL    HW222551   1.007   2.716   2.853
 7218SOL     OW22552   6.335   2.762   4.382
 7218SOL    HW122553   6.255   2.818   4.402
 7218SOL    HW222554   6.383   2.741   4.467
 7219SOL     OW22555   2.940   6.363   2.844
 7219SOL    HW122556   2.855   6.311   2.852
 7219SOL    HW222557   3.005   6.330   2.913
 7220SOL     OW22558   6.257   4.657   3.737
 7220SOL    HW122559   6.207   4.584   3.783
 7220SOL    HW222560   6.230   4.659   3.641
 7221SOL     OW22561   4.149   5.162   3.881
 7221SOL    HW122562   4.148   5.109   3.796
 7221SOL    HW222563   4.139   5.259   3.861
 7222SOL     OW22564   6.480   5.997   4.188
 7222SOL    HW122565   6.531   5.974   4.105
 7222SOL    HW222566   6.393   5.949   4.189
 7223SOL     OW22567   0.035   4.279   1.510
 7223SOL    HW122568   0.117   4.328   1.480
 7223SOL    HW222569   0.060   4.208   1.576
 7224SOL     OW22570   4.343   2.123   2.720
 7224SOL    HW122571   4.400   2.074   2.655
 7224SOL    HW222572   4.260   2.155   2.673
 7225SOL     OW22573   1.575   5.391   0.650
 7225SOL    HW122574   1.538   5.308   0.691
 7225SOL    HW222575   1.512   5.426   0.581
 7226SOL     OW22576   0.147   6.306   0.381
 7226SOL    HW122577   0.128   6.361   0.463
 7226SOL    HW222578   0.243   6.316   0.356
 7227SOL     OW22579   1.960   1.244   2.316
 7227SOL    HW122580   1.945   1.146   2.308
 7227SOL    HW222581   2.013   1.263   2.399
 7228SOL     OW22582   6.500   3.389   2.152
 7228SOL    HW122583   6.446   3.406   2.235
 7228SOL    HW222584   6.438   3.379   2.074
 7229SOL     OW22585   6.492   1.052   5.467
 7229SOL    HW122586   6.400   1.076   5.435
 7229SOL    HW222587   6.527   1.124   5.527
 7230SOL     OW22588   2.265   4.912   4.731
 7230SOL    HW122589   2.258   4.856   4.648
 7230SOL    HW222590   2.360   4.944   4.742
 7231SOL     OW22591   4.433   2.732   5.872
 7231SOL    HW122592   4.481   2.776   5.797
 7231SOL    HW222593   4.484   2.747   5.957
 7232SOL     OW22594   4.839   6.546   3.673
 7232SOL    HW122595   4.780   6.466   3.666
 7232SOL    HW222596   4.825   6.604   3.592
 7233SOL     OW22597   0.556   1.345   5.005
 7233SOL    HW122598   0.653   1.330   5.028
 7233SOL    HW222599   0.535   1.442   5.010
 7234SOL     OW22600   5.227   4.393   3.203
 7234SOL    HW122601   5.271   4.327   3.263
 7234SOL    HW222602   5.289   4.470   3.187
 7235SOL     OW22603   6.491   6.477   1.334
 7235SOL    HW122604   6.395   6.498   1.315
 7235SOL    HW222605   6.538   6.560   1.365
 7236SOL     OW22606   1.288   3.545   2.822
 7236SOL    HW122607   1.377   3.589   2.834
 7236SOL    HW222608   1.243   3.580   2.740
 7237SOL     OW22609   5.892   0.928   0.667
 7237SOL    HW122610   5.943   0.996   0.720
 7237SOL    HW222611   5.844   0.866   0.728
 7238SOL     OW22612   4.062   3.331   6.730
 7238SOL    HW122613   4.055   3.400   6.803
 7238SOL    HW222614   4.131   3.263   6.756
 7239SOL     OW22615   6.248   2.482   2.273
 7239SOL    HW122616   6.154   2.515   2.282
 7239SOL    HW222617   6.261   2.442   2.182
 7240SOL     OW22618   6.625   1.964   0.462
 7240SOL    HW122619   6.667   1.911   0.535
 7240SOL    HW222620   6.661   2.057   0.463
 7241SOL     OW22621   2.632   1.016   2.234
 7241SOL    HW122622   2.640   1.004   2.136
 7241SOL    HW222623   2.543   1.056   2.256
 7242SOL     OW22624   6.892   4.270   4.420
 7242SOL    HW122625   6.985   4.245   4.449
 7242SOL    HW222626   6.897   4.311   4.329
 7243SOL     OW22627   5.636   4.472   6.274
 7243SOL    HW122628   5.600   4.448   6.184
 7243SOL    HW222629   5.563   4.515   6.328
 7244SOL     OW22630   6.988   5.997   0.370
 7244SOL    HW122631   0.025   6.076   0.348
 7244SOL    HW222632   6.907   6.027   0.422
 7245SOL     OW22633   1.080   3.233   0.707
 7245SOL    HW122634   1.165   3.193   0.675
 7245SOL    HW222635   1.012   3.231   0.634
 7246SOL     OW22636   4.655   6.825   3.267
 7246SOL    HW122637   4.708   6.834   3.182
 7246SOL    HW222638   4.558   6.840   3.247
 7247SOL     OW22639   3.466   3.900   4.822
 7247SOL    HW122640   3.553   3.896   4.772
 7247SOL    HW222641   3.453   3.815   4.872
 7248SOL     OW22642   2.936   1.307   5.389
 7248SOL    HW122643   2.907   1.388   5.339
 7248SOL    HW222644   3.028   1.322   5.427
 7249SOL     OW22645   4.376   4.883   2.496
 7249SOL    HW122646   4.443   4.954   2.517
 7249SOL    HW222647   4.409   4.828   2.419
 7250SOL     OW22648   5.301   5.161   5.023
 7250SOL    HW122649   5.321   5.259   5.022
 7250SOL    HW222650   5.325   5.123   5.112
 7251SOL     OW22651   0.096   6.068   5.318
 7251SOL    HW122652   0.082   6.138   5.248
 7251SOL    HW222653   0.175   6.093   5.375
 7252SOL     OW22654   3.442   4.169   2.223
 7252SOL    HW122655   3.486   4.083   2.198
 7252SOL    HW222656   3.448   4.234   2.147
 7253SOL     OW22657   2.711   5.479   4.825
 7253SOL    HW122658   2.803   5.515   4.807
 7253SOL    HW222659   2.719   5.393   4.876
 7254SOL     OW22660   5.873   3.147   4.338
 7254SOL    HW122661   5.919   3.229   4.373
 7254SOL    HW222662   5.864   3.080   4.411
 7255SOL     OW22663   4.924   3.560   6.905
 7255SOL    HW122664   4.882   3.562   6.996
 7255SOL    HW222665   5.024   3.565   6.915
 7256SOL     OW22666   3.181   0.123   4.836
 7256SOL    HW122667   3.085   0.094   4.843
 7256SOL    HW222668   3.191   0.215   4.873
 7257SOL     OW22669   0.644   1.359   4.577
 7257SOL    HW122670   0.683   1.447   4.606
 7257SOL    HW222671   0.651   1.350   4.478
 7258SOL     OW22672   5.824   2.723   2.556
 7258SOL    HW122673   5.800   2.787   2.628
 7258SOL    HW222674   5.822   2.770   2.467
 7259SOL     OW22675   1.518   3.962   2.486
 7259SOL    HW122676   1.596   3.967   2.548
 7259SOL    HW222677   1.493   4.054   2.456
 7260SOL     OW22678   5.591   3.137   0.672
 7260SOL    HW122679   5.513   3.199   0.683
 7260SOL    HW222680   5.634   3.153   0.583
 7261SOL     OW22681   6.716   4.226   0.371
 7261SOL    HW122682   6.658   4.307   0.379
 7261SOL    HW222683   6.806   4.253   0.335
 7262SOL     OW22684   5.828   1.378   4.868
 7262SOL    HW122685   5.764   1.420   4.932
 7262SOL    HW222686   5.847   1.441   4.793
 7263SOL     OW22687   0.087   5.927   6.962
 7263SOL    HW122688   0.152   6.001   6.945
 7263SOL    HW222689   0.001   5.965   6.995
 7264SOL     OW22690   6.020   1.478   0.575
 7264SOL    HW122691   6.098   1.473   0.512
 7264SOL    HW222692   6.024   1.564   0.626
 7265SOL     OW22693   3.778   6.687   5.640
 7265SOL    HW122694   3.710   6.748   5.599
 7265SOL    HW222695   3.790   6.606   5.583
 7266SOL     OW22696   0.454   0.949   3.526
 7266SOL    HW122697   0.451   0.982   3.620
 7266SOL    HW222698   0.545   0.913   3.506
 7267SOL     OW22699   6.526   4.785   4.584
 7267SOL    HW122700   6.501   4.776   4.680
 7267SOL    HW222701   6.613   4.833   4.577
 7268SOL     OW22702   6.299   6.802   4.293
 7268SOL    HW122703   6.348   6.886   4.314
 7268SOL    HW222704   6.362   6.736   4.252
 7269SOL     OW22705   2.590   4.602   4.847
 7269SOL    HW122706   2.673   4.612   4.903
 7269SOL    HW222707   2.609   4.632   4.754
 7270SOL     OW22708   0.913   1.297   4.667
 7270SOL    HW122709   0.951   1.266   4.579
 7270SOL    HW222710   0.815   1.312   4.657
 7271SOL     OW22711   0.855   4.739   3.091
 7271SOL    HW122712   0.873   4.812   3.157
 7271SOL    HW222713   0.771   4.759   3.040
 7272SOL     OW22714   6.700   4.709   1.926
 7272SOL    HW122715   6.766   4.749   1.862
 7272SOL    HW222716   6.607   4.724   1.892
 7273SOL     OW22717   1.042   2.691   5.490
 7273SOL    HW122718   0.981   2.769   5.475
 7273SOL    HW222719   0.995   2.621   5.544
 7274SOL     OW22720   0.647   4.676   0.066
 7274SOL    HW122721   0.621   4.757   0.119
 7274SOL    HW222722   0.601   4.677   6.998
 7275SOL     OW22723   0.006   0.253   2.933
 7275SOL    HW122724   6.940   0.285   2.972
 7275SOL    HW222725   0.017   0.290   2.841
 7276SOL     OW22726   5.642   6.693   4.508
 7276SOL    HW122727   5.663   6.694   4.410
 7276SOL    HW222728   5.543   6.690   4.521
 7277SOL     OW22729   4.878   0.142   6.383
 7277SOL    HW122730   4.941   0.195   6.326
 7277SOL    HW222731   4.883   0.177   6.477
 7278SOL     OW22732   3.345   2.889   2.105
 7278SOL    HW122733   3.405   2.851   2.034
 7278SOL    HW222734   3.259   2.839   2.106
 7279SOL     OW22735   3.062   6.478   6.077
 7279SOL    HW122736   2.980   6.429   6.107
 7279SOL    HW222737   3.130   6.413   6.043
 7280SOL     OW22738   4.775   1.197   5.924
 7280SOL    HW122739   4.805   1.119   5.870
 7280SOL    HW222740   4.734   1.166   6.009
 7281SOL     OW22741   5.226   1.508   5.955
 7281SOL    HW122742   5.297   1.535   5.890
 7281SOL    HW222743   5.217   1.408   5.955
 7282SOL     OW22744   5.813   5.355   2.230
 7282SOL    HW122745   5.746   5.319   2.295
 7282SOL    HW222746   5.900   5.370   2.275
 7283SOL     OW22747   1.878   0.918   3.582
 7283SOL    HW122748   1.929   0.839   3.617
 7283SOL    HW222749   1.795   0.931   3.636
 7284SOL     OW22750   0.212   3.233   4.962
 7284SOL    HW122751   0.203   3.319   5.012
 7284SOL    HW222752   0.298   3.233   4.911
 7285SOL     OW22753   5.061   5.521   1.752
 7285SOL    HW122754   5.146   5.539   1.801
 7285SOL    HW222755   5.082   5.489   1.659
 7286SOL     OW22756   2.051   3.555   1.344
 7286SOL    HW122757   2.066   3.456   1.354
 7286SOL    HW222758   2.093   3.603   1.421
 7287SOL     OW22759   5.790   1.778   6.479
 7287SOL    HW122760   5.727   1.702   6.465
 7287SOL    HW222761   5.740   1.857   6.514
 7288SOL     OW22762   3.178   6.172   6.983
 7288SOL    HW122763   3.129   6.259   6.990
 7288SOL    HW222764   3.220   6.151   0.050
 7289SOL     OW22765   5.018   1.916   3.349
 7289SOL    HW122766   4.920   1.935   3.347
 7289SOL    HW222767   5.054   1.917   3.256
 7290SOL     OW22768   3.011   5.291   4.025
 7290SOL    HW122769   2.991   5.388   4.011
 7290SOL    HW222770   2.984   5.239   3.944
 7291SOL     OW22771   2.704   5.262   2.246
 7291SOL    HW122772   2.729   5.355   2.270
 7291SOL    HW222773   2.674   5.213   2.328
 7292SOL     OW22774   2.705   7.009   4.548
 7292SOL    HW122775   2.691   6.910   4.548
 7292SOL    HW222776   2.786   0.011   4.495
 7293SOL     OW22777   1.601   2.558   5.574
 7293SOL    HW122778   1.597   2.585   5.478
 7293SOL    HW222779   1.509   2.538   5.608
 7294SOL     OW22780   3.478   5.423   0.830
 7294SOL    HW122781   3.406   5.462   0.773
 7294SOL    HW222782   3.490   5.327   0.808
 7295SOL     OW22783   6.193   0.368   1.720
 7295SOL    HW122784   6.252   0.386   1.798
 7295SOL    HW222785   6.248   0.328   1.646
 7296SOL     OW22786   4.158   4.899   2.004
 7296SOL    HW122787   4.183   4.811   2.046
 7296SOL    HW222788   4.058   4.906   2.000
 7297SOL     OW22789   5.123   0.039   1.519
 7297SOL    HW122790   5.132   0.136   1.498
 7297SOL    HW222791   5.028   0.019   1.545
 7298SOL     OW22792   6.163   3.716   4.287
 7298SOL    HW122793   6.071   3.678   4.275
 7298SOL    HW222794   6.190   3.705   4.383
 7299SOL     OW22795   6.360   3.904   6.360
 7299SOL    HW122796   6.353   3.804   6.354
 7299SOL    HW222797   6.356   3.944   6.268
 7300SOL     OW22798   4.379   4.947   1.007
 7300SOL    HW122799   4.290   4.962   1.051
 7300SOL    HW222800   4.452   4.978   1.067
 7301SOL     OW22801   6.511   0.518   6.411
 7301SOL    HW122802   6.467   0.428   6.419
 7301SOL    HW222803   6.606   0.506   6.383
 7302SOL     OW22804   5.075   1.247   6.278
 7302SOL    HW122805   4.987   1.291   6.296
 7302SOL    HW222806   5.147   1.293   6.330
 7303SOL     OW22807   3.665   1.183   0.506
 7303SOL    HW122808   3.691   1.106   0.447
 7303SOL    HW222809   3.660   1.152   0.601
 7304SOL     OW22810   3.377   4.135   5.396
 7304SOL    HW122811   3.423   4.181   5.320
 7304SOL    HW222812   3.291   4.097   5.364
 7305SOL     OW22813   5.359   1.396   0.252
 7305SOL    HW122814   5.366   1.472   0.188
 7305SOL    HW222815   5.274   1.347   0.236
 7306SOL     OW22816   4.992   4.845   1.489
 7306SOL    HW122817   4.950   4.931   1.459
 7306SOL    HW222818   5.071   4.864   1.547
 7307SOL     OW22819   4.226   6.662   2.435
 7307SOL    HW122820   4.192   6.702   2.520
 7307SOL    HW222821   4.238   6.735   2.367
 7308SOL     OW22822   6.553   1.813   4.567
 7308SOL    HW122823   6.456   1.800   4.546
 7308SOL    HW222824   6.577   1.761   4.649
 7309SOL     OW22825   4.785   6.105   1.451
 7309SOL    HW122826   4.830   6.044   1.517
 7309SOL    HW222827   4.854   6.149   1.394
 7310SOL     OW22828   2.938   5.395   1.701
 7310SOL    HW122829   2.885   5.392   1.786
 7310SOL    HW222830   2.928   5.308   1.652
 7311SOL     OW22831   2.793   2.150   1.851
 7311SOL    HW122832   2.830   2.207   1.925
 7311SOL    HW222833   2.846   2.165   1.767
 7312SOL     OW22834   6.590   1.599   5.733
 7312SOL    HW122835   6.507   1.628   5.685
 7312SOL    HW222836   6.578   1.614   5.831
 7313SOL     OW22837   4.186   2.498   6.703
 7313SOL    HW122838   4.135   2.516   6.787
 7313SOL    HW222839   4.157   2.563   6.632
 7314SOL     OW22840   0.395   3.308   4.220
 7314SOL    HW122841   0.447   3.227   4.246
 7314SOL    HW222842   0.350   3.291   4.132
 7315SOL     OW22843   6.762   0.219   4.778
 7315SOL    HW122844   6.840   0.165   4.746
 7315SOL    HW222845   6.794   0.306   4.814
 7316SOL     OW22846   3.607   3.996   5.381
 7316SOL    HW122847   3.528   4.051   5.410
 7316SOL    HW222848   3.643   3.946   5.460
 7317SOL     OW22849   3.585   0.861   4.107
 7317SOL    HW122850   3.590   0.818   4.017
 7317SOL    HW222851   3.560   0.792   4.175
 7318SOL     OW22852   2.271   2.085   1.659
 7318SOL    HW122853   2.216   2.017   1.610
 7318SOL    HW222854   2.336   2.039   1.718
 7319SOL     OW22855   6.220   4.863   6.782
 7319SOL    HW122856   6.288   4.854   6.710
 7319SOL    HW222857   6.129   4.844   6.744
 7320SOL     OW22858   0.087   2.866   1.860
 7320SOL    HW122859   0.031   2.792   1.821
 7320SOL    HW222860   0.029   2.943   1.883
 7321SOL     OW22861   2.718   1.347   4.610
 7321SOL    HW122862   2.761   1.386   4.691
 7321SOL    HW222863   2.775   1.365   4.530
 7322SOL     OW22864   0.710   3.841   3.087
 7322SOL    HW122865   0.638   3.873   3.149
 7322SOL    HW222866   0.704   3.891   3.001
 7323SOL     OW22867   2.087   3.470   3.304
 7323SOL    HW122868   2.092   3.494   3.400
 7323SOL    HW222869   2.103   3.551   3.248
 7324SOL     OW22870   5.523   6.595   3.056
 7324SOL    HW122871   5.622   6.599   3.042
 7324SOL    HW222872   5.489   6.505   3.031
 7325SOL     OW22873   3.049   6.420   6.965
 7325SOL    HW122874   3.023   6.458   0.034
 7325SOL    HW222875   3.078   6.494   6.904
 7326SOL     OW22876   3.359   6.513   5.660
 7326SOL    HW122877   3.405   6.443   5.715
 7326SOL    HW222878   3.277   6.545   5.708
 7327SOL     OW22879   1.409   3.006   5.778
 7327SOL    HW122880   1.377   3.082   5.835
 7327SOL    HW222881   1.508   3.014   5.765
 7328SOL     OW22882   2.553   0.107   0.056
 7328SOL    HW122883   2.478   0.071   0.001
 7328SOL    HW222884   2.596   0.032   0.107
 7329SOL     OW22885   4.371   3.118   1.364
 7329SOL    HW122886   4.418   3.030   1.373
 7329SOL    HW222887   4.342   3.131   1.269
 7330SOL     OW22888   3.651   1.398   0.092
 7330SOL    HW122889   3.674   1.394   0.189
 7330SOL    HW222890   3.607   1.486   0.073
 7331SOL     OW22891   5.498   0.218   1.444
 7331SOL    HW122892   5.573   0.284   1.434
 7331SOL    HW222893   5.476   0.207   1.540
 7332SOL     OW22894   3.541   5.349   1.485
 7332SOL    HW122895   3.557   5.347   1.386
 7332SOL    HW222896   3.459   5.403   1.505
 7333SOL     OW22897   1.020   4.985   2.504
 7333SOL    HW122898   1.074   4.905   2.478
 7333SOL    HW222899   1.063   5.067   2.468
 7334SOL     OW22900   3.972   6.447   4.338
 7334SOL    HW122901   3.982   6.546   4.339
 7334SOL    HW222902   4.023   6.409   4.260
 7335SOL     OW22903   1.806   2.426   3.272
 7335SOL    HW122904   1.772   2.490   3.203
 7335SOL    HW222905   1.885   2.466   3.319
 7336SOL     OW22906   1.787   0.021   3.608
 7336SOL    HW122907   1.781   0.120   3.612
 7336SOL    HW222908   1.696   7.002   3.597
 7337SOL     OW22909   5.909   2.944   2.415
 7337SOL    HW122910   5.983   2.973   2.477
 7337SOL    HW222911   5.868   3.024   2.373
 7338SOL     OW22912   6.247   3.074   0.282
 7338SOL    HW122913   6.246   3.016   0.200
 7338SOL    HW222914   6.323   3.139   0.275
 7339SOL     OW22915   0.403   5.445   4.831
 7339SOL    HW122916   0.428   5.412   4.740
 7339SOL    HW222917   0.485   5.457   4.886
 7340SOL     OW22918   2.085   0.275   6.570
 7340SOL    HW122919   2.160   0.219   6.604
 7340SOL    HW222920   2.121   0.353   6.519
 7341SOL     OW22921   6.420   2.470   0.167
 7341SOL    HW122922   6.373   2.477   0.256
 7341SOL    HW222923   6.508   2.517   0.173
 7342SOL     OW22924   6.833   0.073   2.344
 7342SOL    HW122925   6.794   0.150   2.292
 7342SOL    HW222926   6.764   0.036   2.406
 7343SOL     OW22927   5.048   3.220   0.437
 7343SOL    HW122928   5.117   3.289   0.417
 7343SOL    HW222929   4.992   3.204   0.355
 7344SOL     OW22930   1.230   6.569   6.041
 7344SOL    HW122931   1.167   6.598   6.113
 7344SOL    HW222932   1.184   6.502   5.982
 7345SOL     OW22933   3.284   5.280   6.076
 7345SOL    HW122934   3.320   5.371   6.098
 7345SOL    HW222935   3.213   5.256   6.142
 7346SOL     OW22936   4.980   4.979   3.010
 7346SOL    HW122937   4.994   4.887   3.045
 7346SOL    HW222938   4.976   5.044   3.086
 7347SOL     OW22939   5.821   2.190   6.530
 7347SOL    HW122940   5.838   2.186   6.431
 7347SOL    HW222941   5.893   2.141   6.578
 7348SOL     OW22942   6.943   4.491   1.665
 7348SOL    HW122943   6.980   4.434   1.591
 7348SOL    HW222944   6.939   4.437   1.749
 7349SOL     OW22945   3.930   1.840   2.096
 7349SOL    HW122946   3.933   1.920   2.035
 7349SOL    HW222947   3.992   1.770   2.062
 7350SOL     OW22948   3.090   0.444   4.552
 7350SOL    HW122949   3.112   0.540   4.574
 7350SOL    HW222950   3.023   0.410   4.617
 7351SOL     OW22951   3.342   4.980   3.939
 7351SOL    HW122952   3.398   5.061   3.922
 7351SOL    HW222953   3.274   5.000   4.010
 7352SOL     OW22954   6.678   2.673   3.818
 7352SOL    HW122955   6.604   2.630   3.767
 7352SOL    HW222956   6.765   2.652   3.774
 7353SOL     OW22957   6.156   0.368   6.395
 7353SOL    HW122958   6.236   0.395   6.342
 7353SOL    HW222959   6.176   0.284   6.445
 7354SOL     OW22960   0.609   1.993   3.018
 7354SOL    HW122961   0.551   1.990   3.099
 7354SOL    HW222962   0.687   1.931   3.030
 7355SOL     OW22963   2.321   1.963   0.330
 7355SOL    HW122964   2.255   1.945   0.257
 7355SOL    HW222965   2.287   2.037   0.388
 7356SOL     OW22966   4.241   4.041   5.946
 7356SOL    HW122967   4.207   3.979   6.017
 7356SOL    HW222968   4.291   3.988   5.877
 7357SOL     OW22969   5.098   5.726   2.357
 7357SOL    HW122970   5.014   5.778   2.340
 7357SOL    HW222971   5.096   5.687   2.449
 7358SOL     OW22972   5.731   0.946   3.459
 7358SOL    HW122973   5.679   0.895   3.528
 7358SOL    HW222974   5.690   0.931   3.369
 7359SOL     OW22975   5.104   0.308   1.371
 7359SOL    HW122976   5.088   0.395   1.417
 7359SOL    HW222977   5.035   0.293   1.301
 7360SOL     OW22978   3.238   3.609   4.987
 7360SOL    HW122979   3.144   3.614   4.955
 7360SOL    HW222980   3.285   3.533   4.941
 7361SOL     OW22981   5.450   0.409   3.695
 7361SOL    HW122982   5.370   0.354   3.720
 7361SOL    HW222983   5.524   0.393   3.760
 7362SOL     OW22984   3.319   4.978   6.881
 7362SOL    HW122985   3.324   5.066   6.927
 7362SOL    HW222986   3.342   4.905   6.946
 7363SOL     OW22987   3.748   0.656   0.438
 7363SOL    HW122988   3.847   0.660   0.423
 7363SOL    HW222989   3.730   0.623   0.531
 7364SOL     OW22990   5.763   6.829   1.192
 7364SOL    HW122991   5.811   6.798   1.110
 7364SOL    HW222992   5.777   6.927   1.204
 7365SOL     OW22993   5.565   5.057   2.518
 7365SOL    HW122994   5.591   4.973   2.567
 7365SOL    HW222995   5.596   5.137   2.569
 7366SOL     OW22996   1.717   0.733   3.882
 7366SOL    HW122997   1.779   0.704   3.809
 7366SOL    HW222998   1.760   0.715   3.971
 7367SOL     OW22999   4.483   0.016   6.707
 7367SOL    HW123000   4.554   0.079   6.676
 7367SOL    HW223001   4.426   0.060   6.776
 7368SOL     OW23002   3.636   3.771   3.336
 7368SOL    HW123003   3.720   3.768   3.390
 7368SOL    HW223004   3.650   3.830   3.257
 7369SOL     OW23005   5.189   2.152   0.485
 7369SOL    HW123006   5.125   2.139   0.560
 7369SOL    HW223007   5.272   2.197   0.518
 7370SOL     OW23008   1.735   1.188   4.238
 7370SOL    HW123009   1.670   1.176   4.164
 7370SOL    HW223010   1.686   1.201   4.324
 7371SOL     OW23011   3.673   0.909   3.796
 7371SOL    HW123012   3.613   0.984   3.768
 7371SOL    HW223013   3.731   0.883   3.719
 7372SOL     OW23014   5.485   1.103   5.385
 7372SOL    HW123015   5.478   1.032   5.455
 7372SOL    HW223016   5.581   1.122   5.366
 7373SOL     OW23017   5.909   3.597   4.329
 7373SOL    HW123018   5.932   3.503   4.354
 7373SOL    HW223019   5.881   3.648   4.410
 7374SOL     OW23020   6.468   2.521   5.229
 7374SOL    HW123021   6.518   2.603   5.203
 7374SOL    HW223022   6.528   2.441   5.223
 7375SOL     OW23023   1.565   3.419   2.153
 7375SOL    HW123024   1.632   3.445   2.083
 7375SOL    HW223025   1.613   3.384   2.233
 7376SOL     OW23026   6.797   3.457   0.290
 7376SOL    HW123027   6.779   3.359   0.280
 7376SOL    HW223028   6.812   3.478   0.386
 7377SOL     OW23029   2.517   5.986   1.258
 7377SOL    HW123030   2.504   5.966   1.161
 7377SOL    HW223031   2.455   6.059   1.285
 7378SOL     OW23032   1.093   5.342   4.342
 7378SOL    HW123033   1.059   5.362   4.434
 7378SOL    HW223034   1.070   5.247   4.319
 7379SOL     OW23035   3.948   1.083   1.242
 7379SOL    HW123036   3.850   1.063   1.236
 7379SOL    HW223037   3.962   1.182   1.244
 7380SOL     OW23038   5.065   4.058   1.868
 7380SOL    HW123039   4.988   4.058   1.932
 7380SOL    HW223040   5.138   4.000   1.904
 7381SOL     OW23041   3.762   0.874   1.145
 7381SOL    HW123042   3.784   0.781   1.176
 7381SOL    HW223043   3.702   0.918   1.212
 7382SOL     OW23044   6.512   1.170   6.024
 7382SOL    HW123045   6.525   1.238   6.096
 7382SOL    HW223046   6.425   1.123   6.038
 7383SOL     OW23047   2.198   0.213   0.904
 7383SOL    HW123048   2.180   0.214   0.806
 7383SOL    HW223049   2.113   0.230   0.954
 7384SOL     OW23050   6.754   6.797   0.991
 7384SOL    HW123051   6.696   6.744   1.053
 7384SOL    HW223052   6.794   6.736   0.923
 7385SOL     OW23053   5.792   4.207   2.825
 7385SOL    HW123054   5.787   4.187   2.923
 7385SOL    HW223055   5.875   4.259   2.805
 7386SOL     OW23056   5.424   3.527   0.046
 7386SOL    HW123057   5.522   3.548   0.047
 7386SOL    HW223058   5.388   3.540   6.973
 7387SOL     OW23059   6.801   5.647   5.355
 7387SOL    HW123060   6.831   5.727   5.302
 7387SOL    HW223061   6.807   5.668   5.453
 7388SOL     OW23062   2.029   5.003   3.335
 7388SOL    HW123063   1.933   5.000   3.364
 7388SOL    HW223064   2.073   5.084   3.375
 7389SOL     OW23065   5.779   2.552   0.240
 7389SOL    HW123066   5.755   2.643   0.273
 7389SOL    HW223067   5.794   2.554   0.142
 7390SOL     OW23068   2.326   2.808   3.376
 7390SOL    HW123069   2.328   2.848   3.284
 7390SOL    HW223070   2.318   2.881   3.444
 7391SOL     OW23071   3.542   3.478   3.017
 7391SOL    HW123072   3.544   3.460   3.115
 7391SOL    HW223073   3.593   3.562   2.997
 7392SOL     OW23074   3.084   6.339   6.573
 7392SOL    HW123075   2.992   6.329   6.610
 7392SOL    HW223076   3.088   6.422   6.517
 7393SOL     OW23077   5.265   5.554   4.079
 7393SOL    HW123078   5.187   5.606   4.116
 7393SOL    HW223079   5.238   5.459   4.067
 7394SOL     OW23080   2.959   1.978   5.872
 7394SOL    HW123081   2.986   1.956   5.778
 7394SOL    HW223082   3.016   1.926   5.936
 7395SOL     OW23083   2.597   5.854   1.027
 7395SOL    HW123084   2.680   5.895   1.065
 7395SOL    HW223085   2.575   5.770   1.078
 7396SOL     OW23086   2.393   4.943   2.110
 7396SOL    HW123087   2.428   4.952   2.017
 7396SOL    HW223088   2.299   4.908   2.107
 7397SOL     OW23089   5.832   4.375   4.066
 7397SOL    HW123090   5.908   4.313   4.046
 7397SOL    HW223091   5.801   4.419   3.981
 7398SOL     OW23092   2.654   4.647   2.449
 7398SOL    HW123093   2.706   4.695   2.520
 7398SOL    HW223094   2.585   4.589   2.492
 7399SOL     OW23095   5.400   2.231   5.516
 7399SOL    HW123096   5.352   2.218   5.430
 7399SOL    HW223097   5.348   2.189   5.591
 7400SOL     OW23098   5.585   3.024   5.609
 7400SOL    HW123099   5.497   3.052   5.647
 7400SOL    HW223100   5.572   2.990   5.516
 7401SOL     OW23101   1.334   3.065   4.195
 7401SOL    HW123102   1.428   3.038   4.173
 7401SOL    HW223103   1.304   3.136   4.131
 7402SOL     OW23104   3.635   5.604   4.341
 7402SOL    HW123105   3.631   5.637   4.436
 7402SOL    HW223106   3.553   5.634   4.292
 7403SOL     OW23107   1.898   3.993   4.308
 7403SOL    HW123108   1.823   4.043   4.351
 7403SOL    HW223109   1.985   4.020   4.350
 7404SOL     OW23110   3.445   3.531   0.933
 7404SOL    HW123111   3.369   3.575   0.982
 7404SOL    HW223112   3.528   3.536   0.988
 7405SOL     OW23113   3.752   6.776   3.813
 7405SOL    HW123114   3.788   6.869   3.819
 7405SOL    HW223115   3.800   6.717   3.878
 7406SOL     OW23116   1.105   1.807   5.485
 7406SOL    HW123117   1.147   1.739   5.425
 7406SOL    HW223118   1.094   1.893   5.435
 7407SOL     OW23119   0.887   5.796   5.637
 7407SOL    HW123120   0.838   5.717   5.676
 7407SOL    HW223121   0.831   5.838   5.565
 7408SOL     OW23122   4.111   5.145   5.206
 7408SOL    HW123123   4.156   5.227   5.172
 7408SOL    HW223124   4.021   5.137   5.163
 7409SOL     OW23125   6.683   3.754   1.417
 7409SOL    HW123126   6.690   3.831   1.481
 7409SOL    HW223127   6.762   3.754   1.356
 7410SOL     OW23128   0.248   0.876   1.068
 7410SOL    HW123129   0.278   0.879   0.973
 7410SOL    HW223130   0.201   0.789   1.085
 7411SOL     OW23131   1.953   1.428   4.992
 7411SOL    HW123132   1.972   1.525   5.010
 7411SOL    HW223133   2.001   1.372   5.059
 7412SOL     OW23134   3.947   6.759   0.364
 7412SOL    HW123135   4.013   6.684   0.357
 7412SOL    HW223136   3.992   6.840   0.401
 7413SOL     OW23137   4.885   0.014   3.224
 7413SOL    HW123138   4.787   7.014   3.214
 7413SOL    HW223139   4.896   0.092   3.286
 7414SOL     OW23140   3.282   1.207   4.318
 7414SOL    HW123141   3.258   1.231   4.412
 7414SOL    HW223142   3.218   1.252   4.255
 7415SOL     OW23143   3.827   6.367   6.636
 7415SOL    HW123144   3.917   6.362   6.593
 7415SOL    HW223145   3.760   6.398   6.568
 7416SOL     OW23146   1.464   0.674   1.659
 7416SOL    HW123147   1.477   0.764   1.700
 7416SOL    HW223148   1.551   0.642   1.621
 7417SOL     OW23149   0.134   1.079   2.608
 7417SOL    HW123150   0.185   1.125   2.536
 7417SOL    HW223151   0.161   1.117   2.697
 7418SOL     OW23152   1.418   4.429   6.066
 7418SOL    HW123153   1.321   4.420   6.090
 7418SOL    HW223154   1.471   4.449   6.147
 7419SOL     OW23155   6.941   4.009   3.951
 7419SOL    HW123156   6.847   3.992   3.981
 7419SOL    HW223157   6.943   4.022   3.852
 7420SOL     OW23158   0.147   0.120   1.822
 7420SOL    HW123159   0.068   0.170   1.787
 7420SOL    HW223160   0.116   0.050   1.887
 7421SOL     OW23161   5.498   3.531   1.020
 7421SOL    HW123162   5.595   3.549   1.039
 7421SOL    HW223163   5.470   3.582   0.939
 7422SOL     OW23164   5.516   2.653   2.565
 7422SOL    HW123165   5.494   2.635   2.470
 7422SOL    HW223166   5.609   2.621   2.585
 7423SOL     OW23167   5.367   1.854   5.748
 7423SOL    HW123168   5.340   1.943   5.783
 7423SOL    HW223169   5.380   1.859   5.649
 7424SOL     OW23170   0.346   2.316   3.274
 7424SOL    HW123171   0.389   2.398   3.313
 7424SOL    HW223172   0.329   2.250   3.347
 7425SOL     OW23173   5.888   0.643   1.343
 7425SOL    HW123174   5.829   0.723   1.330
 7425SOL    HW223175   5.938   0.652   1.429
 7426SOL     OW23176   4.024   3.067   5.691
 7426SOL    HW123177   3.961   3.130   5.646
 7426SOL    HW223178   4.086   3.119   5.751
 7427SOL     OW23179   3.152   1.011   3.525
 7427SOL    HW123180   3.142   0.913   3.544
 7427SOL    HW223181   3.195   1.024   3.435
 7428SOL     OW23182   4.544   6.299   4.715
 7428SOL    HW123183   4.619   6.236   4.697
 7428SOL    HW223184   4.577   6.377   4.768
 7429SOL     OW23185   1.131   6.852   2.852
 7429SOL    HW123186   1.088   6.761   2.844
 7429SOL    HW223187   1.185   6.856   2.936
 7430SOL     OW23188   6.544   5.488   2.624
 7430SOL    HW123189   6.590   5.400   2.614
 7430SOL    HW223190   6.553   5.520   2.718
 7431SOL     OW23191   1.446   1.880   3.178
 7431SOL    HW123192   1.385   1.955   3.201
 7431SOL    HW223193   1.522   1.914   3.122
 7432SOL     OW23194   2.226   0.697   3.171
 7432SOL    HW123195   2.284   0.629   3.126
 7432SOL    HW223196   2.239   0.785   3.127
 7433SOL     OW23197   2.622   6.933   6.521
 7433SOL    HW123198   2.535   6.885   6.518
 7433SOL    HW223199   2.607   0.011   6.526
 7434SOL     OW23200   4.088   6.800   4.355
 7434SOL    HW123201   4.017   6.868   4.376
 7434SOL    HW223202   4.163   6.809   4.421
 7435SOL     OW23203   5.070   3.997   2.590
 7435SOL    HW123204   5.103   3.954   2.506
 7435SOL    HW223205   4.980   3.958   2.614
 7436SOL     OW23206   5.375   2.834   6.155
 7436SOL    HW123207   5.383   2.742   6.116
 7436SOL    HW223208   5.313   2.832   6.233
 7437SOL     OW23209   2.951   0.436   0.552
 7437SOL    HW123210   2.855   0.460   0.544
 7437SOL    HW223211   2.968   0.397   0.643
 7438SOL     OW23212   2.070   0.648   0.071
 7438SOL    HW123213   2.099   0.624   6.998
 7438SOL    HW223214   2.021   0.571   0.111
 7439SOL     OW23215   1.202   4.283   6.836
 7439SOL    HW123216   1.237   4.367   6.793
 7439SOL    HW223217   1.103   4.277   6.823
 7440SOL     OW23218   5.692   3.639   3.983
 7440SOL    HW123219   5.619   3.645   4.051
 7440SOL    HW223220   5.690   3.550   3.939
 7441SOL     OW23221   6.014   5.630   0.970
 7441SOL    HW123222   6.061   5.717   0.952
 7441SOL    HW223223   5.968   5.636   1.058
 7442SOL     OW23224   5.467   0.874   5.564
 7442SOL    HW123225   5.518   0.794   5.532
 7442SOL    HW223226   5.390   0.844   5.620
 7443SOL     OW23227   0.681   1.217   2.199
 7443SOL    HW123228   0.739   1.200   2.278
 7443SOL    HW223229   0.695   1.144   2.131
 7444SOL     OW23230   1.962   6.440   0.192
 7444SOL    HW123231   1.891   6.479   0.134
 7444SOL    HW223232   1.920   6.375   0.256
 7445SOL     OW23233   3.746   5.997   1.795
 7445SOL    HW123234   3.825   5.955   1.749
 7445SOL    HW223235   3.667   5.937   1.787
 7446SOL     OW23236   5.219   4.389   0.027
 7446SOL    HW123237   5.184   4.296   0.035
 7446SOL    HW223238   5.246   4.407   6.953
 7447SOL     OW23239   0.067   4.348   0.474
 7447SOL    HW123240   0.048   4.271   0.535
 7447SOL    HW223241   0.030   4.328   0.383
 7448SOL     OW23242   4.517   5.790   6.886
 7448SOL    HW123243   4.492   5.768   6.980
 7448SOL    HW223244   4.475   5.725   6.823
 7449SOL     OW23245   6.922   4.646   5.586
 7449SOL    HW123246   6.863   4.727   5.588
 7449SOL    HW223247   6.881   4.577   5.527
 7450SOL     OW23248   5.566   2.194   5.292
 7450SOL    HW123249   5.585   2.233   5.382
 7450SOL    HW223250   5.467   2.190   5.278
 7451SOL     OW23251   4.780   4.520   3.398
 7451SOL    HW123252   4.773   4.530   3.298
 7451SOL    HW223253   4.875   4.509   3.424
 7452SOL     OW23254   5.845   5.327   5.808
 7452SOL    HW123255   5.781   5.291   5.740
 7452SOL    HW223256   5.847   5.265   5.887
 7453SOL     OW23257   3.670   5.850   6.097
 7453SOL    HW123258   3.765   5.877   6.085
 7453SOL    HW223259   3.611   5.931   6.093
 7454SOL     OW23260   4.254   2.080   1.137
 7454SOL    HW123261   4.285   2.174   1.120
 7454SOL    HW223262   4.265   2.058   1.234
 7455SOL     OW23263   6.871   1.918   2.990
 7455SOL    HW123264   6.855   2.007   2.946
 7455SOL    HW223265   6.872   1.846   2.920
 7456SOL     OW23266   2.573   1.957   6.407
 7456SOL    HW123267   2.498   1.926   6.465
 7456SOL    HW223268   2.550   1.942   6.311
 7457SOL     OW23269   1.986   0.944   2.257
 7457SOL    HW123270   1.969   0.873   2.325
 7457SOL    HW223271   1.956   0.911   2.167
 7458SOL     OW23272   1.959   5.598   5.344
 7458SOL    HW123273   1.924   5.657   5.417
 7458SOL    HW223274   1.882   5.564   5.289
 7459SOL     OW23275   5.870   0.302   2.681
 7459SOL    HW123276   5.923   0.386   2.689
 7459SOL    HW223277   5.861   0.259   2.772
 7460SOL     OW23278   1.838   6.233   1.187
 7460SOL    HW123279   1.913   6.168   1.174
 7460SOL    HW223280   1.852   6.283   1.272
 7461SOL     OW23281   2.350   4.400   5.613
 7461SOL    HW123282   2.308   4.383   5.523
 7461SOL    HW223283   2.412   4.478   5.606
 7462SOL     OW23284   1.290   4.026   0.778
 7462SOL    HW123285   1.226   4.055   0.849
 7462SOL    HW223286   1.356   4.099   0.759
 7463SOL     OW23287   4.335   5.249   0.933
 7463SOL    HW123288   4.347   5.159   0.974
 7463SOL    HW223289   4.349   5.319   1.002
 7464SOL     OW23290   5.761   6.614   5.360
 7464SOL    HW123291   5.676   6.666   5.347
 7464SOL    HW223292   5.755   6.560   5.443
 7465SOL     OW23293   1.872   4.632   0.132
 7465SOL    HW123294   1.856   4.622   0.230
 7465SOL    HW223295   1.784   4.641   0.085
 7466SOL     OW23296   0.495   0.594   5.145
 7466SOL    HW123297   0.586   0.631   5.128
 7466SOL    HW223298   0.428   0.668   5.142
 7467SOL     OW23299   0.939   3.557   4.834
 7467SOL    HW123300   1.037   3.557   4.855
 7467SOL    HW223301   0.894   3.630   4.885
 7468SOL     OW23302   5.885   3.146   5.524
 7468SOL    HW123303   5.833   3.228   5.499
 7468SOL    HW223304   5.843   3.103   5.604
 7469SOL     OW23305   0.133   1.679   0.805
 7469SOL    HW123306   0.145   1.768   0.760
 7469SOL    HW223307   0.212   1.660   0.863
 7470SOL     OW23308   5.558   2.729   3.389
 7470SOL    HW123309   5.584   2.772   3.476
 7470SOL    HW223310   5.636   2.730   3.327
 7471SOL     OW23311   3.956   5.983   6.329
 7471SOL    HW123312   3.908   5.945   6.408
 7471SOL    HW223313   4.048   6.012   6.356
 7472SOL     OW23314   6.535   0.288   6.112
 7472SOL    HW123315   6.455   0.340   6.144
 7472SOL    HW223316   6.605   0.288   6.184
 7473SOL     OW23317   3.373   5.884   3.878
 7473SOL    HW123318   3.440   5.924   3.941
 7473SOL    HW223319   3.356   5.789   3.903
 7474SOL     OW23320   5.968   1.947   6.891
 7474SOL    HW123321   5.972   1.978   6.986
 7474SOL    HW223322   5.895   1.880   6.881
 7475SOL     OW23323   5.151   1.737   0.809
 7475SOL    HW123324   5.183   1.777   0.723
 7475SOL    HW223325   5.132   1.810   0.875
 7476SOL     OW23326   2.029   0.330   3.021
 7476SOL    HW123327   2.004   0.236   3.043
 7476SOL    HW223328   2.046   0.381   3.105
 7477SOL     OW23329   1.064   3.524   5.234
 7477SOL    HW123330   1.032   3.431   5.217
 7477SOL    HW223331   1.019   3.587   5.171
 7478SOL     OW23332   0.420   1.092   5.545
 7478SOL    HW123333   0.349   1.045   5.596
 7478SOL    HW223334   0.407   1.078   5.447
 7479SOL     OW23335   5.003   2.893   0.678
 7479SOL    HW123336   4.979   2.839   0.597
 7479SOL    HW223337   4.928   2.888   0.744
 7480SOL     OW23338   3.488   4.963   2.616
 7480SOL    HW123339   3.553   4.894   2.584
 7480SOL    HW223340   3.434   4.996   2.539
 7481SOL     OW23341   0.186   3.725   6.624
 7481SOL    HW123342   0.188   3.805   6.563
 7481SOL    HW223343   0.232   3.747   6.710
 7482SOL     OW23344   5.492   1.795   2.875
 7482SOL    HW123345   5.397   1.774   2.852
 7482SOL    HW223346   5.495   1.878   2.931
 7483SOL     OW23347   4.769   2.115   5.774
 7483SOL    HW123348   4.709   2.174   5.720
 7483SOL    HW223349   4.743   2.020   5.761
 7484SOL     OW23350   3.109   6.994   3.943
 7484SOL    HW123351   3.203   6.976   3.913
 7484SOL    HW223352   3.095   0.072   3.952
 7485SOL     OW23353   3.500   6.650   6.190
 7485SOL    HW123354   3.414   6.667   6.142
 7485SOL    HW223355   3.538   6.737   6.221
 7486SOL     OW23356   2.620   6.363   0.825
 7486SOL    HW123357   2.522   6.379   0.837
 7486SOL    HW223358   2.670   6.413   0.895
 7487SOL     OW23359   3.876   6.096   4.693
 7487SOL    HW123360   3.869   6.163   4.619
 7487SOL    HW223361   3.964   6.105   4.739
 7488SOL     OW23362   0.807   5.658   4.213
 7488SOL    HW123363   0.762   5.570   4.203
 7488SOL    HW223364   0.878   5.651   4.284
 7489SOL     OW23365   5.611   3.162   6.496
 7489SOL    HW123366   5.661   3.078   6.475
 7489SOL    HW223367   5.529   3.166   6.439
 7490SOL     OW23368   1.077   2.856   2.269
 7490SOL    HW123369   1.103   2.946   2.307
 7490SOL    HW223370   1.097   2.854   2.172
 7491SOL     OW23371   3.962   3.344   0.102
 7491SOL    HW123372   3.957   3.401   0.020
 7491SOL    HW223373   4.054   3.351   0.141
 7492SOL     OW23374   1.468   0.220   4.157
 7492SOL    HW123375   1.470   0.124   4.186
 7492SOL    HW223376   1.562   0.255   4.153
 7493SOL     OW23377   6.427   4.779   4.838
 7493SOL    HW123378   6.371   4.713   4.889
 7493SOL    HW223379   6.502   4.810   4.895
 7494SOL     OW23380   6.569   1.060   1.765
 7494SOL    HW123381   6.532   1.137   1.817
 7494SOL    HW223382   6.667   1.052   1.783
 7495SOL     OW23383   1.474   3.341   4.999
 7495SOL    HW123384   1.574   3.337   5.000
 7495SOL    HW223385   1.441   3.360   5.092
 7496SOL     OW23386   5.707   4.232   2.276
 7496SOL    HW123387   5.657   4.312   2.309
 7496SOL    HW223388   5.777   4.207   2.343
 7497SOL     OW23389   6.931   6.550   1.192
 7497SOL    HW123390   6.964   6.562   1.285
 7497SOL    HW223391   7.005   6.514   1.135
 7498SOL     OW23392   3.301   6.601   3.034
 7498SOL    HW123393   3.362   6.672   3.068
 7498SOL    HW223394   3.216   6.603   3.087
 7499SOL     OW23395   2.949   1.558   4.026
 7499SOL    HW123396   2.910   1.618   3.956
 7499SOL    HW223397   3.024   1.604   4.072
 7500SOL     OW23398   3.963   0.709   3.041
 7500SOL    HW123399   3.952   0.745   3.133
 7500SOL    HW223400   3.965   0.785   2.975
 7501SOL     OW23401   6.277   2.666   5.585
 7501SOL    HW123402   6.264   2.567   5.578
 7501SOL    HW223403   6.348   2.695   5.521
 7502SOL     OW23404   4.448   0.797   4.276
 7502SOL    HW123405   4.425   0.864   4.206
 7502SOL    HW223406   4.400   0.820   4.361
 7503SOL     OW23407   1.799   5.303   1.833
 7503SOL    HW123408   1.885   5.293   1.783
 7503SOL    HW223409   1.773   5.215   1.873
 7504SOL     OW23410   6.256   6.448   4.797
 7504SOL    HW123411   6.165   6.471   4.761
 7504SOL    HW223412   6.256   6.353   4.828
 7505SOL     OW23413   0.193   6.522   4.790
 7505SOL    HW123414   0.211   6.617   4.819
 7505SOL    HW223415   0.249   6.460   4.845
 7506SOL     OW23416   3.516   1.777   3.738
 7506SOL    HW123417   3.499   1.846   3.668
 7506SOL    HW223418   3.595   1.722   3.713
 7507SOL     OW23419   6.302   4.592   5.699
 7507SOL    HW123420   6.219   4.636   5.665
 7507SOL    HW223421   6.357   4.561   5.622
 7508SOL     OW23422   2.679   5.841   0.509
 7508SOL    HW123423   2.749   5.905   0.478
 7508SOL    HW223424   2.656   5.779   0.433
 7509SOL     OW23425   5.971   5.033   2.211
 7509SOL    HW123426   6.025   4.949   2.205
 7509SOL    HW223427   6.027   5.107   2.249
 7510SOL     OW23428   3.369   3.648   2.531
 7510SOL    HW123429   3.409   3.678   2.444
 7510SOL    HW223430   3.315   3.566   2.516
 7511SOL     OW23431   4.871   6.814   4.071
 7511SOL    HW123432   4.796   6.755   4.100
 7511SOL    HW223433   4.846   6.861   3.987
 7512SOL     OW23434   3.776   0.946   0.417
 7512SOL    HW123435   3.803   0.959   0.321
 7512SOL    HW223436   3.740   0.853   0.428
 7513SOL     OW23437   1.502   2.217   2.614
 7513SOL    HW123438   1.550   2.280   2.676
 7513SOL    HW223439   1.453   2.148   2.668
 7514SOL     OW23440   1.088   6.260   1.730
 7514SOL    HW123441   1.103   6.354   1.760
 7514SOL    HW223442   1.163   6.232   1.670
 7515SOL     OW23443   0.740   4.809   5.069
 7515SOL    HW123444   0.757   4.729   5.012
 7515SOL    HW223445   0.756   4.893   5.016
 7516SOL     OW23446   1.474   6.228   5.339
 7516SOL    HW123447   1.382   6.257   5.364
 7516SOL    HW223448   1.540   6.296   5.371
 7517SOL     OW23449   1.009   1.790   6.114
 7517SOL    HW123450   0.948   1.814   6.038
 7517SOL    HW223451   1.074   1.721   6.084
 7518SOL     OW23452   4.795   2.153   4.014
 7518SOL    HW123453   4.727   2.114   4.076
 7518SOL    HW223454   4.756   2.162   3.922
 7519SOL     OW23455   3.833   5.949   4.256
 7519SOL    HW123456   3.778   6.029   4.234
 7519SOL    HW223457   3.826   5.929   4.353
 7520SOL     OW23458   1.854   1.646   0.365
 7520SOL    HW123459   1.941   1.684   0.395
 7520SOL    HW223460   1.811   1.707   0.299
 7521SOL     OW23461   3.728   1.677   5.408
 7521SOL    HW123462   3.771   1.703   5.495
 7521SOL    HW223463   3.729   1.754   5.345
 7522SOL     OW23464   1.559   0.224   3.277
 7522SOL    HW123465   1.639   0.166   3.268
 7522SOL    HW223466   1.479   0.168   3.300
 7523SOL     OW23467   5.501   1.007   0.788
 7523SOL    HW123468   5.504   0.912   0.755
 7523SOL    HW223469   5.409   1.029   0.819
 7524SOL     OW23470   0.734   3.351   4.365
 7524SOL    HW123471   0.834   3.361   4.357
 7524SOL    HW223472   0.703   3.278   4.305
 7525SOL     OW23473   3.881   5.519   6.147
 7525SOL    HW123474   3.790   5.505   6.185
 7525SOL    HW223475   3.943   5.448   6.182
 7526SOL     OW23476   2.439   3.572   1.446
 7526SOL    HW123477   2.383   3.653   1.431
 7526SOL    HW223478   2.535   3.599   1.454
 7527SOL     OW23479   3.864   5.082   3.214
 7527SOL    HW123480   3.863   5.177   3.247
 7527SOL    HW223481   3.776   5.039   3.232
 7528SOL     OW23482   6.447   2.725   5.830
 7528SOL    HW123483   6.390   2.796   5.871
 7528SOL    HW223484   6.397   2.680   5.756
 7529SOL     OW23485   6.135   3.364   3.860
 7529SOL    HW123486   6.174   3.303   3.790
 7529SOL    HW223487   6.146   3.322   3.950
 7530SOL     OW23488   0.826   2.086   1.792
 7530SOL    HW123489   0.867   2.045   1.873
 7530SOL    HW223490   0.795   2.179   1.814
 7531SOL     OW23491   3.954   2.149   4.167
 7531SOL    HW123492   3.973   2.081   4.096
 7531SOL    HW223493   3.857   2.146   4.191
 7532SOL     OW23494   4.590   5.332   6.548
 7532SOL    HW123495   4.599   5.366   6.641
 7532SOL    HW223496   4.677   5.291   6.519
 7533SOL     OW23497   4.521   4.395   1.656
 7533SOL    HW123498   4.472   4.351   1.580
 7533SOL    HW223499   4.506   4.343   1.740
 7534SOL     OW23500   3.769   6.842   4.757
 7534SOL    HW123501   3.709   6.798   4.823
 7534SOL    HW223502   3.797   6.932   4.793
 7535SOL     OW23503   0.669   6.684   4.215
 7535SOL    HW123504   0.675   6.622   4.293
 7535SOL    HW223505   0.592   6.658   4.157
 7536SOL     OW23506   5.667   6.371   4.458
 7536SOL    HW123507   5.647   6.362   4.556
 7536SOL    HW223508   5.653   6.283   4.413
 7537SOL     OW23509   2.504   6.568   2.909
 7537SOL    HW123510   2.507   6.595   2.812
 7537SOL    HW223511   2.410   6.545   2.934
 7538SOL     OW23512   0.502   3.719   0.750
 7538SOL    HW123513   0.545   3.805   0.780
 7538SOL    HW223514   0.410   3.738   0.715
 7539SOL     OW23515   6.507   0.561   4.671
 7539SOL    HW123516   6.568   0.527   4.599
 7539SOL    HW223517   6.561   0.605   4.742
 7540SOL     OW23518   5.975   5.569   3.177
 7540SOL    HW123519   6.022   5.651   3.210
 7540SOL    HW223520   5.911   5.537   3.247
 7541SOL     OW23521   2.588   4.154   5.855
 7541SOL    HW123522   2.620   4.190   5.942
 7541SOL    HW223523   2.598   4.224   5.784
 7542SOL     OW23524   6.168   5.690   4.746
 7542SOL    HW123525   6.103   5.738   4.687
 7542SOL    HW223526   6.222   5.626   4.692
 7543SOL     OW23527   2.508   1.070   6.581
 7543SOL    HW123528   2.556   1.156   6.599
 7543SOL    HW223529   2.442   1.054   6.655
 7544SOL     OW23530   6.459   1.544   3.874
 7544SOL    HW123531   6.393   1.619   3.880
 7544SOL    HW223532   6.529   1.566   3.807
 7545SOL     OW23533   1.688   5.202   5.966
 7545SOL    HW123534   1.675   5.109   6.000
 7545SOL    HW223535   1.633   5.215   5.883
 7546SOL     OW23536   2.306   2.580   1.931
 7546SOL    HW123537   2.349   2.541   2.012
 7546SOL    HW223538   2.377   2.612   1.868
 7547SOL     OW23539   4.267   0.270   1.668
 7547SOL    HW123540   4.197   0.270   1.596
 7547SOL    HW223541   4.355   0.296   1.629
 7548SOL     OW23542   3.848   3.053   6.309
 7548SOL    HW123543   3.829   3.144   6.271
 7548SOL    HW223544   3.894   2.997   6.241
 7549SOL     OW23545   5.299   1.463   4.438
 7549SOL    HW123546   5.199   1.470   4.444
 7549SOL    HW223547   5.339   1.554   4.432
 7550SOL     OW23548   2.976   4.797   4.305
 7550SOL    HW123549   2.929   4.851   4.375
 7550SOL    HW223550   2.909   4.760   4.241
 7551SOL     OW23551   6.673   2.498   5.978
 7551SOL    HW123552   6.726   2.514   5.894
 7551SOL    HW223553   6.668   2.583   6.030
 7552SOL     OW23554   2.495   6.934   5.150
 7552SOL    HW123555   2.439   6.925   5.067
 7552SOL    HW223556   2.511   0.010   5.169
 7553SOL     OW23557   5.439   6.214   5.201
 7553SOL    HW123558   5.412   6.288   5.262
 7553SOL    HW223559   5.385   6.218   5.117
 7554SOL     OW23560   4.564   0.908   0.730
 7554SOL    HW123561   4.568   0.866   0.821
 7554SOL    HW223562   4.475   0.953   0.719
 7555SOL     OW23563   4.323   5.450   4.424
 7555SOL    HW123564   4.329   5.354   4.400
 7555SOL    HW223565   4.405   5.498   4.393
 7556SOL     OW23566   0.653   6.779   1.828
 7556SOL    HW123567   0.644   6.772   1.927
 7556SOL    HW223568   0.639   6.689   1.787
 7557SOL     OW23569   5.078   0.078   0.903
 7557SOL    HW123570   5.081   7.000   0.925
 7557SOL    HW223571   5.163   0.121   0.932
 7558SOL     OW23572   0.805   1.846   3.962
 7558SOL    HW123573   0.769   1.783   4.031
 7558SOL    HW223574   0.886   1.806   3.920
 7559SOL     OW23575   2.774   2.049   5.234
 7559SOL    HW123576   2.779   2.143   5.199
 7559SOL    HW223577   2.866   2.012   5.241
 7560SOL     OW23578   1.188   1.542   6.085
 7560SOL    HW123579   1.248   1.609   6.043
 7560SOL    HW223580   1.194   1.548   6.184
 7561SOL     OW23581   6.170   1.611   5.539
 7561SOL    HW123582   6.165   1.513   5.558
 7561SOL    HW223583   6.146   1.628   5.444
 7562SOL     OW23584   2.099   6.070   3.472
 7562SOL    HW123585   2.198   6.081   3.469
 7562SOL    HW223586   2.066   6.095   3.563
 7563SOL     OW23587   3.893   5.502   2.396
 7563SOL    HW123588   3.940   5.414   2.392
 7563SOL    HW223589   3.852   5.514   2.486
 7564SOL     OW23590   3.698   1.911   5.260
 7564SOL    HW123591   3.703   2.001   5.303
 7564SOL    HW223592   3.679   1.921   5.162
 7565SOL     OW23593   6.281   3.831   5.876
 7565SOL    HW123594   6.240   3.875   5.796
 7565SOL    HW223595   6.222   3.755   5.905
 7566SOL     OW23596   4.417   4.807   1.503
 7566SOL    HW123597   4.404   4.736   1.433
 7566SOL    HW223598   4.441   4.763   1.590
 7567SOL     OW23599   0.577   0.088   4.182
 7567SOL    HW123600   0.526   0.105   4.267
 7567SOL    HW223601   0.546   0.152   4.112
 7568SOL     OW23602   5.943   5.555   1.657
 7568SOL    HW123603   5.884   5.590   1.729
 7568SOL    HW223604   5.897   5.481   1.608
 7569SOL     OW23605   4.776   3.621   0.121
 7569SOL    HW123606   4.855   3.593   0.175
 7569SOL    HW223607   4.748   3.713   0.148
 7570SOL     OW23608   0.639   3.399   2.608
 7570SOL    HW123609   0.566   3.356   2.662
 7570SOL    HW223610   0.706   3.329   2.581
 7571SOL     OW23611   4.930   2.001   2.511
 7571SOL    HW123612   5.005   2.063   2.489
 7571SOL    HW223613   4.877   1.982   2.428
 7572SOL     OW23614   4.669   0.404   3.561
 7572SOL    HW123615   4.583   0.450   3.537
 7572SOL    HW223616   4.675   0.316   3.514
 7573SOL     OW23617   4.273   6.344   5.627
 7573SOL    HW123618   4.221   6.293   5.696
 7573SOL    HW223619   4.325   6.417   5.672
 7574SOL     OW23620   0.939   2.726   3.896
 7574SOL    HW123621   0.919   2.648   3.955
 7574SOL    HW223622   1.021   2.708   3.843
 7575SOL     OW23623   0.108   6.926   1.983
 7575SOL    HW123624   0.064   6.844   1.948
 7575SOL    HW223625   0.104   6.926   2.083
 7576SOL     OW23626   5.050   2.582   0.563
 7576SOL    HW123627   5.006   2.507   0.514
 7576SOL    HW223628   5.064   2.556   0.659
 7577SOL     OW23629   0.987   0.101   0.836
 7577SOL    HW123630   0.905   0.074   0.886
 7577SOL    HW223631   1.007   0.032   0.766
 7578SOL     OW23632   6.766   6.062   3.145
 7578SOL    HW123633   6.709   6.145   3.147
 7578SOL    HW223634   6.709   5.984   3.119
 7579SOL     OW23635   0.510   1.293   6.838
 7579SOL    HW123636   0.557   1.301   6.927
 7579SOL    HW223637   0.419   1.335   6.845
 7580SOL     OW23638   2.162   4.868   3.594
 7580SOL    HW123639   2.096   4.938   3.565
 7580SOL    HW223640   2.119   4.778   3.588
 7581SOL     OW23641   6.859   0.868   2.280
 7581SOL    HW123642   6.941   0.892   2.332
 7581SOL    HW223643   6.793   0.943   2.285
 7582SOL     OW23644   2.294   1.581   6.239
 7582SOL    HW123645   2.346   1.599   6.322
 7582SOL    HW223646   2.294   1.663   6.182
 7583SOL     OW23647   4.959   2.970   2.969
 7583SOL    HW123648   4.945   2.931   3.060
 7583SOL    HW223649   5.038   3.032   2.971
 7584SOL     OW23650   0.659   0.896   3.040
 7584SOL    HW123651   0.652   0.817   3.102
 7584SOL    HW223652   0.700   0.973   3.089
 7585SOL     OW23653   0.962   1.479   6.550
 7585SOL    HW123654   0.990   1.520   6.636
 7585SOL    HW223655   0.949   1.550   6.481
 7586SOL     OW23656   1.748   0.376   2.318
 7586SOL    HW123657   1.731   0.470   2.348
 7586SOL    HW223658   1.738   0.315   2.396
 7587SOL     OW23659   4.226   0.350   0.691
 7587SOL    HW123660   4.261   0.309   0.775
 7587SOL    HW223661   4.216   0.449   0.704
 7588SOL     OW23662   2.461   2.703   4.597
 7588SOL    HW123663   2.507   2.675   4.681
 7588SOL    HW223664   2.506   2.660   4.519
 7589SOL     OW23665   0.572   0.501   2.620
 7589SOL    HW123666   0.556   0.600   2.613
 7589SOL    HW223667   0.608   0.480   2.711
 7590SOL     OW23668   6.590   0.891   0.129
 7590SOL    HW123669   6.547   0.907   0.040
 7590SOL    HW223670   6.602   0.978   0.176
 7591SOL     OW23671   3.714   2.939   4.329
 7591SOL    HW123672   3.803   2.977   4.355
 7591SOL    HW223673   3.652   2.943   4.407
 7592SOL     OW23674   6.623   6.942   4.543
 7592SOL    HW123675   6.719   6.927   4.517
 7592SOL    HW223676   6.565   6.874   4.498
 7593SOL     OW23677   0.402   1.542   5.531
 7593SOL    HW123678   0.484   1.599   5.544
 7593SOL    HW223679   0.383   1.532   5.434
 7594SOL     OW23680   0.331   3.991   0.054
 7594SOL    HW123681   0.382   3.907   0.069
 7594SOL    HW223682   0.274   4.011   0.133
 7595SOL     OW23683   1.306   3.667   6.675
 7595SOL    HW123684   1.299   3.624   6.765
 7595SOL    HW223685   1.376   3.621   6.621
 7596SOL     OW23686   2.865   1.576   5.923
 7596SOL    HW123687   2.920   1.657   5.904
 7596SOL    HW223688   2.781   1.602   5.970
 7597SOL     OW23689   1.313   4.803   1.490
 7597SOL    HW123690   1.367   4.854   1.423
 7597SOL    HW223691   1.233   4.763   1.444
 7598SOL     OW23692   6.230   0.662   2.364
 7598SOL    HW123693   6.210   0.745   2.415
 7598SOL    HW223694   6.305   0.680   2.300
 7599SOL     OW23695   3.346   3.836   1.167
 7599SOL    HW123696   3.350   3.869   1.262
 7599SOL    HW223697   3.401   3.753   1.158
 7600SOL     OW23698   1.750   6.324   4.398
 7600SOL    HW123699   1.699   6.255   4.346
 7600SOL    HW223700   1.720   6.415   4.369
 7601SOL     OW23701   3.219   6.474   2.297
 7601SOL    HW123702   3.217   6.515   2.388
 7601SOL    HW223703   3.258   6.539   2.232
 7602SOL     OW23704   0.664   1.482   0.407
 7602SOL    HW123705   0.592   1.548   0.386
 7602SOL    HW223706   0.642   1.435   0.492
 7603SOL     OW23707   3.805   0.081   5.796
 7603SOL    HW123708   3.821   0.042   5.705
 7603SOL    HW223709   3.880   0.054   5.857
 7604SOL     OW23710   0.827   2.278   5.165
 7604SOL    HW123711   0.904   2.336   5.193
 7604SOL    HW223712   0.786   2.316   5.082
 7605SOL     OW23713   2.186   6.389   0.031
 7605SOL    HW123714   2.110   6.386   0.096
 7605SOL    HW223715   2.255   6.322   0.056
 7606SOL     OW23716   6.797   1.230   2.848
 7606SOL    HW123717   6.802   1.220   2.749
 7606SOL    HW223718   6.704   1.256   2.875
 7607SOL     OW23719   1.845   6.221   5.630
 7607SOL    HW123720   1.807   6.292   5.690
 7607SOL    HW223721   1.839   6.132   5.676
 7608SOL     OW23722   5.754   2.417   6.260
 7608SOL    HW123723   5.746   2.367   6.175
 7608SOL    HW223724   5.691   2.495   6.260
 7609SOL     OW23725   1.746   1.674   4.810
 7609SOL    HW123726   1.730   1.618   4.891
 7609SOL    HW223727   1.687   1.755   4.814
 7610SOL     OW23728   4.098   5.244   4.343
 7610SOL    HW123729   4.012   5.293   4.335
 7610SOL    HW223730   4.088   5.170   4.410
 7611SOL     OW23731   4.821   2.720   0.518
 7611SOL    HW123732   4.902   2.662   0.530
 7611SOL    HW223733   4.770   2.723   0.604
 7612SOL     OW23734   3.914   1.803   3.458
 7612SOL    HW123735   3.890   1.797   3.361
 7612SOL    HW223736   3.898   1.896   3.491
 7613SOL     OW23737   0.785   1.368   0.889
 7613SOL    HW123738   0.827   1.448   0.846
 7613SOL    HW223739   0.837   1.344   0.971
 7614SOL     OW23740   5.165   3.770   0.179
 7614SOL    HW123741   5.156   3.747   0.082
 7614SOL    HW223742   5.242   3.720   0.218
 7615SOL     OW23743   5.860   3.241   5.009
 7615SOL    HW123744   5.800   3.165   4.985
 7615SOL    HW223745   5.830   3.280   5.096
 7616SOL     OW23746   6.150   0.274   3.317
 7616SOL    HW123747   6.084   0.349   3.310
 7616SOL    HW223748   6.175   0.243   3.226
 7617SOL     OW23749   6.066   3.970   3.398
 7617SOL    HW123750   6.152   3.934   3.435
 7617SOL    HW223751   6.051   4.063   3.431
 7618SOL     OW23752   2.237   3.089   0.634
 7618SOL    HW123753   2.231   3.003   0.685
 7618SOL    HW223754   2.295   3.153   0.684
 7619SOL     OW23755   1.458   1.589   4.523
 7619SOL    HW123756   1.424   1.610   4.432
 7619SOL    HW223757   1.383   1.552   4.579
 7620SOL     OW23758   3.814   4.825   0.929
 7620SOL    HW123759   3.899   4.773   0.939
 7620SOL    HW223760   3.738   4.761   0.917
 7621SOL     OW23761   6.192   3.893   6.751
 7621SOL    HW123762   6.152   3.932   6.834
 7621SOL    HW223763   6.204   3.795   6.762
 7622SOL     OW23764   3.306   3.931   1.439
 7622SOL    HW123765   3.347   4.010   1.484
 7622SOL    HW223766   3.243   3.885   1.501
 7623SOL     OW23767   5.123   4.311   1.732
 7623SOL    HW123768   5.096   4.284   1.639
 7623SOL    HW223769   5.107   4.235   1.795
 7624SOL     OW23770   1.192   3.628   2.608
 7624SOL    HW123771   1.245   3.658   2.528
 7624SOL    HW223772   1.127   3.557   2.579
 7625SOL     OW23773   5.299   0.727   1.528
 7625SOL    HW123774   5.213   0.728   1.477
 7625SOL    HW223775   5.368   0.780   1.479
 7626SOL     OW23776   4.575   0.476   6.084
 7626SOL    HW123777   4.672   0.495   6.067
 7626SOL    HW223778   4.567   0.397   6.145
 7627SOL     OW23779   4.275   2.854   6.701
 7627SOL    HW123780   4.261   2.951   6.683
 7627SOL    HW223781   4.236   2.801   6.625
 7628SOL     OW23782   3.706   2.583   0.419
 7628SOL    HW123783   3.705   2.660   0.356
 7628SOL    HW223784   3.715   2.498   0.367
 7629SOL     OW23785   5.673   2.164   2.803
 7629SOL    HW123786   5.653   2.260   2.823
 7629SOL    HW223787   5.772   2.150   2.805
 7630SOL     OW23788   1.057   6.655   4.355
 7630SOL    HW123789   1.112   6.712   4.294
 7630SOL    HW223790   0.973   6.628   4.308
 7631SOL     OW23791   0.943   0.359   5.738
 7631SOL    HW123792   0.939   0.387   5.642
 7631SOL    HW223793   0.882   0.417   5.792
 7632SOL     OW23794   4.315   5.928   0.088
 7632SOL    HW123795   4.376   5.918   0.167
 7632SOL    HW223796   4.283   6.023   0.083
 7633SOL     OW23797   6.135   1.251   1.151
 7633SOL    HW123798   6.218   1.300   1.177
 7633SOL    HW223799   6.063   1.317   1.129
 7634SOL     OW23800   6.869   2.372   0.106
 7634SOL    HW123801   6.965   2.381   0.133
 7634SOL    HW223802   6.862   2.369   0.007
 7635SOL     OW23803   2.191   3.559   5.594
 7635SOL    HW123804   2.269   3.608   5.631
 7635SOL    HW223805   2.213   3.525   5.502
 7636SOL     OW23806   0.280   3.787   4.522
 7636SOL    HW123807   0.205   3.834   4.477
 7636SOL    HW223808   0.363   3.796   4.466
 7637SOL     OW23809   1.234   5.125   4.957
 7637SOL    HW123810   1.253   5.215   4.919
 7637SOL    HW223811   1.163   5.080   4.902
 7638SOL     OW23812   0.493   5.896   1.250
 7638SOL    HW123813   0.476   5.990   1.219
 7638SOL    HW223814   0.429   5.873   1.324
 7639SOL     OW23815   1.560   1.088   0.121
 7639SOL    HW123816   1.601   1.021   0.059
 7639SOL    HW223817   1.495   1.042   0.181
 7640SOL     OW23818   3.275   1.253   0.970
 7640SOL    HW123819   3.250   1.326   1.034
 7640SOL    HW223820   3.195   1.195   0.952
 7641SOL     OW23821   0.382   4.071   3.987
 7641SOL    HW123822   0.427   4.159   3.999
 7641SOL    HW223823   0.447   4.004   3.952
 7642SOL     OW23824   5.582   0.895   3.240
 7642SOL    HW123825   5.489   0.932   3.248
 7642SOL    HW223826   5.577   0.800   3.210
 7643SOL     OW23827   5.270   3.440   3.931
 7643SOL    HW123828   5.299   3.412   4.022
 7643SOL    HW223829   5.224   3.363   3.886
 7644SOL     OW23830   5.353   3.590   1.248
 7644SOL    HW123831   5.396   3.566   1.160
 7644SOL    HW223832   5.273   3.647   1.231
 7645SOL     OW23833   3.428   4.755   0.035
 7645SOL    HW123834   3.502   4.690   0.022
 7645SOL    HW223835   3.342   4.716   0.004
 7646SOL     OW23836   6.274   1.302   0.210
 7646SOL    HW123837   6.277   1.298   0.110
 7646SOL    HW223838   6.214   1.231   0.245
 7647SOL     OW23839   0.233   2.209   4.121
 7647SOL    HW123840   0.203   2.153   4.198
 7647SOL    HW223841   0.270   2.149   4.049
 7648SOL     OW23842   2.568   2.249   1.759
 7648SOL    HW123843   2.660   2.211   1.769
 7648SOL    HW223844   2.502   2.174   1.751
 7649SOL     OW23845   4.115   1.029   6.586
 7649SOL    HW123846   4.042   1.096   6.593
 7649SOL    HW223847   4.131   1.006   6.490
 7650SOL     OW23848   4.315   2.525   0.435
 7650SOL    HW123849   4.341   2.620   0.451
 7650SOL    HW223850   4.234   2.502   0.489
 7651SOL     OW23851   3.545   4.603   6.597
 7651SOL    HW123852   3.494   4.678   6.640
 7651SOL    HW223853   3.487   4.522   6.593
 7652SOL     OW23854   1.381   0.534   3.956
 7652SOL    HW123855   1.324   0.530   4.038
 7652SOL    HW223856   1.476   0.516   3.979
 7653SOL     OW23857   1.806   0.899   6.394
 7653SOL    HW123858   1.790   0.997   6.380
 7653SOL    HW223859   1.859   0.863   6.317
 7654SOL     OW23860   5.989   1.902   6.113
 7654SOL    HW123861   5.924   1.835   6.147
 7654SOL    HW223862   5.977   1.988   6.163
 7655SOL     OW23863   3.224   1.407   3.687
 7655SOL    HW123864   3.213   1.507   3.684
 7655SOL    HW223865   3.270   1.381   3.772
 7656SOL     OW23866   6.561   4.044   6.936
 7656SOL    HW123867   6.490   4.003   6.878
 7656SOL    HW223868   6.519   4.090   7.014
 7657SOL     OW23869   1.119   4.432   4.655
 7657SOL    HW123870   1.095   4.460   4.749
 7657SOL    HW223871   1.036   4.412   4.604
 7658SOL     OW23872   2.397   0.808   1.347
 7658SOL    HW123873   2.362   0.888   1.299
 7658SOL    HW223874   2.497   0.809   1.344
 7659SOL     OW23875   4.830   3.763   5.866
 7659SOL    HW123876   4.762   3.710   5.814
 7659SOL    HW223877   4.921   3.744   5.829
 7660SOL     OW23878   6.730   5.119   5.274
 7660SOL    HW123879   6.674   5.105   5.356
 7660SOL    HW223880   6.812   5.061   5.281
 7661SOL     OW23881   4.033   1.616   5.280
 7661SOL    HW123882   3.933   1.613   5.288
 7661SOL    HW223883   4.074   1.582   5.365
 7662SOL     OW23884   6.762   6.484   1.539
 7662SOL    HW123885   6.688   6.428   1.503
 7662SOL    HW223886   6.745   6.580   1.518
 7663SOL     OW23887   0.036   5.362   5.133
 7663SOL    HW123888   0.058   5.273   5.174
 7663SOL    HW223889   0.066   5.436   5.193
 7664SOL     OW23890   3.697   2.066   2.248
 7664SOL    HW123891   3.714   2.092   2.153
 7664SOL    HW223892   3.606   2.098   2.275
 7665SOL     OW23893   3.616   0.278   5.783
 7665SOL    HW123894   3.564   0.224   5.716
 7665SOL    HW223895   3.680   0.218   5.831
 7666SOL     OW23896   5.423   4.316   3.489
 7666SOL    HW123897   5.435   4.248   3.416
 7666SOL    HW223898   5.420   4.270   3.578
 7667SOL     OW23899   4.462   6.220   2.635
 7667SOL    HW123900   4.522   6.225   2.555
 7667SOL    HW223901   4.464   6.308   2.683
 7668SOL     OW23902   2.213   5.537   0.818
 7668SOL    HW123903   2.252   5.571   0.733
 7668SOL    HW223904   2.156   5.607   0.860
 7669SOL     OW23905   2.073   1.027   6.823
 7669SOL    HW123906   2.046   1.057   6.731
 7669SOL    HW223907   2.027   1.083   6.891
 7670SOL     OW23908   0.784   0.182   1.146
 7670SOL    HW123909   0.771   0.084   1.164
 7670SOL    HW223910   0.701   0.218   1.103
 7671SOL     OW23911   3.302   6.734   0.784
 7671SOL    HW123912   3.216   6.724   0.834
 7671SOL    HW223913   3.307   6.666   0.710
 7672SOL     OW23914   4.894   4.616   2.244
 7672SOL    HW123915   4.914   4.636   2.148
 7672SOL    HW223916   4.977   4.583   2.289
 7673SOL     OW23917   1.588   6.564   4.754
 7673SOL    HW123918   1.653   6.614   4.697
 7673SOL    HW223919   1.631   6.544   4.843
 7674SOL     OW23920   4.800   6.290   4.574
 7674SOL    HW123921   4.837   6.200   4.553
 7674SOL    HW223922   4.873   6.347   4.614
 7675SOL     OW23923   5.308   6.067   3.037
 7675SOL    HW123924   5.331   5.974   3.065
 7675SOL    HW223925   5.213   6.071   3.008
 7676SOL     OW23926   3.665   2.983   5.381
 7676SOL    HW123927   3.624   2.919   5.317
 7676SOL    HW223928   3.691   3.067   5.333
 7677SOL     OW23929   6.477   4.522   0.173
 7677SOL    HW123930   6.563   4.549   0.129
 7677SOL    HW223931   6.417   4.479   0.106
 7678SOL     OW23932   2.662   1.380   5.067
 7678SOL    HW123933   2.600   1.458   5.070
 7678SOL    HW223934   2.641   1.318   5.142
 7679SOL     OW23935   3.646   5.860   4.998
 7679SOL    HW123936   3.636   5.896   4.905
 7679SOL    HW223937   3.731   5.809   5.004
 7680SOL     OW23938   1.939   0.063   4.280
 7680SOL    HW123939   2.032   0.048   4.314
 7680SOL    HW223940   1.900   6.996   4.251
 7681SOL     OW23941   2.053   3.023   6.309
 7681SOL    HW123942   2.132   2.984   6.356
 7681SOL    HW223943   2.081   3.059   6.220
 7682SOL     OW23944   3.055   1.031   3.058
 7682SOL    HW123945   3.125   0.963   3.083
 7682SOL    HW223946   3.100   1.117   3.033
 7683SOL     OW23947   0.077   4.577   4.330
 7683SOL    HW123948   0.024   4.521   4.267
 7683SOL    HW223949   0.173   4.576   4.302
 7684SOL     OW23950   4.979   3.294   1.478
 7684SOL    HW123951   4.925   3.227   1.428
 7684SOL    HW223952   5.051   3.331   1.419
 7685SOL     OW23953   2.687   0.443   0.526
 7685SOL    HW123954   2.614   0.397   0.575
 7685SOL    HW223955   2.649   0.504   0.457
 7686SOL     OW23956   6.685   6.701   5.141
 7686SOL    HW123957   6.782   6.678   5.138
 7686SOL    HW223958   6.656   6.735   5.051
 7687SOL     OW23959   5.455   3.949   6.144
 7687SOL    HW123960   5.477   3.978   6.051
 7687SOL    HW223961   5.535   3.905   6.185
 7688SOL     OW23962   6.743   3.866   6.270
 7688SOL    HW123963   6.663   3.869   6.210
 7688SOL    HW223964   6.791   3.779   6.258
 7689SOL     OW23965   4.569   1.055   1.888
 7689SOL    HW123966   4.637   0.987   1.915
 7689SOL    HW223967   4.567   1.064   1.788
 7690SOL     OW23968   5.911   5.353   1.969
 7690SOL    HW123969   5.855   5.360   2.051
 7690SOL    HW223970   5.983   5.422   1.971
 7691SOL     OW23971   4.870   3.136   3.853
 7691SOL    HW123972   4.831   3.076   3.923
 7691SOL    HW223973   4.802   3.153   3.782
 7692SOL     OW23974   2.698   6.685   2.537
 7692SOL    HW123975   2.765   6.708   2.607
 7692SOL    HW223976   2.738   6.700   2.446
 7693SOL     OW23977   2.749   0.699   1.746
 7693SOL    HW123978   2.653   0.674   1.734
 7693SOL    HW223979   2.765   0.725   1.842
 7694SOL     OW23980   4.583   1.303   5.567
 7694SOL    HW123981   4.503   1.245   5.573
 7694SOL    HW223982   4.599   1.347   5.655
 7695SOL     OW23983   4.441   0.069   3.558
 7695SOL    HW123984   4.374   0.075   3.484
 7695SOL    HW223985   4.478   6.996   3.563
 7696SOL     OW23986   1.951   2.922   5.962
 7696SOL    HW123987   1.916   2.897   6.053
 7696SOL    HW223988   2.043   2.960   5.972
 7697SOL     OW23989   5.438   0.077   3.631
 7697SOL    HW123990   5.522   0.125   3.656
 7697SOL    HW223991   5.373   0.080   3.706
 7698SOL     OW23992   6.334   3.149   1.174
 7698SOL    HW123993   6.295   3.062   1.205
 7698SOL    HW223994   6.266   3.222   1.185
 7699SOL     OW23995   4.656   5.588   5.765
 7699SOL    HW123996   4.601   5.553   5.841
 7699SOL    HW223997   4.744   5.622   5.801
 7700SOL     OW23998   5.040   6.094   2.084
 7700SOL    HW123999   4.970   6.126   2.020
 7700SOL    HW224000   5.119   6.156   2.080
 7701SOL     OW24001   1.482   2.572   6.177
 7701SOL    HW124002   1.498   2.589   6.275
 7701SOL    HW224003   1.473   2.660   6.130
 7702SOL     OW24004   4.454   0.143   4.682
 7702SOL    HW124005   4.366   0.127   4.727
 7702SOL    HW224006   4.480   0.238   4.694
 7703SOL     OW24007   6.932   6.904   5.643
 7703SOL    HW124008   6.892   6.996   5.644
 7703SOL    HW224009   6.891   6.849   5.716
 7704SOL     OW24010   0.996   1.756   4.768
 7704SOL    HW124011   1.021   1.660   4.754
 7704SOL    HW224012   0.902   1.761   4.802
 7705SOL     OW24013   1.252   4.900   6.828
 7705SOL    HW124014   1.180   4.837   6.857
 7705SOL    HW224015   1.312   4.919   6.905
 7706SOL     OW24016   3.877   2.946   2.531
 7706SOL    HW124017   3.896   2.954   2.433
 7706SOL    HW224018   3.797   2.888   2.545
 7707SOL     OW24019   0.010   3.904   6.848
 7707SOL    HW124020   7.002   3.811   6.871
 7707SOL    HW224021   6.983   3.933   6.765
 7708SOL     OW24022   1.868   0.676   4.113
 7708SOL    HW124023   1.955   0.726   4.113
 7708SOL    HW224024   1.841   0.655   4.207
 7709SOL     OW24025   0.032   4.769   1.409
 7709SOL    HW124026   0.011   4.704   1.335
 7709SOL    HW224027   6.988   4.755   1.484
 7710SOL     OW24028   6.899   2.695   0.795
 7710SOL    HW124029   6.871   2.686   0.890
 7710SOL    HW224030   6.950   2.614   0.767
 7711SOL     OW24031   0.192   4.416   4.863
 7711SOL    HW124032   0.097   4.421   4.831
 7711SOL    HW224033   0.218   4.505   4.902
 7712SOL     OW24034   0.179   5.075   5.761
 7712SOL    HW124035   0.235   4.995   5.784
 7712SOL    HW224036   0.195   5.147   5.828
 7713SOL     OW24037   1.350   4.415   0.030
 7713SOL    HW124038   1.423   4.373   0.084
 7713SOL    HW224039   1.327   4.355   6.973
 7714SOL     OW24040   6.363   2.048   4.510
 7714SOL    HW124041   6.293   1.994   4.558
 7714SOL    HW224042   6.434   1.987   4.476
 7715SOL     OW24043   3.741   3.350   5.115
 7715SOL    HW124044   3.703   3.295   5.040
 7715SOL    HW224045   3.816   3.406   5.081
 7716SOL     OW24046   0.868   6.586   5.998
 7716SOL    HW124047   0.872   6.635   6.085
 7716SOL    HW224048   0.885   6.651   5.923
 7717SOL     OW24049   7.017   2.530   6.347
 7717SOL    HW124050   0.013   2.618   6.303
 7717SOL    HW224051   6.962   2.542   6.429
 7718SOL     OW24052   0.692   3.571   3.025
 7718SOL    HW124053   0.713   3.666   3.051
 7718SOL    HW224054   0.719   3.509   3.099
 7719SOL     OW24055   1.763   5.528   5.188
 7719SOL    HW124056   1.667   5.510   5.207
 7719SOL    HW224057   1.782   5.509   5.091
 7720SOL     OW24058   4.723   1.513   6.541
 7720SOL    HW124059   4.627   1.519   6.569
 7720SOL    HW224060   4.774   1.461   6.610
 7721SOL     OW24061   6.908   6.938   2.591
 7721SOL    HW124062   6.919   6.844   2.621
 7721SOL    HW224063   6.915   6.943   2.492
 7722SOL     OW24064   1.062   5.828   3.897
 7722SOL    HW124065   1.066   5.729   3.913
 7722SOL    HW224066   1.015   5.845   3.810
 7723SOL     OW24067   4.672   3.536   6.776
 7723SOL    HW124068   4.758   3.524   6.825
 7723SOL    HW224069   4.692   3.549   6.678
 7724SOL     OW24070   2.150   3.700   1.084
 7724SOL    HW124071   2.114   3.660   1.168
 7724SOL    HW224072   2.093   3.672   1.006
 7725SOL     OW24073   5.712   2.555   4.558
 7725SOL    HW124074   5.766   2.564   4.642
 7725SOL    HW224075   5.769   2.580   4.479
 7726SOL     OW24076   1.407   3.241   6.190
 7726SOL    HW124077   1.492   3.191   6.211
 7726SOL    HW224078   1.393   3.240   6.091
 7727SOL     OW24079   4.041   1.214   2.130
 7727SOL    HW124080   4.074   1.181   2.041
 7727SOL    HW224081   4.090   1.298   2.154
 7728SOL     OW24082   2.035   4.173   4.555
 7728SOL    HW124083   2.080   4.127   4.632
 7728SOL    HW224084   2.088   4.155   4.471
 7729SOL     OW24085   6.524   1.301   2.884
 7729SOL    HW124086   6.510   1.400   2.878
 7729SOL    HW224087   6.455   1.255   2.828
 7730SOL     OW24088   6.609   4.552   5.115
 7730SOL    HW124089   6.579   4.601   5.197
 7730SOL    HW224090   6.682   4.489   5.140
 7731SOL     OW24091   6.593   6.902   6.247
 7731SOL    HW124092   6.629   6.812   6.222
 7731SOL    HW224093   6.626   6.927   6.338
 7732SOL     OW24094   3.704   0.198   6.497
 7732SOL    HW124095   3.657   0.136   6.434
 7732SOL    HW224096   3.647   0.212   6.578
 7733SOL     OW24097   6.582   5.454   1.778
 7733SOL    HW124098   6.643   5.435   1.702
 7733SOL    HW224099   6.535   5.370   1.806
 7734SOL     OW24100   3.618   4.112   3.810
 7734SOL    HW124101   3.661   4.123   3.721
 7734SOL    HW224102   3.563   4.028   3.811
 7735SOL     OW24103   0.644   6.736   1.062
 7735SOL    HW124104   0.688   6.653   1.098
 7735SOL    HW224105   0.621   6.721   0.966
 7736SOL     OW24106   1.323   2.566   0.071
 7736SOL    HW124107   1.223   2.574   0.076
 7736SOL    HW224108   1.351   2.476   0.104
 7737SOL     OW24109   4.567   4.301   0.066
 7737SOL    HW124110   4.641   4.293   7.020
 7737SOL    HW224111   4.521   4.213   0.077
 7738SOL     OW24112   2.085   0.471   5.322
 7738SOL    HW124113   2.065   0.535   5.396
 7738SOL    HW224114   2.160   0.411   5.349
 7739SOL     OW24115   2.006   2.101   0.516
 7739SOL    HW124116   1.995   2.086   0.615
 7739SOL    HW224117   2.076   2.171   0.501
 7740SOL     OW24118   1.983   0.590   4.921
 7740SOL    HW124119   1.976   0.538   5.006
 7740SOL    HW224120   2.079   0.613   4.905
 7741SOL     OW24121   0.678   4.960   6.042
 7741SOL    HW124122   0.633   4.959   5.953
 7741SOL    HW224123   0.776   4.971   6.031
 7742SOL     OW24124   4.505   2.242   3.973
 7742SOL    HW124125   4.557   2.316   4.015
 7742SOL    HW224126   4.411   2.243   4.009
 7743SOL     OW24127   4.185   1.889   6.067
 7743SOL    HW124128   4.250   1.857   6.135
 7743SOL    HW224129   4.112   1.940   6.112
 7744SOL     OW24130   1.353   6.733   4.742
 7744SOL    HW124131   1.390   6.825   4.740
 7744SOL    HW224132   1.427   6.667   4.729
 7745SOL     OW24133   3.480   6.834   0.975
 7745SOL    HW124134   3.433   6.786   0.900
 7745SOL    HW224135   3.411   6.869   1.039
 7746SOL     OW24136   0.960   5.768   1.449
 7746SOL    HW124137   0.903   5.806   1.377
 7746SOL    HW224138   0.966   5.832   1.525
 7747SOL     OW24139   0.383   5.797   0.980
 7747SOL    HW124140   0.401   5.778   1.077
 7747SOL    HW224141   0.459   5.851   0.943
 7748SOL     OW24142   4.639   1.976   6.090
 7748SOL    HW124143   4.720   1.928   6.124
 7748SOL    HW224144   4.628   2.062   6.141
 7749SOL     OW24145   3.950   3.886   3.375
 7749SOL    HW124146   3.929   3.950   3.301
 7749SOL    HW224147   4.033   3.835   3.353
 7750SOL     OW24148   5.297   4.662   5.441
 7750SOL    HW124149   5.382   4.690   5.396
 7750SOL    HW224150   5.304   4.679   5.539
 7751SOL     OW24151   0.017   1.908   4.256
 7751SOL    HW124152   0.021   1.850   4.337
 7751SOL    HW224153   6.990   1.994   4.279
 7752SOL     OW24154   6.173   5.386   5.245
 7752SOL    HW124155   6.132   5.432   5.167
 7752SOL    HW224156   6.215   5.300   5.215
 7753SOL     OW24157   2.808   0.801   5.041
 7753SOL    HW124158   2.747   0.780   5.117
 7753SOL    HW224159   2.772   0.879   4.989
 7754SOL     OW24160   6.534   0.866   1.578
 7754SOL    HW124161   6.538   0.929   1.655
 7754SOL    HW224162   6.444   0.872   1.535
 7755SOL     OW24163   1.171   5.995   5.224
 7755SOL    HW124164   1.132   5.996   5.131
 7755SOL    HW224165   1.120   5.930   5.280
 7756SOL     OW24166   3.891   5.575   3.037
 7756SOL    HW124167   3.814   5.518   3.008
 7756SOL    HW224168   3.856   5.655   3.087
 7757SOL     OW24169   3.822   6.738   5.900
 7757SOL    HW124170   3.800   6.716   5.805
 7757SOL    HW224171   3.775   6.675   5.961
 7758SOL     OW24172   3.220   2.624   6.348
 7758SOL    HW124173   3.157   2.612   6.424
 7758SOL    HW224174   3.198   2.708   6.298
 7759SOL     OW24175   1.903   0.949   4.928
 7759SOL    HW124176   1.917   0.989   5.019
 7759SOL    HW224177   1.831   0.999   4.880
 7760SOL     OW24178   5.048   1.575   3.532
 7760SOL    HW124179   5.018   1.640   3.462
 7760SOL    HW224180   5.125   1.615   3.583
 7761SOL     OW24181   4.216   0.069   6.388
 7761SOL    HW124182   4.210   0.166   6.363
 7761SOL    HW224183   4.125   0.033   6.406
 7762SOL     OW24184   1.945   2.068   0.767
 7762SOL    HW124185   1.986   2.007   0.835
 7762SOL    HW224186   1.902   2.146   0.814
 7763SOL     OW24187   2.418   2.414   1.034
 7763SOL    HW124188   2.496   2.466   0.998
 7763SOL    HW224189   2.369   2.469   1.102
 7764SOL     OW24190   3.955   3.644   2.480
 7764SOL    HW124191   4.033   3.584   2.501
 7764SOL    HW224192   3.872   3.605   2.519
 7765SOL     OW24193   6.825   1.852   2.158
 7765SOL    HW124194   6.762   1.919   2.198
 7765SOL    HW224195   6.908   1.898   2.127
 7766SOL     OW24196   6.802   3.696   0.139
 7766SOL    HW124197   6.708   3.729   0.133
 7766SOL    HW224198   6.803   3.608   0.186
 7767SOL     OW24199   5.796   4.196   5.501
 7767SOL    HW124200   5.872   4.227   5.445
 7767SOL    HW224201   5.773   4.266   5.569
 7768SOL     OW24202   3.994   5.642   1.960
 7768SOL    HW124203   4.018   5.546   1.970
 7768SOL    HW224204   4.044   5.681   1.883
 7769SOL     OW24205   6.177   1.741   1.844
 7769SOL    HW124206   6.186   1.642   1.835
 7769SOL    HW224207   6.266   1.784   1.827
 7770SOL     OW24208   3.437   5.547   1.711
 7770SOL    HW124209   3.342   5.517   1.713
 7770SOL    HW224210   3.467   5.558   1.616
 7771SOL     OW24211   2.006   1.521   4.554
 7771SOL    HW124212   1.944   1.599   4.554
 7771SOL    HW224213   1.958   1.440   4.587
 7772SOL     OW24214   5.434   0.964   4.924
 7772SOL    HW124215   5.344   0.922   4.909
 7772SOL    HW224216   5.422   1.061   4.945
 7773SOL     OW24217   4.037   4.401   5.382
 7773SOL    HW124218   4.060   4.469   5.313
 7773SOL    HW224219   3.945   4.419   5.416
 7774SOL     OW24220   4.646   1.764   6.346
 7774SOL    HW124221   4.708   1.700   6.390
 7774SOL    HW224222   4.689   1.801   6.264
 7775SOL     OW24223   3.119   6.920   2.052
 7775SOL    HW124224   3.181   6.841   2.050
 7775SOL    HW224225   3.169   7.001   2.022
 7776SOL     OW24226   3.859   3.935   0.600
 7776SOL    HW124227   3.787   3.891   0.653
 7776SOL    HW224228   3.833   3.936   0.503
 7777SOL     OW24229   1.488   0.772   6.720
 7777SOL    HW124230   1.550   0.800   6.794
 7777SOL    HW224231   1.423   0.705   6.756
 7778SOL     OW24232   5.425   0.927   1.220
 7778SOL    HW124233   5.395   1.021   1.205
 7778SOL    HW224234   5.351   0.864   1.194
 7779SOL     OW24235   3.707   3.399   0.009
 7779SOL    HW124236   3.715   3.312   0.057
 7779SOL    HW224237   3.623   3.400   6.976
 7780SOL     OW24238   1.035   0.090   4.615
 7780SOL    HW124239   0.980   0.010   4.639
 7780SOL    HW224240   1.050   0.092   4.516
 7781SOL     OW24241   1.624   4.985   5.149
 7781SOL    HW124242   1.658   4.934   5.071
 7781SOL    HW224243   1.660   5.079   5.146
 7782SOL     OW24244   3.303   4.384   6.872
 7782SOL    HW124245   3.272   4.310   6.932
 7782SOL    HW224246   3.400   4.373   6.853
 7783SOL     OW24247   3.118   5.162   6.431
 7783SOL    HW124248   3.154   5.093   6.368
 7783SOL    HW224249   3.062   5.227   6.379
 7784SOL     OW24250   6.997   2.714   6.952
 7784SOL    HW124251   0.061   2.747   6.910
 7784SOL    HW224252   6.938   2.792   6.974
 7785SOL     OW24253   2.291   5.667   4.481
 7785SOL    HW124254   2.200   5.656   4.521
 7785SOL    HW224255   2.360   5.639   4.548
 7786SOL     OW24256   2.974   3.875   4.427
 7786SOL    HW124257   3.004   3.971   4.419
 7786SOL    HW224258   2.983   3.845   4.522
 7787SOL     OW24259   2.954   2.322   5.320
 7787SOL    HW124260   2.887   2.379   5.272
 7787SOL    HW224261   3.043   2.330   5.276
 7788SOL     OW24262   0.457   1.158   0.350
 7788SOL    HW124263   0.515   1.159   0.269
 7788SOL    HW224264   0.431   1.251   0.374
 7789SOL     OW24265   2.170   0.163   1.454
 7789SOL    HW124266   2.100   0.221   1.411
 7789SOL    HW224267   2.222   0.116   1.383
 7790SOL     OW24268   6.526   3.911   2.899
 7790SOL    HW124269   6.470   3.964   2.964
 7790SOL    HW224270   6.594   3.971   2.857
 7791SOL     OW24271   1.299   4.710   4.641
 7791SOL    HW124272   1.314   4.740   4.736
 7791SOL    HW224273   1.261   4.618   4.641
 7792SOL     OW24274   2.730   5.654   6.088
 7792SOL    HW124275   2.810   5.603   6.056
 7792SOL    HW224276   2.666   5.668   6.013
 7793SOL     OW24277   0.710   0.617   6.615
 7793SOL    HW124278   0.793   0.562   6.603
 7793SOL    HW224279   0.693   0.630   6.713
 7794SOL     OW24280   5.250   5.705   3.605
 7794SOL    HW124281   5.282   5.645   3.678
 7794SOL    HW224282   5.329   5.746   3.559
 7795SOL     OW24283   1.948   5.257   5.372
 7795SOL    HW124284   1.979   5.344   5.335
 7795SOL    HW224285   1.852   5.242   5.346
 7796SOL     OW24286   3.961   3.479   3.699
 7796SOL    HW124287   4.013   3.418   3.639
 7796SOL    HW224288   3.988   3.574   3.683
 7797SOL     OW24289   1.076   0.289   2.875
 7797SOL    HW124290   1.021   0.210   2.848
 7797SOL    HW224291   1.141   0.311   2.802
 7798SOL     OW24292   4.476   5.936   6.596
 7798SOL    HW124293   4.514   6.025   6.621
 7798SOL    HW224294   4.486   5.873   6.673
 7799SOL     OW24295   6.304   4.884   1.348
 7799SOL    HW124296   6.377   4.819   1.329
 7799SOL    HW224297   6.228   4.836   1.392
 7800SOL     OW24298   0.834   5.943   2.168
 7800SOL    HW124299   0.916   5.933   2.225
 7800SOL    HW224300   0.773   6.010   2.210
 7801SOL     OW24301   3.895   2.564   6.200
 7801SOL    HW124302   3.952   2.646   6.199
 7801SOL    HW224303   3.935   2.495   6.139
 7802SOL     OW24304   5.747   2.293   1.184
 7802SOL    HW124305   5.839   2.276   1.150
 7802SOL    HW224306   5.744   2.275   1.283
 7803SOL     OW24307   3.591   4.185   5.687
 7803SOL    HW124308   3.605   4.243   5.767
 7803SOL    HW224309   3.616   4.235   5.605
 7804SOL     OW24310   5.033   1.610   6.367
 7804SOL    HW124311   5.085   1.572   6.445
 7804SOL    HW224312   5.078   1.693   6.335
 7805SOL     OW24313   5.270   3.866   1.979
 7805SOL    HW124314   5.348   3.921   2.009
 7805SOL    HW224315   5.260   3.787   2.039
 7806SOL     OW24316   4.908   3.014   6.693
 7806SOL    HW124317   4.828   2.954   6.684
 7806SOL    HW224318   4.880   3.101   6.733
 7807SOL     OW24319   0.285   3.906   6.419
 7807SOL    HW124320   0.186   3.901   6.422
 7807SOL    HW224321   0.323   3.816   6.396
 7808SOL     OW24322   0.625   1.651   5.059
 7808SOL    HW124323   0.647   1.721   4.990
 7808SOL    HW224324   0.527   1.634   5.059
 7809SOL     OW24325   1.964   5.677   5.756
 7809SOL    HW124326   1.872   5.642   5.740
 7809SOL    HW224327   2.030   5.624   5.704
 7810SOL     OW24328   2.449   1.196   6.913
 7810SOL    HW124329   2.377   1.257   6.946
 7810SOL    HW224330   2.520   1.249   6.868
 7811SOL     OW24331   0.102   4.161   4.528
 7811SOL    HW124332   0.149   4.250   4.528
 7811SOL    HW224333   0.147   4.099   4.592
 7812SOL     OW24334   0.581   1.516   3.634
 7812SOL    HW124335   0.527   1.594   3.664
 7812SOL    HW224336   0.674   1.523   3.672
 7813SOL     OW24337   6.311   2.465   0.738
 7813SOL    HW124338   6.382   2.534   0.724
 7813SOL    HW224339   6.228   2.510   0.771
 7814SOL     OW24340   1.881   3.421   3.944
 7814SOL    HW124341   1.966   3.381   3.980
 7814SOL    HW224342   1.836   3.474   4.016
 7815SOL     OW24343   6.744   1.670   6.111
 7815SOL    HW124344   6.739   1.770   6.114
 7815SOL    HW224345   6.656   1.634   6.079
 7816SOL     OW24346   1.003   3.768   5.093
 7816SOL    HW124347   0.939   3.822   5.149
 7816SOL    HW224348   1.097   3.796   5.113
 7817SOL     OW24349   5.282   3.582   4.965
 7817SOL    HW124350   5.292   3.657   4.900
 7817SOL    HW224351   5.329   3.501   4.929
 7818SOL     OW24352   5.325   5.392   2.541
 7818SOL    HW124353   5.292   5.422   2.452
 7818SOL    HW224354   5.310   5.293   2.551
 7819SOL     OW24355   6.825   1.241   1.501
 7819SOL    HW124356   6.860   1.270   1.412
 7819SOL    HW224357   6.802   1.144   1.498
 7820SOL     OW24358   1.953   0.137   6.298
 7820SOL    HW124359   1.958   0.133   6.398
 7820SOL    HW224360   1.920   0.050   6.263
 7821SOL     OW24361   2.817   5.641   1.213
 7821SOL    HW124362   2.822   5.733   1.251
 7821SOL    HW224363   2.896   5.588   1.242
 7822SOL     OW24364   1.331   5.774   5.226
 7822SOL    HW124365   1.280   5.860   5.228
 7822SOL    HW224366   1.421   5.788   5.268
 7823SOL     OW24367   1.496   4.409   5.240
 7823SOL    HW124368   1.587   4.413   5.282
 7823SOL    HW224369   1.442   4.339   5.285
 7824SOL     OW24370   0.728   3.495   5.576
 7824SOL    HW124371   0.823   3.473   5.555
 7824SOL    HW224372   0.682   3.414   5.612
 7825SOL     OW24373   3.125   1.053   6.545
 7825SOL    HW124374   3.166   1.124   6.602
 7825SOL    HW224375   3.150   0.963   6.581
 7826SOL     OW24376   0.532   3.115   5.987
 7826SOL    HW124377   0.619   3.159   5.961
 7826SOL    HW224378   0.488   3.169   6.059
 7827SOL     OW24379   6.557   5.627   4.752
 7827SOL    HW124380   6.628   5.559   4.736
 7827SOL    HW224381   6.475   5.602   4.700
 7828SOL     OW24382   0.302   5.059   0.087
 7828SOL    HW124383   0.213   5.093   0.118
 7828SOL    HW224384   0.319   4.970   0.129
 7829SOL     OW24385   3.787   3.517   0.598
 7829SOL    HW124386   3.714   3.478   0.543
 7829SOL    HW224387   3.875   3.504   0.553
 7830SOL     OW24388   2.446   5.152   3.666
 7830SOL    HW124389   2.385   5.218   3.709
 7830SOL    HW224390   2.454   5.172   3.568
 7831SOL     OW24391   1.681   0.463   6.812
 7831SOL    HW124392   1.601   0.496   6.762
 7831SOL    HW224393   1.764   0.486   6.761
 7832SOL     OW24394   6.158   0.994   4.334
 7832SOL    HW124395   6.133   0.963   4.426
 7832SOL    HW224396   6.115   1.083   4.317
 7833SOL     OW24397   1.478   0.803   3.204
 7833SOL    HW124398   1.565   0.806   3.254
 7833SOL    HW224399   1.492   0.841   3.112
 7834SOL     OW24400   6.178   3.398   5.234
 7834SOL    HW124401   6.083   3.429   5.243
 7834SOL    HW224402   6.202   3.342   5.314
 7835SOL     OW24403   4.384   2.519   5.569
 7835SOL    HW124404   4.363   2.449   5.501
 7835SOL    HW224405   4.446   2.481   5.637
 7836SOL     OW24406   3.326   3.394   3.798
 7836SOL    HW124407   3.258   3.383   3.871
 7836SOL    HW224408   3.296   3.466   3.736
 7837SOL     OW24409   0.038   5.791   0.190
 7837SOL    HW124410   0.072   5.841   0.109
 7837SOL    HW224411   0.011   5.857   0.260
 7838SOL     OW24412   4.596   5.804   2.738
 7838SOL    HW124413   4.664   5.828   2.669
 7838SOL    HW224414   4.529   5.878   2.746
 7839SOL     OW24415   6.312   2.742   4.094
 7839SOL    HW124416   6.242   2.812   4.077
 7839SOL    HW224417   6.321   2.727   4.192
 7840SOL     OW24418   1.865   3.279   4.308
 7840SOL    HW124419   1.937   3.224   4.265
 7840SOL    HW224420   1.906   3.358   4.354
 7841SOL     OW24421   3.436   1.687   6.610
 7841SOL    HW124422   3.411   1.744   6.689
 7841SOL    HW224423   3.522   1.720   6.571
 7842SOL     OW24424   1.032   0.587   1.576
 7842SOL    HW124425   0.965   0.533   1.525
 7842SOL    HW224426   1.053   0.671   1.525
 7843SOL     OW24427   0.071   6.215   3.175
 7843SOL    HW124428   0.038   6.128   3.211
 7843SOL    HW224429   0.014   6.243   3.098
 7844SOL     OW24430   3.864   0.921   2.595
 7844SOL    HW124431   3.773   0.881   2.594
 7844SOL    HW224432   3.885   0.959   2.504
 7845SOL     OW24433   0.115   2.902   0.806
 7845SOL    HW124434   0.118   3.001   0.792
 7845SOL    HW224435   0.021   2.873   0.819
 7846SOL     OW24436   1.119   1.162   0.375
 7846SOL    HW124437   1.166   1.099   0.437
 7846SOL    HW224438   1.089   1.242   0.426
 7847SOL     OW24439   5.299   4.236   5.835
 7847SOL    HW124440   5.354   4.222   5.752
 7847SOL    HW224441   5.203   4.251   5.809
 7848SOL     OW24442   3.798   4.445   1.111
 7848SOL    HW124443   3.764   4.380   1.043
 7848SOL    HW224444   3.808   4.535   1.069
 7849SOL     OW24445   4.486   4.884   6.852
 7849SOL    HW124446   4.556   4.939   6.807
 7849SOL    HW224447   4.508   4.873   6.949
 7850SOL     OW24448   0.075   1.302   4.151
 7850SOL    HW124449   0.109   1.237   4.219
 7850SOL    HW224450   0.028   1.377   4.198
 7851SOL     OW24451   6.924   4.648   1.128
 7851SOL    HW124452   6.964   4.739   1.126
 7851SOL    HW224453   6.849   4.645   1.194
 7852SOL     OW24454   1.154   2.641   6.663
 7852SOL    HW124455   1.150   2.575   6.588
 7852SOL    HW224456   1.244   2.685   6.664
 7853SOL     OW24457   4.161   3.016   1.689
 7853SOL    HW124458   4.086   3.081   1.704
 7853SOL    HW224459   4.248   3.063   1.702
 7854SOL     OW24460   4.889   1.653   6.944
 7854SOL    HW124461   4.815   1.706   6.985
 7854SOL    HW224462   4.901   1.680   6.849
 7855SOL     OW24463   5.023   6.888   4.280
 7855SOL    HW124464   4.963   6.852   4.208
 7855SOL    HW224465   5.117   6.862   4.260
 7856SOL     OW24466   2.071   6.676   4.441
 7856SOL    HW124467   2.108   6.593   4.397
 7856SOL    HW224468   2.147   6.736   4.466
 7857SOL     OW24469   6.090   4.650   1.418
 7857SOL    HW124470   6.043   4.563   1.399
 7857SOL    HW224471   6.091   4.667   1.517
 7858SOL     OW24472   6.652   4.528   6.523
 7858SOL    HW124473   6.664   4.463   6.597
 7858SOL    HW224474   6.734   4.528   6.465
 7859SOL     OW24475   5.238   1.860   0.592
 7859SOL    HW124476   5.228   1.863   0.493
 7859SOL    HW224477   5.258   1.952   0.627
 7860SOL     OW24478   2.643   1.963   4.794
 7860SOL    HW124479   2.671   1.879   4.747
 7860SOL    HW224480   2.724   2.020   4.813
 7861SOL     OW24481   2.195   6.819   0.460
 7861SOL    HW124482   2.265   6.774   0.516
 7861SOL    HW224483   2.163   6.756   0.389
 7862SOL     OW24484   1.732   5.664   6.934
 7862SOL    HW124485   1.706   5.714   6.851
 7862SOL    HW224486   1.804   5.714   6.981
 7863SOL     OW24487   1.064   4.167   3.667
 7863SOL    HW124488   1.001   4.244   3.670
 7863SOL    HW224489   1.028   4.096   3.606
 7864SOL     OW24490   2.183   6.451   5.553
 7864SOL    HW124491   2.271   6.418   5.518
 7864SOL    HW224492   2.127   6.484   5.476
 7865SOL     OW24493   5.498   4.244   3.167
 7865SOL    HW124494   5.598   4.238   3.161
 7865SOL    HW224495   5.464   4.306   3.096
 7866SOL     OW24496   0.552   1.111   6.189
 7866SOL    HW124497   0.516   1.118   6.096
 7866SOL    HW224498   0.637   1.162   6.196
 7867SOL     OW24499   4.439   4.817   3.645
 7867SOL    HW124500   4.409   4.888   3.581
 7867SOL    HW224501   4.469   4.860   3.730
 7868SOL     OW24502   2.903   6.262   1.377
 7868SOL    HW124503   2.913   6.201   1.456
 7868SOL    HW224504   2.991   6.268   1.329
 7869SOL     OW24505   5.937   4.546   6.757
 7869SOL    HW124506   5.940   4.447   6.746
 7869SOL    HW224507   5.956   4.590   6.670
 7870SOL     OW24508   5.634   6.134   4.344
 7870SOL    HW124509   5.710   6.090   4.296
 7870SOL    HW224510   5.553   6.076   4.337
 7871SOL     OW24511   4.968   1.405   0.330
 7871SOL    HW124512   5.017   1.423   0.416
 7871SOL    HW224513   5.007   1.324   0.287
 7872SOL     OW24514   1.505   5.772   3.292
 7872SOL    HW124515   1.510   5.853   3.234
 7872SOL    HW224516   1.589   5.719   3.282
 7873SOL     OW24517   4.775   1.898   0.326
 7873SOL    HW124518   4.717   1.897   0.408
 7873SOL    HW224519   4.765   1.811   0.277
 7874SOL     OW24520   6.116   2.596   0.848
 7874SOL    HW124521   6.054   2.541   0.905
 7874SOL    HW224522   6.081   2.689   0.840
 7875SOL     OW24523   5.863   4.487   5.978
 7875SOL    HW124524   5.866   4.478   6.078
 7875SOL    HW224525   5.956   4.495   5.942
 7876SOL     OW24526   0.917   0.168   3.878
 7876SOL    HW124527   0.937   0.200   3.970
 7876SOL    HW224528   0.834   0.213   3.844
 7877SOL     OW24529   0.111   2.935   3.550
 7877SOL    HW124530   0.014   2.931   3.575
 7877SOL    HW224531   0.119   2.961   3.453
 7878SOL     OW24532   4.200   5.422   3.276
 7878SOL    HW124533   4.290   5.462   3.256
 7878SOL    HW224534   4.135   5.496   3.295
 7879SOL     OW24535   3.038   4.824   3.229
 7879SOL    HW124536   3.031   4.852   3.325
 7879SOL    HW224537   2.967   4.758   3.208
 7880SOL     OW24538   1.092   4.459   2.040
 7880SOL    HW124539   1.054   4.533   1.984
 7880SOL    HW224540   1.022   4.425   2.102
 7881SOL     OW24541   4.795   4.213   3.542
 7881SOL    HW124542   4.803   4.156   3.460
 7881SOL    HW224543   4.716   4.273   3.534
 7882SOL     OW24544   1.095   3.477   0.059
 7882SOL    HW124545   1.009   3.426   0.068
 7882SOL    HW224546   1.126   3.505   0.150
 7883SOL     OW24547   0.845   0.919   5.208
 7883SOL    HW124548   0.851   0.822   5.185
 7883SOL    HW224549   0.793   0.930   5.292
 7884SOL     OW24550   1.256   2.441   4.674
 7884SOL    HW124551   1.318   2.513   4.643
 7884SOL    HW224552   1.161   2.470   4.656
 7885SOL     OW24553   6.577   6.342   6.463
 7885SOL    HW124554   6.508   6.315   6.529
 7885SOL    HW224555   6.535   6.396   6.390
 7886SOL     OW24556   5.189   4.438   0.658
 7886SOL    HW124557   5.142   4.513   0.611
 7886SOL    HW224558   5.287   4.445   0.642
 7887SOL     OW24559   4.923   2.849   6.227
 7887SOL    HW124560   4.927   2.824   6.323
 7887SOL    HW224561   4.842   2.905   6.210
 7888SOL     OW24562   5.369   6.604   4.590
 7888SOL    HW124563   5.441   6.584   4.656
 7888SOL    HW224564   5.293   6.541   4.603
 7889SOL     OW24565   0.445   4.872   2.748
 7889SOL    HW124566   0.477   4.937   2.679
 7889SOL    HW224567   0.423   4.922   2.832
 7890SOL     OW24568   2.003   2.732   2.525
 7890SOL    HW124569   2.018   2.654   2.464
 7890SOL    HW224570   2.091   2.774   2.547
 7891SOL     OW24571   1.048   4.824   2.846
 7891SOL    HW124572   1.107   4.747   2.822
 7891SOL    HW224573   1.038   4.830   2.945
 7892SOL     OW24574   2.067   2.472   6.123
 7892SOL    HW124575   2.085   2.374   6.120
 7892SOL    HW224576   2.140   2.521   6.074
 7893SOL     OW24577   6.135   6.401   1.742
 7893SOL    HW124578   6.045   6.405   1.699
 7893SOL    HW224579   6.159   6.492   1.777
 7894SOL     OW24580   2.879   6.919   1.623
 7894SOL    HW124581   2.892   6.823   1.644
 7894SOL    HW224582   2.838   6.966   1.702
 7895SOL     OW24583   6.882   1.200   3.459
 7895SOL    HW124584   6.957   1.212   3.394
 7895SOL    HW224585   6.843   1.108   3.449
 7896SOL     OW24586   4.312   1.520   6.375
 7896SOL    HW124587   4.339   1.499   6.469
 7896SOL    HW224588   4.368   1.467   6.311
 7897SOL     OW24589   2.944   2.902   6.471
 7897SOL    HW124590   2.845   2.891   6.477
 7897SOL    HW224591   2.968   2.999   6.482
 7898SOL     OW24592   4.614   2.190   3.400
 7898SOL    HW124593   4.521   2.153   3.398
 7898SOL    HW224594   4.610   2.289   3.413
 7899SOL     OW24595   4.516   1.252   3.006
 7899SOL    HW124596   4.603   1.274   3.050
 7899SOL    HW224597   4.518   1.157   2.974
 7900SOL     OW24598   1.508   4.996   0.913
 7900SOL    HW124599   1.535   4.970   1.006
 7900SOL    HW224600   1.474   5.090   0.913
 7901SOL     OW24601   5.675   5.282   0.970
 7901SOL    HW124602   5.582   5.307   0.993
 7901SOL    HW224603   5.696   5.191   1.008
 7902SOL     OW24604   4.872   5.039   6.151
 7902SOL    HW124605   4.886   5.077   6.243
 7902SOL    HW224606   4.901   4.943   6.151
 7903SOL     OW24607   0.386   2.659   0.069
 7903SOL    HW124608   0.441   2.732   0.109
 7903SOL    HW224609   0.422   2.634   7.000
 7904SOL     OW24610   6.613   1.501   2.439
 7904SOL    HW124611   6.573   1.491   2.348
 7904SOL    HW224612   6.645   1.412   2.471
 7905SOL     OW24613   2.635   2.040   1.070
 7905SOL    HW124614   2.590   2.052   1.158
 7905SOL    HW224615   2.584   2.088   0.999
 7906SOL     OW24616   0.388   5.267   0.355
 7906SOL    HW124617   0.412   5.297   0.263
 7906SOL    HW224618   0.297   5.300   0.378
 7907SOL     OW24619   5.895   2.907   2.010
 7907SOL    HW124620   5.989   2.913   2.046
 7907SOL    HW224621   5.837   2.862   2.078
 7908SOL     OW24622   6.063   1.685   2.944
 7908SOL    HW124623   6.115   1.738   3.011
 7908SOL    HW224624   6.022   1.606   2.990
 7909SOL     OW24625   4.571   5.682   5.192
 7909SOL    HW124626   4.503   5.756   5.189
 7909SOL    HW224627   4.539   5.611   5.255
 7910SOL     OW24628   5.768   3.639   6.150
 7910SOL    HW124629   5.709   3.563   6.124
 7910SOL    HW224630   5.863   3.607   6.152
 7911SOL     OW24631   6.948   4.764   6.905
 7911SOL    HW124632   6.984   4.857   6.911
 7911SOL    HW224633   6.935   4.727   6.997
 7912SOL     OW24634   0.035   5.262   5.560
 7912SOL    HW124635   0.055   5.238   5.655
 7912SOL    HW224636   6.961   5.294   5.552
 7913SOL     OW24637   0.908   6.104   6.504
 7913SOL    HW124638   0.985   6.093   6.442
 7913SOL    HW224639   0.864   6.193   6.488
 7914SOL     OW24640   0.022   3.334   2.068
 7914SOL    HW124641   0.064   3.419   2.100
 7914SOL    HW224642   0.078   3.295   1.995
 7915SOL     OW24643   4.317   0.968   2.039
 7915SOL    HW124644   4.332   1.038   2.108
 7915SOL    HW224645   4.389   0.973   1.970
 7916SOL     OW24646   4.791   3.687   5.466
 7916SOL    HW124647   4.830   3.599   5.492
 7916SOL    HW224648   4.779   3.692   5.367
 7917SOL     OW24649   3.404   4.175   3.417
 7917SOL    HW124650   3.342   4.131   3.482
 7917SOL    HW224651   3.390   4.274   3.419
 7918SOL     OW24652   6.252   2.457   1.972
 7918SOL    HW124653   6.317   2.505   1.914
 7918SOL    HW224654   6.215   2.378   1.924
 7919SOL     OW24655   6.131   4.637   1.985
 7919SOL    HW124656   6.188   4.695   2.043
 7919SOL    HW224657   6.036   4.640   2.017
 7920SOL     OW24658   0.489   6.322   2.331
 7920SOL    HW124659   0.421   6.382   2.375
 7920SOL    HW224660   0.470   6.317   2.233
 7921SOL     OW24661   2.890   6.345   2.073
 7921SOL    HW124662   2.855   6.262   2.116
 7921SOL    HW224663   2.876   6.339   1.974
 7922SOL     OW24664   0.812   4.964   6.280
 7922SOL    HW124665   0.783   5.019   6.359
 7922SOL    HW224666   0.744   4.971   6.207
 7923SOL     OW24667   0.830   1.833   3.049
 7923SOL    HW124668   0.883   1.898   3.104
 7923SOL    HW224669   0.891   1.766   3.008
 7924SOL     OW24670   2.338   1.149   3.601
 7924SOL    HW124671   2.270   1.179   3.669
 7924SOL    HW224672   2.369   1.227   3.547
 7925SOL     OW24673   0.486   1.292   6.450
 7925SOL    HW124674   0.567   1.269   6.503
 7925SOL    HW224675   0.424   1.213   6.448
 7926SOL     OW24676   3.415   6.769   1.701
 7926SOL    HW124677   3.338   6.824   1.734
 7926SOL    HW224678   3.471   6.824   1.640
 7927SOL     OW24679   4.982   4.569   4.231
 7927SOL    HW124680   4.926   4.558   4.313
 7927SOL    HW224681   4.992   4.480   4.185
 7928SOL     OW24682   1.054   4.739   6.903
 7928SOL    HW124683   0.986   4.751   6.831
 7928SOL    HW224684   1.018   4.677   6.973
 7929SOL     OW24685   4.038   3.873   4.405
 7929SOL    HW124686   4.065   3.873   4.308
 7929SOL    HW224687   4.054   3.782   4.444
 7930SOL     OW24688   5.353   6.080   4.055
 7930SOL    HW124689   5.396   6.157   4.102
 7930SOL    HW224690   5.357   6.094   3.956
 7931SOL     OW24691   2.375   3.389   6.859
 7931SOL    HW124692   2.301   3.338   6.816
 7931SOL    HW224693   2.455   3.331   6.867
 7932SOL     OW24694   3.020   6.751   0.865
 7932SOL    HW124695   2.996   6.822   0.799
 7932SOL    HW224696   3.030   6.792   0.956
 7933SOL     OW24697   1.133   1.155   5.999
 7933SOL    HW124698   1.063   1.226   5.998
 7933SOL    HW224699   1.211   1.185   6.052
 7934SOL     OW24700   3.963   2.817   5.608
 7934SOL    HW124701   4.044   2.759   5.616
 7934SOL    HW224702   3.977   2.901   5.661
 7935SOL     OW24703   5.128   5.875   1.465
 7935SOL    HW124704   5.114   5.962   1.418
 7935SOL    HW224705   5.106   5.885   1.562
 7936SOL     OW24706   4.414   5.796   3.111
 7936SOL    HW124707   4.325   5.767   3.074
 7936SOL    HW224708   4.399   5.852   3.193
 7937SOL     OW24709   6.532   6.958   5.955
 7937SOL    HW124710   6.486   6.886   5.904
 7937SOL    HW224711   6.525   6.939   6.053
 7938SOL     OW24712   5.954   4.736   4.277
 7938SOL    HW124713   5.959   4.681   4.360
 7938SOL    HW224714   5.932   4.831   4.300
 7939SOL     OW24715   0.521   0.058   4.451
 7939SOL    HW124716   0.506   6.994   4.400
 7939SOL    HW224717   0.613   0.056   4.492
 7940SOL     OW24718   1.784   5.913   0.492
 7940SOL    HW124719   1.871   5.880   0.455
 7940SOL    HW224720   1.742   5.841   0.547
 7941SOL     OW24721   0.055   0.696   0.614
 7941SOL    HW124722   7.017   0.732   0.687
 7941SOL    HW224723   0.041   0.598   0.605
 7942SOL     OW24724   1.453   1.271   0.993
 7942SOL    HW124725   1.533   1.330   0.982
 7942SOL    HW224726   1.375   1.310   0.946
 7943SOL     OW24727   5.701   1.932   0.188
 7943SOL    HW124728   5.621   1.968   0.139
 7943SOL    HW224729   5.784   1.952   0.135
 7944SOL     OW24730   0.203   3.574   2.582
 7944SOL    HW124731   0.151   3.579   2.497
 7944SOL    HW224732   0.141   3.579   2.660
 7945SOL     OW24733   5.362   6.868   1.103
 7945SOL    HW124734   5.332   6.964   1.104
 7945SOL    HW224735   5.375   6.839   1.009
 7946SOL     OW24736   1.394   1.948   6.195
 7946SOL    HW124737   1.479   1.948   6.248
 7946SOL    HW224738   1.318   1.920   6.254
 7947SOL     OW24739   4.536   4.905   5.906
 7947SOL    HW124740   4.524   4.868   5.814
 7947SOL    HW224741   4.497   4.842   5.973
 7948SOL     OW24742   0.630   4.871   6.526
 7948SOL    HW124743   0.709   4.871   6.587
 7948SOL    HW224744   0.606   4.776   6.503
 7949SOL     OW24745   6.677   3.972   3.987
 7949SOL    HW124746   6.676   3.872   3.979
 7949SOL    HW224747   6.620   4.000   4.064
 7950SOL     OW24748   3.487   4.966   4.256
 7950SOL    HW124749   3.529   4.942   4.169
 7950SOL    HW224750   3.389   4.948   4.252
 7951SOL     OW24751   3.456   3.632   0.689
 7951SOL    HW124752   3.438   3.574   0.768
 7951SOL    HW224753   3.502   3.579   0.617
 7952SOL     OW24754   4.984   5.070   0.190
 7952SOL    HW124755   5.056   5.002   0.202
 7952SOL    HW224756   5.012   5.137   0.122
 7953SOL     OW24757   2.187   2.970   3.140
 7953SOL    HW124758   2.187   3.027   3.223
 7953SOL    HW224759   2.109   2.996   3.083
 7954SOL     OW24760   5.213   5.478   4.661
 7954SOL    HW124761   5.164   5.473   4.574
 7954SOL    HW224762   5.171   5.415   4.727
 7955SOL     OW24763   1.337   0.230   6.296
 7955SOL    HW124764   1.272   0.305   6.279
 7955SOL    HW224765   1.428   0.268   6.314
 7956SOL     OW24766   5.979   0.261   3.914
 7956SOL    HW124767   6.064   0.247   3.863
 7956SOL    HW224768   5.911   0.303   3.855
 7957SOL     OW24769   0.987   2.482   1.033
 7957SOL    HW124770   0.995   2.476   1.133
 7957SOL    HW224771   0.926   2.558   1.009
 7958SOL     OW24772   1.664   5.469   3.419
 7958SOL    HW124773   1.756   5.503   3.400
 7958SOL    HW224774   1.609   5.544   3.457
 7959SOL     OW24775   4.649   5.013   0.708
 7959SOL    HW124776   4.684   5.105   0.725
 7959SOL    HW224777   4.611   5.008   0.615
 7960SOL     OW24778   2.057   2.672   0.639
 7960SOL    HW124779   1.972   2.720   0.619
 7960SOL    HW224780   2.129   2.739   0.660
 7961SOL     OW24781   1.676   5.395   7.003
 7961SOL    HW124782   1.706   5.380   0.076
 7961SOL    HW224783   1.697   5.489   6.976
 7962SOL     OW24784   1.552   0.003   1.966
 7962SOL    HW124785   1.576   0.085   2.018
 7962SOL    HW224786   1.486   6.969   2.018
 7963SOL     OW24787   0.838   6.805   4.746
 7963SOL    HW124788   0.930   6.788   4.712
 7963SOL    HW224789   0.843   6.849   4.835
 7964SOL     OW24790   6.462   5.730   3.465
 7964SOL    HW124791   6.372   5.716   3.424
 7964SOL    HW224792   6.452   5.783   3.550
 7965SOL     OW24793   5.734   2.044   0.742
 7965SOL    HW124794   5.729   2.062   0.644
 7965SOL    HW224795   5.756   2.129   0.790
 7966SOL     OW24796   6.498   6.252   3.687
 7966SOL    HW124797   6.567   6.314   3.724
 7966SOL    HW224798   6.536   6.202   3.610
 7967SOL     OW24799   2.889   6.959   3.331
 7967SOL    HW124800   2.979   6.990   3.364
 7967SOL    HW224801   2.834   0.019   3.306
 7968SOL     OW24802   2.207   0.494   1.286
 7968SOL    HW124803   2.222   0.587   1.319
 7968SOL    HW224804   2.284   0.436   1.312
 7969SOL     OW24805   3.133   1.835   3.495
 7969SOL    HW124806   3.067   1.765   3.522
 7969SOL    HW224807   3.190   1.799   3.421
 7970SOL     OW24808   0.572   4.915   3.300
 7970SOL    HW124809   0.490   4.903   3.243
 7970SOL    HW224810   0.653   4.897   3.244
 7971SOL     OW24811   2.757   1.546   1.954
 7971SOL    HW124812   2.688   1.594   2.008
 7971SOL    HW224813   2.839   1.530   2.010
 7972SOL     OW24814   0.414   5.060   1.675
 7972SOL    HW124815   0.387   4.984   1.617
 7972SOL    HW224816   0.503   5.041   1.716
 7973SOL     OW24817   4.580   2.023   2.538
 7973SOL    HW124818   4.635   1.974   2.470
 7973SOL    HW224819   4.634   2.035   2.622
 7974SOL     OW24820   5.567   6.780   3.848
 7974SOL    HW124821   5.490   6.761   3.787
 7974SOL    HW224822   5.538   6.766   3.943
 7975SOL     OW24823   2.162   0.748   2.829
 7975SOL    HW124824   2.205   0.809   2.896
 7975SOL    HW224825   2.213   0.754   2.743
 7976SOL     OW24826   0.522   6.288   6.269
 7976SOL    HW124827   0.488   6.209   6.219
 7976SOL    HW224828   0.453   6.360   6.270
 7977SOL     OW24829   4.598   6.494   1.679
 7977SOL    HW124830   4.638   6.404   1.661
 7977SOL    HW224831   4.502   6.494   1.652
 7978SOL     OW24832   3.701   2.657   5.981
 7978SOL    HW124833   3.605   2.631   5.971
 7978SOL    HW224834   3.742   2.606   6.057
 7979SOL     OW24835   4.676   6.807   4.409
 7979SOL    HW124836   4.749   6.742   4.388
 7979SOL    HW224837   4.615   6.816   4.330
 7980SOL     OW24838   2.503   0.510   2.007
 7980SOL    HW124839   2.528   0.472   1.918
 7980SOL    HW224840   2.585   0.527   2.061
 7981SOL     OW24841   1.180   6.103   2.923
 7981SOL    HW124842   1.225   6.191   2.907
 7981SOL    HW224843   1.201   6.071   3.015
 7982SOL     OW24844   0.416   2.210   0.540
 7982SOL    HW124845   0.412   2.310   0.535
 7982SOL    HW224846   0.332   2.171   0.501
 7983SOL     OW24847   4.620   2.541   2.107
 7983SOL    HW124848   4.636   2.618   2.169
 7983SOL    HW224849   4.695   2.476   2.114
 7984SOL     OW24850   0.037   0.524   0.199
 7984SOL    HW124851   0.101   0.545   0.273
 7984SOL    HW224852   7.020   0.609   0.162
 7985SOL     OW24853   0.310   1.150   1.122
 7985SOL    HW124854   0.267   1.060   1.114
 7985SOL    HW224855   0.401   1.147   1.080
 7986SOL     OW24856   4.459   2.775   0.016
 7986SOL    HW124857   4.551   2.790   7.001
 7986SOL    HW224858   4.449   2.821   0.104
 7987SOL     OW24859   0.737   2.640   4.709
 7987SOL    HW124860   0.737   2.739   4.696
 7987SOL    HW224861   0.661   2.600   4.658
 7988SOL     OW24862   2.789   2.245   5.817
 7988SOL    HW124863   2.851   2.172   5.847
 7988SOL    HW224864   2.778   2.240   5.718
 7989SOL     OW24865   3.475   3.575   5.568
 7989SOL    HW124866   3.559   3.586   5.514
 7989SOL    HW224867   3.406   3.641   5.536
 7990SOL     OW24868   2.132   2.653   5.044
 7990SOL    HW124869   2.232   2.663   5.051
 7990SOL    HW224870   2.108   2.616   4.955
 7991SOL     OW24871   0.416   3.167   4.786
 7991SOL    HW124872   0.410   3.236   4.713
 7991SOL    HW224873   0.500   3.182   4.838
 7992SOL     OW24874   2.272   0.640   0.330
 7992SOL    HW124875   2.267   0.740   0.327
 7992SOL    HW224876   2.246   0.607   0.421
 7993SOL     OW24877   2.203   6.728   6.273
 7993SOL    HW124878   2.149   6.794   6.222
 7993SOL    HW224879   2.153   6.701   6.356
 7994SOL     OW24880   5.860   0.872   4.272
 7994SOL    HW124881   5.949   0.864   4.315
 7994SOL    HW224882   5.800   0.928   4.329
 7995SOL     OW24883   4.396   5.686   3.524
 7995SOL    HW124884   4.314   5.716   3.475
 7995SOL    HW224885   4.392   5.719   3.619
 7996SOL     OW24886   4.082   1.101   5.215
 7996SOL    HW124887   3.992   1.139   5.193
 7996SOL    HW224888   4.077   1.001   5.213
 7997SOL     OW24889   5.474   2.652   2.295
 7997SOL    HW124890   5.386   2.698   2.282
 7997SOL    HW224891   5.482   2.578   2.229
 7998SOL     OW24892   5.933   4.961   6.733
 7998SOL    HW124893   5.926   5.061   6.741
 7998SOL    HW224894   5.849   4.920   6.768
 7999SOL     OW24895   1.319   0.566   5.479
 7999SOL    HW124896   1.322   0.482   5.534
 7999SOL    HW224897   1.410   0.587   5.445
 8000SOL     OW24898   5.521   0.062   5.848
 8000SOL    HW124899   5.582   0.049   5.770
 8000SOL    HW224900   5.536   0.153   5.887
 8001SOL     OW24901   2.739   6.504   1.275
 8001SOL    HW124902   2.641   6.492   1.295
 8001SOL    HW224903   2.793   6.466   1.349
 8002SOL     OW24904   5.297   3.075   5.692
 8002SOL    HW124905   5.202   3.073   5.661
 8002SOL    HW224906   5.301   3.113   5.784
 8003SOL     OW24907   3.904   5.699   3.848
 8003SOL    HW124908   3.926   5.781   3.901
 8003SOL    HW224909   3.838   5.723   3.776
 8004SOL     OW24910   1.224   4.035   2.615
 8004SOL    HW124911   1.306   4.043   2.559
 8004SOL    HW224912   1.240   3.970   2.689
 8005SOL     OW24913   2.767   0.724   2.333
 8005SOL    HW124914   2.864   0.738   2.349
 8005SOL    HW224915   2.754   0.639   2.281
 8006SOL     OW24916   3.591   6.438   0.839
 8006SOL    HW124917   3.661   6.406   0.774
 8006SOL    HW224918   3.632   6.500   0.905
 8007SOL     OW24919   0.349   0.968   4.224
 8007SOL    HW124920   0.367   0.887   4.279
 8007SOL    HW224921   0.354   0.945   4.127
 8008SOL     OW24922   5.907   5.359   0.579
 8008SOL    HW124923   5.876   5.264   0.572
 8008SOL    HW224924   5.923   5.382   0.675
 8009SOL     OW24925   6.810   7.008   4.076
 8009SOL    HW124926   6.867   6.947   4.132
 8009SOL    HW224927   6.745   6.953   4.024
 8010SOL     OW24928   1.887   2.901   0.075
 8010SOL    HW124929   1.808   2.952   0.039
 8010SOL    HW224930   1.867   2.803   0.073
 8011SOL     OW24931   2.394   2.481   0.703
 8011SOL    HW124932   2.311   2.433   0.729
 8011SOL    HW224933   2.450   2.498   0.785
 8012SOL     OW24934   3.071   0.106   3.408
 8012SOL    HW124935   3.109   0.131   3.497
 8012SOL    HW224936   3.130   0.141   3.335
 8013SOL     OW24937   6.029   5.453   5.018
 8013SOL    HW124938   5.999   5.541   4.980
 8013SOL    HW224939   6.075   5.400   4.947
 8014SOL     OW24940   2.142   0.564   6.831
 8014SOL    HW124941   2.071   0.599   6.770
 8014SOL    HW224942   2.227   0.615   6.815
 8015SOL     OW24943   1.565   2.212   6.763
 8015SOL    HW124944   1.651   2.264   6.763
 8015SOL    HW224945   1.565   2.146   6.838
 8016SOL     OW24946   3.481   6.661   1.280
 8016SOL    HW124947   3.386   6.653   1.309
 8016SOL    HW224948   3.520   6.745   1.319
 8017SOL     OW24949   5.788   4.305   4.977
 8017SOL    HW124950   5.765   4.401   4.994
 8017SOL    HW224951   5.881   4.287   5.009
 8018SOL     OW24952   5.471   2.672   4.469
 8018SOL    HW124953   5.551   2.620   4.501
 8018SOL    HW224954   5.401   2.608   4.437
 8019SOL     OW24955   2.458   5.115   1.522
 8019SOL    HW124956   2.517   5.182   1.477
 8019SOL    HW224957   2.440   5.039   1.459
 8020SOL     OW24958   6.043   6.360   6.139
 8020SOL    HW124959   6.079   6.402   6.223
 8020SOL    HW224960   6.116   6.311   6.092
 8021SOL     OW24961   0.666   0.959   0.733
 8021SOL    HW124962   0.749   0.934   0.783
 8021SOL    HW224963   0.670   0.923   0.640
 8022SOL     OW24964   4.452   5.506   3.162
 8022SOL    HW124965   4.456   5.478   3.066
 8022SOL    HW224966   4.449   5.606   3.168
 8023SOL     OW24967   6.364   6.662   4.070
 8023SOL    HW124968   6.268   6.687   4.065
 8023SOL    HW224969   6.391   6.619   3.984
 8024SOL     OW24970   4.897   5.285   4.596
 8024SOL    HW124971   4.931   5.341   4.520
 8024SOL    HW224972   4.844   5.209   4.558
 8025SOL     OW24973   3.148   5.915   0.523
 8025SOL    HW124974   3.161   5.841   0.457
 8025SOL    HW224975   3.192   5.890   0.610
 8026SOL     OW24976   1.968   2.942   0.702
 8026SOL    HW124977   1.982   2.949   0.801
 8026SOL    HW224978   1.895   2.877   0.683
 8027SOL     OW24979   5.137   3.401   5.784
 8027SOL    HW124980   5.196   3.426   5.861
 8027SOL    HW224981   5.089   3.315   5.804
 8028SOL     OW24982   5.232   5.270   0.413
 8028SOL    HW124983   5.329   5.287   0.397
 8028SOL    HW224984   5.213   5.277   0.511
 8029SOL     OW24985   3.130   4.613   0.592
 8029SOL    HW124986   3.053   4.561   0.628
 8029SOL    HW224987   3.097   4.686   0.532
 8030SOL     OW24988   5.662   3.880   6.816
 8030SOL    HW124989   5.617   3.855   6.902
 8030SOL    HW224990   5.749   3.832   6.808
 8031SOL     OW24991   3.501   5.957   1.547
 8031SOL    HW124992   3.417   6.006   1.566
 8031SOL    HW224993   3.574   6.022   1.524
 8032SOL     OW24994   4.835   4.852   5.677
 8032SOL    HW124995   4.870   4.759   5.670
 8032SOL    HW224996   4.738   4.850   5.702
 8033SOL     OW24997   6.126   2.172   0.586
 8033SOL    HW124998   6.145   2.206   0.678
 8033SOL    HW224999   6.210   2.138   0.545
 8034SOL     OW25000   5.965   1.058   5.125
 8034SOL    HW125001   5.999   0.983   5.068
 8034SOL    HW225002   5.915   1.123   5.067
 8035SOL     OW25003   5.647   5.665   0.262
 8035SOL    HW125004   5.725   5.604   0.270
 8035SOL    HW225005   5.671   5.755   0.298
 8036SOL     OW25006   1.745   4.443   1.279
 8036SOL    HW125007   1.667   4.409   1.227
 8036SOL    HW225008   1.746   4.543   1.276
 8037SOL     OW25009   1.870   3.476   1.140
 8037SOL    HW125010   1.877   3.378   1.124
 8037SOL    HW225011   1.933   3.504   1.212
 8038SOL     OW25012   6.819   1.542   3.790
 8038SOL    HW125013   6.865   1.466   3.743
 8038SOL    HW225014   6.846   1.543   3.886
 8039SOL     OW25015   2.865   6.766   4.757
 8039SOL    HW125016   2.770   6.792   4.776
 8039SOL    HW225017   2.874   6.740   4.660
 8040SOL     OW25018   6.715   5.839   1.060
 8040SOL    HW125019   6.704   5.740   1.053
 8040SOL    HW225020   6.731   5.865   1.155
 8041SOL     OW25021   3.887   2.007   0.781
 8041SOL    HW125022   3.807   1.991   0.838
 8041SOL    HW225023   3.940   1.923   0.772
 8042SOL     OW25024   2.694   3.706   0.894
 8042SOL    HW125025   2.607   3.726   0.940
 8042SOL    HW225026   2.690   3.614   0.854
 8043SOL     OW25027   2.558   0.121   1.362
 8043SOL    HW125028   2.549   0.021   1.368
 8043SOL    HW225029   2.622   0.152   1.433
 8044SOL     OW25030   3.236   4.212   1.691
 8044SOL    HW125031   3.232   4.149   1.769
 8044SOL    HW225032   3.330   4.246   1.681
 8045SOL     OW25033   6.129   2.953   3.764
 8045SOL    HW125034   6.141   2.987   3.858
 8045SOL    HW225035   6.181   2.868   3.752
 8046SOL     OW25036   0.122   5.177   6.016
 8046SOL    HW125037   0.142   5.095   6.071
 8046SOL    HW225038   0.043   5.224   6.055
 8047SOL     OW25039   2.865   6.112   4.196
 8047SOL    HW125040   2.899   6.120   4.102
 8047SOL    HW225041   2.780   6.058   4.196
 8048SOL     OW25042   6.702   0.864   5.970
 8048SOL    HW125043   6.728   0.769   5.991
 8048SOL    HW225044   6.641   0.865   5.891
 8049SOL     OW25045   1.512   5.932   0.403
 8049SOL    HW125046   1.605   5.950   0.432
 8049SOL    HW225047   1.463   5.882   0.475
 8050SOL     OW25048   0.994   3.108   0.971
 8050SOL    HW125049   0.989   3.159   0.886
 8050SOL    HW225050   0.997   3.010   0.952
 8051SOL     OW25051   3.590   1.631   4.004
 8051SOL    HW125052   3.565   1.688   3.925
 8051SOL    HW225053   3.513   1.628   4.068
 8052SOL     OW25054   3.322   2.101   2.940
 8052SOL    HW125055   3.266   2.125   3.019
 8052SOL    HW225056   3.287   2.148   2.859
 8053SOL     OW25057   3.868   3.372   1.904
 8053SOL    HW125058   3.916   3.458   1.886
 8053SOL    HW225059   3.913   3.324   1.979
 8054SOL     OW25060   4.384   5.882   4.154
 8054SOL    HW125061   4.356   5.814   4.086
 8054SOL    HW225062   4.472   5.922   4.128
 8055SOL     OW25063   1.154   6.825   5.128
 8055SOL    HW125064   1.186   6.905   5.077
 8055SOL    HW225065   1.231   6.763   5.144
 8056SOL     OW25066   4.178   1.529   3.148
 8056SOL    HW125067   4.238   1.471   3.093
 8056SOL    HW225068   4.110   1.572   3.088
 8057SOL     OW25069   3.776   0.256   3.700
 8057SOL    HW125070   3.833   0.227   3.623
 8057SOL    HW225071   3.710   0.325   3.668
 8058SOL     OW25072   2.241   6.853   3.357
 8058SOL    HW125073   2.173   6.913   3.399
 8058SOL    HW225074   2.323   6.905   3.336
 8059SOL     OW25075   2.711   1.518   4.177
 8059SOL    HW125076   2.687   1.582   4.251
 8059SOL    HW225077   2.792   1.552   4.130
 8060SOL     OW25078   0.668   1.973   5.145
 8060SOL    HW125079   0.703   1.932   5.229
 8060SOL    HW225080   0.726   1.945   5.068
 8061SOL     OW25081   0.286   5.765   1.735
 8061SOL    HW125082   0.275   5.759   1.834
 8061SOL    HW225083   0.244   5.850   1.702
 8062SOL     OW25084   2.124   3.573   2.237
 8062SOL    HW125085   2.143   3.667   2.263
 8062SOL    HW225086   2.162   3.555   2.146
 8063SOL     OW25087   2.657   3.327   6.907
 8063SOL    HW125088   2.674   3.343   6.809
 8063SOL    HW225089   2.639   3.415   6.952
 8064SOL     OW25090   6.039   3.093   6.943
 8064SOL    HW125091   6.030   3.001   6.906
 8064SOL    HW225092   5.958   3.114   6.998
 8065SOL     OW25093   4.433   6.943   6.258
 8065SOL    HW125094   4.355   6.996   6.292
 8065SOL    HW225095   4.419   6.921   6.162
 8066SOL     OW25096   2.599   0.398   1.769
 8066SOL    HW125097   2.694   0.409   1.738
 8066SOL    HW225098   2.549   0.340   1.704
 8067SOL     OW25099   4.911   1.941   2.086
 8067SOL    HW125100   4.914   1.988   1.998
 8067SOL    HW225101   5.004   1.926   2.120
 8068SOL     OW25102   6.750   4.542   3.851
 8068SOL    HW125103   6.655   4.516   3.839
 8068SOL    HW225104   6.804   4.461   3.875
 8069SOL     OW25105   1.322   5.927   2.304
 8069SOL    HW125106   1.378   5.952   2.383
 8069SOL    HW225107   1.319   6.003   2.240
 8070SOL     OW25108   3.567   0.129   2.327
 8070SOL    HW125109   3.550   0.098   2.234
 8070SOL    HW225110   3.666   0.138   2.342
 8071SOL     OW25111   3.889   6.479   0.492
 8071SOL    HW125112   3.927   6.560   0.537
 8071SOL    HW225113   3.830   6.507   0.417
 8072SOL     OW25114   5.433   0.891   2.343
 8072SOL    HW125115   5.526   0.902   2.309
 8072SOL    HW225116   5.371   0.948   2.289
 8073SOL     OW25117   4.343   6.581   5.789
 8073SOL    HW125118   4.372   6.636   5.867
 8073SOL    HW225119   4.275   6.631   5.736
 8074SOL     OW25120   3.089   3.781   6.909
 8074SOL    HW125121   3.109   3.743   6.999
 8074SOL    HW225122   3.146   3.737   6.840
 8075SOL     OW25123   5.863   1.527   2.682
 8075SOL    HW125124   5.893   1.480   2.599
 8075SOL    HW225125   5.893   1.623   2.678
 8076SOL     OW25126   5.197   2.599   6.262
 8076SOL    HW125127   5.187   2.680   6.319
 8076SOL    HW225128   5.245   2.528   6.314
 8077SOL     OW25129   1.454   0.523   0.376
 8077SOL    HW125130   1.474   0.446   0.437
 8077SOL    HW225131   1.513   0.600   0.400
 8078SOL     OW25132   5.800   3.216   0.472
 8078SOL    HW125133   5.819   3.135   0.418
 8078SOL    HW225134   5.769   3.290   0.412
 8079SOL     OW25135   0.826   1.621   1.685
 8079SOL    HW125136   0.782   1.632   1.775
 8079SOL    HW225137   0.843   1.524   1.669
 8080SOL     OW25138   3.622   5.390   0.458
 8080SOL    HW125139   3.538   5.337   0.466
 8080SOL    HW225140   3.632   5.423   0.364
 8081SOL     OW25141   5.990   1.157   5.580
 8081SOL    HW125142   5.971   1.133   5.484
 8081SOL    HW225143   5.943   1.092   5.640
 8082SOL     OW25144   6.165   3.386   4.164
 8082SOL    HW125145   6.252   3.419   4.203
 8082SOL    HW225146   6.090   3.439   4.202
 8083SOL     OW25147   5.626   2.330   4.366
 8083SOL    HW125148   5.691   2.365   4.433
 8083SOL    HW225149   5.647   2.234   4.347
 8084SOL     OW25150   6.719   7.008   1.160
 8084SOL    HW125151   6.754   6.966   1.076
 8084SOL    HW225152   6.747   6.953   1.239
 8085SOL     OW25153   6.608   1.802   0.857
 8085SOL    HW125154   6.677   1.859   0.902
 8085SOL    HW225155   6.616   1.708   0.889
 8086SOL     OW25156   3.202   6.284   5.961
 8086SOL    HW125157   3.270   6.288   5.888
 8086SOL    HW225158   3.235   6.221   6.032
 8087SOL     OW25159   2.558   3.045   0.971
 8087SOL    HW125160   2.654   3.019   0.972
 8087SOL    HW225161   2.533   3.083   1.060
 8088SOL     OW25162   4.581   0.467   2.386
 8088SOL    HW125163   4.544   0.526   2.315
 8088SOL    HW225164   4.507   0.418   2.432
 8089SOL     OW25165   5.795   2.920   0.633
 8089SOL    HW125166   5.804   2.864   0.716
 8089SOL    HW225167   5.740   3.001   0.652
 8090SOL     OW25168   4.396   2.352   5.005
 8090SOL    HW125169   4.306   2.373   5.042
 8090SOL    HW225170   4.390   2.269   4.949
 8091SOL     OW25171   2.946   5.116   5.826
 8091SOL    HW125172   3.038   5.121   5.788
 8091SOL    HW225173   2.914   5.208   5.850
 8092SOL     OW25174   0.038   1.964   3.707
 8092SOL    HW125175   0.062   2.030   3.779
 8092SOL    HW225176   0.111   1.896   3.700
 8093SOL     OW25177   5.642   5.611   1.070
 8093SOL    HW125178   5.644   5.618   0.970
 8093SOL    HW225179   5.577   5.539   1.096
 8094SOL     OW25180   1.340   4.123   4.222
 8094SOL    HW125181   1.266   4.161   4.167
 8094SOL    HW225182   1.302   4.079   4.303
 8095SOL     OW25183   6.068   3.582   4.738
 8095SOL    HW125184   6.088   3.519   4.813
 8095SOL    HW225185   5.973   3.611   4.744
 8096SOL     OW25186   3.636   0.338   0.543
 8096SOL    HW125187   3.632   0.370   0.448
 8096SOL    HW225188   3.646   0.416   0.604
 8097SOL     OW25189   4.287   1.148   4.715
 8097SOL    HW125190   4.348   1.143   4.637
 8097SOL    HW225191   4.318   1.084   4.786
 8098SOL     OW25192   2.821   1.103   4.320
 8098SOL    HW125193   2.879   1.082   4.399
 8098SOL    HW225194   2.782   1.194   4.330
 8099SOL     OW25195   5.087   6.514   4.910
 8099SOL    HW125196   5.140   6.534   4.992
 8099SOL    HW225197   5.015   6.448   4.932
 8100SOL     OW25198   0.613   5.969   0.859
 8100SOL    HW125199   0.636   5.931   0.769
 8100SOL    HW225200   0.581   6.063   0.847
 8101SOL     OW25201   0.730   5.324   2.683
 8101SOL    HW125202   0.681   5.388   2.742
 8101SOL    HW225203   0.801   5.372   2.631
 8102SOL     OW25204   0.346   6.979   6.389
 8102SOL    HW125205   0.422   6.929   6.348
 8102SOL    HW225206   0.260   6.935   6.362
 8103SOL     OW25207   2.607   1.783   2.490
 8103SOL    HW125208   2.695   1.737   2.478
 8103SOL    HW225209   2.584   1.788   2.587
 8104SOL     OW25210   2.688   5.974   6.217
 8104SOL    HW125211   2.663   5.941   6.308
 8104SOL    HW225212   2.776   5.935   6.189
 8105SOL     OW25213   1.934   2.584   2.763
 8105SOL    HW125214   1.967   2.636   2.684
 8105SOL    HW225215   1.895   2.646   2.830
 8106SOL     OW25216   0.377   3.937   5.196
 8106SOL    HW125217   0.365   3.995   5.277
 8106SOL    HW225218   0.460   3.883   5.206
 8107SOL     OW25219   1.239   5.834   6.246
 8107SOL    HW125220   1.248   5.878   6.157
 8107SOL    HW225221   1.307   5.760   6.253
 8108SOL     OW25222   2.033   3.420   5.030
 8108SOL    HW125223   2.052   3.518   5.016
 8108SOL    HW225224   2.119   3.373   5.049
 8109SOL     OW25225   1.157   5.554   5.244
 8109SOL    HW125226   1.233   5.620   5.244
 8109SOL    HW225227   1.191   5.464   5.271
 8110SOL     OW25228   1.169   4.551   0.871
 8110SOL    HW125229   1.159   4.466   0.922
 8110SOL    HW225230   1.097   4.557   0.802
 8111SOL     OW25231   2.976   5.770   4.324
 8111SOL    HW125232   3.051   5.828   4.292
 8111SOL    HW225233   2.901   5.773   4.257
 8112SOL     OW25234   3.950   0.938   4.882
 8112SOL    HW125235   4.038   0.985   4.870
 8112SOL    HW225236   3.949   0.891   4.970
 8113SOL     OW25237   4.007   2.836   6.208
 8113SOL    HW125238   3.971   2.829   6.115
 8113SOL    HW225239   4.106   2.824   6.206
 8114SOL     OW25240   3.274   3.714   1.658
 8114SOL    HW125241   3.218   3.754   1.731
 8114SOL    HW225242   3.356   3.673   1.697
 8115SOL     OW25243   3.905   2.277   0.718
 8115SOL    HW125244   3.818   2.326   0.718
 8115SOL    HW225245   3.888   2.180   0.735
 8116SOL     OW25246   4.906   0.992   5.804
 8116SOL    HW125247   4.962   1.056   5.752
 8116SOL    HW225248   4.869   0.922   5.743
 8117SOL     OW25249   2.500   1.876   6.149
 8117SOL    HW125250   2.504   1.969   6.114
 8117SOL    HW225251   2.405   1.846   6.155
 8118SOL     OW25252   1.252   2.475   4.076
 8118SOL    HW125253   1.294   2.385   4.067
 8118SOL    HW225254   1.184   2.487   4.003
 8119SOL     OW25255   1.273   5.965   1.694
 8119SOL    HW125256   1.252   6.043   1.635
 8119SOL    HW225257   1.372   5.956   1.703
 8120SOL     OW25258   4.714   4.191   1.797
 8120SOL    HW125259   4.629   4.241   1.815
 8120SOL    HW225260   4.706   4.140   1.712
 8121SOL     OW25261   6.487   6.722   3.441
 8121SOL    HW125262   6.495   6.787   3.366
 8121SOL    HW225263   6.493   6.771   3.529
 8122SOL     OW25264   0.800   5.932   1.300
 8122SOL    HW125265   0.700   5.926   1.292
 8122SOL    HW225266   0.839   5.956   1.211
 8123SOL     OW25267   0.650   5.645   0.323
 8123SOL    HW125268   0.615   5.684   0.238
 8123SOL    HW225269   0.579   5.646   0.393
 8124SOL     OW25270   0.810   6.060   3.331
 8124SOL    HW125271   0.720   6.101   3.318
 8124SOL    HW225272   0.876   6.130   3.356
 8125SOL     OW25273   5.885   5.549   2.689
 8125SOL    HW125274   5.904   5.537   2.786
 8125SOL    HW225275   5.966   5.523   2.636
 8126SOL     OW25276   6.717   4.664   2.494
 8126SOL    HW125277   6.746   4.725   2.568
 8126SOL    HW225278   6.669   4.717   2.424
 8127SOL     OW25279   3.448   4.561   1.076
 8127SOL    HW125280   3.484   4.583   0.985
 8127SOL    HW225281   3.377   4.627   1.100
 8128SOL     OW25282   3.620   2.130   5.402
 8128SOL    HW125283   3.528   2.123   5.364
 8128SOL    HW225284   3.655   2.223   5.390
 8129SOL     OW25285   4.869   6.067   6.978
 8129SOL    HW125286   4.789   6.055   0.018
 8129SOL    HW225287   4.842   6.048   6.883
 8130SOL     OW25288   1.018   6.909   0.636
 8130SOL    HW125289   1.056   6.941   0.549
 8130SOL    HW225290   1.092   6.874   0.693
 8131SOL     OW25291   1.436   1.104   0.483
 8131SOL    HW125292   1.523   1.085   0.528
 8131SOL    HW225293   1.444   1.083   0.385
 8132SOL     OW25294   6.202   4.556   2.870
 8132SOL    HW125295   6.296   4.564   2.835
 8132SOL    HW225296   6.202   4.499   2.952
 8133SOL     OW25297   0.551   5.624   2.047
 8133SOL    HW125298   0.528   5.717   2.019
 8133SOL    HW225299   0.627   5.590   1.992
 8134SOL     OW25300   1.990   2.684   2.108
 8134SOL    HW125301   1.991   2.758   2.040
 8134SOL    HW225302   1.906   2.688   2.161
 8135SOL     OW25303   3.916   6.072   2.508
 8135SOL    HW125304   4.014   6.073   2.526
 8135SOL    HW225305   3.888   5.981   2.478
 8136SOL     OW25306   2.852   6.247   1.804
 8136SOL    HW125307   2.902   6.167   1.836
 8136SOL    HW225308   2.786   6.219   1.734
 8137SOL     OW25309   3.340   3.294   4.927
 8137SOL    HW125310   3.425   3.243   4.938
 8137SOL    HW225311   3.285   3.286   5.010
 8138SOL     OW25312   5.212   0.594   3.960
 8138SOL    HW125313   5.301   0.601   4.004
 8138SOL    HW225314   5.174   0.685   3.946
 8139SOL     OW25315   1.842   3.126   4.640
 8139SOL    HW125316   1.844   3.183   4.722
 8139SOL    HW225317   1.877   3.178   4.563
 8140SOL     OW25318   4.522   1.152   1.044
 8140SOL    HW125319   4.449   1.141   0.976
 8140SOL    HW225320   4.491   1.113   1.131
 8141SOL     OW25321   6.087   0.228   5.387
 8141SOL    HW125322   6.042   0.313   5.415
 8141SOL    HW225323   6.180   0.225   5.424
 8142SOL     OW25324   2.413   5.293   0.662
 8142SOL    HW125325   2.495   5.344   0.688
 8142SOL    HW225326   2.395   5.307   0.565
 8143SOL     OW25327   5.737   4.648   0.774
 8143SOL    HW125328   5.732   4.698   0.860
 8143SOL    HW225329   5.722   4.711   0.698
 8144SOL     OW25330   0.703   5.824   0.621
 8144SOL    HW125331   0.781   5.785   0.670
 8144SOL    HW225332   0.642   5.750   0.592
 8145SOL     OW25333   5.441   5.667   0.047
 8145SOL    HW125334   5.525   5.672   0.100
 8145SOL    HW225335   5.396   5.756   0.046
 8146SOL     OW25336   6.765   6.689   4.750
 8146SOL    HW125337   6.820   6.754   4.803
 8146SOL    HW225338   6.669   6.695   4.780
 8147SOL     OW25339   1.724   0.762   5.975
 8147SOL    HW125340   1.722   0.862   5.980
 8147SOL    HW225341   1.686   0.733   5.887
 8148SOL     OW25342   4.682   4.109   0.515
 8148SOL    HW125343   4.618   4.137   0.587
 8148SOL    HW225344   4.682   4.179   0.443
 8149SOL     OW25345   0.634   0.191   5.491
 8149SOL    HW125346   0.729   0.161   5.500
 8149SOL    HW225347   0.631   0.291   5.488
 8150SOL     OW25348   0.209   3.735   0.644
 8150SOL    HW125349   0.228   3.680   0.725
 8150SOL    HW225350   0.112   3.758   0.641
 8151SOL     OW25351   6.651   5.844   3.061
 8151SOL    HW125352   6.710   5.829   2.982
 8151SOL    HW225353   6.666   5.771   3.129
 8152SOL     OW25354   5.062   1.341   2.584
 8152SOL    HW125355   5.124   1.405   2.540
 8152SOL    HW225356   5.023   1.383   2.666
 8153SOL     OW25357   0.128   1.805   2.285
 8153SOL    HW125358   0.163   1.887   2.330
 8153SOL    HW225359   0.095   1.827   2.194
 8154SOL     OW25360   1.662   1.182   2.693
 8154SOL    HW125361   1.660   1.092   2.650
 8154SOL    HW225362   1.587   1.189   2.760
 8155SOL     OW25363   1.771   4.805   3.579
 8155SOL    HW125364   1.710   4.857   3.520
 8155SOL    HW225365   1.796   4.719   3.534
 8156SOL     OW25366   0.606   4.266   0.629
 8156SOL    HW125367   0.514   4.228   0.623
 8156SOL    HW225368   0.645   4.273   0.537
 8157SOL     OW25369   6.757   4.380   4.613
 8157SOL    HW125370   6.802   4.342   4.532
 8157SOL    HW225371   6.728   4.305   4.673
 8158SOL     OW25372   5.936   5.665   6.763
 8158SOL    HW125373   5.984   5.621   6.687
 8158SOL    HW225374   5.856   5.713   6.729
 8159SOL     OW25375   2.523   0.186   5.188
 8159SOL    HW125376   2.462   0.263   5.174
 8159SOL    HW225377   2.617   0.214   5.170
 8160SOL     OW25378   5.547   1.577   1.921
 8160SOL    HW125379   5.597   1.594   2.006
 8160SOL    HW225380   5.450   1.597   1.935
 8161SOL     OW25381   6.066   2.546   1.765
 8161SOL    HW125382   6.062   2.540   1.865
 8161SOL    HW225383   6.113   2.465   1.729
 8162SOL     OW25384   0.639   5.545   5.059
 8162SOL    HW125385   0.572   5.572   5.128
 8162SOL    HW225386   0.730   5.547   5.099
 8163SOL     OW25387   4.534   4.731   5.686
 8163SOL    HW125388   4.476   4.678   5.747
 8163SOL    HW225389   4.492   4.735   5.595
 8164SOL     OW25390   5.807   1.729   0.513
 8164SOL    HW125391   5.737   1.659   0.499
 8164SOL    HW225392   5.792   1.805   0.449
 8165SOL     OW25393   0.598   1.666   6.439
 8165SOL    HW125394   0.608   1.642   6.535
 8165SOL    HW225395   0.601   1.583   6.384
 8166SOL     OW25396   1.783   2.058   5.403
 8166SOL    HW125397   1.708   2.121   5.421
 8166SOL    HW225398   1.851   2.066   5.475
 8167SOL     OW25399   2.010   2.974   3.691
 8167SOL    HW125400   1.988   3.070   3.712
 8167SOL    HW225401   2.110   2.962   3.693
 8168SOL     OW25402   1.865   0.123   2.524
 8168SOL    HW125403   1.791   0.058   2.541
 8168SOL    HW225404   1.899   0.158   2.611
 8169SOL     OW25405   4.931   3.363   0.736
 8169SOL    HW125406   5.006   3.422   0.706
 8169SOL    HW225407   4.954   3.323   0.824
 8170SOL     OW25408   6.958   5.239   2.369
 8170SOL    HW125409   7.009   5.189   2.299
 8170SOL    HW225410   7.004   5.230   2.457
 8171SOL     OW25411   2.634   1.482   1.044
 8171SOL    HW125412   2.631   1.542   1.124
 8171SOL    HW225413   2.641   1.387   1.073
 8172SOL     OW25414   1.600   2.643   0.850
 8172SOL    HW125415   1.667   2.608   0.916
 8172SOL    HW225416   1.526   2.577   0.839
 8173SOL     OW25417   5.667   0.727   1.900
 8173SOL    HW125418   5.621   0.722   1.989
 8173SOL    HW225419   5.764   0.747   1.913
 8174SOL     OW25420   2.880   6.241   3.667
 8174SOL    HW125421   2.875   6.168   3.599
 8174SOL    HW225422   2.886   6.329   3.620
 8175SOL     OW25423   1.029   2.100   6.044
 8175SOL    HW125424   0.996   2.007   6.060
 8175SOL    HW225425   0.969   2.164   6.092
 8176SOL     OW25426   2.822   4.368   0.313
 8176SOL    HW125427   2.788   4.460   0.336
 8176SOL    HW225428   2.831   4.315   0.397
 8177SOL     OW25429   3.114   1.344   4.158
 8177SOL    HW125430   3.182   1.359   4.086
 8177SOL    HW225431   3.022   1.344   4.118
 8178SOL     OW25432   2.946   6.310   1.051
 8178SOL    HW125433   2.907   6.234   1.102
 8178SOL    HW225434   2.997   6.370   1.113
 8179SOL     OW25435   5.583   0.833   3.677
 8179SOL    HW125436   5.543   0.745   3.653
 8179SOL    HW225437   5.510   0.900   3.693
 8180SOL     OW25438   5.003   5.862   0.310
 8180SOL    HW125439   5.051   5.883   0.225
 8180SOL    HW225440   5.055   5.793   0.360
 8181SOL     OW25441   6.930   0.359   6.787
 8181SOL    HW125442   6.956   0.452   6.762
 8181SOL    HW225443   6.868   0.362   6.866
 8182SOL     OW25444   3.146   3.710   4.028
 8182SOL    HW125445   3.163   3.752   4.117
 8182SOL    HW225446   3.209   3.634   4.015
 8183SOL     OW25447   6.860   0.627   5.695
 8183SOL    HW125448   6.926   0.563   5.657
 8183SOL    HW225449   6.828   0.690   5.624
 8184SOL     OW25450   6.944   5.909   6.253
 8184SOL    HW125451   6.896   5.973   6.193
 8184SOL    HW225452   6.895   5.901   6.340
 8185SOL     OW25453   0.054   6.057   5.625
 8185SOL    HW125454   0.094   6.140   5.663
 8185SOL    HW225455   0.024   6.074   5.531
 8186SOL     OW25456   1.753   5.200   6.781
 8186SOL    HW125457   1.783   5.272   6.717
 8186SOL    HW225458   1.811   5.201   6.862
 8187SOL     OW25459   1.298   0.172   5.373
 8187SOL    HW125460   1.277   0.239   5.444
 8187SOL    HW225461   1.275   0.209   5.283
 8188SOL     OW25462   1.700   2.988   2.773
 8188SOL    HW125463   1.724   2.963   2.679
 8188SOL    HW225464   1.603   2.970   2.789
 8189SOL     OW25465   5.876   5.224   3.623
 8189SOL    HW125466   5.949   5.283   3.657
 8189SOL    HW225467   5.823   5.189   3.699
 8190SOL     OW25468   6.456   4.225   3.013
 8190SOL    HW125469   6.408   4.311   3.029
 8190SOL    HW225470   6.533   4.217   3.076
 8191SOL     OW25471   4.326   5.257   1.399
 8191SOL    HW125472   4.271   5.196   1.456
 8191SOL    HW225473   4.372   5.324   1.457
 8192SOL     OW25474   0.510   6.137   3.358
 8192SOL    HW125475   0.541   6.231   3.345
 8192SOL    HW225476   0.449   6.112   3.283
 8193SOL     OW25477   0.928   4.776   4.157
 8193SOL    HW125478   0.869   4.834   4.102
 8193SOL    HW225479   1.022   4.782   4.124
 8194SOL     OW25480   4.550   0.097   1.712
 8194SOL    HW125481   4.480   0.055   1.654
 8194SOL    HW225482   4.506   0.142   1.790
 8195SOL     OW25483   6.376   0.333   4.084
 8195SOL    HW125484   6.385   0.238   4.057
 8195SOL    HW225485   6.285   0.349   4.123
 8196SOL     OW25486   4.660   1.119   1.587
 8196SOL    HW125487   4.737   1.081   1.535
 8196SOL    HW225488   4.687   1.206   1.627
 8197SOL     OW25489   3.544   2.043   3.075
 8197SOL    HW125490   3.460   2.046   3.021
 8197SOL    HW225491   3.622   2.057   3.014
 8198SOL     OW25492   1.524   5.897   1.458
 8198SOL    HW125493   1.545   5.970   1.393
 8198SOL    HW225494   1.426   5.877   1.454
 8199SOL     OW25495   5.724   2.616   0.816
 8199SOL    HW125496   5.786   2.568   0.754
 8199SOL    HW225497   5.762   2.707   0.836
 8200SOL     OW25498   4.535   3.140   0.963
 8200SOL    HW125499   4.463   3.191   0.917
 8200SOL    HW225500   4.601   3.107   0.896
 8201SOL     OW25501   6.276   6.958   5.571
 8201SOL    HW125502   6.280   6.965   5.471
 8201SOL    HW225503   6.367   6.937   5.606
 8202SOL     OW25504   0.755   6.361   2.137
 8202SOL    HW125505   0.714   6.270   2.135
 8202SOL    HW225506   0.687   6.429   2.107
 8203SOL     OW25507   1.587   3.601   1.116
 8203SOL    HW125508   1.621   3.690   1.144
 8203SOL    HW225509   1.665   3.542   1.091
 8204SOL     OW25510   2.770   2.689   0.736
 8204SOL    HW125511   2.740   2.755   0.666
 8204SOL    HW225512   2.868   2.697   0.750
 8205SOL     OW25513   1.041   3.978   6.837
 8205SOL    HW125514   1.088   4.040   6.900
 8205SOL    HW225515   1.094   3.971   6.752
 8206SOL     OW25516   3.088   0.766   1.179
 8206SOL    HW125517   3.160   0.698   1.167
 8206SOL    HW225518   3.091   0.802   1.272
 8207SOL     OW25519   3.820   4.045   4.407
 8207SOL    HW125520   3.902   3.992   4.385
 8207SOL    HW225521   3.793   4.097   4.326
 8208SOL     OW25522   1.932   0.816   0.304
 8208SOL    HW125523   1.958   0.905   0.269
 8208SOL    HW225524   1.958   0.745   0.238
 8209SOL     OW25525   6.177   1.559   4.865
 8209SOL    HW125526   6.091   1.508   4.874
 8209SOL    HW225527   6.241   1.507   4.810
 8210SOL     OW25528   1.862   2.634   6.796
 8210SOL    HW125529   1.951   2.636   6.751
 8210SOL    HW225530   1.875   2.622   6.894
 8211SOL     OW25531   3.835   4.896   1.504
 8211SOL    HW125532   3.816   4.854   1.592
 8211SOL    HW225533   3.784   4.982   1.497
 8212SOL     OW25534   1.805   2.962   3.203
 8212SOL    HW125535   1.857   2.972   3.287
 8212SOL    HW225536   1.863   2.920   3.132
 8213SOL     OW25537   6.533   5.029   1.179
 8213SOL    HW125538   6.534   5.115   1.229
 8213SOL    HW225539   6.566   4.955   1.238
 8214SOL     OW25540   5.473   3.780   3.769
 8214SOL    HW125541   5.564   3.800   3.804
 8214SOL    HW225542   5.467   3.683   3.745
 8215SOL     OW25543   3.520   4.963   3.010
 8215SOL    HW125544   3.430   4.919   3.006
 8215SOL    HW225545   3.523   5.037   2.942
 8216SOL     OW25546   5.471   3.979   4.082
 8216SOL    HW125547   5.372   3.987   4.071
 8216SOL    HW225548   5.493   3.890   4.123
 8217SOL     OW25549   2.220   5.872   0.640
 8217SOL    HW125550   2.250   5.785   0.601
 8217SOL    HW225551   2.225   5.943   0.570
 8218SOL     OW25552   6.347   2.323   6.966
 8218SOL    HW125553   6.380   2.386   0.016
 8218SOL    HW225554   6.382   2.231   6.983
 8219SOL     OW25555   5.765   1.746   6.811
 8219SOL    HW125556   5.718   1.731   6.724
 8219SOL    HW225557   5.724   1.823   6.859
 8220SOL     OW25558   4.179   3.771   1.693
 8220SOL    HW125559   4.122   3.691   1.710
 8220SOL    HW225560   4.155   3.844   1.757
 8221SOL     OW25561   5.063   5.647   2.992
 8221SOL    HW125562   5.005   5.708   2.939
 8221SOL    HW225563   5.034   5.552   2.978
 8222SOL     OW25564   6.399   2.165   1.821
 8222SOL    HW125565   6.471   2.181   1.753
 8222SOL    HW225566   6.441   2.145   1.910
 8223SOL     OW25567   0.385   5.285   5.968
 8223SOL    HW125568   0.292   5.250   5.978
 8223SOL    HW225569   0.447   5.232   6.026
 8224SOL     OW25570   1.611   3.182   3.591
 8224SOL    HW125571   1.692   3.241   3.589
 8224SOL    HW225572   1.530   3.236   3.570
 8225SOL     OW25573   5.138   1.569   0.539
 8225SOL    HW125574   5.224   1.586   0.588
 8225SOL    HW225575   5.061   1.579   0.602
 8226SOL     OW25576   4.358   0.331   0.300
 8226SOL    HW125577   4.447   0.375   0.301
 8226SOL    HW225578   4.370   0.232   0.310
 8227SOL     OW25579   6.094   3.476   2.750
 8227SOL    HW125580   6.009   3.476   2.803
 8227SOL    HW225581   6.120   3.570   2.729
 8228SOL     OW25582   6.991   2.898   4.743
 8228SOL    HW125583   0.041   2.917   4.812
 8228SOL    HW225584   0.015   2.873   4.657
 8229SOL     OW25585   3.756   5.498   0.829
 8229SOL    HW125586   3.791   5.490   0.736
 8229SOL    HW225587   3.666   5.456   0.835
 8230SOL     OW25588   5.218   0.093   4.028
 8230SOL    HW125589   5.310   0.085   4.066
 8230SOL    HW225590   5.155   0.128   4.097
 8231SOL     OW25591   4.474   6.096   0.754
 8231SOL    HW125592   4.395   6.133   0.706
 8231SOL    HW225593   4.455   6.090   0.852
 8232SOL     OW25594   2.798   2.081   6.543
 8232SOL    HW125595   2.857   2.026   6.602
 8232SOL    HW225596   2.718   2.028   6.516
 8233SOL     OW25597   0.432   5.576   6.742
 8233SOL    HW125598   0.522   5.617   6.748
 8233SOL    HW225599   0.364   5.648   6.725
 8234SOL     OW25600   3.622   2.453   6.891
 8234SOL    HW125601   3.709   2.437   6.844
 8234SOL    HW225602   3.637   2.512   6.970
 8235SOL     OW25603   4.587   2.269   0.198
 8235SOL    HW125604   4.542   2.348   0.156
 8235SOL    HW225605   4.674   2.252   0.151
 8236SOL     OW25606   5.779   2.672   1.194
 8236SOL    HW125607   5.823   2.642   1.279
 8236SOL    HW225608   5.680   2.678   1.209
 8237SOL     OW25609   4.034   6.040   5.480
 8237SOL    HW125610   3.958   5.976   5.489
 8237SOL    HW225611   4.118   5.999   5.516
 8238SOL     OW25612   1.763   1.148   6.360
 8238SOL    HW125613   1.677   1.174   6.403
 8238SOL    HW225614   1.781   1.207   6.281
 8239SOL     OW25615   6.868   1.601   6.380
 8239SOL    HW125616   6.825   1.649   6.304
 8239SOL    HW225617   6.845   1.647   6.466
 8240SOL     OW25618   3.546   4.025   3.254
 8240SOL    HW125619   3.484   4.087   3.304
 8240SOL    HW225620   3.500   3.938   3.238
 8241SOL     OW25621   4.563   6.849   1.020
 8241SOL    HW125622   4.563   6.847   1.120
 8241SOL    HW225623   4.618   6.926   0.988
 8242SOL     OW25624   0.714   4.245   5.745
 8242SOL    HW125625   0.750   4.173   5.686
 8242SOL    HW225626   0.781   4.319   5.753
 8243SOL     OW25627   0.966   3.295   4.547
 8243SOL    HW125628   0.969   3.202   4.511
 8243SOL    HW225629   0.959   3.292   4.647
 8244SOL     OW25630   1.021   6.085   4.531
 8244SOL    HW125631   0.923   6.069   4.537
 8244SOL    HW225632   1.053   6.066   4.438
 8245SOL     OW25633   3.925   2.853   0.664
 8245SOL    HW125634   3.854   2.785   0.649
 8245SOL    HW225635   3.896   2.917   0.736
 8246SOL     OW25636   4.994   3.894   5.607
 8246SOL    HW125637   4.927   3.863   5.539
 8246SOL    HW225638   5.025   3.817   5.662
 8247SOL     OW25639   1.008   6.844   1.570
 8247SOL    HW125640   1.002   6.927   1.515
 8247SOL    HW225641   0.921   6.795   1.567
 8248SOL     OW25642   6.828   4.188   3.407
 8248SOL    HW125643   6.860   4.251   3.477
 8248SOL    HW225644   6.886   4.106   3.406
 8249SOL     OW25645   1.708   4.985   3.348
 8249SOL    HW125646   1.687   5.052   3.277
 8249SOL    HW225647   1.660   4.899   3.329
 8250SOL     OW25648   3.889   3.947   2.198
 8250SOL    HW125649   3.840   3.985   2.277
 8250SOL    HW225650   3.978   3.913   2.227
 8251SOL     OW25651   6.276   1.695   5.083
 8251SOL    HW125652   6.243   1.653   4.999
 8251SOL    HW225653   6.374   1.682   5.091
 8252SOL     OW25654   1.203   3.685   4.558
 8252SOL    HW125655   1.193   3.735   4.644
 8252SOL    HW225656   1.225   3.590   4.577
 8253SOL     OW25657   2.990   2.859   5.596
 8253SOL    HW125658   2.900   2.822   5.619
 8253SOL    HW225659   3.026   2.910   5.674
 8254SOL     OW25660   4.077   6.201   3.564
 8254SOL    HW125661   4.063   6.299   3.582
 8254SOL    HW225662   4.041   6.147   3.640
 8255SOL     OW25663   4.389   5.047   3.493
 8255SOL    HW125664   4.454   5.057   3.417
 8255SOL    HW225665   4.305   5.096   3.471
 8256SOL     OW25666   6.737   1.973   3.699
 8256SOL    HW125667   6.784   2.038   3.640
 8256SOL    HW225668   6.718   2.016   3.788
 8257SOL     OW25669   6.580   4.288   4.042
 8257SOL    HW125670   6.495   4.341   4.040
 8257SOL    HW225671   6.562   4.199   4.084
 8258SOL     OW25672   4.598   1.798   6.996
 8258SOL    HW125673   4.522   1.794   6.931
 8258SOL    HW225674   4.575   1.862   0.049
 8259SOL     OW25675   3.727   1.636   1.929
 8259SOL    HW125676   3.719   1.565   2.000
 8259SOL    HW225677   3.726   1.726   1.971
 8260SOL     OW25678   2.822   6.322   0.490
 8260SOL    HW125679   2.897   6.360   0.435
 8260SOL    HW225680   2.842   6.227   0.512
 8261SOL     OW25681   5.600   1.236   1.305
 8261SOL    HW125682   5.518   1.223   1.250
 8261SOL    HW225683   5.672   1.176   1.272
 8262SOL     OW25684   1.045   2.355   0.622
 8262SOL    HW125685   1.079   2.362   0.716
 8262SOL    HW225686   1.104   2.406   0.561
 8263SOL     OW25687   6.221   0.894   0.281
 8263SOL    HW125688   6.305   0.901   0.336
 8263SOL    HW225689   6.167   0.977   0.293
 8264SOL     OW25690   1.958   4.578   2.606
 8264SOL    HW125691   1.983   4.495   2.556
 8264SOL    HW225692   1.864   4.604   2.583
 8265SOL     OW25693   1.978   0.933   1.569
 8265SOL    HW125694   1.884   0.956   1.542
 8265SOL    HW225695   2.036   0.927   1.488
 8266SOL     OW25696   3.515   0.450   3.138
 8266SOL    HW125697   3.429   0.475   3.093
 8266SOL    HW225698   3.590   0.458   3.073
 8267SOL     OW25699   0.445   3.329   0.941
 8267SOL    HW125700   0.502   3.247   0.951
 8267SOL    HW225701   0.381   3.335   1.017
 8268SOL     OW25702   3.298   5.971   5.887
 8268SOL    HW125703   3.225   5.981   5.820
 8268SOL    HW225704   3.386   5.989   5.843
 8269SOL     OW25705   5.855   1.712   1.387
 8269SOL    HW125706   5.925   1.705   1.458
 8269SOL    HW225707   5.816   1.804   1.389
 8270SOL     OW25708   3.381   6.232   4.062
 8270SOL    HW125709   3.397   6.261   3.967
 8270SOL    HW225710   3.406   6.135   4.071
 8271SOL     OW25711   6.752   2.175   1.717
 8271SOL    HW125712   6.835   2.185   1.662
 8271SOL    HW225713   6.745   2.080   1.750
 8272SOL     OW25714   3.507   1.097   3.672
 8272SOL    HW125715   3.596   1.139   3.688
 8272SOL    HW225716   3.459   1.148   3.599
 8273SOL     OW25717   2.264   6.703   1.129
 8273SOL    HW125718   2.273   6.667   1.222
 8273SOL    HW225719   2.342   6.763   1.109
 8274SOL     OW25720   5.324   4.872   3.445
 8274SOL    HW125721   5.243   4.879   3.504
 8274SOL    HW225722   5.401   4.839   3.499
 8275SOL     OW25723   4.943   2.440   6.567
 8275SOL    HW125724   4.992   2.368   6.517
 8275SOL    HW225725   4.865   2.400   6.614
 8276SOL     OW25726   0.461   2.288   3.017
 8276SOL    HW125727   0.388   2.308   3.082
 8276SOL    HW225728   0.421   2.264   2.928
 8277SOL     OW25729   6.492   0.275   6.780
 8277SOL    HW125730   6.428   0.246   6.851
 8277SOL    HW225731   6.448   0.341   6.719
 8278SOL     OW25732   1.864   2.579   0.359
 8278SOL    HW125733   1.935   2.535   0.414
 8278SOL    HW225734   1.782   2.591   0.415
 8279SOL     OW25735   6.618   6.372   3.983
 8279SOL    HW125736   6.572   6.337   4.066
 8279SOL    HW225737   6.692   6.310   3.957
 8280SOL     OW25738   2.597   2.700   6.015
 8280SOL    HW125739   2.696   2.709   6.019
 8280SOL    HW225740   2.571   2.645   5.935
 8281SOL     OW25741   6.021   5.565   2.310
 8281SOL    HW125742   6.085   5.536   2.239
 8281SOL    HW225743   6.072   5.610   2.383
 8282SOL     OW25744   5.493   2.473   5.589
 8282SOL    HW125745   5.470   2.376   5.580
 8282SOL    HW225746   5.415   2.522   5.629
 8283SOL     OW25747   1.754   4.048   5.595
 8283SOL    HW125748   1.833   4.098   5.559
 8283SOL    HW225749   1.719   3.986   5.525
 8284SOL     OW25750   6.591   4.551   1.558
 8284SOL    HW125751   6.652   4.505   1.622
 8284SOL    HW225752   6.517   4.595   1.608
 8285SOL     OW25753   3.695   3.846   4.203
 8285SOL    HW125754   3.735   3.932   4.170
 8285SOL    HW225755   3.610   3.828   4.153
 8286SOL     OW25756   6.629   2.222   6.076
 8286SOL    HW125757   6.645   2.321   6.072
 8286SOL    HW225758   6.531   2.205   6.083
 8287SOL     OW25759   1.170   5.358   4.635
 8287SOL    HW125760   1.126   5.351   4.725
 8287SOL    HW225761   1.267   5.337   4.645
 8288SOL     OW25762   2.949   2.278   3.002
 8288SOL    HW125763   3.000   2.224   2.936
 8288SOL    HW225764   2.986   2.262   3.094
 8289SOL     OW25765   0.278   6.131   6.990
 8289SOL    HW125766   0.359   6.182   7.018
 8289SOL    HW225767   0.197   6.171   0.014
 8290SOL     OW25768   6.711   2.737   0.583
 8290SOL    HW125769   6.786   2.706   0.641
 8290SOL    HW225770   6.695   2.835   0.597
 8291SOL     OW25771   4.576   0.164   1.051
 8291SOL    HW125772   4.583   0.255   1.091
 8291SOL    HW225773   4.662   0.140   1.007
 8292SOL     OW25774   3.423   6.748   6.615
 8292SOL    HW125775   3.400   6.707   6.703
 8292SOL    HW225776   3.514   6.790   6.620
 8293SOL     OW25777   5.065   5.733   5.055
 8293SOL    HW125778   5.053   5.828   5.028
 8293SOL    HW225779   5.143   5.693   5.007
 8294SOL     OW25780   5.496   2.593   0.474
 8294SOL    HW125781   5.400   2.616   0.455
 8294SOL    HW225782   5.504   2.561   0.568
 8295SOL     OW25783   5.292   3.461   0.503
 8295SOL    HW125784   5.385   3.435   0.527
 8295SOL    HW225785   5.283   3.465   0.404
 8296SOL     OW25786   1.557   5.755   0.180
 8296SOL    HW125787   1.549   5.820   0.255
 8296SOL    HW225788   1.651   5.721   0.175
 8297SOL     OW25789   0.596   2.685   2.880
 8297SOL    HW125790   0.507   2.639   2.885
 8297SOL    HW225791   0.666   2.619   2.852
 8298SOL     OW25792   4.453   1.466   1.521
 8298SOL    HW125793   4.552   1.473   1.534
 8298SOL    HW225794   4.406   1.492   1.605
 8299SOL     OW25795   6.537   2.300   1.619
 8299SOL    HW125796   6.552   2.340   1.529
 8299SOL    HW225797   6.623   2.299   1.670
 8300SOL     OW25798   0.547   4.546   3.449
 8300SOL    HW125799   0.593   4.458   3.456
 8300SOL    HW225800   0.478   4.554   3.521
 8301SOL     OW25801   3.651   3.191   6.805
 8301SOL    HW125802   3.567   3.138   6.811
 8301SOL    HW225803   3.699   3.189   6.893
 8302SOL     OW25804   5.624   5.827   6.354
 8302SOL    HW125805   5.593   5.739   6.390
 8302SOL    HW225806   5.655   5.816   6.259
 8303SOL     OW25807   0.311   0.798   5.057
 8303SOL    HW125808   0.261   0.867   5.108
 8303SOL    HW225809   0.321   0.826   4.962
 8304SOL     OW25810   0.465   3.579   6.682
 8304SOL    HW125811   0.530   3.631   6.738
 8304SOL    HW225812   0.438   3.635   6.603
 8305SOL     OW25813   3.086   6.255   3.269
 8305SOL    HW125814   3.101   6.340   3.320
 8305SOL    HW225815   3.111   6.269   3.173
 8306SOL     OW25816   0.994   3.334   4.083
 8306SOL    HW125817   1.023   3.349   4.177
 8306SOL    HW225818   0.982   3.422   4.037
 8307SOL     OW25819   2.918   5.789   1.465
 8307SOL    HW125820   2.971   5.706   1.449
 8307SOL    HW225821   2.855   5.773   1.541
 8308SOL     OW25822   3.861   6.661   2.711
 8308SOL    HW125823   3.837   6.566   2.730
 8308SOL    HW225824   3.916   6.697   2.787
 8309SOL     OW25825   4.918   5.907   2.238
 8309SOL    HW125826   4.847   5.948   2.295
 8309SOL    HW225827   4.965   5.979   2.186
 8310SOL     OW25828   6.955   4.255   0.229
 8310SOL    HW125829   6.982   4.290   0.140
 8310SOL    HW225830   6.938   4.157   0.223
 8311SOL     OW25831   6.686   0.405   0.626
 8311SOL    HW125832   6.629   0.351   0.688
 8311SOL    HW225833   6.701   0.354   0.542
 8312SOL     OW25834   5.606   6.726   1.544
 8312SOL    HW125835   5.658   6.661   1.600
 8312SOL    HW225836   5.574   6.801   1.602
 8313SOL     OW25837   3.640   0.832   2.877
 8313SOL    HW125838   3.737   0.850   2.891
 8313SOL    HW225839   3.597   0.912   2.836
 8314SOL     OW25840   6.446   6.887   3.220
 8314SOL    HW125841   6.403   6.972   3.248
 8314SOL    HW225842   6.520   6.906   3.155
 8315SOL     OW25843   4.594   4.210   6.500
 8315SOL    HW125844   4.616   4.275   6.428
 8315SOL    HW225845   4.597   4.256   6.589
 8316SOL     OW25846   2.247   5.009   6.499
 8316SOL    HW125847   2.178   5.081   6.491
 8316SOL    HW225848   2.333   5.048   6.532
 8317SOL     OW25849   2.027   4.195   2.124
 8317SOL    HW125850   2.121   4.223   2.105
 8317SOL    HW225851   1.965   4.241   2.060
 8318SOL     OW25852   3.674   1.278   5.582
 8318SOL    HW125853   3.642   1.310   5.493
 8318SOL    HW225854   3.717   1.354   5.631
 8319SOL     OW25855   3.507   0.817   4.645
 8319SOL    HW125856   3.508   0.725   4.605
 8319SOL    HW225857   3.588   0.830   4.702
 8320SOL     OW25858   3.507   4.437   1.720
 8320SOL    HW125859   3.572   4.361   1.715
 8320SOL    HW225860   3.554   4.518   1.756
 8321SOL     OW25861   0.571   0.974   1.403
 8321SOL    HW125862   0.543   1.050   1.344
 8321SOL    HW225863   0.570   1.003   1.499
 8322SOL     OW25864   6.159   6.756   0.047
 8322SOL    HW125865   6.064   6.762   0.017
 8322SOL    HW225866   6.162   6.746   0.147
 8323SOL     OW25867   1.412   1.901   1.535
 8323SOL    HW125868   1.399   1.987   1.485
 8323SOL    HW225869   1.446   1.920   1.627
 8324SOL     OW25870   6.722   0.798   1.980
 8324SOL    HW125871   6.812   0.767   2.010
 8324SOL    HW225872   6.732   0.883   1.928
 8325SOL     OW25873   3.577   3.319   3.950
 8325SOL    HW125874   3.665   3.302   3.906
 8325SOL    HW225875   3.504   3.317   3.881
 8326SOL     OW25876   3.841   3.216   5.590
 8326SOL    HW125877   3.775   3.142   5.604
 8326SOL    HW225878   3.857   3.228   5.492
 8327SOL     OW25879   5.293   2.130   5.758
 8327SOL    HW125880   5.207   2.173   5.730
 8327SOL    HW225881   5.328   2.176   5.840
 8328SOL     OW25882   2.683   2.424   5.282
 8328SOL    HW125883   2.718   2.454   5.371
 8328SOL    HW225884   2.606   2.362   5.296
 8329SOL     OW25885   0.104   3.143   5.238
 8329SOL    HW125886   0.139   3.139   5.145
 8329SOL    HW225887   0.168   3.193   5.297
 8330SOL     OW25888   2.789   6.512   6.727
 8330SOL    HW125889   2.758   6.416   6.729
 8330SOL    HW225890   2.787   6.550   6.819
 8331SOL     OW25891   2.623   0.099   0.463
 8331SOL    HW125892   2.705   0.117   0.407
 8331SOL    HW225893   2.576   0.184   0.482
 8332SOL     OW25894   5.086   5.650   2.637
 8332SOL    HW125895   5.172   5.631   2.686
 8332SOL    HW225896   5.032   5.717   2.688
 8333SOL     OW25897   0.821   5.969   6.258
 8333SOL    HW125898   0.762   5.951   6.336
 8333SOL    HW225899   0.913   5.990   6.290
 8334SOL     OW25900   6.147   1.554   3.609
 8334SOL    HW125901   6.173   1.507   3.694
 8334SOL    HW225902   6.224   1.609   3.577
 8335SOL     OW25903   5.286   6.734   5.769
 8335SOL    HW125904   5.261   6.642   5.740
 8335SOL    HW225905   5.209   6.796   5.756
 8336SOL     OW25906   0.621   1.907   2.274
 8336SOL    HW125907   0.694   1.976   2.280
 8336SOL    HW225908   0.569   1.907   2.359
 8337SOL     OW25909   0.486   6.581   2.675
 8337SOL    HW125910   0.407   6.524   2.701
 8337SOL    HW225911   0.539   6.533   2.605
 8338SOL     OW25912   1.701   4.725   0.816
 8338SOL    HW125913   1.788   4.716   0.864
 8338SOL    HW225914   1.691   4.819   0.782
 8339SOL     OW25915   5.491   1.394   2.807
 8339SOL    HW125916   5.543   1.321   2.761
 8339SOL    HW225917   5.554   1.465   2.839
 8340SOL     OW25918   5.203   3.368   0.243
 8340SOL    HW125919   5.131   3.437   0.252
 8340SOL    HW225920   5.199   3.327   0.152
 8341SOL     OW25921   2.093   6.343   0.981
 8341SOL    HW125922   2.111   6.294   0.896
 8341SOL    HW225923   2.013   6.403   0.969
 8342SOL     OW25924   4.181   0.883   0.685
 8342SOL    HW125925   4.097   0.933   0.665
 8342SOL    HW225926   4.229   0.926   0.762
 8343SOL     OW25927   1.725   5.454   6.131
 8343SOL    HW125928   1.727   5.529   6.065
 8343SOL    HW225929   1.722   5.366   6.082
 8344SOL     OW25930   3.818   6.408   5.534
 8344SOL    HW125931   3.907   6.377   5.499
 8344SOL    HW225932   3.764   6.447   5.460
 8345SOL     OW25933   6.277   1.279   2.511
 8345SOL    HW125934   6.277   1.377   2.531
 8345SOL    HW225935   6.273   1.227   2.596
 8346SOL     OW25936   3.084   5.616   1.749
 8346SOL    HW125937   3.153   5.585   1.814
 8346SOL    HW225938   3.023   5.540   1.725
 8347SOL     OW25939   3.542   5.916   4.721
 8347SOL    HW125940   3.602   5.844   4.684
 8347SOL    HW225941   3.449   5.902   4.688
 8348SOL     OW25942   1.910   0.417   0.124
 8348SOL    HW125943   1.906   0.334   0.068
 8348SOL    HW225944   1.820   0.461   0.125
 8349SOL     OW25945   5.572   5.041   1.623
 8349SOL    HW125946   5.509   5.116   1.642
 8349SOL    HW225947   5.654   5.052   1.678
 8350SOL     OW25948   6.051   0.890   4.569
 8350SOL    HW125949   5.958   0.858   4.588
 8350SOL    HW225950   6.114   0.812   4.569
 8351SOL     OW25951   3.360   5.883   2.898
 8351SOL    HW125952   3.448   5.886   2.850
 8351SOL    HW225953   3.332   5.788   2.909
 8352SOL     OW25954   0.367   6.632   1.778
 8352SOL    HW125955   0.371   6.706   1.844
 8352SOL    HW225956   0.350   6.669   1.686
 8353SOL     OW25957   0.222   3.478   2.189
 8353SOL    HW125958   0.264   3.544   2.127
 8353SOL    HW225959   0.291   3.414   2.222
 8354SOL     OW25960   2.497   0.760   6.971
 8354SOL    HW125961   2.582   0.812   6.983
 8354SOL    HW225962   2.477   0.752   6.873
 8355SOL     OW25963   3.153   1.017   0.088
 8355SOL    HW125964   3.119   1.000   7.015
 8355SOL    HW225965   3.141   0.934   0.142
 8356SOL     OW25966   2.440   5.337   7.003
 8356SOL    HW125967   2.342   5.330   6.982
 8356SOL    HW225968   2.451   5.378   0.073
 8357SOL     OW25969   4.885   5.378   4.206
 8357SOL    HW125970   4.907   5.424   4.119
 8357SOL    HW225971   4.789   5.350   4.205
 8358SOL     OW25972   2.281   2.644   5.681
 8358SOL    HW125973   2.330   2.730   5.674
 8358SOL    HW225974   2.197   2.649   5.628
 8359SOL     OW25975   4.387   4.947   4.104
 8359SOL    HW125976   4.336   4.865   4.128
 8359SOL    HW225977   4.325   5.027   4.107
 8360SOL     OW25978   4.748   0.194   3.406
 8360SOL    HW125979   4.683   0.169   3.334
 8360SOL    HW225980   4.772   0.112   3.458
 8361SOL     OW25981   2.007   0.775   2.552
 8361SOL    HW125982   1.907   0.771   2.553
 8361SOL    HW225983   2.041   0.769   2.645
 8362SOL     OW25984   2.552   2.418   0.291
 8362SOL    HW125985   2.453   2.417   0.303
 8362SOL    HW225986   2.576   2.478   0.215
 8363SOL     OW25987   0.297   3.145   0.565
 8363SOL    HW125988   0.363   3.219   0.571
 8363SOL    HW225989   0.251   3.133   0.653
 8364SOL     OW25990   6.364   3.936   3.948
 8364SOL    HW125991   6.438   3.977   3.895
 8364SOL    HW225992   6.276   3.970   3.916
 8365SOL     OW25993   2.284   3.471   5.980
 8365SOL    HW125994   2.207   3.524   5.944
 8365SOL    HW225995   2.343   3.444   5.904
 8366SOL     OW25996   2.724   6.534   3.078
 8366SOL    HW125997   2.660   6.533   3.002
 8366SOL    HW225998   2.673   6.535   3.164
 8367SOL     OW25999   5.669   5.509   3.807
 8367SOL    HW126000   5.594   5.555   3.856
 8367SOL    HW226001   5.751   5.511   3.863
 8368SOL     OW26002   3.192   4.923   6.632
 8368SOL    HW126003   3.162   5.002   6.578
 8368SOL    HW226004   3.217   4.953   6.724
 8369SOL     OW26005   2.270   1.373   1.018
 8369SOL    HW126006   2.337   1.409   0.953
 8369SOL    HW226007   2.284   1.275   1.030
 8370SOL     OW26008   1.236   1.678   6.501
 8370SOL    HW126009   1.194   1.751   6.447
 8370SOL    HW226010   1.190   1.672   6.590
 8371SOL     OW26011   1.975   3.209   0.555
 8371SOL    HW126012   2.025   3.131   0.590
 8371SOL    HW226013   2.039   3.281   0.529
 8372SOL     OW26014   0.329   0.786   2.214
 8372SOL    HW126015   0.323   0.863   2.150
 8372SOL    HW226016   0.281   0.707   2.175
 8373SOL     OW26017   1.616   6.687   5.311
 8373SOL    HW126018   1.674   6.744   5.253
 8373SOL    HW226019   1.670   6.655   5.389
 8374SOL     OW26020   6.464   6.887   6.671
 8374SOL    HW126021   6.491   6.796   6.700
 8374SOL    HW226022   6.543   6.948   6.674
 8375SOL     OW26023   3.489   0.400   6.918
 8375SOL    HW126024   3.450   0.325   6.970
 8375SOL    HW226025   3.507   0.477   6.979
 8376SOL     OW26026   3.419   0.582   4.841
 8376SOL    HW126027   3.346   0.650   4.854
 8376SOL    HW226028   3.399   0.501   4.895
 8377SOL     OW26029   5.524   4.186   0.997
 8377SOL    HW126030   5.438   4.170   0.949
 8377SOL    HW226031   5.558   4.100   1.035
 8378SOL     OW26032   4.923   2.661   3.985
 8378SOL    HW126033   5.014   2.702   3.990
 8378SOL    HW226034   4.901   2.617   4.073
 8379SOL     OW26035   5.981   2.553   2.403
 8379SOL    HW126036   5.929   2.584   2.482
 8379SOL    HW226037   6.019   2.632   2.355
 8380SOL     OW26038   4.588   1.673   3.546
 8380SOL    HW126039   4.588   1.679   3.446
 8380SOL    HW226040   4.676   1.637   3.577
 8381SOL     OW26041   2.054   5.554   4.597
 8381SOL    HW126042   2.029   5.527   4.690
 8381SOL    HW226043   2.053   5.473   4.538
 8382SOL     OW26044   1.542   2.897   2.332
 8382SOL    HW126045   1.546   2.996   2.351
 8382SOL    HW226046   1.448   2.873   2.307
 8383SOL     OW26047   2.824   2.444   6.428
 8383SOL    HW126048   2.839   2.352   6.392
 8383SOL    HW226049   2.762   2.494   6.368
 8384SOL     OW26050   0.387   6.918   2.087
 8384SOL    HW126051   0.393   7.008   2.042
 8384SOL    HW226052   0.296   6.881   2.075
 8385SOL     OW26053   5.163   1.950   1.026
 8385SOL    HW126054   5.112   2.031   0.999
 8385SOL    HW226055   5.108   1.895   1.088
 8386SOL     OW26056   0.990   4.437   2.500
 8386SOL    HW126057   1.059   4.449   2.428
 8386SOL    HW226058   1.028   4.381   2.573
 8387SOL     OW26059   0.336   2.152   1.081
 8387SOL    HW126060   0.431   2.180   1.086
 8387SOL    HW226061   0.285   2.216   1.024
 8388SOL     OW26062   1.406   6.845   2.770
 8388SOL    HW126063   1.399   6.758   2.721
 8388SOL    HW226064   1.314   6.878   2.793
 8389SOL     OW26065   4.934   2.586   2.387
 8389SOL    HW126066   4.868   2.536   2.331
 8389SOL    HW226067   4.923   2.561   2.483
 8390SOL     OW26068   5.285   1.314   5.716
 8390SOL    HW126069   5.352   1.249   5.752
 8390SOL    HW226070   5.322   1.407   5.724
 8391SOL     OW26071   6.725   0.225   1.392
 8391SOL    HW126072   6.733   0.189   1.485
 8391SOL    HW226073   6.756   0.156   1.326
 8392SOL     OW26074   5.315   2.960   4.925
 8392SOL    HW126075   5.315   2.865   4.954
 8392SOL    HW226076   5.400   3.005   4.955
 8393SOL     OW26077   5.625   0.462   1.381
 8393SOL    HW126078   5.717   0.489   1.349
 8393SOL    HW226079   5.612   0.492   1.475
 8394SOL     OW26080   5.406   3.345   1.890
 8394SOL    HW126081   5.319   3.359   1.844
 8394SOL    HW226082   5.467   3.421   1.869
 8395SOL     OW26083   1.707   1.303   4.592
 8395SOL    HW126084   1.649   1.383   4.576
 8395SOL    HW226085   1.781   1.327   4.655
 8396SOL     OW26086   4.153   5.554   4.206
 8396SOL    HW126087   4.169   5.500   4.288
 8396SOL    HW226088   4.093   5.631   4.228
 8397SOL     OW26089   6.054   1.120   2.487
 8397SOL    HW126090   6.044   1.090   2.582
 8397SOL    HW226091   6.129   1.186   2.480
 8398SOL     OW26092   4.294   2.261   6.309
 8398SOL    HW126093   4.335   2.319   6.380
 8398SOL    HW226094   4.288   2.167   6.343
 8399SOL     OW26095   6.862   5.093   0.911
 8399SOL    HW126096   6.780   5.049   0.948
 8399SOL    HW226097   6.880   5.059   0.819
 8400SOL     OW26098   1.600   2.169   4.659
 8400SOL    HW126099   1.659   2.186   4.581
 8400SOL    HW226100   1.504   2.174   4.630
 8401SOL     OW26101   2.928   6.854   6.094
 8401SOL    HW126102   2.947   6.936   6.039
 8401SOL    HW226103   2.860   6.876   6.164
 8402SOL     OW26104   3.630   0.483   6.156
 8402SOL    HW126105   3.600   0.505   6.249
 8402SOL    HW226106   3.725   0.451   6.159
 8403SOL     OW26107   6.047   4.593   4.544
 8403SOL    HW126108   5.960   4.544   4.553
 8403SOL    HW226109   6.087   4.607   4.635
 8404SOL     OW26110   0.720   2.144   6.414
 8404SOL    HW126111   0.640   2.148   6.474
 8404SOL    HW226112   0.730   2.051   6.378
 8405SOL     OW26113   4.060   0.859   5.942
 8405SOL    HW126114   4.130   0.788   5.946
 8405SOL    HW226115   4.078   0.920   5.864
 8406SOL     OW26116   4.867   6.975   6.142
 8406SOL    HW126117   4.886   0.005   6.226
 8406SOL    HW226118   4.854   6.878   6.164
 8407SOL     OW26119   3.594   0.043   4.307
 8407SOL    HW126120   3.621   6.968   4.300
 8407SOL    HW226121   3.624   0.093   4.225
 8408SOL     OW26122   3.667   1.607   1.662
 8408SOL    HW126123   3.665   1.621   1.761
 8408SOL    HW226124   3.608   1.675   1.618
 8409SOL     OW26125   4.211   2.208   2.115
 8409SOL    HW126126   4.265   2.263   2.179
 8409SOL    HW226127   4.235   2.112   2.125
 8410SOL     OW26128   6.765   1.708   1.645
 8410SOL    HW126129   6.673   1.742   1.626
 8410SOL    HW226130   6.768   1.609   1.631
 8411SOL     OW26131   1.875   5.020   0.753
 8411SOL    HW126132   1.846   5.029   0.848
 8411SOL    HW226133   1.929   5.100   0.728
 8412SOL     OW26134   2.704   2.369   6.677
 8412SOL    HW126135   2.796   2.338   6.654
 8412SOL    HW226136   2.648   2.373   6.594
 8413SOL     OW26137   4.491   5.817   4.614
 8413SOL    HW126138   4.426   5.877   4.568
 8413SOL    HW226139   4.444   5.733   4.643
 8414SOL     OW26140   1.435   0.651   1.237
 8414SOL    HW126141   1.486   0.720   1.288
 8414SOL    HW226142   1.499   0.585   1.197
 8415SOL     OW26143   2.571   1.260   5.294
 8415SOL    HW126144   2.588   1.164   5.272
 8415SOL    HW226145   2.612   1.282   5.383
 8416SOL     OW26146   6.621   1.680   5.340
 8416SOL    HW126147   6.542   1.737   5.318
 8416SOL    HW226148   6.685   1.731   5.397
 8417SOL     OW26149   1.593   3.573   5.256
 8417SOL    HW126150   1.612   3.600   5.351
 8417SOL    HW226151   1.608   3.475   5.246
 8418SOL     OW26152   0.671   6.100   2.320
 8418SOL    HW126153   0.692   6.068   2.412
 8418SOL    HW226154   0.622   6.187   2.324
 8419SOL     OW26155   4.180   1.803   4.285
 8419SOL    HW126156   4.168   1.868   4.210
 8419SOL    HW226157   4.098   1.748   4.295
 8420SOL     OW26158   3.115   0.359   1.662
 8420SOL    HW126159   3.104   0.264   1.631
 8420SOL    HW226160   3.213   0.382   1.664
 8421SOL     OW26161   4.718   6.665   6.399
 8421SOL    HW126162   4.618   6.672   6.397
 8421SOL    HW226163   4.756   6.753   6.427
 8422SOL     OW26164   5.319   2.244   3.122
 8422SOL    HW126165   5.222   2.262   3.141
 8422SOL    HW226166   5.347   2.162   3.172
 8423SOL     OW26167   6.661   5.113   6.275
 8423SOL    HW126168   6.655   5.188   6.209
 8423SOL    HW226169   6.595   5.129   6.348
 8424SOL     OW26170   2.733   0.698   4.285
 8424SOL    HW126171   2.807   0.644   4.326
 8424SOL    HW226172   2.710   0.659   4.196
 8425SOL     OW26173   3.413   4.075   2.482
 8425SOL    HW126174   3.406   4.131   2.399
 8425SOL    HW226175   3.332   4.088   2.538
 8426SOL     OW26176   4.002   2.959   1.877
 8426SOL    HW126177   4.069   2.956   1.804
 8426SOL    HW226178   4.013   3.043   1.930
 8427SOL     OW26179   3.485   3.874   3.788
 8427SOL    HW126180   3.515   3.782   3.812
 8427SOL    HW226181   3.486   3.884   3.689
 8428SOL     OW26182   6.414   6.989   1.187
 8428SOL    HW126183   6.363   6.954   1.109
 8428SOL    HW226184   6.510   7.003   1.161
 8429SOL     OW26185   2.625   6.008   5.455
 8429SOL    HW126186   2.560   6.013   5.532
 8429SOL    HW226187   2.715   5.983   5.490
 8430SOL     OW26188   4.223   6.719   4.913
 8430SOL    HW126189   4.219   6.786   4.987
 8430SOL    HW226190   4.148   6.735   4.849
 8431SOL     OW26191   2.407   3.537   6.215
 8431SOL    HW126192   2.460   3.622   6.221
 8431SOL    HW226193   2.354   3.537   6.130
 8432SOL     OW26194   6.315   5.203   6.146
 8432SOL    HW126195   6.320   5.299   6.176
 8432SOL    HW226196   6.407   5.169   6.130
 8433SOL     OW26197   5.292   2.428   1.238
 8433SOL    HW126198   5.291   2.518   1.282
 8433SOL    HW226199   5.293   2.440   1.139
 8434SOL     OW26200   2.607   6.121   5.223
 8434SOL    HW126201   2.623   6.076   5.310
 8434SOL    HW226202   2.655   6.072   5.150
 8435SOL     OW26203   5.230   1.822   2.814
 8435SOL    HW126204   5.169   1.854   2.887
 8435SOL    HW226205   5.218   1.724   2.801
 8436SOL     OW26206   2.230   5.611   2.438
 8436SOL    HW126207   2.167   5.540   2.407
 8436SOL    HW226208   2.189   5.701   2.423
 8437SOL     OW26209   1.233   4.831   2.421
 8437SOL    HW126210   1.318   4.880   2.401
 8437SOL    HW226211   1.253   4.734   2.435
 8438SOL     OW26212   1.016   3.994   2.189
 8438SOL    HW126213   0.921   4.021   2.174
 8438SOL    HW226214   1.020   3.901   2.224
 8439SOL     OW26215   5.905   4.965   2.966
 8439SOL    HW126216   5.845   5.040   2.994
 8439SOL    HW226217   5.856   4.879   2.969
 8440SOL     OW26218   2.266   1.573   2.882
 8440SOL    HW126219   2.264   1.672   2.866
 8440SOL    HW226220   2.189   1.530   2.836
 8441SOL     OW26221   6.536   1.593   5.108
 8441SOL    HW126222   6.586   1.630   5.186
 8441SOL    HW226223   6.478   1.517   5.139
 8442SOL     OW26224   3.155   1.418   6.753
 8442SOL    HW126225   3.175   1.471   6.836
 8442SOL    HW226226   3.200   1.329   6.759
 8443SOL     OW26227   0.929   4.007   3.467
 8443SOL    HW126228   0.997   3.946   3.426
 8443SOL    HW226229   0.857   3.952   3.509
 8444SOL     OW26230   5.288   5.077   4.383
 8444SOL    HW126231   5.300   4.986   4.422
 8444SOL    HW226232   5.372   5.106   4.338
 8445SOL     OW26233   4.537   5.868   6.299
 8445SOL    HW126234   4.484   5.784   6.291
 8445SOL    HW226235   4.519   5.911   6.388
 8446SOL     OW26236   0.146   5.377   4.857
 8446SOL    HW126237   0.113   5.413   4.944
 8446SOL    HW226238   0.242   5.404   4.845
 8447SOL     OW26239   3.999   2.073   3.431
 8447SOL    HW126240   3.924   2.119   3.383
 8447SOL    HW226241   4.024   2.125   3.512
 8448SOL     OW26242   3.156   6.290   3.001
 8448SOL    HW126243   3.174   6.206   2.949
 8448SOL    HW226244   3.237   6.348   3.001
 8449SOL     OW26245   2.117   2.230   3.570
 8449SOL    HW126246   2.091   2.326   3.576
 8449SOL    HW226247   2.061   2.177   3.634
 8450SOL     OW26248   0.293   1.494   6.832
 8450SOL    HW126249   0.197   1.490   6.859
 8450SOL    HW226250   0.344   1.552   6.896
 8451SOL     OW26251   4.580   2.585   0.712
 8451SOL    HW126252   4.483   2.565   0.699
 8451SOL    HW226253   4.634   2.502   0.696
 8452SOL     OW26254   5.019   1.893   5.646
 8452SOL    HW126255   4.936   1.913   5.594
 8452SOL    HW226256   5.098   1.930   5.598
 8453SOL     OW26257   0.201   6.181   0.773
 8453SOL    HW126258   0.184   6.110   0.705
 8453SOL    HW226259   0.185   6.143   0.865
 8454SOL     OW26260   6.664   3.874   6.719
 8454SOL    HW126261   6.626   3.929   6.793
 8454SOL    HW226262   6.611   3.790   6.708
 8455SOL     OW26263   0.129   1.549   2.684
 8455SOL    HW126264   0.127   1.642   2.721
 8455SOL    HW226265   0.187   1.491   2.741
 8456SOL     OW26266   5.976   0.845   3.414
 8456SOL    HW126267   5.883   0.882   3.409
 8456SOL    HW226268   6.042   0.919   3.398
 8457SOL     OW26269   6.559   0.054   5.453
 8457SOL    HW126270   6.574   7.007   5.526
 8457SOL    HW226271   6.602   0.021   5.369
 8458SOL     OW26272   0.155   6.784   6.615
 8458SOL    HW126273   0.178   6.728   6.535
 8458SOL    HW226274   0.136   6.725   6.693
 8459SOL     OW26275   1.762   6.130   3.487
 8459SOL    HW126276   1.749   6.035   3.515
 8459SOL    HW226277   1.848   6.139   3.436
 8460SOL     OW26278   3.216   4.111   3.120
 8460SOL    HW126279   3.296   4.106   3.060
 8460SOL    HW226280   3.199   4.207   3.144
 8461SOL     OW26281   6.610   3.692   3.975
 8461SOL    HW126282   6.591   3.641   3.891
 8461SOL    HW226283   6.528   3.696   4.031
 8462SOL     OW26284   2.267   2.853   1.575
 8462SOL    HW126285   2.358   2.891   1.592
 8462SOL    HW226286   2.227   2.824   1.663
 8463SOL     OW26287   5.278   0.786   1.785
 8463SOL    HW126288   5.199   0.846   1.798
 8463SOL    HW226289   5.275   0.746   1.694
 8464SOL     OW26290   6.481   1.601   4.806
 8464SOL    HW126291   6.467   1.577   4.902
 8464SOL    HW226292   6.547   1.539   4.764
 8465SOL     OW26293   1.688   2.105   0.017
 8465SOL    HW126294   1.658   2.084   0.110
 8465SOL    HW226295   1.749   2.183   0.019
 8466SOL     OW26296   0.356   0.020   4.006
 8466SOL    HW126297   0.265   0.019   3.964
 8466SOL    HW226298   0.351   6.996   4.096
 8467SOL     OW26299   3.257   5.597   0.825
 8467SOL    HW126300   3.177   5.642   0.863
 8467SOL    HW226301   3.340   5.636   0.866
 8468SOL     OW26302   4.761   2.174   0.478
 8468SOL    HW126303   4.685   2.145   0.536
 8468SOL    HW226304   4.735   2.163   0.382
 8469SOL     OW26305   3.837   2.459   6.697
 8469SOL    HW126306   3.839   2.464   6.597
 8469SOL    HW226307   3.850   2.364   6.726
 8470SOL     OW26308   1.255   2.997   6.802
 8470SOL    HW126309   1.246   2.952   6.891
 8470SOL    HW226310   1.322   3.071   6.808
 8471SOL     OW26311   4.250   1.417   3.955
 8471SOL    HW126312   4.302   1.497   3.926
 8471SOL    HW226313   4.292   1.334   3.918
 8472SOL     OW26314   1.142   6.590   3.304
 8472SOL    HW126315   1.169   6.653   3.232
 8472SOL    HW226316   1.223   6.542   3.338
 8473SOL     OW26317   6.558   5.487   6.976
 8473SOL    HW126318   6.536   5.412   6.913
 8473SOL    HW226319   6.547   5.455   0.050
 8474SOL     OW26320   4.255   5.095   0.486
 8474SOL    HW126321   4.350   5.070   0.505
 8474SOL    HW226322   4.220   5.152   0.560
 8475SOL     OW26323   4.462   1.182   3.289
 8475SOL    HW126324   4.464   1.227   3.199
 8475SOL    HW226325   4.533   1.221   3.347
 8476SOL     OW26326   4.954   0.829   2.556
 8476SOL    HW126327   5.053   0.822   2.556
 8476SOL    HW226328   4.914   0.737   2.554
 8477SOL     OW26329   2.787   1.187   2.358
 8477SOL    HW126330   2.735   1.267   2.327
 8477SOL    HW226331   2.735   1.104   2.342
 8478SOL     OW26332   1.496   0.331   5.741
 8478SOL    HW126333   1.567   0.355   5.675
 8478SOL    HW226334   1.526   0.355   5.833
 8479SOL     OW26335   4.605   1.250   2.080
 8479SOL    HW126336   4.577   1.189   2.005
 8479SOL    HW226337   4.659   1.325   2.042
 8480SOL     OW26338   1.353   1.244   1.245
 8480SOL    HW126339   1.400   1.275   1.162
 8480SOL    HW226340   1.271   1.299   1.260
 8481SOL     OW26341   3.537   6.834   4.555
 8481SOL    HW126342   3.625   6.845   4.601
 8481SOL    HW226343   3.533   6.743   4.514
 8482SOL     OW26344   0.576   0.339   1.964
 8482SOL    HW126345   0.653   0.330   1.901
 8482SOL    HW226346   0.609   0.378   2.051
 8483SOL     OW26347   4.731   6.007   2.028
 8483SOL    HW126348   4.742   5.929   1.966
 8483SOL    HW226349   4.638   6.007   2.065
 8484SOL     OW26350   0.482   4.549   4.603
 8484SOL    HW126351   0.430   4.634   4.596
 8484SOL    HW226352   0.524   4.528   4.514
 8485SOL     OW26353   2.646   3.173   6.124
 8485SOL    HW126354   2.731   3.191   6.075
 8485SOL    HW226355   2.634   3.242   6.196
 8486SOL     OW26356   4.229   0.537   2.354
 8486SOL    HW126357   4.220   0.636   2.340
 8486SOL    HW226358   4.169   0.488   2.291
 8487SOL     OW26359   4.507   6.801   1.290
 8487SOL    HW126360   4.560   6.801   1.375
 8487SOL    HW226361   4.489   6.706   1.262
 8488SOL     OW26362   5.183   2.991   4.584
 8488SOL    HW126363   5.130   2.984   4.500
 8488SOL    HW226364   5.122   3.013   4.660
 8489SOL     OW26365   4.305   5.138   3.017
 8489SOL    HW126366   4.223   5.195   3.017
 8489SOL    HW226367   4.352   5.147   3.105
 8490SOL     OW26368   3.730   5.439   2.637
 8490SOL    HW126369   3.752   5.342   2.629
 8490SOL    HW226370   3.788   5.482   2.706
 8491SOL     OW26371   2.003   1.038   1.897
 8491SOL    HW126372   1.941   1.095   1.951
 8491SOL    HW226373   1.960   1.014   1.810
 8492SOL     OW26374   5.839   3.830   4.480
 8492SOL    HW126375   5.852   3.842   4.579
 8492SOL    HW226376   5.878   3.908   4.432
 8493SOL     OW26377   3.468   2.094   0.646
 8493SOL    HW126378   3.506   2.002   0.655
 8493SOL    HW226379   3.369   2.090   0.657
 8494SOL     OW26380   3.661   5.919   0.146
 8494SOL    HW126381   3.567   5.884   0.136
 8494SOL    HW226382   3.677   5.991   0.079
 8495SOL     OW26383   0.421   2.937   0.087
 8495SOL    HW126384   0.373   2.984   0.161
 8495SOL    HW226385   0.469   3.005   0.031
 8496SOL     OW26386   6.762   2.817   3.224
 8496SOL    HW126387   6.839   2.818   3.160
 8496SOL    HW226388   6.677   2.804   3.174
 8497SOL     OW26389   6.161   5.418   3.320
 8497SOL    HW126390   6.129   5.478   3.247
 8497SOL    HW226391   6.251   5.381   3.296
 8498SOL     OW26392   6.716   0.959   0.535
 8498SOL    HW126393   6.807   0.999   0.543
 8498SOL    HW226394   6.719   0.863   0.561
 8499SOL     OW26395   2.994   3.956   6.282
 8499SOL    HW126396   2.926   4.029   6.288
 8499SOL    HW226397   3.046   3.966   6.198
 8500SOL     OW26398   3.095   0.732   6.309
 8500SOL    HW126399   3.183   0.774   6.283
 8500SOL    HW226400   3.108   0.672   6.387
 8501SOL     OW26401   2.492   4.502   5.922
 8501SOL    HW126402   2.437   4.582   5.949
 8501SOL    HW226403   2.431   4.429   5.892
 8502SOL     OW26404   0.202   0.435   1.839
 8502SOL    HW126405   0.266   0.403   1.769
 8502SOL    HW226406   0.250   0.449   1.925
 8503SOL     OW26407   3.247   5.735   3.214
 8503SOL    HW126408   3.203   5.821   3.187
 8503SOL    HW226409   3.178   5.663   3.220
 8504SOL     OW26410   0.960   5.919   3.156
 8504SOL    HW126411   0.934   5.943   3.063
 8504SOL    HW226412   0.888   5.948   3.219
 8505SOL     OW26413   4.759   2.961   4.025
 8505SOL    HW126414   4.820   2.938   4.101
 8505SOL    HW226415   4.713   2.878   3.993
 8506SOL     OW26416   0.971   6.597   0.654
 8506SOL    HW126417   1.014   6.537   0.721
 8506SOL    HW226418   1.001   6.691   0.668
 8507SOL     OW26419   1.861   0.757   4.640
 8507SOL    HW126420   1.852   0.822   4.565
 8507SOL    HW226421   1.817   0.794   4.722
 8508SOL     OW26422   1.015   3.188   6.098
 8508SOL    HW126423   1.038   3.281   6.067
 8508SOL    HW226424   1.081   3.159   6.167
 8509SOL     OW26425   5.919   2.347   4.550
 8509SOL    HW126426   5.948   2.438   4.521
 8509SOL    HW226427   5.979   2.278   4.510
 8510SOL     OW26428   4.973   0.337   2.683
 8510SOL    HW126429   4.915   0.290   2.750
 8510SOL    HW226430   5.034   0.271   2.640
 8511SOL     OW26431   0.148   4.724   1.980
 8511SOL    HW126432   0.118   4.630   1.965
 8511SOL    HW226433   0.232   4.724   2.033
 8512SOL     OW26434   4.206   2.121   0.443
 8512SOL    HW126435   4.112   2.139   0.414
 8512SOL    HW226436   4.261   2.203   0.430
 8513SOL     OW26437   0.356   4.244   1.340
 8513SOL    HW126438   0.291   4.168   1.343
 8513SOL    HW226439   0.312   4.326   1.377
 8514SOL     OW26440   2.436   2.354   6.060
 8514SOL    HW126441   2.392   2.330   6.147
 8514SOL    HW226442   2.528   2.314   6.057
 8515SOL     OW26443   1.483   0.296   1.110
 8515SOL    HW126444   1.402   0.272   1.163
 8515SOL    HW226445   1.520   0.214   1.066
 8516SOL     OW26446   5.446   2.063   4.044
 8516SOL    HW126447   5.367   2.078   4.104
 8516SOL    HW226448   5.529   2.061   4.099
 8517SOL     OW26449   1.751   1.860   5.842
 8517SOL    HW126450   1.710   1.796   5.776
 8517SOL    HW226451   1.821   1.812   5.895
 8518SOL     OW26452   5.463   4.318   0.214
 8518SOL    HW126453   5.543   4.319   0.154
 8518SOL    HW226454   5.385   4.362   0.168
 8519SOL     OW26455   1.342   3.001   0.965
 8519SOL    HW126456   1.301   3.069   1.025
 8519SOL    HW226457   1.428   2.969   1.004
 8520SOL     OW26458   3.913   3.812   6.138
 8520SOL    HW126459   3.877   3.888   6.084
 8520SOL    HW226460   3.941   3.738   6.078
 8521SOL     OW26461   2.098   6.721   5.803
 8521SOL    HW126462   2.167   6.656   5.769
 8521SOL    HW226463   2.029   6.735   5.733
 8522SOL     OW26464   0.536   0.006   0.426
 8522SOL    HW126465   0.448   0.044   0.397
 8522SOL    HW226466   0.610   0.054   0.379
 8523SOL     OW26467   3.187   1.496   0.010
 8523SOL    HW126468   3.088   1.513   0.007
 8523SOL    HW226469   3.216   1.484   0.104
 8524SOL     OW26470   1.960   5.810   4.619
 8524SOL    HW126471   1.991   5.720   4.591
 8524SOL    HW226472   1.868   5.827   4.584
 8525SOL     OW26473   6.210   4.379   1.938
 8525SOL    HW126474   6.308   4.392   1.926
 8525SOL    HW226475   6.164   4.468   1.939
 8526SOL     OW26476   0.598   4.982   0.734
 8526SOL    HW126477   0.652   5.051   0.686
 8526SOL    HW226478   0.656   4.904   0.758
 8527SOL     OW26479   3.019   0.953   5.153
 8527SOL    HW126480   2.936   0.903   5.127
 8527SOL    HW226481   3.058   0.998   5.073
 8528SOL     OW26482   5.316   1.270   0.492
 8528SOL    HW126483   5.324   1.352   0.435
 8528SOL    HW226484   5.264   1.292   0.575
 8529SOL     OW26485   1.083   6.070   6.303
 8529SOL    HW126486   1.124   6.130   6.235
 8529SOL    HW226487   1.135   5.985   6.308
 8530SOL     OW26488   3.008   3.678   3.793
 8530SOL    HW126489   2.924   3.625   3.785
 8530SOL    HW226490   3.036   3.682   3.888
 8531SOL     OW26491   6.720   5.130   4.265
 8531SOL    HW126492   6.761   5.182   4.339
 8531SOL    HW226493   6.657   5.189   4.213
 8532SOL     OW26494   2.721   4.792   6.139
 8532SOL    HW126495   2.801   4.747   6.178
 8532SOL    HW226496   2.695   4.870   6.197
 8533SOL     OW26497   2.480   6.435   5.729
 8533SOL    HW126498   2.485   6.400   5.635
 8533SOL    HW226499   2.420   6.375   5.783
 8534SOL     OW26500   2.128   2.498   3.616
 8534SOL    HW126501   2.212   2.544   3.589
 8534SOL    HW226502   2.095   2.536   3.702
 8535SOL     OW26503   6.472   0.502   2.519
 8535SOL    HW126504   6.438   0.527   2.428
 8535SOL    HW226505   6.571   0.496   2.517
 8536SOL     OW26506   0.904   1.640   5.132
 8536SOL    HW126507   0.937   1.729   5.164
 8536SOL    HW226508   0.806   1.646   5.113
 8537SOL     OW26509   6.831   1.165   2.571
 8537SOL    HW126510   6.928   1.157   2.549
 8537SOL    HW226511   6.777   1.154   2.487
 8538SOL     OW26512   0.710   2.449   0.111
 8538SOL    HW126513   0.656   2.439   0.195
 8538SOL    HW226514   0.682   2.378   0.046
 8539SOL     OW26515   5.644   2.436   2.887
 8539SOL    HW126516   5.587   2.510   2.852
 8539SOL    HW226517   5.625   2.422   2.985
 8540SOL     OW26518   3.498   0.097   0.612
 8540SOL    HW126519   3.548   0.182   0.593
 8540SOL    HW226520   3.493   0.083   0.711
 8541SOL     OW26521   1.709   2.874   4.757
 8541SOL    HW126522   1.750   2.965   4.745
 8541SOL    HW226523   1.770   2.816   4.810
 8542SOL     OW26524   3.459   5.132   1.008
 8542SOL    HW126525   3.527   5.136   1.081
 8542SOL    HW226526   3.453   5.039   0.973
 8543SOL     OW26527   2.341   2.240   6.290
 8543SOL    HW126528   2.347   2.289   6.377
 8543SOL    HW226529   2.256   2.187   6.287
 8544SOL     OW26530   6.281   2.732   3.695
 8544SOL    HW126531   6.224   2.679   3.632
 8544SOL    HW226532   6.370   2.687   3.706
 8545SOL     OW26533   4.899   6.326   5.009
 8545SOL    HW126534   4.887   6.383   5.091
 8545SOL    HW226535   4.819   6.268   4.997
 8546SOL     OW26536   4.344   2.004   6.384
 8546SOL    HW126537   4.357   1.928   6.320
 8546SOL    HW226538   4.408   1.995   6.460
 8547SOL     OW26539   0.652   4.489   2.893
 8547SOL    HW126540   0.594   4.507   2.972
 8547SOL    HW226541   0.725   4.425   2.918
 8548SOL     OW26542   6.186   1.349   5.568
 8548SOL    HW126543   6.127   1.276   5.535
 8548SOL    HW226544   6.280   1.315   5.577
 8549SOL     OW26545   5.734   3.099   4.790
 8549SOL    HW126546   5.696   3.158   4.719
 8549SOL    HW226547   5.691   3.009   4.785
 8550SOL     OW26548   0.757   4.031   6.332
 8550SOL    HW126549   0.853   4.022   6.356
 8550SOL    HW226550   0.717   4.109   6.381
 8551SOL     OW26551   3.189   4.054   1.041
 8551SOL    HW126552   3.197   4.086   0.946
 8551SOL    HW226553   3.258   3.985   1.059
 8552SOL     OW26554   3.083   6.602   4.367
 8552SOL    HW126555   3.109   6.697   4.350
 8552SOL    HW226556   3.105   6.547   4.287
 8553SOL     OW26557   6.089   4.910   0.141
 8553SOL    HW126558   6.156   4.849   0.098
 8553SOL    HW226559   6.109   4.918   0.238
 8554SOL     OW26560   6.317   4.051   6.586
 8554SOL    HW126561   6.341   4.003   6.501
 8554SOL    HW226562   6.273   3.986   6.649
 8555SOL     OW26563   0.886   6.913   4.299
 8555SOL    HW126564   0.868   6.994   4.243
 8555SOL    HW226565   0.905   6.835   4.240
 8556SOL     OW26566   6.524   0.501   4.279
 8556SOL    HW126567   6.472   0.480   4.197
 8556SOL    HW226568   6.508   0.596   4.305
 8557SOL     OW26569   0.389   0.523   0.347
 8557SOL    HW126570   0.472   0.578   0.347
 8557SOL    HW226571   0.341   0.537   0.434
 8558SOL     OW26572   0.813   5.633   1.844
 8558SOL    HW126573   0.800   5.620   1.745
 8558SOL    HW226574   0.898   5.589   1.871
 8559SOL     OW26575   0.347   1.358   5.983
 8559SOL    HW126576   0.433   1.383   6.026
 8559SOL    HW226577   0.364   1.324   5.890
 8560SOL     OW26578   6.621   2.597   6.359
 8560SOL    HW126579   6.663   2.650   6.285
 8560SOL    HW226580   6.691   2.545   6.407
 8561SOL     OW26581   4.876   6.845   5.308
 8561SOL    HW126582   4.976   6.842   5.315
 8561SOL    HW226583   4.849   6.865   5.214
 8562SOL     OW26584   3.339   6.992   4.381
 8562SOL    HW126585   3.410   0.026   4.337
 8562SOL    HW226586   3.382   6.924   4.441
 8563SOL     OW26587   2.415   2.750   6.225
 8563SOL    HW126588   2.467   2.730   6.142
 8563SOL    HW226589   2.424   2.674   6.289
 8564SOL     OW26590   0.083   6.994   3.918
 8564SOL    HW126591   0.101   6.896   3.918
 8564SOL    HW226592   7.007   7.011   3.940
 8565SOL     OW26593   4.376   0.211   1.906
 8565SOL    HW126594   4.354   0.278   1.977
 8565SOL    HW226595   4.328   0.234   1.821
 8566SOL     OW26596   2.084   3.705   3.160
 8566SOL    HW126597   2.101   3.802   3.176
 8566SOL    HW226598   2.121   3.679   3.071
 8567SOL     OW26599   5.103   6.129   0.507
 8567SOL    HW126600   5.147   6.070   0.575
 8567SOL    HW226601   5.160   6.132   0.424
 8568SOL     OW26602   5.798   1.565   0.224
 8568SOL    HW126603   5.712   1.617   0.225
 8568SOL    HW226604   5.792   1.490   0.289
 8569SOL     OW26605   4.223   1.955   5.506
 8569SOL    HW126606   4.305   2.003   5.538
 8569SOL    HW226607   4.166   1.932   5.585
 8570SOL     OW26608   0.788   4.615   6.748
 8570SOL    HW126609   0.697   4.643   6.778
 8570SOL    HW226610   0.836   4.571   6.824
 8571SOL     OW26611   6.899   4.626   4.551
 8571SOL    HW126612   6.961   4.595   4.479
 8571SOL    HW226613   6.850   4.547   4.589
 8572SOL     OW26614   3.152   4.874   5.521
 8572SOL    HW126615   3.222   4.835   5.461
 8572SOL    HW226616   3.063   4.870   5.476
 8573SOL     OW26617   4.239   6.161   4.566
 8573SOL    HW126618   4.234   6.076   4.514
 8573SOL    HW226619   4.195   6.149   4.655
 8574SOL     OW26620   0.653   3.594   4.447
 8574SOL    HW126621   0.696   3.508   4.419
 8574SOL    HW226622   0.721   3.653   4.490
 8575SOL     OW26623   3.184   3.250   6.328
 8575SOL    HW126624   3.240   3.192   6.268
 8575SOL    HW226625   3.090   3.216   6.329
 8576SOL     OW26626   1.734   0.248   1.686
 8576SOL    HW126627   1.640   0.227   1.661
 8576SOL    HW226628   1.742   0.344   1.710
 8577SOL     OW26629   6.866   5.328   3.138
 8577SOL    HW126630   6.823   5.398   3.081
 8577SOL    HW226631   6.953   5.364   3.173
 8578SOL     OW26632   4.615   6.763   3.889
 8578SOL    HW126633   4.608   6.819   3.971
 8578SOL    HW226634   4.709   6.766   3.854
 8579SOL     OW26635   0.489   5.592   3.176
 8579SOL    HW126636   0.556   5.661   3.203
 8579SOL    HW226637   0.496   5.513   3.237
 8580SOL     OW26638   3.291   4.204   5.897
 8580SOL    HW126639   3.319   4.283   5.952
 8580SOL    HW226640   3.267   4.234   5.805
 8581SOL     OW26641   3.165   2.901   0.672
 8581SOL    HW126642   3.161   2.871   0.577
 8581SOL    HW226643   3.258   2.929   0.694
 8582SOL     OW26644   4.750   4.106   1.136
 8582SOL    HW126645   4.681   4.076   1.202
 8582SOL    HW226646   4.721   4.192   1.094
 8583SOL     OW26647   5.219   0.531   5.754
 8583SOL    HW126648   5.178   0.594   5.687
 8583SOL    HW226649   5.196   0.561   5.846
 8584SOL     OW26650   0.344   5.450   6.510
 8584SOL    HW126651   0.386   5.454   6.601
 8584SOL    HW226652   0.408   5.406   6.446
 8585SOL     OW26653   0.940   1.127   1.011
 8585SOL    HW126654   0.856   1.073   1.020
 8585SOL    HW226655   1.003   1.102   1.085
 8586SOL     OW26656   4.102   5.028   4.113
 8586SOL    HW126657   4.108   5.074   4.202
 8586SOL    HW226658   4.089   5.097   4.041
 8587SOL     OW26659   0.135   1.831   1.399
 8587SOL    HW126660   0.116   1.821   1.301
 8587SOL    HW226661   0.051   1.815   1.450
 8588SOL     OW26662   4.005   2.159   0.257
 8588SOL    HW126663   4.073   2.185   0.188
 8588SOL    HW226664   3.951   2.081   0.223
 8589SOL     OW26665   2.918   1.732   4.554
 8589SOL    HW126666   2.851   1.748   4.627
 8589SOL    HW226667   3.004   1.702   4.595
 8590SOL     OW26668   6.180   4.816   5.583
 8590SOL    HW126669   6.214   4.795   5.492
 8590SOL    HW226670   6.180   4.915   5.597
 8591SOL     OW26671   0.978   2.907   6.994
 8591SOL    HW126672   1.076   2.886   7.003
 8591SOL    HW226673   0.927   2.821   6.985
 8592SOL     OW26674   6.364   5.539   6.463
 8592SOL    HW126675   6.270   5.564   6.443
 8592SOL    HW226676   6.396   5.587   6.545
 8593SOL     OW26677   0.337   0.142   3.068
 8593SOL    HW126678   0.319   0.177   2.976
 8593SOL    HW226679   0.435   0.140   3.085
 8594SOL     OW26680   3.064   3.578   3.452
 8594SOL    HW126681   3.115   3.628   3.522
 8594SOL    HW226682   3.050   3.638   3.373
 8595SOL     OW26683   1.899   2.724   1.594
 8595SOL    HW126684   1.991   2.719   1.633
 8595SOL    HW226685   1.905   2.748   1.497
 8596SOL     OW26686   6.605   4.420   2.572
 8596SOL    HW126687   6.586   4.343   2.511
 8596SOL    HW226688   6.634   4.499   2.517
 8597SOL     OW26689   2.296   1.680   0.800
 8597SOL    HW126690   2.335   1.703   0.711
 8597SOL    HW226691   2.310   1.756   0.863
 8598SOL     OW26692   5.268   4.125   0.872
 8598SOL    HW126693   5.321   4.096   0.793
 8598SOL    HW226694   5.284   4.062   0.948
 8599SOL     OW26695   1.333   3.337   1.817
 8599SOL    HW126696   1.364   3.243   1.805
 8599SOL    HW226697   1.340   3.363   1.913
 8600SOL     OW26698   5.942   3.429   6.058
 8600SOL    HW126699   5.962   3.382   5.971
 8600SOL    HW226700   5.970   3.371   6.134
 8601SOL     OW26701   0.355   0.829   4.772
 8601SOL    HW126702   0.385   0.734   4.787
 8601SOL    HW226703   0.435   0.889   4.767
 8602SOL     OW26704   2.187   6.039   2.205
 8602SOL    HW126705   2.268   5.982   2.189
 8602SOL    HW226706   2.159   6.082   2.120
 8603SOL     OW26707   4.471   3.815   1.252
 8603SOL    HW126708   4.521   3.880   1.309
 8603SOL    HW226709   4.497   3.722   1.278
 8604SOL     OW26710   5.488   2.011   2.640
 8604SOL    HW126711   5.554   2.076   2.678
 8604SOL    HW226712   5.469   1.940   2.708
 8605SOL     OW26713   2.941   6.587   2.189
 8605SOL    HW126714   3.031   6.588   2.233
 8605SOL    HW226715   2.923   6.495   2.153
 8606SOL     OW26716   4.073   5.073   5.891
 8606SOL    HW126717   4.082   5.151   5.953
 8606SOL    HW226718   4.069   5.106   5.797
 8607SOL     OW26719   3.247   5.822   1.711
 8607SOL    HW126720   3.267   5.814   1.613
 8607SOL    HW226721   3.179   5.753   1.737
 8608SOL     OW26722   5.323   6.400   2.362
 8608SOL    HW126723   5.310   6.499   2.353
 8608SOL    HW226724   5.234   6.357   2.379
 8609SOL     OW26725   4.635   0.583   6.445
 8609SOL    HW126726   4.672   0.676   6.442
 8609SOL    HW226727   4.584   0.571   6.530
 8610SOL     OW26728   0.357   6.818   4.490
 8610SOL    HW126729   0.421   6.767   4.547
 8610SOL    HW226730   0.282   6.851   4.547
 8611SOL     OW26731   1.501   2.073   3.444
 8611SOL    HW126732   1.418   2.086   3.389
 8611SOL    HW226733   1.581   2.103   3.392
 8612SOL     OW26734   4.649   2.752   5.068
 8612SOL    HW126735   4.616   2.736   4.975
 8612SOL    HW226736   4.700   2.672   5.100
 8613SOL     OW26737   1.487   1.788   0.248
 8613SOL    HW126738   1.427   1.813   0.172
 8613SOL    HW226739   1.445   1.715   0.301
 8614SOL     OW26740   1.188   1.589   3.228
 8614SOL    HW126741   1.172   1.634   3.316
 8614SOL    HW226742   1.213   1.658   3.160
 8615SOL     OW26743   4.548   2.284   5.241
 8615SOL    HW126744   4.510   2.272   5.149
 8615SOL    HW226745   4.608   2.207   5.262
 8616SOL     OW26746   1.342   3.300   0.050
 8616SOL    HW126747   1.396   3.383   0.069
 8616SOL    HW226748   1.245   3.320   0.065
 8617SOL     OW26749   6.486   3.460   1.212
 8617SOL    HW126750   6.404   3.414   1.178
 8617SOL    HW226751   6.567   3.414   1.177
 8618SOL     OW26752   5.030   0.505   3.049
 8618SOL    HW126753   4.946   0.465   3.085
 8618SOL    HW226754   5.095   0.520   3.123
 8619SOL     OW26755   4.216   5.781   0.379
 8619SOL    HW126756   4.138   5.748   0.432
 8619SOL    HW226757   4.199   5.875   0.349
 8620SOL     OW26758   6.200   6.546   3.356
 8620SOL    HW126759   6.272   6.612   3.336
 8620SOL    HW226760   6.233   6.480   3.424
 8621SOL     OW26761   5.511   0.625   3.147
 8621SOL    HW126762   5.532   0.551   3.084
 8621SOL    HW226763   5.411   0.634   3.156
 8622SOL     OW26764   5.282   5.460   0.001
 8622SOL    HW126765   5.220   5.447   0.078
 8622SOL    HW226766   5.341   5.539   0.019
 8623SOL     OW26767   6.517   2.942   2.772
 8623SOL    HW126768   6.429   2.909   2.808
 8623SOL    HW226769   6.508   2.960   2.674
 8624SOL     OW26770   0.295   5.024   3.718
 8624SOL    HW126771   0.296   5.103   3.779
 8624SOL    HW226772   0.389   4.992   3.703
 8625SOL     OW26773   3.369   0.743   6.264
 8625SOL    HW126774   3.356   0.712   6.170
 8625SOL    HW226775   3.408   0.668   6.318
 8626SOL     OW26776   3.573   2.990   2.265
 8626SOL    HW126777   3.514   2.947   2.197
 8626SOL    HW226778   3.665   3.001   2.228
 8627SOL     OW26779   2.366   0.386   6.622
 8627SOL    HW126780   2.289   0.403   6.560
 8627SOL    HW226781   2.344   0.421   6.713
 8628SOL     OW26782   5.902   1.260   6.949
 8628SOL    HW126783   5.805   1.235   6.957
 8628SOL    HW226784   5.911   1.359   6.959
 8629SOL     OW26785   1.153   5.180   3.625
 8629SOL    HW126786   1.167   5.130   3.711
 8629SOL    HW226787   1.232   5.240   3.608
 8630SOL     OW26788   5.541   4.707   3.999
 8630SOL    HW126789   5.495   4.754   3.924
 8630SOL    HW226790   5.636   4.690   3.974
 8631SOL     OW26791   3.985   6.027   3.763
 8631SOL    HW126792   3.943   5.947   3.720
 8631SOL    HW226793   3.978   6.020   3.863
 8632SOL     OW26794   4.824   0.419   3.234
 8632SOL    HW126795   4.788   0.330   3.261
 8632SOL    HW226796   4.886   0.453   3.304
 8633SOL     OW26797   6.298   0.740   3.834
 8633SOL    HW126798   6.207   0.777   3.854
 8633SOL    HW226799   6.359   0.814   3.806
 8634SOL     OW26800   6.473   5.155   1.796
 8634SOL    HW126801   6.435   5.086   1.735
 8634SOL    HW226802   6.571   5.168   1.776
 8635SOL     OW26803   6.222   3.707   5.550
 8635SOL    HW126804   6.205   3.700   5.452
 8635SOL    HW226805   6.315   3.741   5.566
 8636SOL     OW26806   5.424   5.548   0.367
 8636SOL    HW126807   5.443   5.450   0.369
 8636SOL    HW226808   5.495   5.595   0.315
 8637SOL     OW26809   1.684   0.603   1.477
 8637SOL    HW126810   1.663   0.547   1.396
 8637SOL    HW226811   1.783   0.617   1.483
 8638SOL     OW26812   4.691   5.265   0.748
 8638SOL    HW126813   4.702   5.318   0.832
 8638SOL    HW226814   4.629   5.314   0.686
 8639SOL     OW26815   6.870   3.026   1.951
 8639SOL    HW126816   6.885   3.101   2.015
 8639SOL    HW226817   6.774   2.999   1.955
 8640SOL     OW26818   5.401   6.356   1.507
 8640SOL    HW126819   5.417   6.437   1.564
 8640SOL    HW226820   5.381   6.277   1.565
 8641SOL     OW26821   5.573   4.775   3.538
 8641SOL    HW126822   5.673   4.780   3.544
 8641SOL    HW226823   5.534   4.783   3.629
 8642SOL     OW26824   4.703   1.650   1.727
 8642SOL    HW126825   4.633   1.694   1.783
 8642SOL    HW226826   4.784   1.708   1.721
 8643SOL     OW26827   4.505   1.142   6.761
 8643SOL    HW126828   4.500   1.227   6.708
 8643SOL    HW226829   4.417   1.127   6.807
 8644SOL     OW26830   6.183   3.519   5.731
 8644SOL    HW126831   6.153   3.583   5.660
 8644SOL    HW226832   6.264   3.557   5.777
 8645SOL     OW26833   5.878   4.434   1.687
 8645SOL    HW126834   5.806   4.448   1.619
 8645SOL    HW226835   5.904   4.338   1.690
 8646SOL     OW26836   5.107   0.683   0.710
 8646SOL    HW126837   5.126   0.594   0.670
 8646SOL    HW226838   5.016   0.682   0.752
 8647SOL     OW26839   4.634   4.725   2.064
 8647SOL    HW126840   4.572   4.647   2.059
 8647SOL    HW226841   4.640   4.757   2.159
 8648SOL     OW26842   5.465   1.929   4.797
 8648SOL    HW126843   5.429   2.017   4.828
 8648SOL    HW226844   5.496   1.876   4.876
 8649SOL     OW26845   0.571   4.860   5.533
 8649SOL    HW126846   0.536   4.778   5.579
 8649SOL    HW226847   0.590   4.839   5.437
 8650SOL     OW26848   1.028   4.812   2.142
 8650SOL    HW126849   1.097   4.865   2.191
 8650SOL    HW226850   1.041   4.715   2.161
 8651SOL     OW26851   3.146   2.518   1.093
 8651SOL    HW126852   3.132   2.600   1.148
 8651SOL    HW226853   3.222   2.465   1.131
 8652SOL     OW26854   2.106   3.664   4.133
 8652SOL    HW126855   2.026   3.714   4.166
 8652SOL    HW226856   2.120   3.584   4.190
 8653SOL     OW26857   6.075   3.249   6.305
 8653SOL    HW126858   6.161   3.271   6.259
 8653SOL    HW226859   6.071   3.151   6.323
 8654SOL     OW26860   0.147   6.976   3.162
 8654SOL    HW126861   0.071   6.987   3.098
 8654SOL    HW226862   0.211   0.032   3.151
 8655SOL     OW26863   5.726   6.340   4.049
 8655SOL    HW126864   5.722   6.242   4.028
 8655SOL    HW226865   5.674   6.358   4.132
 8656SOL     OW26866   6.187   2.269   1.469
 8656SOL    HW126867   6.154   2.279   1.563
 8656SOL    HW226868   6.160   2.180   1.434
 8657SOL     OW26869   3.190   4.144   0.765
 8657SOL    HW126870   3.279   4.120   0.726
 8657SOL    HW226871   3.119   4.086   0.724
 8658SOL     OW26872   0.241   5.375   6.813
 8658SOL    HW126873   0.310   5.446   6.798
 8658SOL    HW226874   0.196   5.390   6.901
 8659SOL     OW26875   4.659   0.484   3.809
 8659SOL    HW126876   4.646   0.583   3.801
 8659SOL    HW226877   4.670   0.444   3.718
 8660SOL     OW26878   5.458   4.502   0.753
 8660SOL    HW126879   5.556   4.522   0.744
 8660SOL    HW226880   5.428   4.521   0.846
 8661SOL     OW26881   6.343   3.711   1.672
 8661SOL    HW126882   6.302   3.625   1.703
 8661SOL    HW226883   6.368   3.704   1.576
 8662SOL     OW26884   0.103   0.427   0.593
 8662SOL    HW126885   0.200   0.446   0.607
 8662SOL    HW226886   0.069   0.373   0.670
 8663SOL     OW26887   2.872   5.579   0.534
 8663SOL    HW126888   2.845   5.655   0.593
 8663SOL    HW226889   2.922   5.615   0.455
 8664SOL     OW26890   4.387   5.181   1.967
 8664SOL    HW126891   4.391   5.279   1.949
 8664SOL    HW226892   4.420   5.164   2.060
 8665SOL     OW26893   4.651   5.236   5.496
 8665SOL    HW126894   4.672   5.223   5.399
 8665SOL    HW226895   4.591   5.314   5.507
 8666SOL     OW26896   5.540   3.828   4.476
 8666SOL    HW126897   5.639   3.824   4.466
 8666SOL    HW226898   5.511   3.922   4.491
 8667SOL     OW26899   5.037   1.657   3.170
 8667SOL    HW126900   5.136   1.648   3.158
 8667SOL    HW226901   5.005   1.741   3.125
 8668SOL     OW26902   3.533   1.549   4.316
 8668SOL    HW126903   3.577   1.481   4.375
 8668SOL    HW226904   3.552   1.641   4.353
 8669SOL     OW26905   4.206   0.606   5.845
 8669SOL    HW126906   4.140   0.554   5.790
 8669SOL    HW226907   4.244   0.548   5.916
 8670SOL     OW26908   4.245   4.728   4.202
 8670SOL    HW126909   4.209   4.761   4.289
 8670SOL    HW226910   4.170   4.715   4.137
 8671SOL     OW26911   5.773   6.278   2.722
 8671SOL    HW126912   5.675   6.272   2.699
 8671SOL    HW226913   5.805   6.371   2.705
 8672SOL     OW26914   3.406   4.458   5.355
 8672SOL    HW126915   3.307   4.456   5.340
 8672SOL    HW226916   3.451   4.396   5.291
 8673SOL     OW26917   5.779   2.291   0.878
 8673SOL    HW126918   5.823   2.367   0.830
 8673SOL    HW226919   5.717   2.327   0.948
 8674SOL     OW26920   0.591   6.937   2.588
 8674SOL    HW126921   0.610   0.005   2.632
 8674SOL    HW226922   0.534   6.952   2.507
 8675SOL     OW26923   1.917   1.885   2.723
 8675SOL    HW126924   1.885   1.974   2.690
 8675SOL    HW226925   1.921   1.820   2.647
 8676SOL     OW26926   4.438   6.358   3.617
 8676SOL    HW126927   4.404   6.310   3.698
 8676SOL    HW226928   4.390   6.445   3.607
 8677SOL     OW26929   2.238   4.293   5.078
 8677SOL    HW126930   2.266   4.201   5.052
 8677SOL    HW226931   2.290   4.323   5.158
 8678SOL     OW26932   1.164   0.733   6.145
 8678SOL    HW126933   1.255   0.758   6.178
 8678SOL    HW226934   1.113   0.815   6.122
 8679SOL     OW26935   6.706   2.367   4.676
 8679SOL    HW126936   6.737   2.462   4.666
 8679SOL    HW226937   6.613   2.359   4.640
 8680SOL     OW26938   1.136   3.503   0.314
 8680SOL    HW126939   1.199   3.450   0.370
 8680SOL    HW226940   1.101   3.581   0.366
 8681SOL     OW26941   4.428   3.564   0.965
 8681SOL    HW126942   4.464   3.473   0.984
 8681SOL    HW226943   4.333   3.557   0.933
 8682SOL     OW26944   1.921   5.905   2.535
 8682SOL    HW126945   1.839   5.863   2.495
 8682SOL    HW226946   1.967   5.840   2.594
 8683SOL     OW26947   6.311   3.332   6.170
 8683SOL    HW126948   6.398   3.318   6.123
 8683SOL    HW226949   6.327   3.349   6.267
 8684SOL     OW26950   6.522   2.471   4.338
 8684SOL    HW126951   6.441   2.529   4.348
 8684SOL    HW226952   6.598   2.525   4.301
 8685SOL     OW26953   0.957   2.108   5.328
 8685SOL    HW126954   0.917   2.171   5.262
 8685SOL    HW226955   0.957   2.150   5.419
 8686SOL     OW26956   6.396   2.555   3.369
 8686SOL    HW126957   6.356   2.588   3.284
 8686SOL    HW226958   6.327   2.557   3.441
 8687SOL     OW26959   4.639   0.596   2.773
 8687SOL    HW126960   4.632   0.571   2.869
 8687SOL    HW226961   4.735   0.609   2.748
 8688SOL     OW26962   2.060   0.213   2.355
 8688SOL    HW126963   2.033   0.269   2.277
 8688SOL    HW226964   1.979   0.173   2.398
 8689SOL     OW26965   4.222   5.525   0.693
 8689SOL    HW126966   4.193   5.429   0.698
 8689SOL    HW226967   4.282   5.537   0.614
 8690SOL     OW26968   1.157   1.438   2.617
 8690SOL    HW126969   1.187   1.383   2.695
 8690SOL    HW226970   1.057   1.430   2.607
 8691SOL     OW26971   5.976   1.645   0.818
 8691SOL    HW126972   5.987   1.572   0.886
 8691SOL    HW226973   5.880   1.650   0.790
 8692SOL     OW26974   1.509   1.701   3.992
 8692SOL    HW126975   1.436   1.658   3.938
 8692SOL    HW226976   1.545   1.635   4.057
 8693SOL     OW26977   5.738   2.030   0.439
 8693SOL    HW126978   5.806   2.103   0.432
 8693SOL    HW226979   5.721   1.991   0.348
 8694SOL     OW26980   4.250   6.232   5.916
 8694SOL    HW126981   4.247   6.322   5.960
 8694SOL    HW226982   4.156   6.199   5.901
 8695SOL     OW26983   4.330   4.195   5.730
 8695SOL    HW126984   4.273   4.181   5.811
 8695SOL    HW226985   4.279   4.166   5.649
 8696SOL     OW26986   2.104   5.230   1.023
 8696SOL    HW126987   2.197   5.257   1.050
 8696SOL    HW226988   2.085   5.138   1.057
 8697SOL     OW26989   5.767   4.170   0.624
 8697SOL    HW126990   5.720   4.110   0.558
 8697SOL    HW226991   5.758   4.265   0.595
 8698SOL     OW26992   5.809   5.953   4.203
 8698SOL    HW126993   5.889   5.999   4.242
 8698SOL    HW226994   5.799   5.863   4.246
 8699SOL     OW26995   1.568   1.798   5.435
 8699SOL    HW126996   1.473   1.814   5.409
 8699SOL    HW226997   1.627   1.808   5.355
 8700SOL     OW26998   2.831   1.997   6.152
 8700SOL    HW126999   2.733   2.005   6.139
 8700SOL    HW227000   2.873   1.960   6.069
 8701SOL     OW27001   1.156   1.865   4.172
 8701SOL    HW127002   1.107   1.917   4.242
 8701SOL    HW227003   1.162   1.919   4.089
 8702SOL     OW27004   4.784   5.714   0.167
 8702SOL    HW127005   4.767   5.804   0.208
 8702SOL    HW227006   4.788   5.645   0.239
 8703SOL     OW27007   2.001   5.651   0.990
 8703SOL    HW127008   1.922   5.697   1.029
 8703SOL    HW227009   2.062   5.621   1.064
 8704SOL     OW27010   0.553   4.220   1.519
 8704SOL    HW127011   0.611   4.150   1.477
 8704SOL    HW227012   0.479   4.245   1.456
 8705SOL     OW27013   4.709   0.084   5.363
 8705SOL    HW127014   4.661   0.109   5.279
 8705SOL    HW227015   4.786   0.024   5.341
 8706SOL     OW27016   5.219   2.416   6.975
 8706SOL    HW127017   5.279   2.345   7.011
 8706SOL    HW227018   5.239   2.503   0.000
 8707SOL     OW27019   4.796   2.503   5.898
 8707SOL    HW127020   4.817   2.428   5.961
 8707SOL    HW227021   4.825   2.590   5.939
 8708SOL     OW27022   4.108   1.648   0.991
 8708SOL    HW127023   4.064   1.631   0.903
 8708SOL    HW227024   4.158   1.734   0.988
 8709SOL     OW27025   6.816   3.477   0.877
 8709SOL    HW127026   6.889   3.409   0.890
 8709SOL    HW227027   6.855   3.561   0.841
 8710SOL     OW27028   1.027   3.422   3.456
 8710SOL    HW127029   0.943   3.394   3.504
 8710SOL    HW227030   1.088   3.343   3.448
 8711SOL     OW27031   0.444   1.373   3.966
 8711SOL    HW127032   0.433   1.325   4.053
 8711SOL    HW227033   0.363   1.429   3.949
 8712SOL     OW27034   3.495   1.166   5.762
 8712SOL    HW127035   3.544   1.209   5.686
 8712SOL    HW227036   3.420   1.226   5.792
 8713SOL     OW27037   6.696   5.036   3.242
 8713SOL    HW127038   6.621   5.074   3.295
 8713SOL    HW227039   6.762   4.992   3.304
 8714SOL     OW27040   1.521   1.394   4.775
 8714SOL    HW127041   1.564   1.304   4.762
 8714SOL    HW227042   1.432   1.395   4.729
 8715SOL     OW27043   5.860   1.380   1.488
 8715SOL    HW127044   5.794   1.406   1.417
 8715SOL    HW227045   5.834   1.421   1.575
 8716SOL     OW27046   1.695   1.665   1.657
 8716SOL    HW127047   1.714   1.655   1.559
 8716SOL    HW227048   1.744   1.594   1.708
 8717SOL     OW27049   3.823   3.073   0.819
 8717SOL    HW127050   3.812   3.047   0.915
 8717SOL    HW227051   3.812   3.172   0.810
 8718SOL     OW27052   6.648   3.085   5.806
 8718SOL    HW127053   6.554   3.069   5.837
 8718SOL    HW227054   6.710   3.081   5.885
 8719SOL     OW27055   6.994   0.740   6.077
 8719SOL    HW127056   7.001   0.649   6.120
 8719SOL    HW227057   6.917   0.789   6.117
 8720SOL     OW27058   5.082   3.666   5.769
 8720SOL    HW127059   5.096   3.571   5.795
 8720SOL    HW227060   5.169   3.716   5.778
 8721SOL     OW27061   0.162   2.303   4.655
 8721SOL    HW127062   0.153   2.400   4.633
 8721SOL    HW227063   0.202   2.255   4.577
 8722SOL     OW27064   3.750   2.626   0.692
 8722SOL    HW127065   3.686   2.649   0.766
 8722SOL    HW227066   3.700   2.581   0.618
 8723SOL     OW27067   6.944   4.553   0.366
 8723SOL    HW127068   0.010   4.506   0.385
 8723SOL    HW227069   6.883   4.543   0.444
 8724SOL     OW27070   5.335   6.778   6.690
 8724SOL    HW127071   5.254   6.812   6.739
 8724SOL    HW227072   5.315   6.773   6.592
 8725SOL     OW27073   2.355   5.852   0.911
 8725SOL    HW127074   2.310   5.861   0.822
 8725SOL    HW227075   2.454   5.862   0.900
 8726SOL     OW27076   5.336   0.379   1.662
 8726SOL    HW127077   5.266   0.411   1.598
 8726SOL    HW227078   5.305   0.392   1.756
 8727SOL     OW27079   6.395   5.707   1.128
 8727SOL    HW127080   6.376   5.658   1.043
 8727SOL    HW227081   6.421   5.801   1.108
 8728SOL     OW27082   2.269   0.102   5.329
 8728SOL    HW127083   2.357   0.065   5.360
 8728SOL    HW227084   2.256   0.193   5.368
 8729SOL     OW27085   5.782   6.541   4.683
 8729SOL    HW127086   5.764   6.583   4.772
 8729SOL    HW227087   5.729   6.589   4.613
 8730SOL     OW27088   0.051   6.606   1.422
 8730SOL    HW127089   6.997   6.614   1.489
 8730SOL    HW227090   0.139   6.620   1.467
 8731SOL     OW27091   1.130   2.035   2.655
 8731SOL    HW127092   1.197   2.005   2.723
 8731SOL    HW227093   1.049   1.976   2.661
 8732SOL     OW27094   5.130   4.587   1.527
 8732SOL    HW127095   5.119   4.495   1.566
 8732SOL    HW227096   5.043   4.615   1.485
 8733SOL     OW27097   0.544   6.250   1.552
 8733SOL    HW127098   0.619   6.184   1.550
 8733SOL    HW227099   0.554   6.313   1.475
 8734SOL     OW27100   6.541   5.053   0.676
 8734SOL    HW127101   6.565   4.955   0.672
 8734SOL    HW227102   6.524   5.078   0.771
 8735SOL     OW27103   6.532   2.673   6.835
 8735SOL    HW127104   6.452   2.657   6.893
 8735SOL    HW227105   6.610   2.621   6.870
 8736SOL     OW27106   0.360   5.018   6.681
 8736SOL    HW127107   0.417   4.982   6.607
 8736SOL    HW227108   0.285   5.072   6.642
 8737SOL     OW27109   3.654   5.708   6.346
 8737SOL    HW127110   3.671   5.757   6.261
 8737SOL    HW227111   3.696   5.758   6.422
 8738SOL     OW27112   1.676   3.595   4.513
 8738SOL    HW127113   1.592   3.542   4.511
 8738SOL    HW227114   1.657   3.687   4.549
 8739SOL     OW27115   1.149   3.232   4.997
 8739SOL    HW127116   1.242   3.260   4.976
 8739SOL    HW227117   1.149   3.177   5.081
 8740SOL     OW27118   2.207   6.142   1.654
 8740SOL    HW127119   2.116   6.182   1.664
 8740SOL    HW227120   2.206   6.048   1.688
 8741SOL     OW27121   1.257   3.712   1.999
 8741SOL    HW127122   1.186   3.776   2.027
 8741SOL    HW227123   1.253   3.630   2.055
 8742SOL     OW27124   4.338   6.921   2.010
 8742SOL    HW127125   4.414   6.861   1.988
 8742SOL    HW227126   4.356   7.012   1.974
 8743SOL     OW27127   2.297   4.295   3.218
 8743SOL    HW127128   2.223   4.362   3.214
 8743SOL    HW227129   2.312   4.267   3.313
 8744SOL     OW27130   3.351   2.997   5.777
 8744SOL    HW127131   3.251   2.997   5.788
 8744SOL    HW227132   3.394   2.988   5.867
 8745SOL     OW27133   6.221   1.966   6.512
 8745SOL    HW127134   6.295   1.943   6.575
 8745SOL    HW227135   6.248   1.942   6.418
 8746SOL     OW27136   5.369   4.281   5.133
 8746SOL    HW127137   5.408   4.213   5.072
 8746SOL    HW227138   5.296   4.240   5.188
 8747SOL     OW27139   1.556   2.465   4.220
 8747SOL    HW127140   1.613   2.518   4.283
 8747SOL    HW227141   1.514   2.527   4.154
 8748SOL     OW27142   2.352   0.727   6.714
 8748SOL    HW127143   2.322   0.724   6.619
 8748SOL    HW227144   2.347   0.821   6.748
 8749SOL     OW27145   3.897   0.963   3.984
 8749SOL    HW127146   3.808   0.965   3.938
 8749SOL    HW227147   3.939   1.054   3.979
 8750SOL     OW27148   2.588   1.015   5.151
 8750SOL    HW127149   2.522   1.011   5.076
 8750SOL    HW227150   2.617   0.922   5.175
 8751SOL     OW27151   1.652   7.004   2.689
 8751SOL    HW127152   1.567   6.954   2.709
 8751SOL    HW227153   1.632   0.081   2.681
 8752SOL     OW27154   1.772   2.332   6.445
 8752SOL    HW127155   1.785   2.422   6.405
 8752SOL    HW227156   1.720   2.340   6.530
 8753SOL     OW27157   5.400   1.236   4.957
 8753SOL    HW127158   5.367   1.270   5.045
 8753SOL    HW227159   5.465   1.301   4.918
 8754SOL     OW27160   1.479   1.031   5.856
 8754SOL    HW127161   1.551   1.039   5.786
 8754SOL    HW227162   1.441   1.121   5.876
 8755SOL     OW27163   2.378   1.790   0.538
 8755SOL    HW127164   2.467   1.744   0.533
 8755SOL    HW227165   2.368   1.851   0.459
 8756SOL     OW27166   2.114   3.106   4.309
 8756SOL    HW127167   2.114   3.110   4.409
 8756SOL    HW227168   2.190   3.048   4.279
 8757SOL     OW27169   5.061   5.765   3.889
 8757SOL    HW127170   5.114   5.833   3.939
 8757SOL    HW227171   5.012   5.810   3.813
 8758SOL     OW27172   5.411   6.097   1.954
 8758SOL    HW127173   5.500   6.055   1.939
 8758SOL    HW227174   5.423   6.187   1.997
 8759SOL     OW27175   5.127   0.888   5.977
 8759SOL    HW127176   5.050   0.928   5.928
 8759SOL    HW227177   5.121   0.911   6.074
 8760SOL     OW27178   1.819   2.746   3.706
 8760SOL    HW127179   1.868   2.833   3.714
 8760SOL    HW227180   1.784   2.737   3.612
 8761SOL     OW27181   5.292   6.249   0.910
 8761SOL    HW127182   5.218   6.299   0.955
 8761SOL    HW227183   5.376   6.303   0.914
 8762SOL     OW27184   0.652   3.895   0.034
 8762SOL    HW127185   0.630   3.955   0.111
 8762SOL    HW227186   0.705   3.946   6.986
 8763SOL     OW27187   6.862   6.081   5.830
 8763SOL    HW127188   6.783   6.142   5.827
 8763SOL    HW227189   6.900   6.072   5.738
 8764SOL     OW27190   3.352   2.191   5.343
 8764SOL    HW127191   3.293   2.259   5.299
 8764SOL    HW227192   3.327   2.182   5.439
 8765SOL     OW27193   0.263   0.453   5.190
 8765SOL    HW127194   0.357   0.483   5.175
 8765SOL    HW227195   0.207   0.483   5.113
 8766SOL     OW27196   2.398   4.496   2.534
 8766SOL    HW127197   2.368   4.402   2.554
 8766SOL    HW227198   2.380   4.516   2.438
 8767SOL     OW27199   5.137   1.824   4.626
 8767SOL    HW127200   5.235   1.842   4.619
 8767SOL    HW227201   5.091   1.854   4.542
 8768SOL     OW27202   1.223   3.946   6.641
 8768SOL    HW127203   1.290   4.003   6.593
 8768SOL    HW227204   1.259   3.853   6.650
 8769SOL     OW27205   2.016   0.689   5.487
 8769SOL    HW127206   2.096   0.747   5.504
 8769SOL    HW227207   1.946   0.742   5.440
 8770SOL     OW27208   5.675   2.166   2.276
 8770SOL    HW127209   5.592   2.203   2.316
 8770SOL    HW227210   5.736   2.242   2.250
 8771SOL     OW27211   1.547   2.681   6.426
 8771SOL    HW127212   1.547   2.710   6.521
 8771SOL    HW227213   1.642   2.668   6.396
 8772SOL     OW27214   5.460   6.363   0.261
 8772SOL    HW127215   5.539   6.424   0.265
 8772SOL    HW227216   5.483   6.282   0.208
 8773SOL     OW27217   2.952   2.209   3.294
 8773SOL    HW127218   2.867   2.200   3.242
 8773SOL    HW227219   2.931   2.217   3.392
 8774SOL     OW27220   0.906   1.031   6.792
 8774SOL    HW127221   0.891   1.016   6.694
 8774SOL    HW227222   0.959   1.115   6.805
 8775SOL     OW27223   6.159   0.227   4.249
 8775SOL    HW127224   6.130   0.134   4.226
 8775SOL    HW227225   6.205   0.226   4.338
 8776SOL     OW27226   3.257   3.325   4.662
 8776SOL    HW127227   3.302   3.331   4.752
 8776SOL    HW227228   3.190   3.252   4.663
 8777SOL     OW27229   6.286   5.846   2.036
 8777SOL    HW127230   6.211   5.799   2.083
 8777SOL    HW227231   6.318   5.790   1.960
 8778SOL     OW27232   0.922   2.373   3.184
 8778SOL    HW127233   0.865   2.322   3.120
 8778SOL    HW227234   0.865   2.435   3.237
 8779SOL     OW27235   1.766   4.166   0.495
 8779SOL    HW127236   1.837   4.192   0.561
 8779SOL    HW227237   1.709   4.246   0.474
 8780SOL     OW27238   2.304   5.803   4.224
 8780SOL    HW127239   2.310   5.902   4.210
 8780SOL    HW227240   2.290   5.783   4.321
 8781SOL     OW27241   0.811   2.097   2.579
 8781SOL    HW127242   0.804   2.195   2.560
 8781SOL    HW227243   0.850   2.084   2.670
 8782SOL     OW27244   4.882   1.638   2.499
 8782SOL    HW127245   4.930   1.709   2.448
 8782SOL    HW227246   4.883   1.659   2.596
 8783SOL     OW27247   5.246   2.608   5.571
 8783SOL    HW127248   5.204   2.521   5.596
 8783SOL    HW227249   5.181   2.662   5.518
 8784SOL     OW27250   5.499   4.324   5.373
 8784SOL    HW127251   5.492   4.225   5.355
 8784SOL    HW227252   5.447   4.374   5.303
 8785SOL     OW27253   5.426   4.555   6.415
 8785SOL    HW127254   5.360   4.483   6.439
 8785SOL    HW227255   5.451   4.605   6.498
 8786SOL     OW27256   1.279   5.833   1.018
 8786SOL    HW127257   1.341   5.906   0.986
 8786SOL    HW227258   1.188   5.872   1.033
 8787SOL     OW27259   1.107   2.970   0.399
 8787SOL    HW127260   1.094   2.871   0.395
 8787SOL    HW227261   1.187   2.995   0.344
 8788SOL     OW27262   0.880   1.731   5.676
 8788SOL    HW127263   0.843   1.762   5.588
 8788SOL    HW227264   0.978   1.715   5.668
 8789SOL     OW27265   6.982   6.844   6.902
 8789SOL    HW127266   0.003   6.771   6.848
 8789SOL    HW227267   6.973   6.926   6.846
 8790SOL     OW27268   5.080   1.558   0.112
 8790SOL    HW127269   5.023   1.576   0.031
 8790SOL    HW227270   5.037   1.486   0.167
 8791SOL     OW27271   4.660   6.235   5.690
 8791SOL    HW127272   4.632   6.211   5.597
 8791SOL    HW227273   4.700   6.327   5.690
 8792SOL     OW27274   5.178   0.086   2.994
 8792SOL    HW127275   5.085   0.104   2.962
 8792SOL    HW227276   5.180   0.086   3.094
 8793SOL     OW27277   1.030   4.861   4.433
 8793SOL    HW127278   0.979   4.946   4.422
 8793SOL    HW227279   1.034   4.813   4.345
 8794SOL     OW27280   2.465   6.570   2.622
 8794SOL    HW127281   2.390   6.562   2.556
 8794SOL    HW227282   2.535   6.631   2.586
 8795SOL     OW27283   1.682   6.359   5.465
 8795SOL    HW127284   1.720   6.451   5.477
 8795SOL    HW227285   1.740   6.292   5.509
 8796SOL     OW27286   5.614   2.590   5.305
 8796SOL    HW127287   5.712   2.569   5.300
 8796SOL    HW227288   5.581   2.574   5.397
 8797SOL     OW27289   0.554   6.589   6.796
 8797SOL    HW127290   0.578   6.493   6.810
 8797SOL    HW227291   0.618   6.648   6.845
 8798SOL     OW27292   4.447   3.334   6.113
 8798SOL    HW127293   4.427   3.432   6.115
 8798SOL    HW227294   4.512   3.312   6.185
 8799SOL     OW27295   3.866   6.547   2.358
 8799SOL    HW127296   3.803   6.470   2.363
 8799SOL    HW227297   3.815   6.633   2.364
 8800SOL     OW27298   4.485   5.162   0.126
 8800SOL    HW127299   4.492   5.129   0.220
 8800SOL    HW227300   4.573   5.148   0.080
 8801SOL     OW27301   2.933   6.993   4.895
 8801SOL    HW127302   2.999   6.961   4.963
 8801SOL    HW227303   2.930   6.929   4.818
 8802SOL     OW27304   2.690   0.244   2.120
 8802SOL    HW127305   2.768   0.183   2.109
 8802SOL    HW227306   2.631   0.210   2.193
 8803SOL     OW27307   3.703   5.945   0.751
 8803SOL    HW127308   3.773   5.941   0.822
 8803SOL    HW227309   3.706   5.862   0.696
 8804SOL     OW27310   4.228   0.280   1.098
 8804SOL    HW127311   4.255   0.374   1.076
 8804SOL    HW227312   4.284   0.216   1.045
 8805SOL     OW27313   0.336   0.267   2.807
 8805SOL    HW127314   0.339   0.206   2.728
 8805SOL    HW227315   0.426   0.310   2.818
 8806SOL     OW27316   2.182   5.244   0.083
 8806SOL    HW127317   2.184   5.208   7.010
 8806SOL    HW227318   2.235   5.184   0.143
 8807SOL     OW27319   1.516   6.452   5.982
 8807SOL    HW127320   1.438   6.513   5.974
 8807SOL    HW227321   1.494   6.364   5.938
 8808SOL     OW27322   6.085   1.067   0.796
 8808SOL    HW127323   6.094   1.010   0.878
 8808SOL    HW227324   6.147   1.145   0.803
 8809SOL     OW27325   6.334   4.031   0.977
 8809SOL    HW127326   6.253   3.991   1.020
 8809SOL    HW227327   6.413   3.974   0.997
 8810SOL     OW27328   5.123   1.513   3.866
 8810SOL    HW127329   5.080   1.426   3.843
 8810SOL    HW227330   5.193   1.534   3.798
 8811SOL     OW27331   0.802   1.620   4.166
 8811SOL    HW127332   0.831   1.558   4.093
 8811SOL    HW227333   0.706   1.602   4.188
 8812SOL     OW27334   1.977   0.649   0.857
 8812SOL    HW127335   2.024   0.630   0.771
 8812SOL    HW227336   2.023   0.602   0.932
 8813SOL     OW27337   1.773   4.808   1.128
 8813SOL    HW127338   1.712   4.728   1.134
 8813SOL    HW227339   1.852   4.785   1.072
 8814SOL     OW27340   5.332   6.715   0.450
 8814SOL    HW127341   5.264   6.681   0.386
 8814SOL    HW227342   5.408   6.755   0.400
 8815SOL     OW27343   0.038   6.520   2.754
 8815SOL    HW127344   6.981   6.477   2.707
 8815SOL    HW227345   0.124   6.488   2.713
 8816SOL     OW27346   0.960   6.144   1.958
 8816SOL    HW127347   1.028   6.173   1.891
 8816SOL    HW227348   0.901   6.074   1.917
 8817SOL     OW27349   2.434   4.408   5.243
 8817SOL    HW127350   2.435   4.487   5.304
 8817SOL    HW227351   2.526   4.369   5.236
 8818SOL     OW27352   6.949   5.250   4.696
 8818SOL    HW127353   6.983   5.226   4.606
 8818SOL    HW227354   0.004   5.284   4.753
 8819SOL     OW27355   5.270   0.503   4.280
 8819SOL    HW127356   5.309   0.566   4.213
 8819SOL    HW227357   5.278   0.543   4.372
 8820SOL     OW27358   1.739   3.009   4.297
 8820SOL    HW127359   1.803   3.086   4.298
 8820SOL    HW227360   1.719   2.981   4.391
 8821SOL     OW27361   1.944   0.775   6.178
 8821SOL    HW127362   1.890   0.795   6.097
 8821SOL    HW227363   2.041   0.768   6.153
 8822SOL     OW27364   0.448   1.812   4.174
 8822SOL    HW127365   0.491   1.755   4.104
 8822SOL    HW227366   0.495   1.899   4.180
 8823SOL     OW27367   2.508   5.368   2.033
 8823SOL    HW127368   2.586   5.416   1.994
 8823SOL    HW227369   2.541   5.300   2.100
 8824SOL     OW27370   4.490   3.828   0.528
 8824SOL    HW127371   4.395   3.849   0.551
 8824SOL    HW227372   4.551   3.890   0.576
 8825SOL     OW27373   1.548   2.567   1.382
 8825SOL    HW127374   1.471   2.623   1.414
 8825SOL    HW227375   1.517   2.502   1.313
 8826SOL     OW27376   5.819   0.853   0.029
 8826SOL    HW127377   5.743   0.857   0.094
 8826SOL    HW227378   5.892   0.795   0.065
 8827SOL     OW27379   0.928   1.120   3.859
 8827SOL    HW127380   0.851   1.173   3.895
 8827SOL    HW227381   0.901   1.075   3.774
 8828SOL     OW27382   1.673   5.861   2.372
 8828SOL    HW127383   1.635   5.832   2.284
 8828SOL    HW227384   1.600   5.895   2.431
 8829SOL     OW27385   0.857   1.588   6.912
 8829SOL    HW127386   0.835   1.665   6.971
 8829SOL    HW227387   0.863   1.504   6.966
 8830SOL     OW27388   0.538   1.866   0.593
 8830SOL    HW127389   0.535   1.905   0.685
 8830SOL    HW227390   0.630   1.874   0.556
 8831SOL     OW27391   6.904   0.947   2.788
 8831SOL    HW127392   6.936   0.988   2.874
 8831SOL    HW227393   6.877   1.019   2.724
 8832SOL     OW27394   0.200   0.670   2.477
 8832SOL    HW127395   0.174   0.587   2.428
 8832SOL    HW227396   0.158   0.670   2.567
 8833SOL     OW27397   2.128   4.482   3.242
 8833SOL    HW127398   2.103   4.447   3.332
 8833SOL    HW227399   2.076   4.565   3.222
 8834SOL     OW27400   5.942   4.074   4.371
 8834SOL    HW127401   5.991   4.054   4.287
 8834SOL    HW227402   5.865   4.135   4.352
 8835SOL     OW27403   0.559   6.892   6.225
 8835SOL    HW127404   0.571   6.801   6.185
 8835SOL    HW227405   0.538   6.957   6.152
 8836SOL     OW27406   4.988   1.810   1.183
 8836SOL    HW127407   4.907   1.857   1.147
 8836SOL    HW227408   4.963   1.717   1.211
 8837SOL     OW27409   1.322   1.859   2.108
 8837SOL    HW127410   1.244   1.917   2.134
 8837SOL    HW227411   1.289   1.768   2.081
 8838SOL     OW27412   2.255   5.764   3.778
 8838SOL    HW127413   2.305   5.851   3.777
 8838SOL    HW227414   2.287   5.707   3.853
 8839SOL     OW27415   6.165   6.986   4.145
 8839SOL    HW127416   6.179   6.915   4.214
 8839SOL    HW227417   6.085   6.963   4.089
 8840SOL     OW27418   5.046   1.253   2.051
 8840SOL    HW127419   5.051   1.203   2.138
 8840SOL    HW227420   5.132   1.302   2.036
 8841SOL     OW27421   1.722   0.293   4.203
 8841SOL    HW127422   1.705   0.290   4.302
 8841SOL    HW227423   1.820   0.292   4.186
 8842SOL     OW27424   1.702   2.693   2.241
 8842SOL    HW127425   1.633   2.753   2.280
 8842SOL    HW227426   1.694   2.693   2.141
 8843SOL     OW27427   0.511   3.348   4.577
 8843SOL    HW127428   0.513   3.445   4.553
 8843SOL    HW227429   0.561   3.296   4.509
 8844SOL     OW27430   6.021   1.405   6.160
 8844SOL    HW127431   6.054   1.473   6.226
 8844SOL    HW227432   5.990   1.324   6.208
 8845SOL     OW27433   5.654   3.761   6.558
 8845SOL    HW127434   5.635   3.664   6.570
 8845SOL    HW227435   5.643   3.809   6.646
 8846SOL     OW27436   2.439   4.838   3.180
 8846SOL    HW127437   2.424   4.817   3.277
 8846SOL    HW227438   2.462   4.754   3.131
 8847SOL     OW27439   2.187   0.974   2.476
 8847SOL    HW127440   2.192   0.902   2.544
 8847SOL    HW227441   2.125   0.947   2.403
 8848SOL     OW27442   1.411   0.150   2.780
 8848SOL    HW127443   1.433   0.244   2.806
 8848SOL    HW227444   1.313   0.143   2.762
 8849SOL     OW27445   3.039   6.854   1.136
 8849SOL    HW127446   3.020   6.835   1.232
 8849SOL    HW227447   2.998   6.941   1.110
 8850SOL     OW27448   2.603   2.531   0.058
 8850SOL    HW127449   2.679   2.466   0.065
 8850SOL    HW227450   2.621   2.594   7.002
 8851SOL     OW27451   1.739   3.391   2.440
 8851SOL    HW127452   1.703   3.478   2.406
 8851SOL    HW227453   1.696   3.369   2.528
 8852SOL     OW27454   1.336   2.490   5.663
 8852SOL    HW127455   1.328   2.424   5.738
 8852SOL    HW227456   1.257   2.480   5.602
 8853SOL     OW27457   5.506   1.015   1.475
 8853SOL    HW127458   5.526   1.010   1.377
 8853SOL    HW227459   5.560   0.946   1.523
 8854SOL     OW27460   0.919   2.053   4.856
 8854SOL    HW127461   1.000   2.093   4.899
 8854SOL    HW227462   0.850   2.124   4.842
 8855SOL     OW27463   5.181   5.249   1.274
 8855SOL    HW127464   5.175   5.297   1.186
 8855SOL    HW227465   5.274   5.257   1.310
 8856SOL     OW27466   6.592   0.829   5.692
 8856SOL    HW127467   6.635   0.803   5.606
 8856SOL    HW227468   6.605   0.927   5.707
 8857SOL     OW27469   6.363   2.250   6.112
 8857SOL    HW127470   6.313   2.272   6.196
 8857SOL    HW227471   6.298   2.219   6.042
 8858SOL     OW27472   6.557   6.268   5.147
 8858SOL    HW127473   6.540   6.171   5.127
 8858SOL    HW227474   6.540   6.286   5.243
 8859SOL     OW27475   0.650   6.369   3.249
 8859SOL    HW127476   0.591   6.441   3.214
 8859SOL    HW227477   0.746   6.397   3.241
 8860SOL     OW27478   6.974   4.149   2.992
 8860SOL    HW127479   0.040   4.176   2.949
 8860SOL    HW227480   6.898   4.187   2.940
 8861SOL     OW27481   3.554   2.982   1.378
 8861SOL    HW127482   3.509   3.018   1.296
 8861SOL    HW227483   3.547   3.050   1.451
 8862SOL     OW27484   4.596   4.465   4.774
 8862SOL    HW127485   4.531   4.471   4.850
 8862SOL    HW227486   4.634   4.373   4.770
 8863SOL     OW27487   1.804   3.675   3.168
 8863SOL    HW127488   1.753   3.622   3.235
 8863SOL    HW227489   1.902   3.652   3.174
 8864SOL     OW27490   6.779   2.475   5.705
 8864SOL    HW127491   6.746   2.570   5.708
 8864SOL    HW227492   6.777   2.442   5.610
 8865SOL     OW27493   2.984   1.680   0.707
 8865SOL    HW127494   3.009   1.716   0.617
 8865SOL    HW227495   3.002   1.748   0.777
 8866SOL     OW27496   5.807   6.734   1.783
 8866SOL    HW127497   5.768   6.642   1.779
 8866SOL    HW227498   5.876   6.738   1.855
 8867SOL     OW27499   6.346   3.370   2.686
 8867SOL    HW127500   6.332   3.273   2.670
 8867SOL    HW227501   6.259   3.414   2.708
 8868SOL     OW27502   6.932   3.629   3.844
 8868SOL    HW127503   6.931   3.650   3.942
 8868SOL    HW227504   6.918   3.530   3.831
 8869SOL     OW27505   4.247   0.116   3.372
 8869SOL    HW127506   4.217   0.182   3.303
 8869SOL    HW227507   4.200   0.028   3.357
 8870SOL     OW27508   1.626   0.581   2.489
 8870SOL    HW127509   1.647   0.604   2.584
 8870SOL    HW227510   1.597   0.486   2.483
 8871SOL     OW27511   6.741   0.361   1.879
 8871SOL    HW127512   6.683   0.365   1.797
 8871SOL    HW227513   6.821   0.419   1.866
 8872SOL     OW27514   6.915   4.029   3.677
 8872SOL    HW127515   6.956   3.956   3.622
 8872SOL    HW227516   6.943   4.118   3.642
 8873SOL     OW27517   2.458   2.174   2.521
 8873SOL    HW127518   2.475   2.158   2.424
 8873SOL    HW227519   2.361   2.159   2.540
 8874SOL     OW27520   2.641   6.293   6.964
 8874SOL    HW127521   2.545   6.264   6.965
 8874SOL    HW227522   2.647   6.388   6.997
 8875SOL     OW27523   6.697   3.114   4.420
 8875SOL    HW127524   6.692   3.203   4.374
 8875SOL    HW227525   6.758   3.121   4.499
 8876SOL     OW27526   5.017   0.123   6.939
 8876SOL    HW127527   4.971   0.211   6.942
 8876SOL    HW227528   5.093   0.127   6.873
 8877SOL     OW27529   1.004   4.709   1.150
 8877SOL    HW127530   0.994   4.651   1.069
 8877SOL    HW227531   1.095   4.753   1.148
 8878SOL     OW27532   5.022   4.059   1.340
 8878SOL    HW127533   4.926   4.077   1.364
 8878SOL    HW227534   5.057   4.135   1.285
 8879SOL     OW27535   6.799   4.269   2.784
 8879SOL    HW127536   6.744   4.344   2.823
 8879SOL    HW227537   6.743   4.218   2.719
 8880SOL     OW27538   4.345   1.819   3.238
 8880SOL    HW127539   4.289   1.769   3.304
 8880SOL    HW227540   4.324   1.788   3.145
 8881SOL     OW27541   4.108   4.765   3.417
 8881SOL    HW127542   4.194   4.715   3.411
 8881SOL    HW227543   4.098   4.824   3.337
 8882SOL     OW27544   4.041   0.247   0.508
 8882SOL    HW127545   4.106   0.289   0.573
 8882SOL    HW227546   4.057   0.284   0.417
 8883SOL     OW27547   0.101   6.498   4.095
 8883SOL    HW127548   0.150   6.559   4.156
 8883SOL    HW227549   0.073   6.548   4.013
 8884SOL     OW27550   5.055   3.123   5.579
 8884SOL    HW127551   5.047   3.057   5.505
 8884SOL    HW227552   5.030   3.214   5.546
 8885SOL     OW27553   5.955   5.954   0.802
 8885SOL    HW127554   5.968   6.018   0.726
 8885SOL    HW227555   6.044   5.922   0.834
 8886SOL     OW27556   3.921   5.907   6.770
 8886SOL    HW127557   4.009   5.862   6.783
 8886SOL    HW227558   3.851   5.860   6.824
 8887SOL     OW27559   4.486   0.348   1.562
 8887SOL    HW127560   4.545   0.415   1.517
 8887SOL    HW227561   4.543   0.277   1.605
 8888SOL     OW27562   3.401   2.032   2.243
 8888SOL    HW127563   3.316   2.075   2.273
 8888SOL    HW227564   3.425   2.065   2.151
 8889SOL     OW27565   1.463   5.160   6.638
 8889SOL    HW127566   1.550   5.136   6.596
 8889SOL    HW227567   1.392   5.165   6.568
 8890SOL     OW27568   1.082   6.610   0.145
 8890SOL    HW127569   1.052   6.605   0.241
 8890SOL    HW227570   1.003   6.621   0.086
 8891SOL     OW27571   6.294   4.255   5.476
 8891SOL    HW127572   6.329   4.192   5.545
 8891SOL    HW227573   6.358   4.332   5.467
 8892SOL     OW27574   2.751   5.226   4.944
 8892SOL    HW127575   2.777   5.258   5.035
 8892SOL    HW227576   2.691   5.147   4.952
 8893SOL     OW27577   1.246   5.301   5.319
 8893SOL    HW127578   1.210   5.291   5.412
 8893SOL    HW227579   1.288   5.215   5.291
 8894SOL     OW27580   5.034   1.574   1.508
 8894SOL    HW127581   4.975   1.654   1.495
 8894SOL    HW227582   5.091   1.587   1.589
 8895SOL     OW27583   6.451   3.379   0.914
 8895SOL    HW127584   6.534   3.340   0.951
 8895SOL    HW227585   6.398   3.308   0.868
 8896SOL     OW27586   0.599   2.483   3.691
 8896SOL    HW127587   0.553   2.572   3.684
 8896SOL    HW227588   0.652   2.466   3.608
 8897SOL     OW27589   1.854   5.417   3.744
 8897SOL    HW127590   1.834   5.371   3.657
 8897SOL    HW227591   1.790   5.386   3.813
 8898SOL     OW27592   4.881   3.628   2.677
 8898SOL    HW127593   4.868   3.563   2.752
 8898SOL    HW227594   4.886   3.578   2.591
 8899SOL     OW27595   1.425   3.792   3.291
 8899SOL    HW127596   1.494   3.864   3.289
 8899SOL    HW227597   1.444   3.730   3.368
 8900SOL     OW27598   4.644   2.044   4.216
 8900SOL    HW127599   4.628   2.117   4.282
 8900SOL    HW227600   4.567   1.981   4.217
 8901SOL     OW27601   1.371   5.282   4.240
 8901SOL    HW127602   1.273   5.264   4.246
 8901SOL    HW227603   1.422   5.201   4.269
 8902SOL     OW27604   0.282   4.569   0.325
 8902SOL    HW127605   0.319   4.656   0.290
 8902SOL    HW227606   0.329   4.493   0.281
 8903SOL     OW27607   1.130   0.032   5.751
 8903SOL    HW127608   1.217   0.015   5.705
 8903SOL    HW227609   1.132   0.122   5.795
 8904SOL     OW27610   0.649   1.233   3.652
 8904SOL    HW127611   0.642   1.167   3.728
 8904SOL    HW227612   0.593   1.313   3.673
 8905SOL     OW27613   1.282   3.886   2.827
 8905SOL    HW127614   1.257   3.892   2.924
 8905SOL    HW227615   1.351   3.815   2.815
 8906SOL     OW27616   5.824   0.066   0.328
 8906SOL    HW127617   5.871   0.149   0.301
 8906SOL    HW227618   5.821   0.003   0.250
 8907SOL     OW27619   2.943   3.522   4.948
 8907SOL    HW127620   2.910   3.448   5.005
 8907SOL    HW227621   2.942   3.493   4.852
 8908SOL     OW27622   1.331   4.146   6.507
 8908SOL    HW127623   1.258   4.202   6.468
 8908SOL    HW227624   1.385   4.105   6.434
 8909SOL     OW27625   1.747   5.762   1.058
 8909SOL    HW127626   1.711   5.815   0.981
 8909SOL    HW227627   1.685   5.687   1.079
 8910SOL     OW27628   1.187   0.301   3.592
 8910SOL    HW127629   1.096   0.264   3.576
 8910SOL    HW227630   1.186   0.359   3.674
 8911SOL     OW27631   4.361   2.179   4.650
 8911SOL    HW127632   4.286   2.185   4.716
 8911SOL    HW227633   4.327   2.141   4.565
 8912SOL     OW27634   3.518   3.609   3.880
 8912SOL    HW127635   3.486   3.532   3.825
 8912SOL    HW227636   3.522   3.581   3.976
 8913SOL     OW27637   5.572   6.026   0.686
 8913SOL    HW127638   5.563   6.125   0.695
 8913SOL    HW227639   5.600   6.004   0.592
 8914SOL     OW27640   4.741   5.300   5.755
 8914SOL    HW127641   4.686   5.297   5.672
 8914SOL    HW227642   4.691   5.258   5.830
 8915SOL     OW27643   1.472   1.338   2.557
 8915SOL    HW127644   1.419   1.258   2.583
 8915SOL    HW227645   1.569   1.313   2.550
 8916SOL     OW27646   5.102   1.086   1.079
 8916SOL    HW127647   5.017   1.139   1.076
 8916SOL    HW227648   5.098   1.021   1.154
 8917SOL     OW27649   6.037   1.695   0.243
 8917SOL    HW127650   5.950   1.645   0.240
 8917SOL    HW227651   6.019   1.790   0.271
 8918SOL     OW27652   0.990   3.473   2.539
 8918SOL    HW127653   0.953   3.489   2.631
 8918SOL    HW227654   0.916   3.481   2.472
 8919SOL     OW27655   6.539   2.865   1.437
 8919SOL    HW127656   6.597   2.936   1.477
 8919SOL    HW227657   6.581   2.831   1.353
 8920SOL     OW27658   6.915   0.768   6.794
 8920SOL    HW127659   6.981   0.749   6.721
 8920SOL    HW227660   6.944   0.848   6.846
 8921SOL     OW27661   1.595   3.160   2.331
 8921SOL    HW127662   1.516   3.214   2.361
 8921SOL    HW227663   1.679   3.203   2.361
 8922SOL     OW27664   4.442   5.375   3.935
 8922SOL    HW127665   4.450   5.297   3.873
 8922SOL    HW227666   4.376   5.353   4.007
 8923SOL     OW27667   2.292   1.762   4.607
 8923SOL    HW127668   2.310   1.856   4.636
 8923SOL    HW227669   2.262   1.708   4.686
 8924SOL     OW27670   6.244   5.189   5.062
 8924SOL    HW127671   6.179   5.140   5.004
 8924SOL    HW227672   6.333   5.145   5.058
 8925SOL     OW27673   0.899   6.345   2.690
 8925SOL    HW127674   0.850   6.388   2.614
 8925SOL    HW227675   0.985   6.306   2.657
 8926SOL     OW27676   5.914   1.051   6.628
 8926SOL    HW127677   5.988   1.116   6.646
 8926SOL    HW227678   5.944   0.984   6.561
 8927SOL     OW27679   1.542   0.737   5.767
 8927SOL    HW127680   1.517   0.832   5.789
 8927SOL    HW227681   1.459   0.682   5.762
 8928SOL     OW27682   0.782   6.765   5.448
 8928SOL    HW127683   0.878   6.758   5.474
 8928SOL    HW227684   0.736   6.833   5.506
 8929SOL     OW27685   0.191   1.471   3.647
 8929SOL    HW127686   0.250   1.432   3.719
 8929SOL    HW227687   0.100   1.430   3.653
 8930SOL     OW27688   2.101   4.592   3.625
 8930SOL    HW127689   2.092   4.493   3.614
 8930SOL    HW227690   2.178   4.612   3.686
 8931SOL     OW27691   4.268   3.261   0.493
 8931SOL    HW127692   4.222   3.172   0.487
 8931SOL    HW227693   4.367   3.248   0.486
 8932SOL     OW27694   1.020   3.847   3.724
 8932SOL    HW127695   0.998   3.749   3.726
 8932SOL    HW227696   1.085   3.865   3.651
 8933SOL     OW27697   3.942   2.045   5.378
 8933SOL    HW127698   3.881   2.038   5.299
 8933SOL    HW227699   3.947   1.956   5.424
 8934SOL     OW27700   2.429   5.862   2.575
 8934SOL    HW127701   2.494   5.846   2.500
 8934SOL    HW227702   2.479   5.893   2.656
 8935SOL     OW27703   6.725   4.757   0.620
 8935SOL    HW127704   6.711   4.659   0.612
 8935SOL    HW227705   6.675   4.805   0.548
 8936SOL     OW27706   3.950   2.506   0.894
 8936SOL    HW127707   3.892   2.560   0.833
 8936SOL    HW227708   3.984   2.426   0.846
 8937SOL     OW27709   0.523   6.633   6.496
 8937SOL    HW127710   0.504   6.651   6.592
 8937SOL    HW227711   0.447   6.582   6.455
 8938SOL     OW27712   4.676   6.219   1.694
 8938SOL    HW127713   4.594   6.168   1.722
 8938SOL    HW227714   4.710   6.182   1.608
 8939SOL     OW27715   4.399   1.726   5.080
 8939SOL    HW127716   4.331   1.667   5.124
 8939SOL    HW227717   4.464   1.669   5.029
 8940SOL     OW27718   5.611   0.127   2.383
 8940SOL    HW127719   5.586   0.223   2.381
 8940SOL    HW227720   5.710   0.118   2.386
 8941SOL     OW27721   4.976   1.554   6.055
 8941SOL    HW127722   4.994   1.519   6.147
 8941SOL    HW227723   5.060   1.550   6.000
 8942SOL     OW27724   1.083   3.149   5.483
 8942SOL    HW127725   1.027   3.120   5.560
 8942SOL    HW227726   1.173   3.177   5.515
 8943SOL     OW27727   5.222   3.327   1.304
 8943SOL    HW127728   5.266   3.413   1.278
 8943SOL    HW227729   5.261   3.293   1.390
 8944SOL     OW27730   4.617   5.275   1.539
 8944SOL    HW127731   4.551   5.346   1.563
 8944SOL    HW227732   4.567   5.191   1.515
 8945SOL     OW27733   1.747   0.850   4.396
 8945SOL    HW127734   1.668   0.870   4.338
 8945SOL    HW227735   1.780   0.934   4.438
 8946SOL     OW27736   4.024   1.601   4.659
 8946SOL    HW127737   4.081   1.520   4.674
 8946SOL    HW227738   4.050   1.673   4.723
 8947SOL     OW27739   3.714   3.941   4.669
 8947SOL    HW127740   3.730   3.999   4.589
 8947SOL    HW227741   3.801   3.910   4.706
 8948SOL     OW27742   6.329   5.151   2.550
 8948SOL    HW127743   6.311   5.248   2.534
 8948SOL    HW227744   6.322   5.101   2.463
 8949SOL     OW27745   2.607   5.360   6.582
 8949SOL    HW127746   2.591   5.411   6.666
 8949SOL    HW227747   2.701   5.324   6.583
 8950SOL     OW27748   4.700   2.308   4.777
 8950SOL    HW127749   4.629   2.375   4.755
 8950SOL    HW227750   4.787   2.355   4.791
 8951SOL     OW27751   2.453   2.300   5.577
 8951SOL    HW127752   2.523   2.365   5.605
 8951SOL    HW227753   2.478   2.258   5.490
 8952SOL     OW27754   6.580   0.332   3.474
 8952SOL    HW127755   6.547   0.291   3.388
 8952SOL    HW227756   6.504   0.377   3.520
 8953SOL     OW27757   1.612   4.449   6.605
 8953SOL    HW127758   1.586   4.371   6.548
 8953SOL    HW227759   1.645   4.417   6.693
 8954SOL     OW27760   1.491   5.928   5.979
 8954SOL    HW127761   1.494   5.908   5.881
 8954SOL    HW227762   1.400   5.960   6.003
 8955SOL     OW27763   6.004   3.630   3.817
 8955SOL    HW127764   5.943   3.673   3.884
 8955SOL    HW227765   6.017   3.534   3.841
 8956SOL     OW27766   1.304   1.063   5.409
 8956SOL    HW127767   1.218   1.092   5.367
 8956SOL    HW227768   1.359   1.143   5.431
 8957SOL     OW27769   2.790   5.516   2.293
 8957SOL    HW127770   2.705   5.569   2.300
 8957SOL    HW227771   2.851   5.559   2.226
 8958SOL     OW27772   2.113   0.781   4.147
 8958SOL    HW127773   2.187   0.802   4.083
 8958SOL    HW227774   2.140   0.807   4.239
 8959SOL     OW27775   3.041   4.634   1.300
 8959SOL    HW127776   3.007   4.566   1.365
 8959SOL    HW227777   3.041   4.724   1.342
 8960SOL     OW27778   4.100   6.135   1.293
 8960SOL    HW127779   4.142   6.053   1.333
 8960SOL    HW227780   4.015   6.109   1.248
 8961SOL     OW27781   1.668   2.369   3.997
 8961SOL    HW127782   1.585   2.381   4.051
 8961SOL    HW227783   1.688   2.453   3.946
 8962SOL     OW27784   5.144   0.341   3.536
 8962SOL    HW127785   5.129   0.439   3.520
 8962SOL    HW227786   5.101   0.315   3.623
 8963SOL     OW27787   0.079   0.902   3.523
 8963SOL    HW127788   0.111   0.933   3.434
 8963SOL    HW227789   0.056   0.805   3.518
 8964SOL     OW27790   6.712   4.650   2.915
 8964SOL    HW127791   6.679   4.716   2.984
 8964SOL    HW227792   6.708   4.558   2.953
 8965SOL     OW27793   1.484   5.322   1.324
 8965SOL    HW127794   1.534   5.394   1.373
 8965SOL    HW227795   1.413   5.285   1.384
 8966SOL     OW27796   3.207   2.869   5.184
 8966SOL    HW127797   3.108   2.867   5.198
 8966SOL    HW227798   3.227   2.871   5.086
 8967SOL     OW27799   4.527   0.138   0.634
 8967SOL    HW127800   4.535   0.045   0.599
 8967SOL    HW227801   4.465   0.140   0.712
 8968SOL     OW27802   5.136   5.262   2.815
 8968SOL    HW127803   5.229   5.293   2.832
 8968SOL    HW227804   5.084   5.264   2.900
 8969SOL     OW27805   6.355   1.168   4.474
 8969SOL    HW127806   6.394   1.224   4.401
 8969SOL    HW227807   6.276   1.118   4.438
 8970SOL     OW27808   4.000   2.113   1.561
 8970SOL    HW127809   4.075   2.168   1.524
 8970SOL    HW227810   4.034   2.022   1.585
 8971SOL     OW27811   4.253   6.140   2.979
 8971SOL    HW127812   4.219   6.113   3.069
 8971SOL    HW227813   4.311   6.220   2.988
 8972SOL     OW27814   5.237   0.914   4.572
 8972SOL    HW127815   5.170   0.987   4.559
 8972SOL    HW227816   5.255   0.904   4.670
 8973SOL     OW27817   1.597   4.591   0.292
 8973SOL    HW127818   1.592   4.654   0.215
 8973SOL    HW227819   1.570   4.639   0.376
 8974SOL     OW27820   0.496   2.756   3.804
 8974SOL    HW127821   0.426   2.758   3.732
 8974SOL    HW227822   0.477   2.680   3.867
 8975SOL     OW27823   3.047   6.990   6.866
 8975SOL    HW127824   3.052   6.918   6.936
 8975SOL    HW227825   3.024   6.949   6.778
 8976SOL     OW27826   0.298   5.140   4.956
 8976SOL    HW127827   0.391   5.117   4.928
 8976SOL    HW227828   0.270   5.226   4.913
 8977SOL     OW27829   5.831   0.942   6.298
 8977SOL    HW127830   5.899   0.921   6.368
 8977SOL    HW227831   5.773   0.861   6.283
 8978SOL     OW27832   5.652   6.209   1.154
 8978SOL    HW127833   5.571   6.265   1.170
 8978SOL    HW227834   5.647   6.167   1.064
 8979SOL     OW27835   1.726   5.257   5.110
 8979SOL    HW127836   1.788   5.230   5.036
 8979SOL    HW227837   1.717   5.357   5.111
 8980SOL     OW27838   3.922   3.116   4.036
 8980SOL    HW127839   3.861   3.194   4.049
 8980SOL    HW227840   3.981   3.133   3.957
 8981SOL     OW27841   2.901   1.021   5.394
 8981SOL    HW127842   2.920   1.119   5.386
 8981SOL    HW227843   2.929   0.975   5.310
 8982SOL     OW27844   4.289   4.356   0.299
 8982SOL    HW127845   4.293   4.430   0.366
 8982SOL    HW227846   4.202   4.306   0.309
 8983SOL     OW27847   4.958   5.329   0.720
 8983SOL    HW127848   4.865   5.292   0.719
 8983SOL    HW227849   5.023   5.254   0.705
 8984SOL     OW27850   1.388   6.461   3.279
 8984SOL    HW127851   1.452   6.528   3.241
 8984SOL    HW227852   1.438   6.381   3.312
 8985SOL     OW27853   3.599   3.077   5.623
 8985SOL    HW127854   3.503   3.070   5.648
 8985SOL    HW227855   3.614   3.033   5.535
 8986SOL     OW27856   3.680   6.174   2.603
 8986SOL    HW127857   3.596   6.156   2.552
 8986SOL    HW227858   3.758   6.133   2.555
 8987SOL     OW27859   5.113   6.320   1.776
 8987SOL    HW127860   5.024   6.275   1.770
 8987SOL    HW227861   5.178   6.273   1.717
 8988SOL     OW27862   0.880   5.577   5.218
 8988SOL    HW127863   0.977   5.557   5.228
 8988SOL    HW227864   0.826   5.507   5.265
 8989SOL     OW27865   3.238   3.226   6.848
 8989SOL    HW127866   3.307   3.158   6.872
 8989SOL    HW227867   3.276   3.318   6.864
 8990SOL     OW27868   0.433   6.502   3.529
 8990SOL    HW127869   0.528   6.512   3.559
 8990SOL    HW227870   0.373   6.510   3.609
 8991SOL     OW27871   1.376   1.999   5.397
 8991SOL    HW127872   1.475   2.012   5.404
 8991SOL    HW227873   1.328   2.078   5.436
 8992SOL     OW27874   6.118   2.695   0.434
 8992SOL    HW127875   6.025   2.686   0.471
 8992SOL    HW227876   6.162   2.775   0.474
 8993SOL     OW27877   4.722   2.557   0.351
 8993SOL    HW127878   4.750   2.627   0.417
 8993SOL    HW227879   4.627   2.573   0.324
 8994SOL     OW27880   1.985   5.818   3.856
 8994SOL    HW127881   1.997   5.795   3.953
 8994SOL    HW227882   2.068   5.797   3.806
 8995SOL     OW27883   0.232   1.016   0.380
 8995SOL    HW127884   0.249   0.973   0.469
 8995SOL    HW227885   0.313   1.067   0.352
 8996SOL     OW27886   4.507   5.522   6.016
 8996SOL    HW127887   4.409   5.533   6.031
 8996SOL    HW227888   4.545   5.461   6.085
 8997SOL     OW27889   6.256   0.673   4.948
 8997SOL    HW127890   6.248   0.755   4.892
 8997SOL    HW227891   6.167   0.628   4.955
 8998SOL     OW27892   6.240   3.168   4.443
 8998SOL    HW127893   6.291   3.108   4.381
 8998SOL    HW227894   6.239   3.128   4.535
 8999SOL     OW27895   3.977   6.945   6.014
 8999SOL    HW127896   3.918   6.868   5.989
 8999SOL    HW227897   4.061   6.941   5.960
 9000SOL     OW27898   1.542   4.254   1.019
 9000SOL    HW127899   1.636   4.243   0.989
 9000SOL    HW227900   1.506   4.166   1.051
 9001SOL     OW27901   0.728   5.704   3.049
 9001SOL    HW127902   0.669   5.785   3.050
 9001SOL    HW227903   0.773   5.697   2.960
 9002SOL     OW27904   1.105   4.432   0.217
 9002SOL    HW127905   1.037   4.367   0.183
 9002SOL    HW227906   1.196   4.403   0.187
 9003SOL     OW27907   5.735   0.440   1.080
 9003SOL    HW127908   5.779   0.403   1.162
 9003SOL    HW227909   5.736   0.370   1.008
 9004SOL     OW27910   4.157   4.658   7.019
 9004SOL    HW127911   4.217   4.709   6.957
 9004SOL    HW227912   4.166   4.694   0.092
 9005SOL     OW27913   5.063   1.700   5.335
 9005SOL    HW127914   5.022   1.703   5.426
 9005SOL    HW227915   5.063   1.606   5.302
 9006SOL     OW27916   3.753   5.804   0.452
 9006SOL    HW127917   3.791   5.895   0.438
 9006SOL    HW227918   3.701   5.776   0.371
 9007SOL     OW27919   2.341   0.778   2.625
 9007SOL    HW127920   2.388   0.696   2.591
 9007SOL    HW227921   2.394   0.859   2.600
 9008SOL     OW27922   0.944   5.907   2.649
 9008SOL    HW127923   0.974   5.996   2.684
 9008SOL    HW227924   0.845   5.910   2.632
 9009SOL     OW27925   3.660   6.221   1.088
 9009SOL    HW127926   3.667   6.316   1.056
 9009SOL    HW227927   3.565   6.202   1.115
 9010SOL     OW27928   1.394   6.054   4.264
 9010SOL    HW127929   1.353   6.081   4.351
 9010SOL    HW227930   1.343   5.977   4.225
 9011SOL     OW27931   2.680   1.901   1.838
 9011SOL    HW127932   2.727   1.989   1.836
 9011SOL    HW227933   2.738   1.831   1.797
 9012SOL     OW27934   1.755   6.514   6.648
 9012SOL    HW127935   1.802   6.434   6.685
 9012SOL    HW227936   1.817   6.592   6.646
 9013SOL     OW27937   2.065   6.116   4.015
 9013SOL    HW127938   1.968   6.094   3.999
 9013SOL    HW227939   2.074   6.215   4.029
 9014SOL     OW27940   5.291   2.889   3.543
 9014SOL    HW127941   5.363   2.820   3.550
 9014SOL    HW227942   5.321   2.962   3.482
 9015SOL     OW27943   5.207   1.603   6.656
 9015SOL    HW127944   5.273   1.532   6.679
 9015SOL    HW227945   5.197   1.665   6.734
 9016SOL     OW27946   4.963   5.129   6.413
 9016SOL    HW127947   5.009   5.095   6.495
 9016SOL    HW227948   5.030   5.166   6.349
 9017SOL     OW27949   4.212   0.354   4.458
 9017SOL    HW127950   4.236   0.375   4.553
 9017SOL    HW227951   4.296   0.340   4.405
 9018SOL     OW27952   4.126   4.201   6.481
 9018SOL    HW127953   4.179   4.193   6.396
 9018SOL    HW227954   4.058   4.274   6.471
 9019SOL     OW27955   0.547   3.881   3.847
 9019SOL    HW127956   0.635   3.834   3.846
 9019SOL    HW227957   0.525   3.914   3.756
 9020SOL     OW27958   5.307   5.904   2.423
 9020SOL    HW127959   5.403   5.882   2.435
 9020SOL    HW227960   5.261   5.832   2.372
 9021SOL     OW27961   0.555   0.808   4.356
 9021SOL    HW127962   0.526   0.732   4.414
 9021SOL    HW227963   0.602   0.876   4.412
 9022SOL     OW27964   4.847   3.514   6.025
 9022SOL    HW127965   4.871   3.560   5.939
 9022SOL    HW227966   4.767   3.559   6.065
 9023SOL     OW27967   5.928   4.180   0.832
 9023SOL    HW127968   5.875   4.182   0.747
 9023SOL    HW227969   5.938   4.273   0.867
 9024SOL     OW27970   2.220   5.851   6.109
 9024SOL    HW127971   2.310   5.894   6.105
 9024SOL    HW227972   2.221   5.777   6.176
 9025SOL     OW27973   1.021   5.538   1.165
 9025SOL    HW127974   1.099   5.569   1.220
 9025SOL    HW227975   0.936   5.564   1.210
 9026SOL     OW27976   5.165   1.786   0.348
 9026SOL    HW127977   5.221   1.760   0.270
 9026SOL    HW227978   5.150   1.706   0.407
 9027SOL     OW27979   0.549   3.963   3.273
 9027SOL    HW127980   0.501   4.018   3.205
 9027SOL    HW227981   0.563   4.018   3.356
 9028SOL     OW27982   3.152   4.873   5.887
 9028SOL    HW127983   3.105   4.880   5.799
 9028SOL    HW227984   3.211   4.953   5.899
 9029SOL     OW27985   4.352   6.598   4.318
 9029SOL    HW127986   4.294   6.560   4.389
 9029SOL    HW227987   4.410   6.526   4.280
 9030SOL     OW27988   2.998   1.559   2.604
 9030SOL    HW127989   2.960   1.467   2.599
 9030SOL    HW227990   2.953   1.610   2.678
 9031SOL     OW27991   4.384   6.870   4.325
 9031SOL    HW127992   4.357   6.901   4.416
 9031SOL    HW227993   4.384   6.770   4.322
 9032SOL     OW27994   4.953   3.610   2.072
 9032SOL    HW127995   4.911   3.652   2.153
 9032SOL    HW227996   4.908   3.644   1.990
 9033SOL     OW27997   0.617   6.993   3.196
 9033SOL    HW127998   0.537   6.943   3.162
 9033SOL    HW227999   0.693   6.928   3.210
 9034SOL     OW28000   4.196   6.931   3.935
 9034SOL    HW128001   4.164   6.966   3.847
 9034SOL    HW228002   4.288   6.965   3.953
 9035SOL     OW28003   2.119   4.786   6.426
 9035SOL    HW128004   2.161   4.877   6.433
 9035SOL    HW228005   2.023   4.796   6.400
 9036SOL     OW28006   1.748   4.092   5.206
 9036SOL    HW128007   1.829   4.144   5.235
 9036SOL    HW228008   1.769   4.042   5.122
 9037SOL     OW28009   1.280   1.978   2.863
 9037SOL    HW128010   1.283   1.890   2.911
 9037SOL    HW228011   1.374   2.006   2.841
 9038SOL     OW28012   4.408   3.056   5.609
 9038SOL    HW128013   4.321   3.045   5.562
 9038SOL    HW228014   4.459   2.971   5.606
 9039SOL     OW28015   4.135   5.759   6.376
 9039SOL    HW128016   4.208   5.749   6.443
 9039SOL    HW228017   4.046   5.753   6.421
 9040SOL     OW28018   2.496   1.834   1.402
 9040SOL    HW128019   2.429   1.762   1.420
 9040SOL    HW228020   2.450   1.923   1.404
 9041SOL     OW28021   6.772   1.920   1.816
 9041SOL    HW128022   6.728   1.884   1.898
 9041SOL    HW228023   6.796   1.844   1.755
 9042SOL     OW28024   3.720   6.228   0.265
 9042SOL    HW128025   3.633   6.207   0.221
 9042SOL    HW228026   3.764   6.143   0.295
 9043SOL     OW28027   3.265   1.963   0.319
 9043SOL    HW128028   3.167   1.967   0.341
 9043SOL    HW228029   3.313   1.912   0.389
 9044SOL     OW28030   1.027   1.129   0.108
 9044SOL    HW128031   1.083   1.131   0.191
 9044SOL    HW228032   1.078   1.170   0.032
 9045SOL     OW28033   3.992   1.800   3.720
 9045SOL    HW128034   3.992   1.724   3.786
 9045SOL    HW228035   3.992   1.763   3.627
 9046SOL     OW28036   3.338   3.422   2.252
 9046SOL    HW128037   3.385   3.365   2.319
 9046SOL    HW228038   3.405   3.461   2.189
 9047SOL     OW28039   1.679   3.795   5.948
 9047SOL    HW128040   1.631   3.736   5.883
 9047SOL    HW228041   1.632   3.883   5.954
 9048SOL     OW28042   6.790   2.139   6.281
 9048SOL    HW128043   6.872   2.192   6.262
 9048SOL    HW228044   6.723   2.153   6.208
 9049SOL     OW28045   3.335   6.885   6.342
 9049SOL    HW128046   3.297   6.843   6.260
 9049SOL    HW228047   3.314   6.827   6.421
 9050SOL     OW28048   0.423   5.035   0.485
 9050SOL    HW128049   0.423   5.110   0.418
 9050SOL    HW228050   0.462   5.067   0.571
 9051SOL     OW28051   2.671   0.617   1.449
 9051SOL    HW128052   2.679   0.590   1.353
 9051SOL    HW228053   2.760   0.611   1.494
 9052SOL     OW28054   1.235   2.314   5.273
 9052SOL    HW128055   1.246   2.270   5.362
 9052SOL    HW228056   1.230   2.244   5.202
 9053SOL     OW28057   1.333   1.210   0.017
 9053SOL    HW128058   1.417   1.167   0.051
 9053SOL    HW228059   1.322   1.187   6.940
 9054SOL     OW28060   2.112   5.828   2.357
 9054SOL    HW128061   2.031   5.851   2.410
 9054SOL    HW228062   2.155   5.912   2.325
 9055SOL     OW28063   0.444   3.766   4.780
 9055SOL    HW128064   0.387   3.774   4.698
 9055SOL    HW228065   0.400   3.705   4.845
 9056SOL     OW28066   6.657   3.071   3.017
 9056SOL    HW128067   6.672   3.073   2.918
 9056SOL    HW228068   6.631   2.979   3.046
 9057SOL     OW28069   4.293   2.045   4.448
 9057SOL    HW128070   4.344   2.003   4.373
 9057SOL    HW228071   4.215   2.096   4.410
 9058SOL     OW28072   2.427   0.717   5.563
 9058SOL    HW128073   2.511   0.771   5.562
 9058SOL    HW228074   2.441   0.633   5.511
 9059SOL     OW28075   1.093   2.270   2.799
 9059SOL    HW128076   1.018   2.210   2.828
 9059SOL    HW228077   1.138   2.230   2.719
 9060SOL     OW28078   5.383   2.795   5.737
 9060SOL    HW128079   5.338   2.744   5.664
 9060SOL    HW228080   5.359   2.891   5.732
 9061SOL     OW28081   2.886   5.741   2.945
 9061SOL    HW128082   2.889   5.829   2.898
 9061SOL    HW228083   2.961   5.684   2.913
 9062SOL     OW28084   1.698   5.338   0.977
 9062SOL    HW128085   1.716   5.354   0.880
 9062SOL    HW228086   1.719   5.243   0.999
 9063SOL     OW28087   2.979   1.601   2.128
 9063SOL    HW128088   3.064   1.589   2.077
 9063SOL    HW228089   2.946   1.695   2.115
 9064SOL     OW28090   5.707   3.469   0.407
 9064SOL    HW128091   5.643   3.478   0.484
 9064SOL    HW228092   5.800   3.485   0.440
 9065SOL     OW28093   2.255   0.835   0.121
 9065SOL    HW128094   2.192   0.758   0.110
 9065SOL    HW228095   2.326   0.831   0.051
 9066SOL     OW28096   5.133   6.642   0.053
 9066SOL    HW128097   5.043   6.654   0.011
 9066SOL    HW228098   5.129   6.569   0.122
 9067SOL     OW28099   1.292   6.438   2.435
 9067SOL    HW128100   1.385   6.412   2.412
 9067SOL    HW228101   1.251   6.487   2.358
 9068SOL     OW28102   1.266   6.144   6.826
 9068SOL    HW128103   1.265   6.119   6.730
 9068SOL    HW228104   1.360   6.159   6.856
 9069SOL     OW28105   1.230   2.625   6.290
 9069SOL    HW128106   1.318   2.590   6.259
 9069SOL    HW228107   1.183   2.555   6.344
 9070SOL     OW28108   1.121   4.602   3.487
 9070SOL    HW128109   1.027   4.627   3.464
 9070SOL    HW228110   1.137   4.506   3.464
 9071SOL     OW28111   4.859   5.511   0.367
 9071SOL    HW128112   4.858   5.551   0.459
 9071SOL    HW228113   4.785   5.445   0.359
 9072SOL     OW28114   5.486   5.264   6.988
 9072SOL    HW128115   5.403   5.312   6.958
 9072SOL    HW228116   5.566   5.319   6.965
 9073SOL     OW28117   2.046   0.267   1.677
 9073SOL    HW128118   1.950   0.273   1.650
 9073SOL    HW228119   2.099   0.223   1.605
 9074SOL     OW28120   0.665   0.314   3.416
 9074SOL    HW128121   0.681   0.339   3.320
 9074SOL    HW228122   0.708   0.381   3.476
 9075SOL     OW28123   0.912   0.642   2.019
 9075SOL    HW128124   0.857   0.663   2.100
 9075SOL    HW228125   0.858   0.660   1.937
 9076SOL     OW28126   6.897   2.019   5.329
 9076SOL    HW128127   6.827   2.034   5.260
 9076SOL    HW228128   6.985   2.005   5.284
 9077SOL     OW28129   6.198   6.015   1.622
 9077SOL    HW128130   6.280   6.036   1.675
 9077SOL    HW228131   6.220   6.018   1.524
 9078SOL     OW28132   3.885   2.939   5.019
 9078SOL    HW128133   3.882   2.904   4.925
 9078SOL    HW228134   3.942   3.022   5.022
 9079SOL     OW28135   3.834   0.746   5.849
 9079SOL    HW128136   3.924   0.789   5.854
 9079SOL    HW228137   3.771   0.795   5.910
 9080SOL     OW28138   5.539   1.598   0.511
 9080SOL    HW128139   5.523   1.630   0.418
 9080SOL    HW228140   5.491   1.658   0.575
 9081SOL     OW28141   5.374   0.371   2.471
 9081SOL    HW128142   5.457   0.410   2.512
 9081SOL    HW228143   5.310   0.345   2.544
 9082SOL     OW28144   3.074   0.568   2.723
 9082SOL    HW128145   2.978   0.558   2.698
 9082SOL    HW228146   3.089   0.530   2.814
 9083SOL     OW28147   4.665   4.651   4.241
 9083SOL    HW128148   4.714   4.707   4.174
 9083SOL    HW228149   4.691   4.680   4.333
 9084SOL     OW28150   3.367   3.799   3.006
 9084SOL    HW128151   3.326   3.752   3.084
 9084SOL    HW228152   3.370   3.737   2.928
 9085SOL     OW28153   0.960   1.925   0.868
 9085SOL    HW128154   0.993   2.006   0.818
 9085SOL    HW228155   0.930   1.856   0.802
 9086SOL     OW28156   0.164   3.671   0.060
 9086SOL    HW128157   0.138   3.740   0.128
 9086SOL    HW228158   0.263   3.676   0.045
 9087SOL     OW28159   5.023   3.342   2.127
 9087SOL    HW128160   4.977   3.294   2.052
 9087SOL    HW228161   5.004   3.440   2.120
 9088SOL     OW28162   5.137   6.431   1.055
 9088SOL    HW128163   5.148   6.525   1.086
 9088SOL    HW228164   5.044   6.400   1.076
 9089SOL     OW28165   4.432   0.253   5.816
 9089SOL    HW128166   4.354   0.246   5.753
 9089SOL    HW228167   4.516   0.261   5.763
 9090SOL     OW28168   5.308   1.614   3.114
 9090SOL    HW128169   5.401   1.646   3.130
 9090SOL    HW228170   5.310   1.529   3.061
 9091SOL     OW28171   3.357   2.354   6.719
 9091SOL    HW128172   3.305   2.268   6.726
 9091SOL    HW228173   3.450   2.339   6.751
 9092SOL     OW28174   0.281   3.194   6.644
 9092SOL    HW128175   0.321   3.107   6.614
 9092SOL    HW228176   0.219   3.178   6.720
 9093SOL     OW28177   1.903   6.114   5.020
 9093SOL    HW128178   1.956   6.048   4.967
 9093SOL    HW228179   1.814   6.075   5.043
 9094SOL     OW28180   1.225   3.830   1.108
 9094SOL    HW128181   1.278   3.765   1.163
 9094SOL    HW228182   1.148   3.783   1.065
 9095SOL     OW28183   6.912   6.728   5.997
 9095SOL    HW128184   6.890   6.697   6.089
 9095SOL    HW228185   6.966   6.812   6.001
 9096SOL     OW28186   6.634   5.415   3.821
 9096SOL    HW128187   6.691   5.464   3.755
 9096SOL    HW228188   6.693   5.368   3.887
 9097SOL     OW28189   1.114   2.642   6.049
 9097SOL    HW128190   1.151   2.670   6.137
 9097SOL    HW228191   1.136   2.546   6.032
 9098SOL     OW28192   2.310   4.256   3.482
 9098SOL    HW128193   2.219   4.297   3.490
 9098SOL    HW228194   2.320   4.185   3.552
 9099SOL     OW28195   2.449   1.445   6.589
 9099SOL    HW128196   2.356   1.410   6.592
 9099SOL    HW228197   2.452   1.528   6.532
 9100SOL     OW28198   1.498   4.193   3.721
 9100SOL    HW128199   1.583   4.209   3.771
 9100SOL    HW228200   1.500   4.246   3.636
 9101SOL     OW28201   0.686   2.213   0.559
 9101SOL    HW128202   0.587   2.206   0.555
 9101SOL    HW228203   0.726   2.122   0.559
 9102SOL     OW28204   4.201   0.062   2.851
 9102SOL    HW128205   4.179   7.001   2.797
 9102SOL    HW228206   4.117   0.103   2.885
 9103SOL     OW28207   6.245   1.036   1.026
 9103SOL    HW128208   6.221   0.944   1.058
 9103SOL    HW228209   6.210   1.104   1.091
 9104SOL     OW28210   5.814   1.709   6.190
 9104SOL    HW128211   5.801   1.621   6.144
 9104SOL    HW228212   5.837   1.693   6.286
 9105SOL     OW28213   2.569   1.456   5.837
 9105SOL    HW128214   2.638   1.384   5.850
 9105SOL    HW228215   2.590   1.534   5.897
 9106SOL     OW28216   1.475   3.872   6.839
 9106SOL    HW128217   1.531   3.816   6.779
 9106SOL    HW228218   1.413   3.813   6.892
 9107SOL     OW28219   3.149   1.631   0.430
 9107SOL    HW128220   3.125   1.536   0.449
 9107SOL    HW228221   3.066   1.684   0.412
 9108SOL     OW28222   6.672   5.610   5.873
 9108SOL    HW128223   6.733   5.579   5.946
 9108SOL    HW228224   6.581   5.624   5.910
 9109SOL     OW28225   5.557   3.682   2.918
 9109SOL    HW128226   5.556   3.700   2.819
 9109SOL    HW228227   5.502   3.751   2.965
 9110SOL     OW28228   1.264   6.180   3.459
 9110SOL    HW128229   1.232   6.136   3.543
 9110SOL    HW228230   1.346   6.233   3.478
 9111SOL     OW28231   3.867   2.376   6.436
 9111SOL    HW128232   3.893   2.453   6.378
 9111SOL    HW228233   3.927   2.299   6.418
 9112SOL     OW28234   0.733   5.331   1.326
 9112SOL    HW128235   0.709   5.422   1.361
 9112SOL    HW228236   0.803   5.341   1.255
 9113SOL     OW28237   5.424   0.316   4.557
 9113SOL    HW128238   5.334   0.274   4.558
 9113SOL    HW228239   5.488   0.261   4.612
 9114SOL     OW28240   0.890   6.767   5.793
 9114SOL    HW128241   0.943   6.764   5.708
 9114SOL    HW228242   0.869   6.863   5.815
 9115SOL     OW28243   4.857   4.335   5.130
 9115SOL    HW128244   4.785   4.396   5.163
 9115SOL    HW228245   4.816   4.256   5.085
 9116SOL     OW28246   2.054   0.220   3.404
 9116SOL    HW128247   2.081   0.312   3.377
 9116SOL    HW228248   1.971   0.224   3.460
 9117SOL     OW28249   2.229   6.742   0.012
 9117SOL    HW128250   2.298   6.683   6.990
 9117SOL    HW228251   2.259   6.837   0.007
 9118SOL     OW28252   6.735   3.908   2.027
 9118SOL    HW128253   6.691   3.842   1.966
 9118SOL    HW228254   6.724   3.879   2.122
 9119SOL     OW28255   3.006   1.086   0.439
 9119SOL    HW128256   3.005   1.120   0.533
 9119SOL    HW228257   2.915   1.051   0.416
 9120SOL     OW28258   6.517   3.996   4.753
 9120SOL    HW128259   6.586   3.928   4.730
 9120SOL    HW228260   6.431   3.975   4.705
 9121SOL     OW28261   3.940   0.477   4.407
 9121SOL    HW128262   3.928   0.510   4.313
 9121SOL    HW228263   4.031   0.436   4.417
 9122SOL     OW28264   0.618   3.127   1.234
 9122SOL    HW128265   0.683   3.195   1.199
 9122SOL    HW228266   0.634   3.039   1.189
 9123SOL     OW28267   0.245   5.944   4.537
 9123SOL    HW128268   0.284   6.009   4.603
 9123SOL    HW228269   0.287   5.854   4.550
 9124SOL     OW28270   2.924   5.179   0.977
 9124SOL    HW128271   2.974   5.208   0.895
 9124SOL    HW228272   2.878   5.092   0.959
 9125SOL     OW28273   5.659   6.496   1.747
 9125SOL    HW128274   5.567   6.512   1.783
 9125SOL    HW228275   5.688   6.403   1.769
 9126SOL     OW28276   4.472   4.805   0.792
 9126SOL    HW128277   4.542   4.867   0.757
 9126SOL    HW228278   4.429   4.846   0.873
 9127SOL     OW28279   6.609   4.883   5.001
 9127SOL    HW128280   6.703   4.849   4.998
 9127SOL    HW228281   6.610   4.982   5.007
 9128SOL     OW28282   5.767   4.241   5.836
 9128SOL    HW128283   5.806   4.333   5.831
 9128SOL    HW228284   5.685   4.236   5.780
 9129SOL     OW28285   0.590   3.089   0.396
 9129SOL    HW128286   0.648   3.148   0.453
 9129SOL    HW228287   0.527   3.145   0.343
 9130SOL     OW28288   2.898   3.373   4.705
 9130SOL    HW128289   2.808   3.390   4.744
 9130SOL    HW228290   2.910   3.426   4.621
 9131SOL     OW28291   5.439   2.663   0.845
 9131SOL    HW128292   5.404   2.749   0.808
 9131SOL    HW228293   5.538   2.658   0.831
 9132SOL     OW28294   0.839   3.995   3.861
 9132SOL    HW128295   0.841   3.896   3.873
 9132SOL    HW228296   0.910   4.022   3.796
 9133SOL     OW28297   6.130   0.115   0.967
 9133SOL    HW128298   6.184   0.098   0.885
 9133SOL    HW228299   6.034   0.094   0.949
 9134SOL     OW28300   4.741   4.582   0.306
 9134SOL    HW128301   4.656   4.606   0.259
 9134SOL    HW228302   4.745   4.630   0.394
 9135SOL     OW28303   6.191   6.079   2.464
 9135SOL    HW128304   6.150   6.162   2.428
 9135SOL    HW228305   6.291   6.083   2.453
 9136SOL     OW28306   0.063   5.177   0.185
 9136SOL    HW128307   0.068   5.268   0.144
 9136SOL    HW228308   0.041   5.186   0.282
 9137SOL     OW28309   5.494   6.678   5.378
 9137SOL    HW128310   5.447   6.751   5.328
 9137SOL    HW228311   5.494   6.700   5.476
 9138SOL     OW28312   2.347   4.029   6.498
 9138SOL    HW128313   2.329   4.020   6.401
 9138SOL    HW228314   2.262   4.020   6.550
 9139SOL     OW28315   6.874   0.090   1.632
 9139SOL    HW128316   6.927   0.168   1.599
 9139SOL    HW228317   6.876   0.088   1.732
 9140SOL     OW28318   1.930   3.658   2.467
 9140SOL    HW128319   2.001   3.667   2.397
 9140SOL    HW228320   1.841   3.649   2.424
 9141SOL     OW28321   0.118   6.135   4.924
 9141SOL    HW128322   0.037   6.127   4.867
 9141SOL    HW228323   0.129   6.051   4.978
 9142SOL     OW28324   0.806   4.619   3.510
 9142SOL    HW128325   0.794   4.664   3.598
 9142SOL    HW228326   0.729   4.642   3.450
 9143SOL     OW28327   6.300   4.287   3.362
 9143SOL    HW128328   6.349   4.322   3.442
 9143SOL    HW228329   6.205   4.269   3.387
 9144SOL     OW28330   3.117   4.209   5.226
 9144SOL    HW128331   3.150   4.200   5.132
 9144SOL    HW228332   3.075   4.124   5.256
 9145SOL     OW28333   1.495   5.879   5.700
 9145SOL    HW128334   1.538   5.923   5.621
 9145SOL    HW228335   1.399   5.860   5.680
 9146SOL     OW28336   6.243   2.626   3.142
 9146SOL    HW128337   6.188   2.710   3.145
 9146SOL    HW228338   6.184   2.548   3.122
 9147SOL     OW28339   3.956   0.150   5.025
 9147SOL    HW128340   3.937   0.215   4.952
 9147SOL    HW228341   3.872   0.099   5.046
 9148SOL     OW28342   4.800   5.579   1.670
 9148SOL    HW128343   4.882   5.542   1.714
 9148SOL    HW228344   4.782   5.528   1.586
 9149SOL     OW28345   0.786   3.728   0.649
 9149SOL    HW128346   0.847   3.742   0.727
 9149SOL    HW228347   0.691   3.729   0.681
 9150SOL     OW28348   2.978   3.432   6.880
 9150SOL    HW128349   2.969   3.341   6.839
 9150SOL    HW228350   2.926   3.498   6.826
 9151SOL     OW28351   2.193   3.289   3.593
 9151SOL    HW128352   2.127   3.261   3.663
 9151SOL    HW228353   2.190   3.388   3.582
 9152SOL     OW28354   2.064   4.038   2.661
 9152SOL    HW128355   2.108   4.022   2.573
 9152SOL    HW228356   1.969   4.067   2.646
 9153SOL     OW28357   0.210   2.871   6.873
 9153SOL    HW128358   0.167   2.956   6.902
 9153SOL    HW228359   0.248   2.823   6.952
 9154SOL     OW28360   4.879   4.893   3.399
 9154SOL    HW128361   4.945   4.883   3.473
 9154SOL    HW228362   4.802   4.831   3.414
 9155SOL     OW28363   0.922   6.133   2.865
 9155SOL    HW128364   0.915   6.228   2.834
 9155SOL    HW228365   1.018   6.105   2.866
 9156SOL     OW28366   6.812   4.367   5.789
 9156SOL    HW128367   6.769   4.383   5.878
 9156SOL    HW228368   6.743   4.337   5.724
 9157SOL     OW28369   1.623   4.317   5.616
 9157SOL    HW128370   1.651   4.385   5.549
 9157SOL    HW228371   1.653   4.226   5.586
 9158SOL     OW28372   6.705   3.797   5.079
 9158SOL    HW128373   6.752   3.761   4.999
 9158SOL    HW228374   6.726   3.894   5.089
 9159SOL     OW28375   2.354   1.371   3.993
 9159SOL    HW128376   2.288   1.368   3.918
 9159SOL    HW228377   2.447   1.376   3.956
 9160SOL     OW28378   0.974   3.186   6.879
 9160SOL    HW128379   1.006   3.102   6.924
 9160SOL    HW228380   0.927   3.163   6.794
 9161SOL     OW28381   6.503   3.519   2.844
 9161SOL    HW128382   6.475   3.429   2.811
 9161SOL    HW228383   6.427   3.583   2.835
 9162SOL     OW28384   3.831   2.325   1.673
 9162SOL    HW128385   3.882   2.240   1.660
 9162SOL    HW228386   3.763   2.313   1.745
 9163SOL     OW28387   2.200   2.596   4.314
 9163SOL    HW128388   2.219   2.686   4.352
 9163SOL    HW228389   2.167   2.534   4.386
 9164SOL     OW28390   2.230   0.110   6.290
 9164SOL    HW128391   2.140   0.142   6.318
 9164SOL    HW228392   2.291   0.107   6.369
 9165SOL     OW28393   5.405   1.866   6.036
 9165SOL    HW128394   5.486   1.820   6.001
 9165SOL    HW228395   5.326   1.845   5.978
 9166SOL     OW28396   4.128   6.543   2.139
 9166SOL    HW128397   4.074   6.528   2.223
 9166SOL    HW228398   4.128   6.640   2.117
 9167SOL     OW28399   1.612   1.484   4.229
 9167SOL    HW128400   1.708   1.457   4.221
 9167SOL    HW228401   1.559   1.409   4.268
 9168SOL     OW28402   6.459   5.917   5.347
 9168SOL    HW128403   6.453   5.817   5.355
 9168SOL    HW228404   6.511   5.941   5.266
 9169SOL     OW28405   6.639   5.793   0.292
 9169SOL    HW128406   6.540   5.785   0.281
 9169SOL    HW228407   6.667   5.887   0.270
 9170SOL     OW28408   1.657   1.031   5.640
 9170SOL    HW128409   1.733   1.036   5.705
 9170SOL    HW228410   1.686   0.986   5.556
 9171SOL     OW28411   3.392   5.863   0.070
 9171SOL    HW128412   3.307   5.901   0.106
 9171SOL    HW228413   3.407   5.772   0.108
 9172SOL     OW28414   4.376   2.103   5.668
 9172SOL    HW128415   4.463   2.149   5.651
 9172SOL    HW228416   4.383   2.048   5.751
 9173SOL     OW28417   6.094   3.963   5.683
 9173SOL    HW128418   6.063   4.053   5.712
 9173SOL    HW228419   6.050   3.939   5.596
 9174SOL     OW28420   6.151   4.490   1.069
 9174SOL    HW128421   6.229   4.427   1.071
 9174SOL    HW228422   6.090   4.469   1.146
 9175SOL     OW28423   2.235   0.030   1.196
 9175SOL    HW128424   2.286   6.987   1.255
 9175SOL    HW228425   2.242   0.001   1.101
 9176SOL     OW28426   1.902   0.741   1.772
 9176SOL    HW128427   1.900   0.813   1.703
 9176SOL    HW228428   1.996   0.707   1.781
 9177SOL     OW28429   1.002   6.430   3.881
 9177SOL    HW128430   0.936   6.382   3.823
 9177SOL    HW228431   1.076   6.465   3.824
 9178SOL     OW28432   0.834   4.298   0.785
 9178SOL    HW128433   0.850   4.242   0.866
 9178SOL    HW228434   0.751   4.268   0.739
 9179SOL     OW28435   3.648   4.970   3.646
 9179SOL    HW128436   3.681   5.041   3.709
 9179SOL    HW228437   3.723   4.941   3.587
 9180SOL     OW28438   0.446   0.939   5.325
 9180SOL    HW128439   0.386   0.869   5.363
 9180SOL    HW228440   0.424   0.953   5.228
 9181SOL     OW28441   2.781   2.058   4.079
 9181SOL    HW128442   2.703   2.111   4.046
 9181SOL    HW228443   2.755   1.962   4.088
 9182SOL     OW28444   0.192   2.017   2.465
 9182SOL    HW128445   0.170   1.977   2.554
 9182SOL    HW228446   0.133   2.096   2.448
 9183SOL     OW28447   1.744   1.684   6.265
 9183SOL    HW128448   1.675   1.649   6.328
 9183SOL    HW228449   1.724   1.779   6.243
 9184SOL     OW28450   2.955   4.268   0.917
 9184SOL    HW128451   3.016   4.246   0.994
 9184SOL    HW228452   2.902   4.187   0.893
 9185SOL     OW28453   1.688   0.315   5.974
 9185SOL    HW128454   1.660   0.403   6.011
 9185SOL    HW228455   1.779   0.323   5.934
 9186SOL     OW28456   5.354   6.565   6.948
 9186SOL    HW128457   5.358   6.640   6.882
 9186SOL    HW228458   5.282   6.584   7.014
 9187SOL     OW28459   5.335   2.874   0.696
 9187SOL    HW128460   5.236   2.863   0.697
 9187SOL    HW228461   5.361   2.932   0.619
 9188SOL     OW28462   1.892   7.019   1.293
 9188SOL    HW128463   1.842   6.954   1.350
 9188SOL    HW228464   1.906   0.084   1.344
 9189SOL     OW28465   3.235   0.604   5.331
 9189SOL    HW128466   3.258   0.518   5.287
 9189SOL    HW228467   3.247   0.679   5.266
 9190SOL     OW28468   4.581   0.832   5.224
 9190SOL    HW128469   4.666   0.822   5.275
 9190SOL    HW228470   4.504   0.814   5.285
 9191SOL     OW28471   5.675   6.983   1.437
 9191SOL    HW128472   5.753   6.927   1.462
 9191SOL    HW228473   5.640   0.010   1.517
 9192SOL     OW28474   4.961   3.914   4.562
 9192SOL    HW128475   5.043   3.957   4.524
 9192SOL    HW228476   4.984   3.867   4.647
 9193SOL     OW28477   3.847   4.044   3.174
 9193SOL    HW128478   3.905   4.100   3.115
 9193SOL    HW228479   3.770   4.098   3.207
 9194SOL     OW28480   3.854   4.893   2.744
 9194SOL    HW128481   3.802   4.809   2.733
 9194SOL    HW228482   3.924   4.899   2.672
 9195SOL     OW28483   0.775   2.779   2.479
 9195SOL    HW128484   0.756   2.865   2.430
 9195SOL    HW228485   0.840   2.797   2.552
 9196SOL     OW28486   4.638   6.403   4.390
 9196SOL    HW128487   4.572   6.328   4.385
 9196SOL    HW228488   4.691   6.395   4.475
 9197SOL     OW28489   4.578   1.494   6.974
 9197SOL    HW128490   4.636   1.435   0.009
 9197SOL    HW228491   4.601   1.590   6.991
 9198SOL     OW28492   5.842   2.366   5.392
 9198SOL    HW128493   5.817   2.308   5.469
 9198SOL    HW228494   5.895   2.444   5.425
 9199SOL     OW28495   1.573   3.260   6.567
 9199SOL    HW128496   1.512   3.240   6.643
 9199SOL    HW228497   1.588   3.176   6.514
 9200SOL     OW28498   4.927   5.768   1.297
 9200SOL    HW128499   4.995   5.767   1.371
 9200SOL    HW228500   4.959   5.710   1.222
 9201SOL     OW28501   0.599   3.436   2.332
 9201SOL    HW128502   0.617   3.442   2.430
 9201SOL    HW228503   0.561   3.346   2.311
 9202SOL     OW28504   2.601   6.004   4.321
 9202SOL    HW128505   2.548   6.080   4.283
 9202SOL    HW228506   2.563   5.977   4.409
 9203SOL     OW28507   5.029   0.953   0.142
 9203SOL    HW128508   5.004   0.857   0.127
 9203SOL    HW228509   5.128   0.961   0.146
 9204SOL     OW28510   5.208   4.887   2.787
 9204SOL    HW128511   5.182   4.792   2.808
 9204SOL    HW228512   5.183   4.946   2.864
 9205SOL     OW28513   4.583   2.273   1.414
 9205SOL    HW128514   4.491   2.310   1.399
 9205SOL    HW228515   4.639   2.343   1.459
 9206SOL     OW28516   6.106   6.112   4.655
 9206SOL    HW128517   6.158   6.104   4.570
 9206SOL    HW228518   6.009   6.124   4.634
 9207SOL     OW28519   4.208   6.166   0.067
 9207SOL    HW128520   4.147   6.167   7.008
 9207SOL    HW228521   4.231   6.260   0.092
 9208SOL     OW28522   4.472   4.047   1.690
 9208SOL    HW128523   4.455   4.099   1.773
 9208SOL    HW228524   4.406   4.075   1.619
 9209SOL     OW28525   4.503   0.283   2.967
 9209SOL    HW128526   4.406   0.285   2.940
 9209SOL    HW228527   4.550   0.213   2.915
 9210SOL     OW28528   0.679   6.798   6.978
 9210SOL    HW128529   0.655   6.811   0.054
 9210SOL    HW228530   0.683   6.888   6.933
 9211SOL     OW28531   4.833   1.348   6.314
 9211SOL    HW128532   4.756   1.329   6.253
 9211SOL    HW228533   4.810   1.422   6.376
 9212SOL     OW28534   5.748   3.928   5.457
 9212SOL    HW128535   5.765   4.022   5.488
 9212SOL    HW228536   5.824   3.898   5.400
 9213SOL     OW28537   6.629   5.880   1.728
 9213SOL    HW128538   6.713   5.932   1.743
 9213SOL    HW228539   6.549   5.939   1.745
 9214SOL     OW28540   2.319   1.499   5.733
 9214SOL    HW128541   2.276   1.500   5.823
 9214SOL    HW228542   2.418   1.493   5.744
 9215SOL     OW28543   0.255   3.609   3.628
 9215SOL    HW128544   0.162   3.575   3.614
 9215SOL    HW228545   0.252   3.690   3.686
 9216SOL     OW28546   2.253   6.249   3.173
 9216SOL    HW128547   2.270   6.153   3.194
 9216SOL    HW228548   2.265   6.303   3.256
 9217SOL     OW28549   3.846   2.207   6.799
 9217SOL    HW128550   3.793   2.178   6.879
 9217SOL    HW228551   3.834   2.141   6.725
 9218SOL     OW28552   5.220   5.622   6.431
 9218SOL    HW128553   5.303   5.668   6.464
 9218SOL    HW228554   5.162   5.598   6.509
 9219SOL     OW28555   3.326   2.120   5.975
 9219SOL    HW128556   3.412   2.165   6.000
 9219SOL    HW228557   3.276   2.177   5.910
 9220SOL     OW28558   0.476   6.595   3.248
 9220SOL    HW128559   0.451   6.595   3.345
 9220SOL    HW228560   0.459   6.686   3.210
 9221SOL     OW28561   2.936   1.655   1.402
 9221SOL    HW128562   2.930   1.641   1.303
 9221SOL    HW228563   2.860   1.713   1.432
 9222SOL     OW28564   1.648   5.381   3.912
 9222SOL    HW128565   1.592   5.395   3.830
 9222SOL    HW228566   1.602   5.424   3.991
 9223SOL     OW28567   6.668   3.424   4.599
 9223SOL    HW128568   6.588   3.466   4.643
 9223SOL    HW228569   6.683   3.333   4.638
 9224SOL     OW28570   1.834   4.220   2.352
 9224SOL    HW128571   1.930   4.234   2.326
 9224SOL    HW228572   1.783   4.305   2.337
 9225SOL     OW28573   6.756   5.546   6.179
 9225SOL    HW128574   6.689   5.566   6.251
 9225SOL    HW228575   6.826   5.616   6.177
 9226SOL     OW28576   0.947   0.793   5.480
 9226SOL    HW128577   1.037   0.819   5.447
 9226SOL    HW228578   0.886   0.872   5.477
 9227SOL     OW28579   3.431   4.328   1.249
 9227SOL    HW128580   3.401   4.402   1.189
 9227SOL    HW228581   3.463   4.252   1.193
 9228SOL     OW28582   4.053   3.215   4.709
 9228SOL    HW128583   4.058   3.313   4.727
 9228SOL    HW228584   4.124   3.167   4.761
 9229SOL     OW28585   0.046   5.392   0.007
 9229SOL    HW128586   0.030   5.480   0.053
 9229SOL    HW228587   6.979   5.346   7.012
 9230SOL     OW28588   4.382   0.504   5.115
 9230SOL    HW128589   4.405   0.475   5.208
 9230SOL    HW228590   4.465   0.511   5.060
 9231SOL     OW28591   6.478   6.101   1.692
 9231SOL    HW128592   6.450   6.166   1.762
 9231SOL    HW228593   6.456   6.137   1.602
 9232SOL     OW28594   1.055   5.773   2.159
 9232SOL    HW128595   1.133   5.721   2.124
 9232SOL    HW228596   1.007   5.816   2.082
 9233SOL     OW28597   0.863   0.014   5.841
 9233SOL    HW128598   0.854   0.059   5.930
 9233SOL    HW228599   0.958   0.020   5.810
 9234SOL     OW28600   3.255   4.281   5.630
 9234SOL    HW128601   3.301   4.248   5.547
 9234SOL    HW228602   3.236   4.379   5.621
 9235SOL     OW28603   2.252   1.972   2.863
 9235SOL    HW128604   2.187   2.046   2.852
 9235SOL    HW228605   2.267   1.926   2.775
 9236SOL     OW28606   1.567   3.364   5.795
 9236SOL    HW128607   1.526   3.413   5.719
 9236SOL    HW228608   1.648   3.314   5.764
 9237SOL     OW28609   5.998   5.256   2.932
 9237SOL    HW128610   5.986   5.189   2.859
 9237SOL    HW228611   5.939   5.232   3.010
 9238SOL     OW28612   1.786   2.919   5.088
 9238SOL    HW128613   1.821   2.835   5.047
 9238SOL    HW228614   1.850   2.994   5.068
 9239SOL     OW28615   1.472   5.671   6.297
 9239SOL    HW128616   1.526   5.666   6.381
 9239SOL    HW228617   1.506   5.603   6.232
 9240SOL     OW28618   4.101   1.954   4.030
 9240SOL    HW128619   4.104   1.854   4.021
 9240SOL    HW228620   4.147   1.996   3.952
 9241SOL     OW28621   5.642   6.629   7.006
 9241SOL    HW128622   5.703   6.554   0.012
 9241SOL    HW228623   5.547   6.600   7.017
 9242SOL     OW28624   2.039   2.453   1.085
 9242SOL    HW128625   2.107   2.380   1.098
 9242SOL    HW228626   2.011   2.489   1.174
 9243SOL     OW28627   2.121   0.149   0.643
 9243SOL    HW128628   2.173   0.173   0.561
 9243SOL    HW228629   2.063   0.070   0.624
 9244SOL     OW28630   2.414   6.129   6.864
 9244SOL    HW128631   2.404   6.045   6.918
 9244SOL    HW228632   2.442   6.106   6.771
 9245SOL     OW28633   0.913   5.166   2.796
 9245SOL    HW128634   0.847   5.222   2.746
 9245SOL    HW228635   0.994   5.221   2.818
 9246SOL     OW28636   5.304   6.217   6.710
 9246SOL    HW128637   5.272   6.238   6.802
 9246SOL    HW228638   5.227   6.187   6.654
 9247SOL     OW28639   3.758   6.405   2.773
 9247SOL    HW128640   3.740   6.312   2.739
 9247SOL    HW228641   3.687   6.431   2.838
 9248SOL     OW28642   2.622   0.181   6.548
 9248SOL    HW128643   2.593   0.265   6.594
 9248SOL    HW228644   2.683   0.203   6.473
 9249SOL     OW28645   2.701   6.577   6.983
 9249SOL    HW128646   2.772   6.535   0.019
 9249SOL    HW228647   2.643   6.636   0.020
 9250SOL     OW28648   0.424   3.474   3.285
 9250SOL    HW128649   0.451   3.566   3.316
 9250SOL    HW228650   0.460   3.406   3.349
 9251SOL     OW28651   3.790   1.790   1.422
 9251SOL    HW128652   3.860   1.743   1.476
 9251SOL    HW228653   3.827   1.875   1.385
 9252SOL     OW28654   5.920   1.232   4.539
 9252SOL    HW128655   5.886   1.172   4.612
 9252SOL    HW228656   5.929   1.325   4.575
 9253SOL     OW28657   2.535   5.090   4.404
 9253SOL    HW128658   2.539   5.061   4.499
 9253SOL    HW228659   2.450   5.138   4.388
 9254SOL     OW28660   0.228   5.369   2.254
 9254SOL    HW128661   0.251   5.407   2.165
 9254SOL    HW228662   0.153   5.304   2.244
 9255SOL     OW28663   6.341   3.628   0.861
 9255SOL    HW128664   6.426   3.583   0.888
 9255SOL    HW228665   6.263   3.579   0.900
 9256SOL     OW28666   2.558   6.665   0.850
 9256SOL    HW128667   2.641   6.634   0.896
 9256SOL    HW228668   2.480   6.611   0.882
 9257SOL     OW28669   6.256   6.142   4.424
 9257SOL    HW128670   6.290   6.229   4.386
 9257SOL    HW228671   6.312   6.067   4.389
 9258SOL     OW28672   4.710   5.274   2.159
 9258SOL    HW128673   4.690   5.335   2.082
 9258SOL    HW228674   4.702   5.179   2.129
 9259SOL     OW28675   0.477   2.578   6.848
 9259SOL    HW128676   0.398   2.542   6.800
 9259SOL    HW228677   0.533   2.633   6.784
 9260SOL     OW28678   5.060   3.769   4.780
 9260SOL    HW128679   5.157   3.759   4.756
 9260SOL    HW228680   5.020   3.679   4.795
 9261SOL     OW28681   1.244   2.606   1.667
 9261SOL    HW128682   1.331   2.614   1.716
 9261SOL    HW228683   1.250   2.655   1.580
 9262SOL     OW28684   6.618   6.213   6.049
 9262SOL    HW128685   6.632   6.223   5.950
 9262SOL    HW228686   6.645   6.121   6.077
 9263SOL     OW28687   2.650   4.597   2.920
 9263SOL    HW128688   2.584   4.580   2.847
 9263SOL    HW228689   2.614   4.559   3.006
 9264SOL     OW28690   5.266   3.540   5.982
 9264SOL    HW128691   5.293   3.626   5.940
 9264SOL    HW228692   5.218   3.558   6.068
 9265SOL     OW28693   5.046   0.909   1.519
 9265SOL    HW128694   4.967   0.964   1.495
 9265SOL    HW228695   5.130   0.960   1.499
 9266SOL     OW28696   1.965   4.720   0.950
 9266SOL    HW128697   1.981   4.622   0.963
 9266SOL    HW228698   2.046   4.763   0.911
 9267SOL     OW28699   0.493   1.744   3.728
 9267SOL    HW128700   0.553   1.824   3.728
 9267SOL    HW228701   0.398   1.773   3.731
 9268SOL     OW28702   0.500   0.703   1.989
 9268SOL    HW128703   0.425   0.674   2.047
 9268SOL    HW228704   0.464   0.743   1.905
 9269SOL     OW28705   4.379   0.938   0.463
 9269SOL    HW128706   4.439   1.015   0.487
 9269SOL    HW228707   4.287   0.955   0.497
 9270SOL     OW28708   2.700   1.334   5.523
 9270SOL    HW128709   2.791   1.316   5.484
 9270SOL    HW228710   2.705   1.333   5.622
 9271SOL     OW28711   1.730   4.694   5.790
 9271SOL    HW128712   1.678   4.763   5.740
 9271SOL    HW228713   1.674   4.611   5.799
 9272SOL     OW28714   6.129   5.895   5.828
 9272SOL    HW128715   6.085   5.872   5.741
 9272SOL    HW228716   6.228   5.893   5.817
 9273SOL     OW28717   5.532   3.250   3.700
 9273SOL    HW128718   5.449   3.200   3.726
 9273SOL    HW228719   5.581   3.199   3.630
 9274SOL     OW28720   0.158   3.460   0.393
 9274SOL    HW128721   0.233   3.521   0.419
 9274SOL    HW228722   0.187   3.402   0.317
 9275SOL     OW28723   5.769   0.904   0.411
 9275SOL    HW128724   5.804   0.958   0.488
 9275SOL    HW228725   5.744   0.813   0.443
 9276SOL     OW28726   2.207   4.572   6.610
 9276SOL    HW128727   2.184   4.652   6.555
 9276SOL    HW228728   2.125   4.518   6.627
 9277SOL     OW28729   4.078   5.647   2.260
 9277SOL    HW128730   3.986   5.638   2.299
 9277SOL    HW228731   4.096   5.570   2.199
 9278SOL     OW28732   0.300   6.648   6.081
 9278SOL    HW128733   0.275   6.737   6.120
 9278SOL    HW228734   0.365   6.603   6.141
 9279SOL     OW28735   2.756   6.138   2.221
 9279SOL    HW128736   2.660   6.123   2.196
 9279SOL    HW228737   2.761   6.213   2.287
 9280SOL     OW28738   1.169   5.741   2.702
 9280SOL    HW128739   1.173   5.679   2.781
 9280SOL    HW228740   1.074   5.766   2.685
 9281SOL     OW28741   1.687   4.890   0.545
 9281SOL    HW128742   1.614   4.956   0.527
 9281SOL    HW228743   1.759   4.934   0.598
 9282SOL     OW28744   2.681   6.791   5.015
 9282SOL    HW128745   2.645   6.877   5.052
 9282SOL    HW228746   2.638   6.772   4.926
 9283SOL     OW28747   4.642   6.146   0.454
 9283SOL    HW128748   4.607   6.094   0.532
 9283SOL    HW228749   4.725   6.195   0.481
 9284SOL     OW28750   4.280   5.565   0.227
 9284SOL    HW128751   4.238   5.638   0.281
 9284SOL    HW228752   4.292   5.596   0.133
 9285SOL     OW28753   6.992   6.252   3.583
 9285SOL    HW128754   6.910   6.304   3.604
 9285SOL    HW228755   0.033   6.306   3.526
 9286SOL     OW28756   5.076   6.585   1.727
 9286SOL    HW128757   5.083   6.491   1.762
 9286SOL    HW228758   4.996   6.629   1.767
 9287SOL     OW28759   4.227   3.816   6.116
 9287SOL    HW128760   4.247   3.718   6.114
 9287SOL    HW228761   4.152   3.834   6.179
 9288SOL     OW28762   3.765   1.819   2.343
 9288SOL    HW128763   3.829   1.777   2.278
 9288SOL    HW228764   3.744   1.912   2.313
 9289SOL     OW28765   4.584   6.023   1.263
 9289SOL    HW128766   4.647   6.057   1.333
 9289SOL    HW228767   4.636   6.001   1.180
 9290SOL     OW28768   5.937   1.318   3.720
 9290SOL    HW128769   6.000   1.350   3.649
 9290SOL    HW228770   5.976   1.237   3.765
 9291SOL     OW28771   0.313   4.136   5.709
 9291SOL    HW128772   0.369   4.161   5.788
 9291SOL    HW228773   0.220   4.171   5.722
 9292SOL     OW28774   0.379   1.829   6.578
 9292SOL    HW128775   0.453   1.764   6.560
 9292SOL    HW228776   0.297   1.802   6.528
 9293SOL     OW28777   4.531   1.962   5.119
 9293SOL    HW128778   4.537   2.027   5.043
 9293SOL    HW228779   4.471   1.886   5.092
 9294SOL     OW28780   4.904   6.611   6.907
 9294SOL    HW128781   4.805   6.619   6.914
 9294SOL    HW228782   4.936   6.653   6.822
 9295SOL     OW28783   5.937   1.111   3.923
 9295SOL    HW128784   5.866   1.075   3.864
 9295SOL    HW228785   5.978   1.036   3.976
 9296SOL     OW28786   2.106   4.505   5.969
 9296SOL    HW128787   2.135   4.584   6.024
 9296SOL    HW228788   2.012   4.481   5.992
 9297SOL     OW28789   0.121   5.125   2.208
 9297SOL    HW128790   0.170   5.065   2.270
 9297SOL    HW228791   0.139   5.098   2.113
 9298SOL     OW28792   1.142   4.345   6.475
 9298SOL    HW128793   1.108   4.347   6.569
 9298SOL    HW228794   1.149   4.438   6.439
 9299SOL     OW28795   3.080   2.145   4.478
 9299SOL    HW128796   3.093   2.234   4.522
 9299SOL    HW228797   3.113   2.073   4.538
 9300SOL     OW28798   2.112   6.419   5.039
 9300SOL    HW128799   2.033   6.439   4.982
 9300SOL    HW228800   2.090   6.345   5.102
 9301SOL     OW28801   1.150   4.237   4.080
 9301SOL    HW128802   1.179   4.223   3.986
 9301SOL    HW228803   1.144   4.335   4.098
 9302SOL     OW28804   2.917   5.464   4.265
 9302SOL    HW128805   2.825   5.491   4.293
 9302SOL    HW228806   2.936   5.372   4.299
 9303SOL     OW28807   2.804   4.367   0.042
 9303SOL    HW128808   2.754   4.452   0.027
 9303SOL    HW228809   2.814   4.351   0.141
 9304SOL     OW28810   5.412   5.443   6.298
 9304SOL    HW128811   5.318   5.454   6.331
 9304SOL    HW228812   5.416   5.465   6.200
 9305SOL     OW28813   1.640   1.525   0.981
 9305SOL    HW128814   1.587   1.521   0.896
 9305SOL    HW228815   1.726   1.475   0.969
 9306SOL     OW28816   6.549   6.661   4.506
 9306SOL    HW128817   6.625   6.681   4.568
 9306SOL    HW228818   6.542   6.562   4.493
 9307SOL     OW28819   1.542   4.008   1.385
 9307SOL    HW128820   1.469   4.061   1.428
 9307SOL    HW228821   1.600   3.967   1.455
 9308SOL     OW28822   2.241   3.553   1.645
 9308SOL    HW128823   2.266   3.527   1.739
 9308SOL    HW228824   2.298   3.502   1.580
 9309SOL     OW28825   4.877   5.396   6.404
 9309SOL    HW128826   4.921   5.309   6.383
 9309SOL    HW228827   4.893   5.461   6.330
 9310SOL     OW28828   5.756   5.780   5.814
 9310SOL    HW128829   5.803   5.852   5.764
 9310SOL    HW228830   5.747   5.807   5.910
 9311SOL     OW28831   5.211   3.828   0.755
 9311SOL    HW128832   5.156   3.906   0.786
 9311SOL    HW228833   5.245   3.847   0.663
 9312SOL     OW28834   6.984   2.687   3.624
 9312SOL    HW128835   7.009   2.758   3.690
 9312SOL    HW228836   7.016   2.598   3.657
 9313SOL     OW28837   0.889   0.682   2.377
 9313SOL    HW128838   0.805   0.708   2.329
 9313SOL    HW228839   0.884   0.713   2.472
 9314SOL     OW28840   5.204   5.024   1.633
 9314SOL    HW128841   5.130   5.087   1.608
 9314SOL    HW228842   5.257   5.002   1.551
 9315SOL     OW28843   5.526   5.773   5.484
 9315SOL    HW128844   5.519   5.779   5.583
 9315SOL    HW228845   5.509   5.863   5.444
 9316SOL     OW28846   5.017   6.849   1.009
 9316SOL    HW128847   5.062   6.808   1.088
 9316SOL    HW228848   4.991   6.778   0.944
 9317SOL     OW28849   1.998   6.133   3.735
 9317SOL    HW128850   2.051   6.097   3.812
 9317SOL    HW228851   1.901   6.135   3.759
 9318SOL     OW28852   3.462   6.842   2.302
 9318SOL    HW128853   3.481   6.935   2.332
 9318SOL    HW228854   3.547   6.798   2.272
 9319SOL     OW28855   4.050   1.858   0.129
 9319SOL    HW128856   4.125   1.876   0.193
 9319SOL    HW228857   4.008   1.770   0.150
 9320SOL     OW28858   6.859   6.514   6.878
 9320SOL    HW128859   6.801   6.463   6.942
 9320SOL    HW228860   6.811   6.523   6.790
 9321SOL     OW28861   1.009   3.459   4.330
 9321SOL    HW128862   1.038   3.554   4.347
 9321SOL    HW228863   0.996   3.412   4.417
 9322SOL     OW28864   5.410   2.946   6.759
 9322SOL    HW128865   5.450   3.010   6.825
 9322SOL    HW228866   5.478   2.922   6.690
 9323SOL     OW28867   0.881   2.518   6.174
 9323SOL    HW128868   0.816   2.588   6.145
 9323SOL    HW228869   0.974   2.547   6.151
 9324SOL     OW28870   0.213   4.468   1.409
 9324SOL    HW128871   0.196   4.500   1.316
 9324SOL    HW228872   0.282   4.526   1.452
 9325SOL     OW28873   0.861   5.015   3.253
 9325SOL    HW128874   0.885   5.089   3.315
 9325SOL    HW228875   0.882   5.043   3.159
 9326SOL     OW28876   5.034   4.441   0.389
 9326SOL    HW128877   4.993   4.358   0.351
 9326SOL    HW228878   4.971   4.481   0.456
 9327SOL     OW28879   3.072   1.392   3.360
 9327SOL    HW128880   3.024   1.310   3.329
 9327SOL    HW228881   3.147   1.366   3.421
 9328SOL     OW28882   1.579   0.950   3.626
 9328SOL    HW128883   1.566   1.049   3.612
 9328SOL    HW228884   1.490   0.907   3.641
 9329SOL     OW28885   1.268   5.050   6.351
 9329SOL    HW128886   1.262   5.142   6.389
 9329SOL    HW228887   1.233   4.984   6.418
 9330SOL     OW28888   1.278   6.692   0.503
 9330SOL    HW128889   1.246   6.597   0.500
 9330SOL    HW228890   1.283   6.729   0.410
 9331SOL     OW28891   2.248   4.462   4.110
 9331SOL    HW128892   2.235   4.385   4.047
 9331SOL    HW228893   2.160   4.507   4.126
 9332SOL     OW28894   6.532   5.062   0.052
 9332SOL    HW128895   6.479   5.144   0.031
 9332SOL    HW228896   6.528   5.043   0.150
 9333SOL     OW28897   2.682   4.471   1.452
 9333SOL    HW128898   2.780   4.457   1.465
 9333SOL    HW228899   2.660   4.568   1.466
 9334SOL     OW28900   6.652   5.656   6.391
 9334SOL    HW128901   6.677   5.704   6.475
 9334SOL    HW228902   6.552   5.657   6.382
 9335SOL     OW28903   0.503   3.930   1.256
 9335SOL    HW128904   0.558   3.866   1.203
 9335SOL    HW228905   0.553   3.958   1.338
 9336SOL     OW28906   5.316   6.583   6.042
 9336SOL    HW128907   5.354   6.620   5.957
 9336SOL    HW228908   5.221   6.557   6.027
 9337SOL     OW28909   2.588   1.576   5.476
 9337SOL    HW128910   2.619   1.482   5.488
 9337SOL    HW228911   2.603   1.627   5.560
 9338SOL     OW28912   5.306   6.018   0.767
 9338SOL    HW128913   5.395   6.001   0.725
 9338SOL    HW228914   5.306   6.109   0.809
 9339SOL     OW28915   6.921   3.984   5.190
 9339SOL    HW128916   6.945   3.890   5.163
 9339SOL    HW228917   7.002   4.042   5.182
 9340SOL     OW28918   2.564   4.893   1.927
 9340SOL    HW128919   2.626   4.953   1.976
 9340SOL    HW228920   2.566   4.802   1.968
 9341SOL     OW28921   5.732   5.361   6.674
 9341SOL    HW128922   5.720   5.396   6.766
 9341SOL    HW228923   5.683   5.419   6.609
 9342SOL     OW28924   3.137   6.842   5.055
 9342SOL    HW128925   3.149   6.742   5.061
 9342SOL    HW228926   3.211   6.881   5.001
 9343SOL     OW28927   4.860   3.891   0.817
 9343SOL    HW128928   4.884   3.805   0.862
 9343SOL    HW228929   4.902   3.893   0.726
 9344SOL     OW28930   5.548   0.508   5.190
 9344SOL    HW128931   5.633   0.558   5.205
 9344SOL    HW228932   5.499   0.500   5.277
 9345SOL     OW28933   0.329   4.875   0.293
 9345SOL    HW128934   0.362   4.929   0.371
 9345SOL    HW228935   0.229   4.882   0.288
 9346SOL     OW28936   5.080   0.408   2.005
 9346SOL    HW128937   5.049   0.502   1.998
 9346SOL    HW228938   5.074   0.378   2.101
 9347SOL     OW28939   4.361   6.258   1.287
 9347SOL    HW128940   4.267   6.227   1.279
 9347SOL    HW228941   4.421   6.195   1.237
 9348SOL     OW28942   2.408   5.360   1.764
 9348SOL    HW128943   2.398   5.261   1.762
 9348SOL    HW228944   2.450   5.388   1.850
 9349SOL     OW28945   6.856   6.197   1.079
 9349SOL    HW128946   6.776   6.232   1.129
 9349SOL    HW228947   6.929   6.175   1.144
 9350SOL     OW28948   6.627   0.713   0.662
 9350SOL    HW128949   6.657   0.620   0.642
 9350SOL    HW228950   6.543   0.710   0.716
 9351SOL     OW28951   4.120   3.300   6.176
 9351SOL    HW128952   4.154   3.213   6.210
 9351SOL    HW228953   4.103   3.293   6.078
 9352SOL     OW28954   3.029   2.613   6.820
 9352SOL    HW128955   3.070   2.583   6.734
 9352SOL    HW228956   3.086   2.584   6.896
 9353SOL     OW28957   0.693   2.959   1.464
 9353SOL    HW128958   0.785   2.926   1.484
 9353SOL    HW228959   0.691   2.996   1.371
 9354SOL     OW28960   5.265   1.754   1.601
 9354SOL    HW128961   5.309   1.692   1.536
 9354SOL    HW228962   5.299   1.736   1.693
 9355SOL     OW28963   7.002   1.158   2.203
 9355SOL    HW128964   6.963   1.240   2.245
 9355SOL    HW228965   0.054   1.122   2.261
 9356SOL     OW28966   5.099   3.136   2.572
 9356SOL    HW128967   5.027   3.197   2.538
 9356SOL    HW228968   5.120   3.067   2.502
 9357SOL     OW28969   3.205   3.793   0.641
 9357SOL    HW128970   3.302   3.807   0.621
 9357SOL    HW228971   3.180   3.699   0.623
 9358SOL     OW28972   5.188   4.194   2.198
 9358SOL    HW128973   5.150   4.264   2.259
 9358SOL    HW228974   5.241   4.239   2.125
 9359SOL     OW28975   5.264   4.811   5.802
 9359SOL    HW128976   5.298   4.860   5.722
 9359SOL    HW228977   5.336   4.751   5.837
 9360SOL     OW28978   1.417   1.287   5.123
 9360SOL    HW128979   1.437   1.385   5.118
 9360SOL    HW228980   1.501   1.237   5.146
 9361SOL     OW28981   2.520   0.959   1.942
 9361SOL    HW128982   2.520   0.906   1.857
 9361SOL    HW228983   2.432   1.007   1.951
 9362SOL     OW28984   1.986   1.953   3.341
 9362SOL    HW128985   1.927   1.907   3.275
 9362SOL    HW228986   1.959   1.928   3.434
 9363SOL     OW28987   1.708   6.606   2.065
 9363SOL    HW128988   1.746   6.676   2.125
 9363SOL    HW228989   1.737   6.516   2.096
 9364SOL     OW28990   5.446   4.601   0.998
 9364SOL    HW128991   5.387   4.609   1.078
 9364SOL    HW228992   5.535   4.643   1.017
 9365SOL     OW28993   2.245   1.638   4.859
 9365SOL    HW128994   2.170   1.684   4.906
 9365SOL    HW228995   2.229   1.539   4.860
 9366SOL     OW28996   3.384   1.456   1.729
 9366SOL    HW128997   3.469   1.480   1.683
 9366SOL    HW228998   3.375   1.357   1.736
 9367SOL     OW28999   6.533   6.274   4.233
 9367SOL    HW129000   6.481   6.189   4.225
 9367SOL    HW229001   6.631   6.255   4.222
 9368SOL     OW29002   4.649   2.682   1.222
 9368SOL    HW129003   4.676   2.586   1.232
 9368SOL    HW229004   4.710   2.739   1.277
 9369SOL     OW29005   0.009   2.563   5.957
 9369SOL    HW129006   0.042   2.483   5.907
 9369SOL    HW229007   6.993   2.631   5.893
 9370SOL     OW29008   6.268   6.361   3.553
 9370SOL    HW129009   6.258   6.435   3.620
 9370SOL    HW229010   6.347   6.305   3.577
 9371SOL     OW29011   1.472   6.529   0.864
 9371SOL    HW129012   1.463   6.545   0.962
 9371SOL    HW229013   1.526   6.602   0.822
 9372SOL     OW29014   5.666   6.180   0.331
 9372SOL    HW129015   5.645   6.082   0.331
 9372SOL    HW229016   5.642   6.219   0.420
 9373SOL     OW29017   4.820   2.614   4.227
 9373SOL    HW129018   4.777   2.534   4.268
 9373SOL    HW229019   4.849   2.677   4.299
 9374SOL     OW29020   5.181   4.589   0.210
 9374SOL    HW129021   5.124   4.548   0.282
 9374SOL    HW229022   5.207   4.518   0.144
 9375SOL     OW29023   0.568   1.628   3.962
 9375SOL    HW129024   0.557   1.531   3.939
 9375SOL    HW229025   0.548   1.683   3.880
 9376SOL     OW29026   1.719   2.729   1.969
 9376SOL    HW129027   1.703   2.774   1.881
 9376SOL    HW229028   1.728   2.631   1.955
 9377SOL     OW29029   5.914   5.130   2.676
 9377SOL    HW129030   5.931   5.032   2.671
 9377SOL    HW229031   5.816   5.147   2.684
 9378SOL     OW29032   3.202   6.044   1.568
 9378SOL    HW129033   3.105   6.067   1.560
 9378SOL    HW229034   3.214   5.977   1.641
 9379SOL     OW29035   5.781   4.760   5.451
 9379SOL    HW129036   5.877   4.773   5.425
 9379SOL    HW229037   5.776   4.723   5.544
 9380SOL     OW29038   5.871   5.817   6.513
 9380SOL    HW129039   5.784   5.809   6.465
 9380SOL    HW229040   5.871   5.901   6.568
 9381SOL     OW29041   1.750   1.033   0.757
 9381SOL    HW129042   1.652   1.040   0.771
 9381SOL    HW229043   1.781   1.103   0.693
 9382SOL     OW29044   5.572   1.801   2.392
 9382SOL    HW129045   5.650   1.859   2.366
 9382SOL    HW229046   5.595   1.751   2.476
 9383SOL     OW29047   5.496   5.761   5.760
 9383SOL    HW129048   5.590   5.744   5.790
 9383SOL    HW229049   5.440   5.680   5.776
 9384SOL     OW29050   4.098   6.396   2.463
 9384SOL    HW129051   4.170   6.462   2.439
 9384SOL    HW229052   4.009   6.438   2.451
 9385SOL     OW29053   3.523   0.671   4.298
 9385SOL    HW129054   3.430   0.675   4.335
 9385SOL    HW229055   3.587   0.645   4.371
 9386SOL     OW29056   3.607   0.165   4.857
 9386SOL    HW129057   3.537   0.163   4.786
 9386SOL    HW229058   3.683   0.224   4.828
 9387SOL     OW29059   3.955   6.246   0.904
 9387SOL    HW129060   3.877   6.285   0.856
 9387SOL    HW229061   3.958   6.147   0.890
 9388SOL     OW29062   6.190   6.573   2.726
 9388SOL    HW129063   6.245   6.647   2.764
 9388SOL    HW229064   6.096   6.581   2.758
 9389SOL     OW29065   3.543   1.405   6.850
 9389SOL    HW129066   3.465   1.346   6.830
 9389SOL    HW229067   3.593   1.368   6.929
 9390SOL     OW29068   2.574   6.648   1.857
 9390SOL    HW129069   2.550   6.714   1.929
 9390SOL    HW229070   2.574   6.556   1.896
 9391SOL     OW29071   0.355   1.417   5.280
 9391SOL    HW129072   0.378   1.488   5.214
 9391SOL    HW229073   0.405   1.333   5.258
 9392SOL     OW29074   1.125   6.399   4.449
 9392SOL    HW129075   1.040   6.363   4.490
 9392SOL    HW229076   1.107   6.490   4.412
 9393SOL     OW29077   3.754   2.099   5.630
 9393SOL    HW129078   3.712   2.103   5.540
 9393SOL    HW229079   3.825   2.169   5.637
 9394SOL     OW29080   5.688   2.683   1.924
 9394SOL    HW129081   5.632   2.762   1.948
 9394SOL    HW229082   5.714   2.689   1.827
 9395SOL     OW29083   2.127   2.803   6.548
 9395SOL    HW129084   2.169   2.879   6.498
 9395SOL    HW229085   2.149   2.810   6.645
 9396SOL     OW29086   6.167   0.186   6.644
 9396SOL    HW129087   6.074   0.195   6.679
 9396SOL    HW229088   6.231   0.223   6.711
 9397SOL     OW29089   2.959   1.557   1.162
 9397SOL    HW129090   2.957   1.461   1.134
 9397SOL    HW229091   3.053   1.592   1.154
 9398SOL     OW29092   2.084   1.159   0.745
 9398SOL    HW129093   2.101   1.066   0.713
 9398SOL    HW229094   2.085   1.160   0.845
 9399SOL     OW29095   6.665   0.510   5.441
 9399SOL    HW129096   6.748   0.479   5.394
 9399SOL    HW229097   6.652   0.456   5.525
 9400SOL     OW29098   4.434   2.203   3.657
 9400SOL    HW129099   4.468   2.194   3.750
 9400SOL    HW229100   4.507   2.239   3.599
 9401SOL     OW29101   4.312   0.482   2.855
 9401SOL    HW129102   4.249   0.479   2.778
 9401SOL    HW229103   4.395   0.531   2.829
 9402SOL     OW29104   1.918   4.931   0.255
 9402SOL    HW129105   1.876   4.991   0.188
 9402SOL    HW229106   1.997   4.886   0.214
 9403SOL     OW29107   5.605   0.747   4.805
 9403SOL    HW129108   5.532   0.805   4.842
 9403SOL    HW229109   5.564   0.664   4.767
 9404SOL     OW29110   0.893   4.011   5.252
 9404SOL    HW129111   0.885   4.103   5.291
 9404SOL    HW229112   0.854   4.010   5.160
 9405SOL     OW29113   6.705   0.419   0.948
 9405SOL    HW129114   6.646   0.496   0.973
 9405SOL    HW229115   6.650   0.336   0.940
 9406SOL     OW29116   6.995   1.094   5.330
 9406SOL    HW129117   0.014   1.137   5.411
 9406SOL    HW229118   6.903   1.129   5.314
 9407SOL     OW29119   3.650   5.996   2.862
 9407SOL    HW129120   3.692   6.049   2.936
 9407SOL    HW229121   3.668   6.040   2.775
 9408SOL     OW29122   3.988   1.616   6.634
 9408SOL    HW129123   4.003   1.612   6.535
 9408SOL    HW229124   4.059   1.671   6.676
 9409SOL     OW29125   6.054   3.695   3.355
 9409SOL    HW129126   6.054   3.795   3.354
 9409SOL    HW229127   6.103   3.661   3.274
 9410SOL     OW29128   4.624   6.539   1.947
 9410SOL    HW129129   4.607   6.522   1.850
 9410SOL    HW229130   4.549   6.500   2.000
 9411SOL     OW29131   4.910   5.388   1.190
 9411SOL    HW129132   4.978   5.454   1.160
 9411SOL    HW229133   4.872   5.417   1.278
 9412SOL     OW29134   0.029   3.118   2.260
 9412SOL    HW129135   0.029   3.151   2.354
 9412SOL    HW229136   0.039   3.196   2.198
 9413SOL     OW29137   3.606   5.346   4.663
 9413SOL    HW129138   3.676   5.316   4.598
 9413SOL    HW229139   3.519   5.356   4.615
 9414SOL     OW29140   2.656   1.384   2.237
 9414SOL    HW129141   2.606   1.333   2.168
 9414SOL    HW229142   2.599   1.456   2.275
 9415SOL     OW29143   2.756   0.941   2.515
 9415SOL    HW129144   2.776   0.865   2.453
 9415SOL    HW229145   2.825   1.012   2.504
 9416SOL     OW29146   1.301   1.872   0.982
 9416SOL    HW129147   1.371   1.800   0.979
 9416SOL    HW229148   1.306   1.918   1.071
 9417SOL     OW29149   2.426   0.040   4.453
 9417SOL    HW129150   2.358   0.092   4.505
 9417SOL    HW229151   2.518   0.065   4.484
 9418SOL     OW29152   4.167   4.422   1.023
 9418SOL    HW129153   4.180   4.513   1.063
 9418SOL    HW229154   4.102   4.371   1.079
 9419SOL     OW29155   3.553   5.451   5.097
 9419SOL    HW129156   3.621   5.448   5.171
 9419SOL    HW229157   3.563   5.369   5.040
 9420SOL     OW29158   1.143   1.493   4.451
 9420SOL    HW129159   1.107   1.562   4.514
 9420SOL    HW229160   1.067   1.443   4.409
 9421SOL     OW29161   1.863   5.234   4.862
 9421SOL    HW129162   1.822   5.325   4.868
 9421SOL    HW229163   1.811   5.178   4.798
 9422SOL     OW29164   3.610   1.117   2.372
 9422SOL    HW129165   3.598   1.040   2.434
 9422SOL    HW229166   3.537   1.117   2.304
 9423SOL     OW29167   4.831   0.430   4.502
 9423SOL    HW129168   4.822   0.500   4.431
 9423SOL    HW229169   4.804   0.341   4.464
 9424SOL     OW29170   2.951   6.371   4.499
 9424SOL    HW129171   3.017   6.440   4.472
 9424SOL    HW229172   2.884   6.358   4.426
 9425SOL     OW29173   0.974   4.910   3.585
 9425SOL    HW129174   1.009   4.856   3.508
 9425SOL    HW229175   1.024   4.996   3.590
 9426SOL     OW29176   4.038   6.325   0.317
 9426SOL    HW129177   3.979   6.379   0.377
 9426SOL    HW229178   3.986   6.249   0.279
 9427SOL     OW29179   3.220   4.912   4.251
 9427SOL    HW129180   3.202   5.010   4.247
 9427SOL    HW229181   3.134   4.862   4.250
 9428SOL     OW29182   4.249   5.828   2.165
 9428SOL    HW129183   4.180   5.759   2.186
 9428SOL    HW229184   4.217   5.917   2.195
 9429SOL     OW29185   6.786   3.039   2.526
 9429SOL    HW129186   6.873   3.047   2.477
 9429SOL    HW229187   6.738   2.957   2.497
 9430SOL     OW29188   6.388   6.896   1.889
 9430SOL    HW129189   6.459   6.962   1.865
 9430SOL    HW229190   6.407   6.859   1.980
 9431SOL     OW29191   6.379   4.133   1.363
 9431SOL    HW129192   6.446   4.181   1.307
 9431SOL    HW229193   6.349   4.051   1.315
 9432SOL     OW29194   6.915   6.858   4.558
 9432SOL    HW129195   6.878   6.804   4.633
 9432SOL    HW229196   6.955   6.797   4.489
 9433SOL     OW29197   2.863   4.797   4.752
 9433SOL    HW129198   2.900   4.886   4.777
 9433SOL    HW229199   2.881   4.731   4.826
 9434SOL     OW29200   4.893   5.135   3.228
 9434SOL    HW129201   4.874   5.066   3.297
 9434SOL    HW229202   4.873   5.226   3.265
 9435SOL     OW29203   1.739   1.855   5.235
 9435SOL    HW129204   1.819   1.813   5.193
 9435SOL    HW229205   1.764   1.945   5.272
 9436SOL     OW29206   1.821   2.554   6.286
 9436SOL    HW129207   1.851   2.496   6.210
 9436SOL    HW229208   1.839   2.650   6.265
 9437SOL     OW29209   0.556   5.000   4.019
 9437SOL    HW129210   0.590   5.042   4.103
 9437SOL    HW229211   0.497   5.065   3.971
 9438SOL     OW29212   0.994   6.909   2.041
 9438SOL    HW129213   1.037   6.844   1.978
 9438SOL    HW229214   0.915   6.866   2.085
 9439SOL     OW29215   0.837   2.662   1.637
 9439SOL    HW129216   0.901   2.600   1.682
 9439SOL    HW229217   0.805   2.621   1.552
 9440SOL     OW29218   4.858   5.867   5.429
 9440SOL    HW129219   4.941   5.816   5.404
 9440SOL    HW229220   4.844   5.941   5.363
 9441SOL     OW29221   1.805   5.499   4.932
 9441SOL    HW129222   1.903   5.514   4.917
 9441SOL    HW229223   1.753   5.558   4.870
 9442SOL     OW29224   0.624   3.742   1.120
 9442SOL    HW129225   0.721   3.758   1.139
 9442SOL    HW229226   0.614   3.674   1.048
 9443SOL     OW29227   1.987   3.289   1.410
 9443SOL    HW129228   1.891   3.317   1.414
 9443SOL    HW229229   2.011   3.240   1.494
 9444SOL     OW29230   0.497   4.197   5.903
 9444SOL    HW129231   0.525   4.136   5.978
 9444SOL    HW229232   0.577   4.220   5.848
 9445SOL     OW29233   6.163   3.557   1.370
 9445SOL    HW129234   6.075   3.600   1.388
 9445SOL    HW229235   6.237   3.618   1.397
 9446SOL     OW29236   6.003   4.943   0.979
 9446SOL    HW129237   6.031   4.848   0.969
 9446SOL    HW229238   6.064   4.990   1.042
 9447SOL     OW29239   6.221   2.682   1.149
 9447SOL    HW129240   6.242   2.775   1.181
 9447SOL    HW229241   6.258   2.615   1.213
 9448SOL     OW29242   6.001   6.057   0.538
 9448SOL    HW129243   5.965   6.088   0.450
 9448SOL    HW229244   6.090   6.013   0.523
 9449SOL     OW29245   6.812   5.312   5.040
 9449SOL    HW129246   6.910   5.329   5.049
 9449SOL    HW229247   6.791   5.218   5.067
 9450SOL     OW29248   2.880   5.221   4.360
 9450SOL    HW129249   2.836   5.168   4.432
 9450SOL    HW229250   2.830   5.210   4.275
 9451SOL     OW29251   4.023   4.194   5.834
 9451SOL    HW129252   4.032   4.193   5.933
 9451SOL    HW229253   4.074   4.117   5.794
 9452SOL     OW29254   3.168   4.299   1.174
 9452SOL    HW129255   3.143   4.320   1.269
 9452SOL    HW229256   3.181   4.201   1.164
 9453SOL     OW29257   3.140   4.934   2.205
 9453SOL    HW129258   3.059   4.881   2.180
 9453SOL    HW229259   3.211   4.921   2.135
 9454SOL     OW29260   2.183   2.367   5.558
 9454SOL    HW129261   2.113   2.345   5.626
 9454SOL    HW229262   2.273   2.366   5.602
 9455SOL     OW29263   2.945   1.884   2.133
 9455SOL    HW129264   2.997   1.966   2.107
 9455SOL    HW229265   2.860   1.911   2.178
 9456SOL     OW29266   1.568   3.275   1.167
 9456SOL    HW129267   1.632   3.347   1.193
 9456SOL    HW229268   1.533   3.292   1.075
 9457SOL     OW29269   0.040   3.154   0.758
 9457SOL    HW129270   0.034   3.203   0.845
 9457SOL    HW229271   0.019   3.217   0.683
 9458SOL     OW29272   0.440   5.756   4.595
 9458SOL    HW129273   0.479   5.793   4.678
 9458SOL    HW229274   0.500   5.684   4.559
 9459SOL     OW29275   4.216   5.980   1.573
 9459SOL    HW129276   4.195   5.914   1.645
 9459SOL    HW229277   4.167   6.066   1.592
 9460SOL     OW29278   0.990   2.444   5.259
 9460SOL    HW129279   1.025   2.534   5.285
 9460SOL    HW229280   1.066   2.381   5.247
 9461SOL     OW29281   1.243   0.406   2.690
 9461SOL    HW129282   1.249   0.487   2.748
 9461SOL    HW229283   1.322   0.403   2.629
 9462SOL     OW29284   0.421   3.499   3.018
 9462SOL    HW129285   0.404   3.473   3.114
 9462SOL    HW229286   0.502   3.556   3.014
 9463SOL     OW29287   5.418   1.835   6.917
 9463SOL    HW129288   5.414   1.909   6.985
 9463SOL    HW229289   5.423   1.875   6.826
 9464SOL     OW29290   4.433   6.576   6.139
 9464SOL    HW129291   4.427   6.596   6.236
 9464SOL    HW229292   4.399   6.654   6.086
 9465SOL     OW29293   5.907   0.217   4.633
 9465SOL    HW129294   5.973   0.152   4.670
 9465SOL    HW229295   5.912   0.218   4.533
 9466SOL     OW29296   2.381   2.146   6.694
 9466SOL    HW129297   2.317   2.213   6.655
 9466SOL    HW229298   2.424   2.184   6.775
 9467SOL     OW29299   2.144   3.239   1.895
 9467SOL    HW129300   2.194   3.324   1.911
 9467SOL    HW229301   2.115   3.200   1.982
 9468SOL     OW29302   0.212   2.418   6.432
 9468SOL    HW129303   0.292   2.463   6.391
 9468SOL    HW229304   0.129   2.462   6.399
 9469SOL     OW29305   6.431   4.023   2.236
 9469SOL    HW129306   6.349   3.997   2.287
 9469SOL    HW229307   6.436   3.971   2.150
 9470SOL     OW29308   5.499   3.612   1.489
 9470SOL    HW129309   5.419   3.607   1.549
 9470SOL    HW229310   5.471   3.607   1.394
 9471SOL     OW29311   0.485   2.256   6.033
 9471SOL    HW129312   0.461   2.236   6.129
 9471SOL    HW229313   0.408   2.232   5.974
 9472SOL     OW29314   6.726   2.925   4.848
 9472SOL    HW129315   6.818   2.902   4.818
 9472SOL    HW229316   6.729   2.965   4.940
 9473SOL     OW29317   3.774   5.124   4.469
 9473SOL    HW129318   3.792   5.081   4.381
 9473SOL    HW229319   3.693   5.081   4.511
 9474SOL     OW29320   3.829   5.325   3.337
 9474SOL    HW129321   3.879   5.386   3.398
 9474SOL    HW229322   3.796   5.377   3.258
 9475SOL     OW29323   1.288   3.407   1.090
 9475SOL    HW129324   1.357   3.388   1.021
 9475SOL    HW229325   1.313   3.488   1.142
 9476SOL     OW29326   4.073   3.733   5.230
 9476SOL    HW129327   4.009   3.789   5.283
 9476SOL    HW229328   4.082   3.770   5.138
 9477SOL     OW29329   1.102   2.701   0.747
 9477SOL    HW129330   1.010   2.682   0.712
 9477SOL    HW229331   1.159   2.735   0.672
 9478SOL     OW29332   5.358   4.767   5.081
 9478SOL    HW129333   5.355   4.677   5.038
 9478SOL    HW229334   5.285   4.773   5.150
 9479SOL     OW29335   6.370   6.002   5.602
 9479SOL    HW129336   6.428   5.976   5.524
 9479SOL    HW229337   6.418   5.983   5.687
 9480SOL     OW29338   6.064   4.319   7.002
 9480SOL    HW129339   6.047   4.415   0.003
 9480SOL    HW229340   6.020   4.296   6.915
 9481SOL     OW29341   6.201   3.640   2.105
 9481SOL    HW129342   6.174   3.648   2.201
 9481SOL    HW229343   6.204   3.544   2.078
 9482SOL     OW29344   3.851   0.183   2.695
 9482SOL    HW129345   3.752   0.177   2.688
 9482SOL    HW229346   3.879   0.174   2.791
 9483SOL     OW29347   1.580   1.529   0.689
 9483SOL    HW129348   1.561   1.469   0.611
 9483SOL    HW229349   1.497   1.580   0.714
 9484SOL     OW29350   6.200   1.402   2.857
 9484SOL    HW129351   6.108   1.437   2.873
 9484SOL    HW229352   6.228   1.343   2.933
 9485SOL     OW29353   0.924   0.595   2.855
 9485SOL    HW129354   0.858   0.528   2.821
 9485SOL    HW229355   0.988   0.551   2.918
 9486SOL     OW29356   2.936   5.868   2.303
 9486SOL    HW129357   3.036   5.865   2.307
 9486SOL    HW229358   2.906   5.963   2.311
 9487SOL     OW29359   3.232   2.955   3.684
 9487SOL    HW129360   3.310   2.893   3.674
 9487SOL    HW229361   3.245   3.010   3.767
 9488SOL     OW29362   1.677   0.321   1.363
 9488SOL    HW129363   1.643   0.335   1.270
 9488SOL    HW229364   1.641   0.234   1.399
 9489SOL     OW29365   4.064   4.363   0.715
 9489SOL    HW129366   4.132   4.355   0.788
 9489SOL    HW229367   3.985   4.305   0.737
 9490SOL     OW29368   5.660   1.186   6.983
 9490SOL    HW129369   5.613   1.105   7.016
 9490SOL    HW229370   5.610   1.268   7.012
 9491SOL     OW29371   6.412   5.258   5.826
 9491SOL    HW129372   6.479   5.238   5.754
 9491SOL    HW229373   6.367   5.345   5.806
 9492SOL     OW29374   3.047   3.958   1.619
 9492SOL    HW129375   3.021   4.033   1.680
 9492SOL    HW229376   2.964   3.913   1.585
 9493SOL     OW29377   5.499   6.210   2.712
 9493SOL    HW129378   5.515   6.136   2.778
 9493SOL    HW229379   5.532   6.181   2.621
 9494SOL     OW29380   4.146   3.386   5.875
 9494SOL    HW129381   4.231   3.429   5.907
 9494SOL    HW229382   4.169   3.308   5.817
 9495SOL     OW29383   5.894   2.646   5.189
 9495SOL    HW129384   5.921   2.732   5.146
 9495SOL    HW229385   5.916   2.649   5.286
 9496SOL     OW29386   5.539   3.810   0.062
 9496SOL    HW129387   5.593   3.734   0.097
 9496SOL    HW229388   5.553   3.890   0.120
 9497SOL     OW29389   7.018   6.478   5.845
 9497SOL    HW129390   6.992   6.575   5.848
 9497SOL    HW229391   0.025   6.449   5.937
 9498SOL     OW29392   4.270   0.221   5.607
 9498SOL    HW129393   4.292   0.270   5.523
 9498SOL    HW229394   4.251   0.125   5.586
 9499SOL     OW29395   4.884   4.068   6.230
 9499SOL    HW129396   4.863   3.971   6.246
 9499SOL    HW229397   4.886   4.085   6.131
 9500SOL     OW29398   4.752   5.758   1.889
 9500SOL    HW129399   4.817   5.714   1.951
 9500SOL    HW229400   4.777   5.738   1.795
 9501SOL     OW29401   3.147   1.410   4.853
 9501SOL    HW129402   3.226   1.467   4.878
 9501SOL    HW229403   3.179   1.322   4.819
 9502SOL     OW29404   5.487   3.366   5.362
 9502SOL    HW129405   5.454   3.392   5.453
 9502SOL    HW229406   5.438   3.285   5.330
 9503SOL     OW29407   1.338   6.453   1.565
 9503SOL    HW129408   1.430   6.459   1.603
 9503SOL    HW229409   1.291   6.540   1.579
 9504SOL     OW29410   0.892   3.474   6.800
 9504SOL    HW129411   0.874   3.401   6.866
 9504SOL    HW229412   0.935   3.551   6.847
 9505SOL     OW29413   5.446   3.644   2.660
 9505SOL    HW129414   5.494   3.590   2.590
 9505SOL    HW229415   5.403   3.582   2.725
 9506SOL     OW29416   6.249   2.905   0.514
 9506SOL    HW129417   6.318   2.833   0.509
 9506SOL    HW229418   6.272   2.978   0.449
 9507SOL     OW29419   0.873   2.238   3.782
 9507SOL    HW129420   0.949   2.202   3.727
 9507SOL    HW229421   0.797   2.263   3.722
 9508SOL     OW29422   5.142   2.049   0.236
 9508SOL    HW129423   5.134   1.954   0.264
 9508SOL    HW229424   5.173   2.105   0.313
 9509SOL     OW29425   2.561   6.639   5.204
 9509SOL    HW129426   2.592   6.546   5.220
 9509SOL    HW229427   2.614   6.680   5.130
 9510SOL     OW29428   6.296   4.457   3.116
 9510SOL    HW129429   6.263   4.409   3.198
 9510SOL    HW229430   6.351   4.536   3.143
 9511SOL     OW29431   1.826   1.506   0.603
 9511SOL    HW129432   1.832   1.566   0.524
 9511SOL    HW229433   1.733   1.507   0.639
 9512SOL     OW29434   1.408   2.628   4.507
 9512SOL    HW129435   1.502   2.598   4.493
 9512SOL    HW229436   1.352   2.600   4.429
 9513SOL     OW29437   2.513   4.476   3.788
 9513SOL    HW129438   2.579   4.521   3.848
 9513SOL    HW229439   2.485   4.389   3.829
 9514SOL     OW29440   2.316   2.947   6.390
 9514SOL    HW129441   2.388   3.016   6.401
 9514SOL    HW229442   2.352   2.870   6.337
 9515SOL     OW29443   2.586   5.661   5.823
 9515SOL    HW129444   2.617   5.594   5.756
 9515SOL    HW229445   2.588   5.753   5.782
 9516SOL     OW29446   5.628   4.095   4.898
 9516SOL    HW129447   5.642   4.113   4.801
 9516SOL    HW229448   5.694   4.147   4.952
 9517SOL     OW29449   0.823   5.895   1.911
 9517SOL    HW129450   0.792   5.800   1.910
 9517SOL    HW229451   0.829   5.927   2.006
 9518SOL     OW29452   0.815   2.846   5.408
 9518SOL    HW129453   0.727   2.823   5.366
 9518SOL    HW229454   0.802   2.867   5.505
 9519SOL     OW29455   3.964   3.483   2.739
 9519SOL    HW129456   4.018   3.405   2.709
 9519SOL    HW229457   4.023   3.551   2.781
 9520SOL     OW29458   5.020   0.285   6.227
 9520SOL    HW129459   5.002   0.383   6.231
 9520SOL    HW229460   5.035   0.258   6.132
 9521SOL     OW29461   3.373   1.011   1.055
 9521SOL    HW129462   3.313   0.952   1.000
 9521SOL    HW229463   3.355   1.107   1.034
 9522SOL     OW29464   3.197   6.222   2.370
 9522SOL    HW129465   3.204   6.321   2.356
 9522SOL    HW229466   3.120   6.202   2.430
 9523SOL     OW29467   2.956   4.834   3.955
 9523SOL    HW129468   3.034   4.891   3.983
 9523SOL    HW229469   2.975   4.739   3.980
 9524SOL     OW29470   2.692   4.171   1.130
 9524SOL    HW129471   2.652   4.183   1.221
 9524SOL    HW229472   2.770   4.109   1.135
 9525SOL     OW29473   2.387   3.239   5.337
 9525SOL    HW129474   2.423   3.152   5.303
 9525SOL    HW229475   2.402   3.244   5.435
 9526SOL     OW29476   5.555   4.892   0.114
 9526SOL    HW129477   5.635   4.845   0.077
 9526SOL    HW229478   5.495   4.825   0.159
 9527SOL     OW29479   4.238   0.324   3.614
 9527SOL    HW129480   4.269   0.237   3.576
 9527SOL    HW229481   4.144   0.314   3.648
 9528SOL     OW29482   5.621   2.378   0.659
 9528SOL    HW129483   5.714   2.412   0.644
 9528SOL    HW229484   5.601   2.378   0.757
 9529SOL     OW29485   6.117   1.374   1.422
 9529SOL    HW129486   6.089   1.308   1.353
 9529SOL    HW229487   6.043   1.389   1.487
 9530SOL     OW29488   1.462   5.703   3.569
 9530SOL    HW129489   1.396   5.764   3.612
 9530SOL    HW229490   1.502   5.748   3.489
 9531SOL     OW29491   3.501   5.608   2.615
 9531SOL    HW129492   3.499   5.635   2.711
 9531SOL    HW229493   3.582   5.551   2.598
 9532SOL     OW29494   6.878   5.076   3.023
 9532SOL    HW129495   6.905   5.157   3.076
 9532SOL    HW229496   6.799   5.032   3.066
 9533SOL     OW29497   1.530   3.642   3.491
 9533SOL    HW129498   1.555   3.724   3.543
 9533SOL    HW229499   1.610   3.608   3.442
 9534SOL     OW29500   5.572   5.119   4.286
 9534SOL    HW129501   5.618   5.206   4.308
 9534SOL    HW229502   5.618   5.045   4.334
 9535SOL     OW29503   0.686   1.643   5.383
 9535SOL    HW129504   0.724   1.735   5.374
 9535SOL    HW229505   0.668   1.605   5.293
 9536SOL     OW29506   3.633   4.164   4.853
 9536SOL    HW129507   3.679   4.122   4.931
 9536SOL    HW229508   3.672   4.129   4.768
 9537SOL     OW29509   0.230   1.770   3.774
 9537SOL    HW129510   0.192   1.769   3.867
 9537SOL    HW229511   0.220   1.679   3.733
 9538SOL     OW29512   4.630   0.505   5.030
 9538SOL    HW129513   4.695   0.550   5.091
 9538SOL    HW229514   4.630   0.551   4.941
 9539SOL     OW29515   3.187   3.761   1.913
 9539SOL    HW129516   3.198   3.705   1.995
 9539SOL    HW229517   3.093   3.755   1.881
 9540SOL     OW29518   4.455   4.555   3.832
 9540SOL    HW129519   4.363   4.554   3.794
 9540SOL    HW229520   4.450   4.567   3.931
 9541SOL     OW29521   2.363   6.010   5.613
 9541SOL    HW129522   2.364   5.954   5.695
 9541SOL    HW229523   2.269   6.034   5.590
 9542SOL     OW29524   6.172   4.254   4.122
 9542SOL    HW129525   6.223   4.296   4.198
 9542SOL    HW229526   6.140   4.163   4.150
 9543SOL     OW29527   2.582   0.074   5.983
 9543SOL    HW129528   2.505   0.035   6.034
 9543SOL    HW229529   2.584   0.036   5.891
 9544SOL     OW29530   6.050   3.353   4.426
 9544SOL    HW129531   6.133   3.299   4.413
 9544SOL    HW229532   6.013   3.335   4.517
 9545SOL     OW29533   0.444   4.582   1.769
 9545SOL    HW129534   0.485   4.645   1.835
 9545SOL    HW229535   0.393   4.512   1.817
 9546SOL     OW29536   2.609   2.773   0.211
 9546SOL    HW129537   2.651   2.858   0.244
 9546SOL    HW229538   2.680   2.705   0.193
 9547SOL     OW29539   3.786   0.018   3.879
 9547SOL    HW129540   3.790   0.100   3.821
 9547SOL    HW229541   3.825   0.039   3.969
 9548SOL     OW29542   1.300   4.689   6.567
 9548SOL    HW129543   1.286   4.655   6.474
 9548SOL    HW229544   1.249   4.774   6.579
 9549SOL     OW29545   4.883   1.763   0.602
 9549SOL    HW129546   4.846   1.817   0.677
 9549SOL    HW229547   4.942   1.820   0.545
 9550SOL     OW29548   5.173   3.063   1.576
 9550SOL    HW129549   5.116   3.136   1.539
 9550SOL    HW229550   5.180   2.989   1.509
 9551SOL     OW29551   6.316   3.624   6.295
 9551SOL    HW129552   6.330   3.589   6.202
 9551SOL    HW229553   6.334   3.551   6.361
 9552SOL     OW29554   2.998   1.694   0.120
 9552SOL    HW129555   2.972   1.712   0.215
 9552SOL    HW229556   2.946   1.756   0.059
 9553SOL     OW29557   5.337   1.591   6.204
 9553SOL    HW129558   5.293   1.554   6.122
 9553SOL    HW229559   5.381   1.678   6.183
 9554SOL     OW29560   2.820   0.302   3.945
 9554SOL    HW129561   2.902   0.247   3.962
 9554SOL    HW229562   2.824   0.340   3.853
 9555SOL     OW29563   6.912   0.309   3.784
 9555SOL    HW129564   6.839   0.267   3.837
 9555SOL    HW229565   6.943   0.392   3.829
 9556SOL     OW29566   1.918   4.726   6.732
 9556SOL    HW129567   1.854   4.800   6.715
 9556SOL    HW229568   1.913   4.659   6.658
 9557SOL     OW29569   4.752   0.586   1.911
 9557SOL    HW129570   4.841   0.622   1.939
 9557SOL    HW229571   4.738   0.496   1.953
 9558SOL     OW29572   4.869   6.892   6.968
 9558SOL    HW129573   4.917   6.819   6.919
 9558SOL    HW229574   4.904   6.981   6.938
 9559SOL     OW29575   1.642   4.333   0.149
 9559SOL    HW129576   1.594   4.257   0.194
 9559SOL    HW229577   1.636   4.415   0.206
 9560SOL     OW29578   3.289   6.692   2.161
 9560SOL    HW129579   3.344   6.683   2.078
 9560SOL    HW229580   3.342   6.738   2.232
 9561SOL     OW29581   0.983   0.417   0.582
 9561SOL    HW129582   0.981   0.332   0.633
 9561SOL    HW229583   0.995   0.494   0.645
 9562SOL     OW29584   2.685   6.222   2.829
 9562SOL    HW129585   2.616   6.195   2.897
 9562SOL    HW229586   2.640   6.272   2.755
 9563SOL     OW29587   0.499   6.181   0.776
 9563SOL    HW129588   0.400   6.191   0.777
 9563SOL    HW229589   0.536   6.228   0.695
 9564SOL     OW29590   1.312   0.751   0.074
 9564SOL    HW129591   1.288   0.800   7.010
 9564SOL    HW229592   1.368   0.671   0.051
 9565SOL     OW29593   2.848   1.786   3.940
 9565SOL    HW129594   2.766   1.779   3.997
 9565SOL    HW229595   2.832   1.852   3.867
 9566SOL     OW29596   3.270   0.628   6.986
 9566SOL    HW129597   3.231   0.536   6.976
 9566SOL    HW229598   3.369   0.621   6.994
 9567SOL     OW29599   6.970   3.877   1.464
 9567SOL    HW129600   0.012   3.867   1.387
 9567SOL    HW229601   7.014   3.844   1.547
 9568SOL     OW29602   4.854   1.403   6.785
 9568SOL    HW129603   4.911   1.330   6.822
 9568SOL    HW229604   4.872   1.488   6.834
 9569SOL     OW29605   5.572   1.092   1.772
 9569SOL    HW129606   5.586   1.072   1.869
 9569SOL    HW229607   5.568   1.006   1.721
 9570SOL     OW29608   0.498   2.896   1.654
 9570SOL    HW129609   0.527   2.855   1.740
 9570SOL    HW229610   0.577   2.914   1.596
 9571SOL     OW29611   2.132   2.533   6.752
 9571SOL    HW129612   2.114   2.458   6.816
 9571SOL    HW229613   2.166   2.497   6.666
 9572SOL     OW29614   2.271   4.293   3.874
 9572SOL    HW129615   2.282   4.221   3.806
 9572SOL    HW229616   2.182   4.336   3.864
 9573SOL     OW29617   6.538   0.925   4.484
 9573SOL    HW129618   6.481   0.861   4.431
 9573SOL    HW229619   6.490   1.011   4.495
 9574SOL     OW29620   3.429   3.071   1.158
 9574SOL    HW129621   3.362   3.034   1.094
 9574SOL    HW229622   3.427   3.171   1.154
 9575SOL     OW29623   6.250   6.554   1.274
 9575SOL    HW129624   6.171   6.615   1.276
 9575SOL    HW229625   6.222   6.462   1.247
 9576SOL     OW29626   1.188   6.803   6.903
 9576SOL    HW129627   1.174   6.704   6.898
 9576SOL    HW229628   1.258   6.831   6.837
 9577SOL     OW29629   6.055   5.295   2.481
 9577SOL    HW129630   6.138   5.347   2.500
 9577SOL    HW229631   6.026   5.246   2.564
 9578SOL     OW29632   2.130   3.083   2.674
 9578SOL    HW129633   2.191   3.161   2.687
 9578SOL    HW229634   2.045   3.114   2.630
 9579SOL     OW29635   5.793   5.691   1.849
 9579SOL    HW129636   5.723   5.730   1.910
 9579SOL    HW229637   5.871   5.753   1.844
 9580SOL     OW29638   5.156   4.606   2.778
 9580SOL    HW129639   5.115   4.549   2.850
 9580SOL    HW229640   5.238   4.561   2.743
 9581SOL     OW29641   6.355   1.022   0.039
 9581SOL    HW129642   6.257   1.037   0.025
 9581SOL    HW229643   6.376   1.031   0.136
 9582SOL     OW29644   4.678   5.984   3.909
 9582SOL    HW129645   4.669   6.013   3.814
 9582SOL    HW229646   4.767   6.014   3.944
 9583SOL     OW29647   3.781   4.526   1.604
 9583SOL    HW129648   3.718   4.538   1.680
 9583SOL    HW229649   3.734   4.545   1.518
 9584SOL     OW29650   2.396   5.337   4.452
 9584SOL    HW129651   2.477   5.387   4.483
 9584SOL    HW229652   2.356   5.384   4.374
 9585SOL     OW29653   4.239   5.651   0.944
 9585SOL    HW129654   4.229   5.617   0.850
 9585SOL    HW229655   4.195   5.740   0.952
 9586SOL     OW29656   4.014   4.860   2.528
 9586SOL    HW129657   4.001   4.802   2.447
 9586SOL    HW229658   4.111   4.885   2.535
 9587SOL     OW29659   2.641   5.772   1.931
 9587SOL    HW129660   2.561   5.791   1.988
 9587SOL    HW229661   2.721   5.815   1.972
 9588SOL     OW29662   6.491   5.331   0.561
 9588SOL    HW129663   6.523   5.239   0.540
 9588SOL    HW229664   6.406   5.326   0.614
 9589SOL     OW29665   1.645   3.950   6.298
 9589SOL    HW129666   1.730   3.925   6.250
 9589SOL    HW229667   1.571   3.958   6.232
 9590SOL     OW29668   5.831   1.107   0.931
 9590SOL    HW129669   5.762   1.143   0.868
 9590SOL    HW229670   5.918   1.155   0.917
 9591SOL     OW29671   4.276   0.487   0.006
 9591SOL    HW129672   4.199   0.428   6.999
 9591SOL    HW229673   4.275   0.569   6.970
 9592SOL     OW29674   2.313   6.270   5.864
 9592SOL    HW129675   2.285   6.300   5.955
 9592SOL    HW229676   2.244   6.206   5.827
 9593SOL     OW29677   1.921   1.434   4.265
 9593SOL    HW129678   1.960   1.351   4.303
 9593SOL    HW229679   1.893   1.495   4.340
 9594SOL     OW29680   0.263   6.570   3.746
 9594SOL    HW129681   0.320   6.647   3.775
 9594SOL    HW229682   0.209   6.538   3.823
 9595SOL     OW29683   0.749   3.371   3.231
 9595SOL    HW129684   0.814   3.304   3.266
 9595SOL    HW229685   0.664   3.366   3.284
 9596SOL     OW29686   0.513   6.953   1.184
 9596SOL    HW129687   0.535   6.882   1.117
 9596SOL    HW229688   0.533   0.023   1.144
 9597SOL     OW29689   1.154   3.361   2.349
 9597SOL    HW129690   1.108   3.324   2.268
 9597SOL    HW229691   1.086   3.390   2.416
 9598SOL     OW29692   1.757   4.001   3.654
 9598SOL    HW129693   1.672   3.951   3.638
 9598SOL    HW229694   1.760   4.030   3.750
 9599SOL     OW29695   4.102   0.017   3.674
 9599SOL    HW129696   4.019   6.999   3.633
 9599SOL    HW229697   4.080   0.104   3.718
 9600SOL     OW29698   3.222   0.861   1.643
 9600SOL    HW129699   3.207   0.944   1.696
 9600SOL    HW229700   3.286   0.801   1.691
 9601SOL     OW29701   0.279   4.003   1.486
 9601SOL    HW129702   0.226   4.035   1.564
 9601SOL    HW229703   0.365   3.961   1.518
 9602SOL     OW29704   4.368   5.181   5.537
 9602SOL    HW129705   4.400   5.114   5.470
 9602SOL    HW229706   4.396   5.153   5.628
 9603SOL     OW29707   5.060   5.713   5.343
 9603SOL    HW129708   5.154   5.688   5.368
 9603SOL    HW229709   5.056   5.728   5.244
 9604SOL     OW29710   5.214   6.492   0.280
 9604SOL    HW129711   5.306   6.452   0.278
 9604SOL    HW229712   5.147   6.423   0.253
 9605SOL     OW29713   6.425   6.182   2.751
 9605SOL    HW129714   6.336   6.219   2.779
 9605SOL    HW229715   6.432   6.087   2.782
 9606SOL     OW29716   1.479   1.686   6.563
 9606SOL    HW129717   1.503   1.733   6.647
 9606SOL    HW229718   1.380   1.679   6.554
 9607SOL     OW29719   3.346   2.721   6.044
 9607SOL    HW129720   3.276   2.721   6.115
 9607SOL    HW229721   3.385   2.812   6.033
 9608SOL     OW29722   6.546   3.502   3.772
 9608SOL    HW129723   6.486   3.556   3.714
 9608SOL    HW229724   6.493   3.436   3.825
 9609SOL     OW29725   4.544   2.638   6.559
 9609SOL    HW129726   4.512   2.630   6.654
 9609SOL    HW229727   4.486   2.582   6.500
 9610SOL     OW29728   1.170   4.305   3.139
 9610SOL    HW129729   1.257   4.313   3.089
 9610SOL    HW229730   1.146   4.393   3.178
 9611SOL     OW29731   1.418   0.046   0.495
 9611SOL    HW129732   1.482   0.010   0.427
 9611SOL    HW229733   1.325   0.016   0.473
 9612SOL     OW29734   0.434   3.035   3.423
 9612SOL    HW129735   0.361   3.087   3.466
 9612SOL    HW229736   0.498   3.097   3.377
 9613SOL     OW29737   5.821   5.763   3.698
 9613SOL    HW129738   5.774   5.676   3.713
 9613SOL    HW229739   5.790   5.830   3.765
 9614SOL     OW29740   4.854   2.525   3.452
 9614SOL    HW129741   4.823   2.614   3.416
 9614SOL    HW229742   4.923   2.540   3.523
 9615SOL     OW29743   2.456   3.446   1.028
 9615SOL    HW129744   2.509   3.457   0.944
 9615SOL    HW229745   2.413   3.533   1.052
 9616SOL     OW29746   4.256   3.119   0.051
 9616SOL    HW129747   4.195   3.058   0.001
 9616SOL    HW229748   4.350   3.085   0.044
 9617SOL     OW29749   2.141   2.343   4.183
 9617SOL    HW129750   2.194   2.428   4.187
 9617SOL    HW229751   2.070   2.351   4.113
 9618SOL     OW29752   2.897   1.442   0.817
 9618SOL    HW129753   2.901   1.536   0.782
 9618SOL    HW229754   2.864   1.442   0.911
 9619SOL     OW29755   2.557   1.209   4.825
 9619SOL    HW129756   2.508   1.269   4.762
 9619SOL    HW229757   2.589   1.262   4.903
 9620SOL     OW29758   6.057   0.494   5.746
 9620SOL    HW129759   6.056   0.489   5.646
 9620SOL    HW229760   5.995   0.566   5.776
 9621SOL     OW29761   1.769   2.713   3.436
 9621SOL    HW129762   1.758   2.804   3.397
 9621SOL    HW229763   1.853   2.672   3.402
 9622SOL     OW29764   5.703   0.099   1.195
 9622SOL    HW129765   5.761   0.181   1.197
 9622SOL    HW229766   5.663   0.085   1.286
 9623SOL     OW29767   2.753   3.754   6.380
 9623SOL    HW129768   2.708   3.824   6.435
 9623SOL    HW229769   2.840   3.729   6.423
 9624SOL     OW29770   6.226   3.836   3.136
 9624SOL    HW129771   6.235   3.935   3.133
 9624SOL    HW229772   6.291   3.798   3.201
 9625SOL     OW29773   6.014   5.906   0.100
 9625SOL    HW129774   6.060   5.903   0.012
 9625SOL    HW229775   6.027   5.820   0.149
 9626SOL     OW29776   3.017   6.676   6.648
 9626SOL    HW129777   2.991   6.773   6.647
 9626SOL    HW229778   2.935   6.620   6.649
 9627SOL     OW29779   1.511   6.541   6.940
 9627SOL    HW129780   1.533   6.627   6.895
 9627SOL    HW229781   1.419   6.546   6.979
 9628SOL     OW29782   4.058   6.222   2.188
 9628SOL    HW129783   4.068   6.263   2.279
 9628SOL    HW229784   4.114   6.273   2.123
 9629SOL     OW29785   2.764   6.561   0.996
 9629SOL    HW129786   2.756   6.543   1.094
 9629SOL    HW229787   2.861   6.571   0.972
 9630SOL     OW29788   6.618   0.949   6.207
 9630SOL    HW129789   6.545   1.018   6.214
 9630SOL    HW229790   6.630   0.924   6.111
 9631SOL     OW29791   5.742   5.979   7.012
 9631SOL    HW129792   5.832   5.945   0.020
 9631SOL    HW229793   5.692   5.906   6.965
 9632SOL     OW29794   1.538   6.293   1.874
 9632SOL    HW129795   1.556   6.339   1.961
 9632SOL    HW229796   1.459   6.335   1.829
 9633SOL     OW29797   6.986   5.369   6.474
 9633SOL    HW129798   6.891   5.338   6.467
 9633SOL    HW229799   0.023   5.295   6.508
 9634SOL     OW29800   1.076   5.832   4.737
 9634SOL    HW129801   1.050   5.747   4.783
 9634SOL    HW229802   0.997   5.868   4.687
 9635SOL     OW29803   1.643   5.334   5.454
 9635SOL    HW129804   1.614   5.377   5.368
 9635SOL    HW229805   1.612   5.239   5.455
 9636SOL     OW29806   4.230   1.365   6.662
 9636SOL    HW129807   4.182   1.390   6.746
 9636SOL    HW229808   4.166   1.319   6.599
 9637SOL     OW29809   2.187   1.342   7.012
 9637SOL    HW129810   2.173   1.438   6.988
 9637SOL    HW229811   2.119   1.315   0.059
 9638SOL     OW29812   6.793   2.445   5.408
 9638SOL    HW129813   6.809   2.539   5.379
 9638SOL    HW229814   6.750   2.394   5.334
 9639SOL     OW29815   4.232   1.001   3.049
 9639SOL    HW129816   4.183   0.927   3.094
 9639SOL    HW229817   4.182   1.030   2.967
 9640SOL     OW29818   2.067   2.397   2.016
 9640SOL    HW129819   2.034   2.448   2.095
 9640SOL    HW229820   2.138   2.450   1.969
 9641SOL     OW29821   5.975   5.624   0.590
 9641SOL    HW129822   5.903   5.671   0.642
 9641SOL    HW229823   5.951   5.527   0.581
 9642SOL     OW29824   3.125   0.304   4.293
 9642SOL    HW129825   3.066   0.384   4.299
 9642SOL    HW229826   3.198   0.310   4.361
 9643SOL     OW29827   4.357   4.658   3.410
 9643SOL    HW129828   4.412   4.577   3.391
 9643SOL    HW229829   4.396   4.708   3.487
 9644SOL     OW29830   2.451   1.693   6.428
 9644SOL    HW129831   2.419   1.748   6.505
 9644SOL    HW229832   2.551   1.700   6.421
 9645SOL     OW29833   2.882   5.308   5.160
 9645SOL    HW129834   2.941   5.228   5.176
 9645SOL    HW229835   2.831   5.329   5.243
 9646SOL     OW29836   4.143   5.156   3.374
 9646SOL    HW129837   4.172   5.246   3.341
 9646SOL    HW229838   4.065   5.124   3.320
 9647SOL     OW29839   6.549   2.884   0.094
 9647SOL    HW129840   6.518   2.917   0.004
 9647SOL    HW229841   6.559   2.785   0.091
 9648SOL     OW29842   4.341   2.943   0.995
 9648SOL    HW129843   4.426   2.996   0.993
 9648SOL    HW229844   4.283   2.977   1.069
 9649SOL     OW29845   2.292   5.607   0.526
 9649SOL    HW129846   2.372   5.654   0.489
 9649SOL    HW229847   2.272   5.527   0.470
 9650SOL     OW29848   6.869   0.105   1.892
 9650SOL    HW129849   6.817   0.188   1.912
 9650SOL    HW229850   6.902   0.065   1.978
 9651SOL     OW29851   0.418   2.011   5.298
 9651SOL    HW129852   0.454   1.992   5.389
 9651SOL    HW229853   0.493   2.009   5.231
 9652SOL     OW29854   0.335   5.747   2.727
 9652SOL    HW129855   0.321   5.734   2.629
 9652SOL    HW229856   0.288   5.676   2.778
 9653SOL     OW29857   5.901   4.959   4.392
 9653SOL    HW129858   5.849   4.997   4.469
 9653SOL    HW229859   5.991   5.002   4.389
 9654SOL     OW29860   2.243   2.722   2.255
 9654SOL    HW129861   2.309   2.665   2.207
 9654SOL    HW229862   2.152   2.705   2.217
 9655SOL     OW29863   5.866   2.357   6.799
 9655SOL    HW129864   5.923   2.330   6.877
 9655SOL    HW229865   5.912   2.333   6.714
 9656SOL     OW29866   3.469   0.584   2.865
 9656SOL    HW129867   3.524   0.526   2.805
 9656SOL    HW229868   3.523   0.663   2.894
 9657SOL     OW29869   0.349   0.199   5.092
 9657SOL    HW129870   0.297   0.269   5.142
 9657SOL    HW229871   0.446   0.216   5.103
 9658SOL     OW29872   6.040   2.420   3.074
 9658SOL    HW129873   6.067   2.370   2.992
 9658SOL    HW229874   5.967   2.370   3.122
 9659SOL     OW29875   0.926   5.365   6.838
 9659SOL    HW129876   0.828   5.351   6.855
 9659SOL    HW229877   0.971   5.277   6.827
 9660SOL     OW29878   0.495   5.327   0.625
 9660SOL    HW129879   0.476   5.321   0.527
 9660SOL    HW229880   0.412   5.356   0.673
 9661SOL     OW29881   4.717   6.506   1.334
 9661SOL    HW129882   4.618   6.493   1.335
 9661SOL    HW229883   4.744   6.553   1.250
 9662SOL     OW29884   4.818   0.842   4.394
 9662SOL    HW129885   4.761   0.766   4.364
 9662SOL    HW229886   4.896   0.807   4.446
 9663SOL     OW29887   2.454   5.933   3.159
 9663SOL    HW129888   2.484   6.010   3.101
 9663SOL    HW229889   2.533   5.878   3.184
 9664SOL     OW29890   2.671   5.762   1.655
 9664SOL    HW129891   2.615   5.681   1.639
 9664SOL    HW229892   2.664   5.788   1.752
 9665SOL     OW29893   5.210   3.988   4.420
 9665SOL    HW129894   5.192   4.074   4.374
 9665SOL    HW229895   5.307   3.984   4.446
 9666SOL     OW29896   5.627   4.811   4.501
 9666SOL    HW129897   5.634   4.828   4.402
 9666SOL    HW229898   5.632   4.713   4.518
 9667SOL     OW29899   4.099   3.705   3.583
 9667SOL    HW129900   4.104   3.704   3.484
 9667SOL    HW229901   4.081   3.798   3.615
 9668SOL     OW29902   0.644   0.965   4.873
 9668SOL    HW129903   0.607   0.925   4.957
 9668SOL    HW229904   0.731   1.010   4.892
 9669SOL     OW29905   1.820   5.645   0.304
 9669SOL    HW129906   1.823   5.547   0.281
 9669SOL    HW229907   1.800   5.655   0.402
 9670SOL     OW29908   6.016   4.582   7.016
 9670SOL    HW129909   6.012   4.555   6.919
 9670SOL    HW229910   5.932   4.631   0.020
 9671SOL     OW29911   0.145   0.048   6.649
 9671SOL    HW129912   0.182   6.976   6.660
 9671SOL    HW229913   0.214   0.105   6.603
 9672SOL     OW29914   0.749   6.574   4.898
 9672SOL    HW129915   0.789   6.518   4.970
 9672SOL    HW229916   0.821   6.625   4.851
 9673SOL     OW29917   2.631   2.579   6.297
 9673SOL    HW129918   2.605   2.560   6.203
 9673SOL    HW229919   2.642   2.678   6.309
 9674SOL     OW29920   2.794   6.999   1.877
 9674SOL    HW129921   2.826   0.028   1.957
 9674SOL    HW229922   2.709   6.951   1.898
 9675SOL     OW29923   0.348   3.057   2.064
 9675SOL    HW129924   0.314   3.092   1.976
 9675SOL    HW229925   0.333   2.958   2.068
 9676SOL     OW29926   0.357   3.606   4.977
 9676SOL    HW129927   0.435   3.545   4.965
 9676SOL    HW229928   0.285   3.583   4.911
 9677SOL     OW29929   2.116   3.674   4.984
 9677SOL    HW129930   2.163   3.709   5.065
 9677SOL    HW229931   2.122   3.742   4.911
 9678SOL     OW29932   3.942   3.005   3.064
 9678SOL    HW129933   3.910   2.916   3.031
 9678SOL    HW229934   3.905   3.021   3.156
 9679SOL     OW29935   0.836   3.277   1.127
 9679SOL    HW129936   0.837   3.349   1.057
 9679SOL    HW229937   0.893   3.201   1.096
 9680SOL     OW29938   5.584   5.018   3.317
 9680SOL    HW129939   5.595   4.954   3.394
 9680SOL    HW229940   5.633   5.103   3.338
 9681SOL     OW29941   0.912   1.460   3.995
 9681SOL    HW129942   1.004   1.452   4.035
 9681SOL    HW229943   0.865   1.372   4.003
 9682SOL     OW29944   6.914   4.793   2.777
 9682SOL    HW129945   6.833   4.755   2.821
 9682SOL    HW229946   6.980   4.719   2.759
 9683SOL     OW29947   4.449   6.086   6.149
 9683SOL    HW129948   4.454   6.108   6.052
 9683SOL    HW229949   4.494   5.998   6.166
 9684SOL     OW29950   1.152   4.739   3.786
 9684SOL    HW129951   1.075   4.697   3.833
 9684SOL    HW229952   1.148   4.715   3.688
 9685SOL     OW29953   1.782   2.099   0.386
 9685SOL    HW129954   1.869   2.090   0.434
 9685SOL    HW229955   1.764   2.016   0.334
 9686SOL     OW29956   5.549   0.541   1.660
 9686SOL    HW129957   5.474   0.478   1.638
 9686SOL    HW229958   5.511   0.630   1.686
 9687SOL     OW29959   3.622   0.428   3.592
 9687SOL    HW129960   3.588   0.499   3.654
 9687SOL    HW229961   3.544   0.389   3.542
 9688SOL     OW29962   0.235   1.601   3.421
 9688SOL    HW129963   0.170   1.678   3.423
 9688SOL    HW229964   0.217   1.540   3.498
 9689SOL     OW29965   1.978   6.028   6.067
 9689SOL    HW129966   2.062   5.972   6.074
 9689SOL    HW229967   1.924   6.017   6.150
 9690SOL     OW29968   6.207   4.134   0.745
 9690SOL    HW129969   6.264   4.082   0.810
 9690SOL    HW229970   6.114   4.139   0.780
 9691SOL     OW29971   1.359   4.236   1.455
 9691SOL    HW129972   1.311   4.267   1.374
 9691SOL    HW229973   1.398   4.315   1.504
 9692SOL     OW29974   2.358   5.804   1.436
 9692SOL    HW129975   2.429   5.859   1.392
 9692SOL    HW229976   2.398   5.718   1.468
 9693SOL     OW29977   5.652   5.551   1.619
 9693SOL    HW129978   5.630   5.605   1.537
 9693SOL    HW229979   5.707   5.606   1.682
 9694SOL     OW29980   2.357   2.397   0.001
 9694SOL    HW129981   2.412   2.463   0.052
 9694SOL    HW229982   2.418   2.334   6.973
 9695SOL     OW29983   5.978   4.435   1.306
 9695SOL    HW129984   5.880   4.428   1.286
 9695SOL    HW229985   6.018   4.343   1.304
 9696SOL     OW29986   4.003   3.507   0.993
 9696SOL    HW129987   3.988   3.525   1.090
 9696SOL    HW229988   4.078   3.564   0.960
 9697SOL     OW29989   0.708   5.998   6.976
 9697SOL    HW129990   0.774   6.007   6.901
 9697SOL    HW229991   0.616   5.986   6.937
 9698SOL     OW29992   5.812   1.991   4.954
 9698SOL    HW129993   5.864   1.953   5.030
 9698SOL    HW229994   5.733   1.932   4.935
 9699SOL     OW29995   1.907   3.264   0.218
 9699SOL    HW129996   1.882   3.185   0.275
 9699SOL    HW229997   1.961   3.328   0.273
 9700SOL     OW29998   3.182   4.053   3.927
 9700SOL    HW129999   3.235   4.138   3.932
 9700SOL    HW230000   3.198   3.999   4.010
 9701SOL     OW30001   5.443   3.919   4.963
 9701SOL    HW130002   5.502   3.989   4.922
 9701SOL    HW230003   5.360   3.963   4.997
 9702SOL     OW30004   4.302   0.522   1.016
 9702SOL    HW130005   4.370   0.575   0.964
 9702SOL    HW230006   4.219   0.577   1.027
 9703SOL     OW30007   3.165   6.467   4.128
 9703SOL    HW130008   3.153   6.523   4.047
 9703SOL    HW230009   3.237   6.399   4.112
 9704SOL     OW30010   2.627   0.400   3.204
 9704SOL    HW130011   2.566   0.366   3.132
 9704SOL    HW230012   2.575   0.416   3.287
 9705SOL     OW30013   3.435   4.104   0.674
 9705SOL    HW130014   3.466   4.030   0.615
 9705SOL    HW230015   3.477   4.190   0.644
 9706SOL     OW30016   5.913   2.582   2.852
 9706SOL    HW130017   5.828   2.542   2.817
 9706SOL    HW230018   5.959   2.514   2.910
 9707SOL     OW30019   2.955   5.275   2.981
 9707SOL    HW130020   2.877   5.216   2.958
 9707SOL    HW230021   3.016   5.227   3.044
 9708SOL     OW30022   2.285   1.875   2.606
 9708SOL    HW130023   2.235   1.952   2.565
 9708SOL    HW230024   2.344   1.833   2.537
 9709SOL     OW30025   1.768   4.816   3.052
 9709SOL    HW130026   1.842   4.814   2.985
 9709SOL    HW230027   1.734   4.910   3.061
 9710SOL     OW30028   0.233   0.588   3.781
 9710SOL    HW130029   0.152   0.583   3.722
 9710SOL    HW230030   0.205   0.619   3.872
 9711SOL     OW30031   1.237   4.280   5.433
 9711SOL    HW130032   1.202   4.275   5.340
 9711SOL    HW230033   1.247   4.188   5.470
 9712SOL     OW30034   4.662   2.754   4.760
 9712SOL    HW130035   4.759   2.737   4.741
 9712SOL    HW230036   4.621   2.671   4.798
 9713SOL     OW30037   6.669   5.067   2.314
 9713SOL    HW130038   6.654   5.047   2.411
 9713SOL    HW230039   6.635   5.159   2.293
 9714SOL     OW30040   1.742   2.194   1.571
 9714SOL    HW130041   1.840   2.202   1.588
 9714SOL    HW230042   1.697   2.280   1.594
 9715SOL     OW30043   5.431   5.385   4.765
 9715SOL    HW130044   5.358   5.434   4.718
 9715SOL    HW230045   5.424   5.287   4.746
 9716SOL     OW30046   4.207   1.806   6.643
 9716SOL    HW130047   4.188   1.900   6.671
 9716SOL    HW230048   4.216   1.803   6.543
 9717SOL     OW30049   5.724   4.758   3.001
 9717SOL    HW130050   5.630   4.778   2.975
 9717SOL    HW230051   5.747   4.664   2.974
 9718SOL     OW30052   4.331   3.534   1.688
 9718SOL    HW130053   4.431   3.541   1.689
 9718SOL    HW230054   4.291   3.625   1.697
 9719SOL     OW30055   0.475   1.671   0.421
 9719SOL    HW130056   0.489   1.747   0.484
 9719SOL    HW230057   0.390   1.684   0.370
 9720SOL     OW30058   0.490   0.584   1.405
 9720SOL    HW130059   0.583   0.556   1.428
 9720SOL    HW230060   0.432   0.503   1.394
 9721SOL     OW30061   6.732   3.660   2.805
 9721SOL    HW130062   6.643   3.622   2.830
 9721SOL    HW230063   6.720   3.735   2.740
 9722SOL     OW30064   6.978   0.325   4.488
 9722SOL    HW130065   6.886   0.359   4.468
 9722SOL    HW230066   0.020   0.402   4.502
 9723SOL     OW30067   6.949   1.324   3.689
 9723SOL    HW130068   6.974   1.257   3.758
 9723SOL    HW230069   6.927   1.278   3.603
 9724SOL     OW30070   3.937   2.940   1.195
 9724SOL    HW130071   3.961   2.854   1.239
 9724SOL    HW230072   3.846   2.931   1.152
 9725SOL     OW30073   4.254   3.129   5.827
 9725SOL    HW130074   4.282   3.093   5.738
 9725SOL    HW230075   4.329   3.119   5.893
 9726SOL     OW30076   5.607   6.338   4.736
 9726SOL    HW130077   5.634   6.249   4.774
 9726SOL    HW230078   5.675   6.407   4.763
 9727SOL     OW30079   1.403   2.111   6.576
 9727SOL    HW130080   1.450   2.047   6.515
 9727SOL    HW230081   1.471   2.161   6.630
 9728SOL     OW30082   3.290   5.448   0.106
 9728SOL    HW130083   3.261   5.362   0.148
 9728SOL    HW230084   3.227   5.470   0.031
 9729SOL     OW30085   3.073   5.524   2.597
 9729SOL    HW130086   3.137   5.584   2.549
 9729SOL    HW230087   3.078   5.432   2.557
 9730SOL     OW30088   6.061   4.031   2.888
 9730SOL    HW130089   6.051   4.123   2.850
 9730SOL    HW230090   6.083   4.036   2.985
 9731SOL     OW30091   4.881   5.124   1.140
 9731SOL    HW130092   4.903   5.218   1.166
 9731SOL    HW230093   4.782   5.116   1.126
 9732SOL     OW30094   6.533   5.428   3.260
 9732SOL    HW130095   6.450   5.454   3.209
 9732SOL    HW230096   6.591   5.508   3.272
 9733SOL     OW30097   5.245   4.354   6.452
 9733SOL    HW130098   5.315   4.301   6.404
 9733SOL    HW230099   5.155   4.312   6.437
 9734SOL     OW30100   5.292   2.477   4.432
 9734SOL    HW130101   5.334   2.389   4.453
 9734SOL    HW230102   5.193   2.465   4.426
 9735SOL     OW30103   1.704   3.970   0.239
 9735SOL    HW130104   1.634   3.901   0.255
 9735SOL    HW230105   1.682   4.053   0.291
 9736SOL     OW30106   3.207   1.459   1.121
 9736SOL    HW130107   3.202   1.435   1.218
 9736SOL    HW230108   3.273   1.533   1.108
 9737SOL     OW30109   3.986   2.249   5.211
 9737SOL    HW130110   4.025   2.187   5.279
 9737SOL    HW230111   4.056   2.312   5.179
 9738SOL     OW30112   2.109   0.521   2.175
 9738SOL    HW130113   2.059   0.482   2.098
 9738SOL    HW230114   2.172   0.591   2.142
 9739SOL     OW30115   5.152   4.979   1.881
 9739SOL    HW130116   5.167   4.984   1.782
 9739SOL    HW230117   5.090   5.051   1.909
 9740SOL     OW30118   6.498   3.882   3.235
 9740SOL    HW130119   6.555   3.850   3.311
 9740SOL    HW230120   6.537   3.851   3.149
 9741SOL     OW30121   4.301   2.066   1.423
 9741SOL    HW130122   4.272   2.160   1.405
 9741SOL    HW230123   4.335   2.059   1.517
 9742SOL     OW30124   4.587   1.660   4.285
 9742SOL    HW130125   4.564   1.641   4.189
 9742SOL    HW230126   4.506   1.648   4.341
 9743SOL     OW30127   1.946   2.026   5.646
 9743SOL    HW130128   1.886   2.068   5.713
 9743SOL    HW230129   2.041   2.047   5.669
 9744SOL     OW30130   1.753   0.469   1.815
 9744SOL    HW130131   1.795   0.559   1.805
 9744SOL    HW230132   1.656   0.481   1.837
 9745SOL     OW30133   0.287   2.184   4.859
 9745SOL    HW130134   0.387   2.179   4.858
 9745SOL    HW230135   0.255   2.239   4.782
 9746SOL     OW30136   5.931   1.648   4.184
 9746SOL    HW130137   5.838   1.649   4.147
 9746SOL    HW230138   5.993   1.609   4.116
 9747SOL     OW30139   0.382   6.908   6.701
 9747SOL    HW130140   0.313   6.845   6.667
 9747SOL    HW230141   0.375   6.914   6.801
 9748SOL     OW30142   0.436   5.515   4.151
 9748SOL    HW130143   0.445   5.605   4.194
 9748SOL    HW230144   0.348   5.475   4.178
 9749SOL     OW30145   0.835   4.320   4.091
 9749SOL    HW130146   0.737   4.306   4.083
 9749SOL    HW230147   0.879   4.235   4.119
 9750SOL     OW30148   3.660   4.919   3.249
 9750SOL    HW130149   3.599   4.903   3.327
 9750SOL    HW230150   3.606   4.950   3.171
 9751SOL     OW30151   2.041   2.412   0.531
 9751SOL    HW130152   2.046   2.485   0.600
 9751SOL    HW230153   1.982   2.339   0.565
 9752SOL     OW30154   3.467   1.870   6.330
 9752SOL    HW130155   3.516   1.815   6.261
 9752SOL    HW230156   3.533   1.926   6.380
 9753SOL     OW30157   6.826   6.342   5.077
 9753SOL    HW130158   6.736   6.320   5.115
 9753SOL    HW230159   6.830   6.439   5.053
 9754SOL     OW30160   6.770   2.257   6.854
 9754SOL    HW130161   6.745   2.228   6.762
 9754SOL    HW230162   6.789   2.177   6.910
 9755SOL     OW30163   4.330   4.607   5.322
 9755SOL    HW130164   4.323   4.522   5.269
 9755SOL    HW230165   4.264   4.673   5.286
 9756SOL     OW30166   5.622   2.070   5.884
 9756SOL    HW130167   5.605   2.048   5.788
 9756SOL    HW230168   5.644   1.986   5.935
 9757SOL     OW30169   6.199   2.339   3.368
 9757SOL    HW130170   6.163   2.253   3.405
 9757SOL    HW230171   6.156   2.357   3.279
 9758SOL     OW30172   2.867   0.577   6.929
 9758SOL    HW130173   2.954   0.622   6.910
 9758SOL    HW230174   2.812   0.573   6.845
 9759SOL     OW30175   2.932   6.046   1.551
 9759SOL    HW130176   2.932   6.021   1.648
 9759SOL    HW230177   2.926   5.964   1.495
 9760SOL     OW30178   5.476   4.857   6.229
 9760SOL    HW130179   5.397   4.813   6.187
 9760SOL    HW230180   5.533   4.897   6.157
 9761SOL     OW30181   5.734   5.796   2.658
 9761SOL    HW130182   5.682   5.711   2.647
 9761SOL    HW230183   5.755   5.835   2.569
 9762SOL     OW30184   2.421   1.355   3.459
 9762SOL    HW130185   2.474   1.420   3.513
 9762SOL    HW230186   2.462   1.344   3.369
 9763SOL     OW30187   1.834   1.504   1.821
 9763SOL    HW130188   1.766   1.520   1.892
 9763SOL    HW230189   1.907   1.445   1.856
 9764SOL     OW30190   1.068   2.806   1.749
 9764SOL    HW130191   0.968   2.800   1.751
 9764SOL    HW230192   1.104   2.721   1.710
 9765SOL     OW30193   0.085   1.480   5.216
 9765SOL    HW130194   0.167   1.454   5.266
 9765SOL    HW230195   0.010   1.493   5.281
 9766SOL     OW30196   2.840   0.197   2.415
 9766SOL    HW130197   2.811   0.276   2.468
 9766SOL    HW230198   2.760   0.145   2.385
 9767SOL     OW30199   4.801   0.597   5.239
 9767SOL    HW130200   4.840   0.519   5.288
 9767SOL    HW230201   4.874   0.659   5.211
 9768SOL     OW30202   5.029   2.554   3.666
 9768SOL    HW130203   4.995   2.551   3.760
 9768SOL    HW230204   5.113   2.499   3.659
 9769SOL     OW30205   0.559   2.179   2.041
 9769SOL    HW130206   0.636   2.143   2.095
 9769SOL    HW230207   0.492   2.220   2.103
 9770SOL     OW30208   6.243   4.523   6.468
 9770SOL    HW130209   6.321   4.507   6.407
 9770SOL    HW230210   6.272   4.511   6.563
 9771SOL     OW30211   3.655   5.676   4.639
 9771SOL    HW130212   3.718   5.637   4.706
 9771SOL    HW230213   3.561   5.650   4.662
 9772SOL     OW30214   6.595   0.421   1.636
 9772SOL    HW130215   6.532   0.493   1.664
 9772SOL    HW230216   6.660   0.458   1.569
 9773SOL     OW30217   5.463   5.495   3.319
 9773SOL    HW130218   5.372   5.461   3.297
 9773SOL    HW230219   5.477   5.490   3.418
 9774SOL     OW30220   6.854   4.912   3.419
 9774SOL    HW130221   6.898   4.974   3.484
 9774SOL    HW230222   6.917   4.840   3.392
 9775SOL     OW30223   2.840   2.261   5.059
 9775SOL    HW130224   2.869   2.327   4.990
 9775SOL    HW230225   2.919   2.207   5.089
 9776SOL     OW30226   0.372   4.811   4.604
 9776SOL    HW130227   0.321   4.826   4.689
 9776SOL    HW230228   0.322   4.852   4.528
 9777SOL     OW30229   5.373   5.145   6.728
 9777SOL    HW130230   5.364   5.244   6.727
 9777SOL    HW230231   5.454   5.118   6.676
 9778SOL     OW30232   4.214   0.830   3.700
 9778SOL    HW130233   4.238   0.901   3.634
 9778SOL    HW230234   4.237   0.740   3.662
 9779SOL     OW30235   2.924   2.210   6.310
 9779SOL    HW130236   2.902   2.138   6.244
 9779SOL    HW230237   2.907   2.176   6.403
 9780SOL     OW30238   3.846   4.521   0.613
 9780SOL    HW130239   3.923   4.475   0.656
 9780SOL    HW230240   3.870   4.547   0.519
 9781SOL     OW30241   1.649   6.093   4.281
 9781SOL    HW130242   1.716   6.070   4.210
 9781SOL    HW230243   1.557   6.075   4.246
 9782SOL     OW30244   6.395   0.275   1.519
 9782SOL    HW130245   6.485   0.294   1.559
 9782SOL    HW230246   6.364   0.356   1.468
 9783SOL     OW30247   5.715   1.509   2.933
 9783SOL    HW130248   5.784   1.534   2.865
 9783SOL    HW230249   5.760   1.476   3.016
 9784SOL     OW30250   5.425   0.984   4.171
 9784SOL    HW130251   5.524   0.999   4.177
 9784SOL    HW230252   5.382   1.013   4.257
 9785SOL     OW30253   0.903   2.970   0.676
 9785SOL    HW130254   0.986   2.914   0.675
 9785SOL    HW230255   0.826   2.915   0.707
 9786SOL     OW30256   2.010   0.078   5.182
 9786SOL    HW130257   2.030   0.017   5.105
 9786SOL    HW230258   2.081   0.067   5.252
 9787SOL     OW30259   5.906   4.537   2.098
 9787SOL    HW130260   5.845   4.542   2.019
 9787SOL    HW230261   5.913   4.442   2.129
 9788SOL     OW30262   0.385   1.164   5.088
 9788SOL    HW130263   0.478   1.201   5.077
 9788SOL    HW230264   0.320   1.224   5.041
 9789SOL     OW30265   1.458   5.916   4.584
 9789SOL    HW130266   1.387   5.986   4.574
 9789SOL    HW230267   1.419   5.826   4.564
 9790SOL     OW30268   6.834   1.571   4.061
 9790SOL    HW130269   6.895   1.543   4.136
 9790SOL    HW230270   6.824   1.670   4.062
 9791SOL     OW30271   1.046   2.346   1.563
 9791SOL    HW130272   1.026   2.397   1.647
 9791SOL    HW230273   1.145   2.337   1.552
 9792SOL     OW30274   3.977   5.971   2.061
 9792SOL    HW130275   3.940   5.895   2.115
 9792SOL    HW230276   3.987   6.052   2.119
 9793SOL     OW30277   5.259   6.412   2.743
 9793SOL    HW130278   5.230   6.377   2.654
 9793SOL    HW230279   5.350   6.377   2.765
 9794SOL     OW30280   2.992   3.158   6.798
 9794SOL    HW130281   3.083   3.187   6.827
 9794SOL    HW230282   2.989   3.058   6.793
 9795SOL     OW30283   2.632   4.619   3.988
 9795SOL    HW130284   2.703   4.676   4.032
 9795SOL    HW230285   2.576   4.576   4.059
 9796SOL     OW30286   3.810   4.868   0.457
 9796SOL    HW130287   3.853   4.940   0.403
 9796SOL    HW230288   3.835   4.779   0.420
 9797SOL     OW30289   4.913   2.687   4.717
 9797SOL    HW130290   4.924   2.589   4.736
 9797SOL    HW230291   4.976   2.714   4.645
 9798SOL     OW30292   2.423   1.981   1.840
 9798SOL    HW130293   2.509   1.932   1.855
 9798SOL    HW230294   2.348   1.933   1.887
 9799SOL     OW30295   3.181   3.468   1.767
 9799SOL    HW130296   3.232   3.521   1.698
 9799SOL    HW230297   3.234   3.464   1.852
 9800SOL     OW30298   3.570   4.910   0.246
 9800SOL    HW130299   3.541   4.867   0.161
 9800SOL    HW230300   3.641   4.854   0.290
 9801SOL     OW30301   4.645   5.353   6.829
 9801SOL    HW130302   4.668   5.402   6.913
 9801SOL    HW230303   4.721   5.293   6.803
 9802SOL     OW30304   0.773   4.975   1.393
 9802SOL    HW130305   0.747   4.916   1.317
 9802SOL    HW230306   0.695   5.031   1.420
 9803SOL     OW30307   5.405   0.733   6.434
 9803SOL    HW130308   5.368   0.680   6.510
 9803SOL    HW230309   5.361   0.823   6.432
 9804SOL     OW30310   5.681   5.360   4.366
 9804SOL    HW130311   5.673   5.429   4.438
 9804SOL    HW230312   5.755   5.385   4.303
 9805SOL     OW30313   3.211   4.539   1.678
 9805SOL    HW130314   3.252   4.493   1.757
 9805SOL    HW230315   3.277   4.540   1.603
 9806SOL     OW30316   6.882   2.163   2.544
 9806SOL    HW130317   6.880   2.069   2.509
 9806SOL    HW230318   6.960   2.175   2.606
 9807SOL     OW30319   3.456   2.533   0.740
 9807SOL    HW130320   3.410   2.561   0.656
 9807SOL    HW230321   3.392   2.480   0.796
 9808SOL     OW30322   1.950   2.082   4.966
 9808SOL    HW130323   1.909   2.027   4.893
 9808SOL    HW230324   1.879   2.129   5.017
 9809SOL     OW30325   0.683   0.574   4.227
 9809SOL    HW130326   0.650   0.659   4.267
 9809SOL    HW230327   0.772   0.551   4.266
 9810SOL     OW30328   4.293   1.036   3.483
 9810SOL    HW130329   4.352   1.089   3.421
 9810SOL    HW230330   4.217   0.997   3.431
 9811SOL     OW30331   1.182   0.097   2.659
 9811SOL    HW130332   1.123   0.153   2.600
 9811SOL    HW230333   1.144   0.005   2.666
 9812SOL     OW30334   5.352   2.721   5.082
 9812SOL    HW130335   5.381   2.626   5.088
 9812SOL    HW230336   5.430   2.781   5.100
 9813SOL     OW30337   6.364   4.305   1.055
 9813SOL    HW130338   6.378   4.208   1.034
 9813SOL    HW230339   6.448   4.356   1.034
 9814SOL     OW30340   6.748   0.755   5.492
 9814SOL    HW130341   6.709   0.804   5.414
 9814SOL    HW230342   6.719   0.660   5.490
 9815SOL     OW30343   0.044   3.891   2.866
 9815SOL    HW130344   0.050   3.938   2.954
 9815SOL    HW230345   0.110   3.816   2.863
 9816SOL     OW30346   6.375   0.706   6.153
 9816SOL    HW130347   6.412   0.788   6.197
 9816SOL    HW230348   6.427   0.687   6.069
 9817SOL     OW30349   2.425   0.543   0.108
 9817SOL    HW130350   2.462   0.619   0.054
 9817SOL    HW230351   2.362   0.579   0.177
 9818SOL     OW30352   0.914   0.048   2.852
 9818SOL    HW130353   0.879   0.078   2.941
 9818SOL    HW230354   0.997   7.014   2.865
 9819SOL     OW30355   0.103   2.535   4.469
 9819SOL    HW130356   0.058   2.608   4.418
 9819SOL    HW230357   0.202   2.544   4.459
 9820SOL     OW30358   3.478   2.513   5.918
 9820SOL    HW130359   3.470   2.474   5.827
 9820SOL    HW230360   3.398   2.570   5.937
 9821SOL     OW30361   3.963   2.568   1.231
 9821SOL    HW130362   3.976   2.570   1.330
 9821SOL    HW230363   3.865   2.579   1.210
 9822SOL     OW30364   3.295   5.909   4.600
 9822SOL    HW130365   3.211   5.884   4.648
 9822SOL    HW230366   3.286   6.002   4.565
 9823SOL     OW30367   3.983   6.572   3.439
 9823SOL    HW130368   3.988   6.526   3.528
 9823SOL    HW230369   3.921   6.651   3.447
 9824SOL     OW30370   0.716   5.830   6.040
 9824SOL    HW130371   0.765   5.893   6.099
 9824SOL    HW230372   0.656   5.881   5.978
 9825SOL     OW30373   6.931   6.604   5.057
 9825SOL    HW130374   6.997   6.651   4.999
 9825SOL    HW230375   6.978   6.568   5.138
 9826SOL     OW30376   1.862   5.823   5.488
 9826SOL    HW130377   1.884   5.885   5.413
 9826SOL    HW230378   1.860   5.873   5.574
 9827SOL     OW30379   1.827   4.342   1.650
 9827SOL    HW130380   1.736   4.384   1.650
 9827SOL    HW230381   1.820   4.244   1.634
 9828SOL     OW30382   4.014   1.880   5.120
 9828SOL    HW130383   4.079   1.949   5.153
 9828SOL    HW230384   4.020   1.799   5.178
 9829SOL     OW30385   5.158   4.853   5.284
 9829SOL    HW130386   5.182   4.939   5.330
 9829SOL    HW230387   5.199   4.777   5.334
 9830SOL     OW30388   5.600   1.907   3.869
 9830SOL    HW130389   5.581   1.865   3.780
 9830SOL    HW230390   5.519   1.956   3.901
 9831SOL     OW30391   0.761   4.342   1.892
 9831SOL    HW130392   0.693   4.292   1.840
 9831SOL    HW230393   0.778   4.431   1.850
 9832SOL     OW30394   4.801   5.704   4.285
 9832SOL    HW130395   4.871   5.643   4.321
 9832SOL    HW230396   4.784   5.682   4.189
 9833SOL     OW30397   4.125   3.391   3.968
 9833SOL    HW130398   4.162   3.436   4.049
 9833SOL    HW230399   4.025   3.394   3.971
 9834SOL     OW30400   3.063   6.059   5.676
 9834SOL    HW130401   3.045   6.146   5.722
 9834SOL    HW230402   2.976   6.016   5.651
 9835SOL     OW30403   4.002   3.918   3.719
 9835SOL    HW130404   4.032   3.912   3.814
 9835SOL    HW230405   3.912   3.962   3.715
 9836SOL     OW30406   6.765   3.478   5.807
 9836SOL    HW130407   6.715   3.446   5.726
 9836SOL    HW230408   6.825   3.554   5.781
 9837SOL     OW30409   5.704   1.658   3.506
 9837SOL    HW130410   5.686   1.732   3.441
 9837SOL    HW230411   5.628   1.594   3.505
 9838SOL     OW30412   1.293   5.638   1.221
 9838SOL    HW130413   1.364   5.571   1.198
 9838SOL    HW230414   1.289   5.709   1.150
 9839SOL     OW30415   5.088   6.501   3.793
 9839SOL    HW130416   5.094   6.401   3.792
 9839SOL    HW230417   5.028   6.531   3.720
 9840SOL     OW30418   6.714   1.892   6.569
 9840SOL    HW130419   6.751   1.873   6.478
 9840SOL    HW230420   6.676   1.808   6.607
 9841SOL     OW30421   6.642   6.357   2.811
 9841SOL    HW130422   6.580   6.279   2.801
 9841SOL    HW230423   6.616   6.410   2.892
 9842SOL     OW30424   3.640   0.051   7.008
 9842SOL    HW130425   3.695   0.083   6.931
 9842SOL    HW230426   3.684   6.990   0.029
 9843SOL     OW30427   0.380   0.803   1.520
 9843SOL    HW130428   0.414   0.877   1.462
 9843SOL    HW230429   0.417   0.715   1.488
 9844SOL     OW30430   4.656   0.359   4.712
 9844SOL    HW130431   4.680   0.282   4.772
 9844SOL    HW230432   4.733   0.380   4.652
 9845SOL     OW30433   1.325   4.014   2.093
 9845SOL    HW130434   1.227   4.029   2.111
 9845SOL    HW230435   1.337   3.977   2.001
 9846SOL     OW30436   6.034   2.412   1.278
 9846SOL    HW130437   6.003   2.324   1.241
 9846SOL    HW230438   6.123   2.400   1.322
 9847SOL     OW30439   3.976   4.081   6.789
 9847SOL    HW130440   3.905   4.013   6.769
 9847SOL    HW230441   3.992   4.084   6.887
 9848SOL     OW30442   3.110   3.647   5.661
 9848SOL    HW130443   3.192   3.694   5.629
 9848SOL    HW230444   3.075   3.587   5.588
 9849SOL     OW30445   1.451   2.211   4.293
 9849SOL    HW130446   1.535   2.263   4.274
 9849SOL    HW230447   1.424   2.224   4.388
 9850SOL     OW30448   1.861   6.839   4.183
 9850SOL    HW130449   1.949   6.799   4.207
 9850SOL    HW230450   1.811   6.777   4.123
 9851SOL     OW30451   3.735   5.827   3.682
 9851SOL    HW130452   3.694   5.736   3.694
 9851SOL    HW230453   3.750   5.843   3.584
 9852SOL     OW30454   1.781   6.763   0.198
 9852SOL    HW130455   1.868   6.761   0.248
 9852SOL    HW230456   1.712   6.712   0.249
 9853SOL     OW30457   0.354   4.243   3.473
 9853SOL    HW130458   0.274   4.265   3.418
 9853SOL    HW230459   0.437   4.270   3.424
 9854SOL     OW30460   6.994   3.412   7.015
 9854SOL    HW130461   0.022   3.433   6.929
 9854SOL    HW230462   6.957   3.496   0.034
 9855SOL     OW30463   0.787   6.003   0.449
 9855SOL    HW130464   0.790   5.917   0.499
 9855SOL    HW230465   0.695   6.018   0.414
 9856SOL     OW30466   5.239   3.133   2.821
 9856SOL    HW130467   5.213   3.183   2.739
 9856SOL    HW230468   5.249   3.036   2.799
 9857SOL     OW30469   4.758   0.098   5.663
 9857SOL    HW130470   4.744   0.016   5.718
 9857SOL    HW230471   4.813   0.075   5.582
 9858SOL     OW30472   6.355   6.354   2.110
 9858SOL    HW130473   6.402   6.334   2.195
 9858SOL    HW230474   6.282   6.421   2.127
 9859SOL     OW30475   0.176   5.582   2.873
 9859SOL    HW130476   0.163   5.602   2.970
 9859SOL    HW230477   0.118   5.642   2.818
 9860SOL     OW30478   1.636   3.349   4.158
 9860SOL    HW130479   1.714   3.336   4.220
 9860SOL    HW230480   1.568   3.407   4.202
 9861SOL     OW30481   3.400   1.654   3.146
 9861SOL    HW130482   3.317   1.639   3.199
 9861SOL    HW230483   3.384   1.726   3.078
 9862SOL     OW30484   1.480   3.540   6.531
 9862SOL    HW130485   1.494   3.442   6.521
 9862SOL    HW230486   1.487   3.584   6.441
 9863SOL     OW30487   3.833   0.114   2.430
 9863SOL    HW130488   3.872   0.055   2.359
 9863SOL    HW230489   3.886   0.104   2.514
 9864SOL     OW30490   2.132   6.200   5.640
 9864SOL    HW130491   2.032   6.207   5.648
 9864SOL    HW230492   2.171   6.290   5.621
 9865SOL     OW30493   2.055   5.628   6.022
 9865SOL    HW130494   2.012   5.623   5.932
 9865SOL    HW230495   2.118   5.706   6.025
 9866SOL     OW30496   6.600   5.255   6.049
 9866SOL    HW130497   6.544   5.225   5.972
 9866SOL    HW230498   6.647   5.339   6.025
 9867SOL     OW30499   4.427   1.410   1.856
 9867SOL    HW130500   4.456   1.426   1.951
 9867SOL    HW230501   4.364   1.482   1.829
 9868SOL     OW30502   2.290   4.659   3.812
 9868SOL    HW130503   2.359   4.593   3.840
 9868SOL    HW230504   2.333   4.749   3.802
 9869SOL     OW30505   0.253   1.996   1.567
 9869SOL    HW130506   0.300   1.952   1.644
 9869SOL    HW230507   0.212   1.927   1.508
 9870SOL     OW30508   2.098   2.403   2.653
 9870SOL    HW130509   2.173   2.468   2.642
 9870SOL    HW230510   2.019   2.451   2.692
 9871SOL     OW30511   5.771   5.802   3.417
 9871SOL    HW130512   5.835   5.857   3.364
 9871SOL    HW230513   5.793   5.809   3.515
 9872SOL     OW30514   0.426   5.389   5.490
 9872SOL    HW130515   0.454   5.377   5.584
 9872SOL    HW230516   0.381   5.478   5.480
 9873SOL     OW30517   1.153   1.599   5.302
 9873SOL    HW130518   1.245   1.567   5.280
 9873SOL    HW230519   1.093   1.584   5.223
 9874SOL     OW30520   0.562   2.163   3.937
 9874SOL    HW130521   0.593   2.248   3.979
 9874SOL    HW230522   0.488   2.182   3.873
 9875SOL     OW30523   6.239   6.273   0.703
 9875SOL    HW130524   6.190   6.299   0.787
 9875SOL    HW230525   6.245   6.174   0.697
 9876SOL     OW30526   6.996   6.644   3.380
 9876SOL    HW130527   0.038   6.589   3.436
 9876SOL    HW230528   6.950   6.584   3.314
 9877SOL     OW30529   0.488   6.062   4.984
 9877SOL    HW130530   0.435   6.089   4.903
 9877SOL    HW230531   0.586   6.067   4.963
 9878SOL     OW30532   3.448   3.041   6.891
 9878SOL    HW130533   3.454   2.971   6.819
 9878SOL    HW230534   3.404   3.002   6.972
 9879SOL     OW30535   6.404   5.666   5.412
 9879SOL    HW130536   6.305   5.673   5.410
 9879SOL    HW230537   6.432   5.613   5.492
 9880SOL     OW30538   2.713   1.206   0.925
 9880SOL    HW130539   2.735   1.110   0.943
 9880SOL    HW230540   2.648   1.212   0.850
 9881SOL     OW30541   5.787   0.627   3.127
 9881SOL    HW130542   5.804   0.724   3.110
 9881SOL    HW230543   5.690   0.613   3.144
 9882SOL     OW30544   3.447   3.241   4.476
 9882SOL    HW130545   3.368   3.267   4.530
 9882SOL    HW230546   3.422   3.234   4.380
 9883SOL     OW30547   2.081   6.117   2.602
 9883SOL    HW130548   2.029   6.155   2.679
 9883SOL    HW230549   2.032   6.038   2.564
 9884SOL     OW30550   3.411   2.705   5.296
 9884SOL    HW130551   3.356   2.625   5.321
 9884SOL    HW230552   3.350   2.778   5.265
 9885SOL     OW30553   4.888   2.238   5.434
 9885SOL    HW130554   4.828   2.184   5.375
 9885SOL    HW230555   4.876   2.208   5.529
 9886SOL     OW30556   3.173   5.776   1.145
 9886SOL    HW130557   3.136   5.752   1.055
 9886SOL    HW230558   3.160   5.873   1.162
 9887SOL     OW30559   3.132   1.231   0.267
 9887SOL    HW130560   3.093   1.169   0.335
 9887SOL    HW230561   3.163   1.179   0.188
 9888SOL     OW30562   6.420   0.049   4.073
 9888SOL    HW130563   6.323   0.025   4.076
 9888SOL    HW230564   6.469   7.004   4.016
 9889SOL     OW30565   0.040   5.517   2.546
 9889SOL    HW130566   0.132   5.481   2.558
 9889SOL    HW230567   7.002   5.488   2.623
 9890SOL     OW30568   1.070   3.200   2.634
 9890SOL    HW130569   1.165   3.209   2.662
 9890SOL    HW230570   1.027   3.291   2.633
 9891SOL     OW30571   4.933   6.758   1.862
 9891SOL    HW130572   4.862   6.809   1.814
 9891SOL    HW230573   5.016   6.813   1.868
 9892SOL     OW30574   1.731   5.725   3.828
 9892SOL    HW130575   1.826   5.751   3.838
 9892SOL    HW230576   1.725   5.627   3.807
 9893SOL     OW30577   5.762   4.780   4.897
 9893SOL    HW130578   5.687   4.842   4.874
 9893SOL    HW230579   5.727   4.704   4.951
 9894SOL     OW30580   4.352   3.567   5.219
 9894SOL    HW130581   4.386   3.474   5.206
 9894SOL    HW230582   4.427   3.628   5.242
 9895SOL     OW30583   5.394   2.079   6.573
 9895SOL    HW130584   5.373   2.049   6.480
 9895SOL    HW230585   5.452   2.160   6.570
 9896SOL     OW30586   3.867   3.792   7.008
 9896SOL    HW130587   3.796   3.724   6.991
 9896SOL    HW230588   3.825   3.878   0.017
 9897SOL     OW30589   0.228   1.206   2.834
 9897SOL    HW130590   0.263   1.299   2.846
 9897SOL    HW230591   0.258   1.149   2.911
 9898SOL     OW30592   1.522   4.816   6.809
 9898SOL    HW130593   1.540   4.753   6.733
 9898SOL    HW230594   1.425   4.840   6.810
 9899SOL     OW30595   4.773   5.022   2.819
 9899SOL    HW130596   4.844   4.983   2.877
 9899SOL    HW230597   4.812   5.096   2.764
 9900SOL     OW30598   1.801   4.554   3.961
 9900SOL    HW130599   1.732   4.510   4.017
 9900SOL    HW230600   1.884   4.569   4.015
 9901SOL     OW30601   2.225   1.820   6.123
 9901SOL    HW130602   2.171   1.874   6.187
 9901SOL    HW230603   2.232   1.868   6.035
 9902SOL     OW30604   4.510   3.762   6.689
 9902SOL    HW130605   4.496   3.711   6.774
 9902SOL    HW230606   4.606   3.756   6.662
 9903SOL     OW30607   3.546   1.789   1.515
 9903SOL    HW130608   3.631   1.780   1.462
 9903SOL    HW230609   3.468   1.769   1.456
 9904SOL     OW30610   0.360   0.163   1.971
 9904SOL    HW130611   0.429   0.235   1.963
 9904SOL    HW230612   0.275   0.194   1.929
 9905SOL     OW30613   1.441   6.714   5.850
 9905SOL    HW130614   1.483   6.631   5.813
 9905SOL    HW230615   1.368   6.689   5.914
 9906SOL     OW30616   3.695   3.592   5.845
 9906SOL    HW130617   3.725   3.551   5.759
 9906SOL    HW230618   3.761   3.571   5.917
 9907SOL     OW30619   1.074   6.552   2.835
 9907SOL    HW130620   1.006   6.481   2.818
 9907SOL    HW230621   1.136   6.523   2.908
 9908SOL     OW30622   6.183   3.679   5.276
 9908SOL    HW130623   6.247   3.749   5.247
 9908SOL    HW230624   6.186   3.602   5.212
 9909SOL     OW30625   3.696   6.776   2.174
 9909SOL    HW130626   3.712   6.814   2.083
 9909SOL    HW230627   3.679   6.678   2.167
 9910SOL     OW30628   0.687   4.608   0.541
 9910SOL    HW130629   0.701   4.676   0.468
 9910SOL    HW230630   0.605   4.554   0.521
 9911SOL     OW30631   3.805   5.117   2.891
 9911SOL    HW130632   3.797   5.033   2.837
 9911SOL    HW230633   3.824   5.093   2.987
 9912SOL     OW30634   4.051   6.836   1.050
 9912SOL    HW130635   4.015   6.894   1.123
 9912SOL    HW230636   3.975   6.790   1.004
 9913SOL     OW30637   4.543   2.360   2.748
 9913SOL    HW130638   4.487   2.295   2.696
 9913SOL    HW230639   4.532   2.343   2.846
 9914SOL     OW30640   2.121   5.176   4.725
 9914SOL    HW130641   2.040   5.171   4.782
 9914SOL    HW230642   2.193   5.117   4.763
 9915SOL     OW30643   6.374   3.700   4.114
 9915SOL    HW130644   6.382   3.780   4.055
 9915SOL    HW230645   6.287   3.703   4.164
 9916SOL     OW30646   2.590   3.465   0.782
 9916SOL    HW130647   2.652   3.402   0.736
 9916SOL    HW230648   2.516   3.491   0.720
 9917SOL     OW30649   2.192   3.009   4.818
 9917SOL    HW130650   2.271   2.987   4.876
 9917SOL    HW230651   2.145   2.925   4.792
 9918SOL     OW30652   2.458   0.974   4.905
 9918SOL    HW130653   2.359   0.963   4.894
 9918SOL    HW230654   2.485   1.063   4.868
 9919SOL     OW30655   0.764   5.661   2.460
 9919SOL    HW130656   0.854   5.690   2.429
 9919SOL    HW230657   0.725   5.598   2.394
 9920SOL     OW30658   4.142   6.862   2.715
 9920SOL    HW130659   4.086   6.822   2.788
 9920SOL    HW230660   4.237   6.833   2.727
 9921SOL     OW30661   5.141   0.171   2.482
 9921SOL    HW130662   5.164   0.096   2.419
 9921SOL    HW230663   5.185   0.155   2.570
 9922SOL     OW30664   5.137   3.000   1.887
 9922SOL    HW130665   5.156   2.916   1.938
 9922SOL    HW230666   5.224   3.046   1.864
 9923SOL     OW30667   6.017   0.841   6.472
 9923SOL    HW130668   6.078   0.823   6.549
 9923SOL    HW230669   6.051   0.793   6.391
 9924SOL     OW30670   5.176   1.067   3.972
 9924SOL    HW130671   5.167   0.969   3.957
 9924SOL    HW230672   5.272   1.089   3.990
 9925SOL     OW30673   3.784   2.080   4.774
 9925SOL    HW130674   3.771   2.099   4.871
 9925SOL    HW230675   3.702   2.035   4.737
 9926SOL     OW30676   1.293   0.934   5.673
 9926SOL    HW130677   1.346   0.993   5.733
 9926SOL    HW230678   1.326   0.943   5.579
 9927SOL     OW30679   0.931   3.224   2.897
 9927SOL    HW130680   0.994   3.154   2.862
 9927SOL    HW230681   0.964   3.256   2.986
 9928SOL     OW30682   0.421   3.226   2.345
 9928SOL    HW130683   0.337   3.190   2.384
 9928SOL    HW230684   0.454   3.164   2.274
 9929SOL     OW30685   0.483   4.595   5.613
 9929SOL    HW130686   0.509   4.510   5.568
 9929SOL    HW230687   0.388   4.589   5.644
 9930SOL     OW30688   6.486   5.293   6.410
 9930SOL    HW130689   6.460   5.385   6.439
 9930SOL    HW230690   6.424   5.227   6.452
 9931SOL     OW30691   2.880   4.783   6.632
 9931SOL    HW130692   2.970   4.786   6.588
 9931SOL    HW230693   2.839   4.874   6.628
 9932SOL     OW30694   2.564   2.582   0.866
 9932SOL    HW130695   2.643   2.608   0.811
 9932SOL    HW230696   2.520   2.664   0.902
 9933SOL     OW30697   0.804   1.610   2.405
 9933SOL    HW130698   0.793   1.687   2.468
 9933SOL    HW230699   0.832   1.529   2.457
 9934SOL     OW30700   5.140   0.478   6.062
 9934SOL    HW130701   5.181   0.499   6.151
 9934SOL    HW230702   5.188   0.400   6.021
 9935SOL     OW30703   2.687   2.843   0.544
 9935SOL    HW130704   2.732   2.863   0.457
 9935SOL    HW230705   2.597   2.804   0.526
 9936SOL     OW30706   5.035   6.858   6.341
 9936SOL    HW130707   5.103   6.799   6.383
 9936SOL    HW230708   5.079   6.917   6.273
 9937SOL     OW30709   1.697   6.772   3.749
 9937SOL    HW130710   1.643   6.830   3.688
 9937SOL    HW230711   1.703   6.680   3.711
 9938SOL     OW30712   0.048   1.237   3.208
 9938SOL    HW130713   0.023   1.333   3.201
 9938SOL    HW230714   0.147   1.227   3.202
 9939SOL     OW30715   2.637   4.149   1.691
 9939SOL    HW130716   2.640   4.073   1.626
 9939SOL    HW230717   2.730   4.174   1.718
 9940SOL     OW30718   6.618   0.913   3.185
 9940SOL    HW130719   6.677   0.991   3.163
 9940SOL    HW230720   6.667   0.828   3.166
 9941SOL     OW30721   5.773   3.424   1.081
 9941SOL    HW130722   5.834   3.501   1.099
 9941SOL    HW230723   5.800   3.379   0.996
 9942SOL     OW30724   6.403   5.956   2.911
 9942SOL    HW130725   6.484   5.898   2.925
 9942SOL    HW230726   6.374   5.994   2.999
 9943SOL     OW30727   1.981   4.195   5.567
 9943SOL    HW130728   2.066   4.154   5.602
 9943SOL    HW230729   1.995   4.223   5.472
 9944SOL     OW30730   2.033   6.012   6.437
 9944SOL    HW130731   1.952   5.960   6.410
 9944SOL    HW230732   2.005   6.104   6.466
 9945SOL     OW30733   6.537   3.635   6.739
 9945SOL    HW130734   6.567   3.551   6.784
 9945SOL    HW230735   6.441   3.625   6.712
 9946SOL     OW30736   4.956   2.063   1.838
 9946SOL    HW130737   4.943   2.157   1.870
 9946SOL    HW230738   5.019   2.063   1.761
 9947SOL     OW30739   1.341   1.378   2.168
 9947SOL    HW130740   1.327   1.431   2.252
 9947SOL    HW230741   1.295   1.424   2.092
 9948SOL     OW30742   6.189   0.509   5.501
 9948SOL    HW130743   6.239   0.587   5.539
 9948SOL    HW230744   6.248   0.459   5.438
 9949SOL     OW30745   7.020   3.813   3.559
 9949SOL    HW130746   6.974   3.724   3.568
 9949SOL    HW230747   0.099   3.800   3.562
 9950SOL     OW30748   4.536   4.263   5.557
 9950SOL    HW130749   4.460   4.241   5.496
 9950SOL    HW230750   4.504   4.264   5.652
 9951SOL     OW30751   0.347   2.245   2.776
 9951SOL    HW130752   0.254   2.234   2.741
 9951SOL    HW230753   0.405   2.170   2.743
 9952SOL     OW30754   1.539   4.680   1.345
 9952SOL    HW130755   1.518   4.617   1.270
 9952SOL    HW230756   1.523   4.774   1.315
 9953SOL     OW30757   6.311   4.146   3.720
 9953SOL    HW130758   6.372   4.180   3.649
 9953SOL    HW230759   6.293   4.219   3.786
 9954SOL     OW30760   3.745   1.411   1.452
 9954SOL    HW130761   3.690   1.460   1.520
 9954SOL    HW230762   3.828   1.374   1.496
 9955SOL     OW30763   5.763   5.073   1.341
 9955SOL    HW130764   5.836   5.142   1.334
 9955SOL    HW230765   5.702   5.097   1.416
 9956SOL     OW30766   1.684   3.393   3.003
 9956SOL    HW130767   1.645   3.475   3.044
 9956SOL    HW230768   1.781   3.388   3.025
 9957SOL     OW30769   5.194   0.256   0.327
 9957SOL    HW130770   5.230   0.212   0.409
 9957SOL    HW230771   5.213   0.200   0.247
 9958SOL     OW30772   5.647   5.779   6.733
 9958SOL    HW130773   5.642   5.758   6.635
 9958SOL    HW230774   5.556   5.772   6.774
 9959SOL     OW30775   6.069   4.623   0.331
 9959SOL    HW130776   6.060   4.585   0.239
 9959SOL    HW230777   6.060   4.549   0.398
 9960SOL     OW30778   6.278   0.187   6.917
 9960SOL    HW130779   6.226   0.227   6.993
 9960SOL    HW230780   6.298   0.091   6.937
 9961SOL     OW30781   3.219   5.942   0.781
 9961SOL    HW130782   3.148   5.981   0.840
 9961SOL    HW230783   3.308   5.979   0.807
 9962SOL     OW30784   3.311   0.753   1.429
 9962SOL    HW130785   3.279   0.817   1.499
 9962SOL    HW230786   3.256   0.670   1.432
 9963SOL     OW30787   0.800   0.035   6.469
 9963SOL    HW130788   0.816   6.985   6.538
 9963SOL    HW230789   0.795   7.013   6.379
 9964SOL     OW30790   4.344   5.003   5.279
 9964SOL    HW130791   4.377   4.987   5.186
 9964SOL    HW230792   4.244   5.013   5.278
 9965SOL     OW30793   2.731   5.098   4.129
 9965SOL    HW130794   2.640   5.140   4.137
 9965SOL    HW230795   2.780   5.141   4.054
 9966SOL     OW30796   3.794   5.807   3.144
 9966SOL    HW130797   3.834   5.898   3.144
 9966SOL    HW230798   3.695   5.813   3.130
 9967SOL     OW30799   0.152   0.644   3.226
 9967SOL    HW130800   0.101   0.578   3.281
 9967SOL    HW230801   0.093   0.680   3.154
 9968SOL     OW30802   4.417   6.798   0.359
 9968SOL    HW130803   4.336   6.740   0.372
 9968SOL    HW230804   4.491   6.744   0.320
 9969SOL     OW30805   0.110   6.011   3.575
 9969SOL    HW130806   0.066   6.090   3.618
 9969SOL    HW230807   0.208   6.013   3.596
 9970SOL     OW30808   6.371   3.454   2.408
 9970SOL    HW130809   6.446   3.420   2.466
 9970SOL    HW230810   6.344   3.545   2.439
 9971SOL     OW30811   0.386   5.232   4.331
 9971SOL    HW130812   0.334   5.153   4.365
 9971SOL    HW230813   0.322   5.302   4.299
 9972SOL     OW30814   2.664   4.473   6.138
 9972SOL    HW130815   2.607   4.454   6.058
 9972SOL    HW230816   2.662   4.571   6.158
 9973SOL     OW30817   2.810   1.854   3.409
 9973SOL    HW130818   2.805   1.950   3.380
 9973SOL    HW230819   2.884   1.809   3.360
 9974SOL     OW30820   1.566   2.311   3.264
 9974SOL    HW130821   1.504   2.389   3.252
 9974SOL    HW230822   1.658   2.345   3.285
 9975SOL     OW30823   2.432   4.514   6.432
 9975SOL    HW130824   2.509   4.453   6.415
 9975SOL    HW230825   2.430   4.538   6.529
 9976SOL     OW30826   4.123   5.898   5.046
 9976SOL    HW130827   4.147   5.963   5.118
 9976SOL    HW230828   4.178   5.917   4.965
 9977SOL     OW30829   4.114   0.598   5.143
 9977SOL    HW130830   4.126   0.617   5.240
 9977SOL    HW230831   4.204   0.582   5.101
 9978SOL     OW30832   0.907   2.307   0.403
 9978SOL    HW130833   0.826   2.281   0.456
 9978SOL    HW230834   0.976   2.345   0.464
 9979SOL     OW30835   3.414   4.188   4.681
 9979SOL    HW130836   3.460   4.276   4.675
 9979SOL    HW230837   3.445   4.139   4.762
 9980SOL     OW30838   1.258   0.628   0.614
 9980SOL    HW130839   1.310   0.573   0.678
 9980SOL    HW230840   1.164   0.636   0.646
 9981SOL     OW30841   5.562   1.219   0.273
 9981SOL    HW130842   5.560   1.135   0.218
 9981SOL    HW230843   5.494   1.283   0.239
 9982SOL     OW30844   2.225   2.568   4.638
 9982SOL    HW130845   2.310   2.621   4.639
 9982SOL    HW230846   2.236   2.487   4.696
 9983SOL     OW30847   1.048   3.765   2.315
 9983SOL    HW130848   1.145   3.753   2.334
 9983SOL    HW230849   1.010   3.679   2.279
 9984SOL     OW30850   0.552   5.018   0.994
 9984SOL    HW130851   0.569   5.004   0.897
 9984SOL    HW230852   0.546   4.929   1.040
 9985SOL     OW30853   4.997   4.226   6.740
 9985SOL    HW130854   5.003   4.218   6.640
 9985SOL    HW230855   5.054   4.303   6.770
 9986SOL     OW30856   5.670   4.761   0.532
 9986SOL    HW130857   5.661   4.860   0.545
 9986SOL    HW230858   5.655   4.739   0.435
 9987SOL     OW30859   5.399   2.083   0.993
 9987SOL    HW130860   5.459   2.124   1.061
 9987SOL    HW230861   5.322   2.038   1.039
 9988SOL     OW30862   6.191   0.161   3.794
 9988SOL    HW130863   6.287   0.180   3.774
 9988SOL    HW230864   6.174   0.062   3.792
 9989SOL     OW30865   6.830   5.813   2.135
 9989SOL    HW130866   6.862   5.727   2.095
 9989SOL    HW230867   6.730   5.817   2.131
 9990SOL     OW30868   0.002   0.407   3.263
 9990SOL    HW130869   0.005   0.370   3.356
 9990SOL    HW230870   0.053   0.347   3.202
 9991SOL     OW30871   2.336   4.580   2.275
 9991SOL    HW130872   2.410   4.629   2.230
 9991SOL    HW230873   2.263   4.644   2.298
 9992SOL     OW30874   2.692   5.143   0.430
 9992SOL    HW130875   2.723   5.063   0.379
 9992SOL    HW230876   2.721   5.136   0.525
 9993SOL     OW30877   3.845   0.321   4.870
 9993SOL    HW130878   3.841   0.368   4.958
 9993SOL    HW230879   3.839   0.388   4.796
 9994SOL     OW30880   6.016   4.901   5.086
 9994SOL    HW130881   6.062   4.937   5.005
 9994SOL    HW230882   5.961   4.973   5.128
 9995SOL     OW30883   3.931   1.743   6.225
 9995SOL    HW130884   3.911   1.821   6.165
 9995SOL    HW230885   3.845   1.698   6.250
 9996SOL     OW30886   3.277   4.360   0.938
 9996SOL    HW130887   3.246   4.357   1.033
 9996SOL    HW230888   3.225   4.293   0.884
 9997SOL     OW30889   6.907   1.877   2.500
 9997SOL    HW130890   6.834   1.813   2.527
 9997SOL    HW230891   6.977   1.827   2.449
 9998SOL     OW30892   5.164   3.938   2.325
 9998SOL    HW130893   5.184   4.035   2.321
 9998SOL    HW230894   5.161   3.901   2.232
 9999SOL     OW30895   0.654   0.108   4.841
 9999SOL    HW130896   0.656   0.047   4.920
 9999SOL    HW230897   0.600   0.066   4.768
10000SOL     OW30898   4.710   2.044   1.397
10000SOL    HW130899   4.666   2.131   1.416
10000SOL    HW230900   4.647   1.969   1.416
10001SOL     OW30901   3.841   6.071   1.208
10001SOL    HW130902   3.777   6.128   1.157
10001SOL    HW230903   3.821   6.078   1.306
10002SOL     OW30904   2.387   7.014   2.153
10002SOL    HW130905   2.345   0.077   2.116
10002SOL    HW230906   2.327   6.975   2.223
10003SOL     OW30907   1.253   1.135   2.485
10003SOL    HW130908   1.320   1.086   2.429
10003SOL    HW230909   1.239   1.227   2.447
10004SOL     OW30910   0.341   4.459   3.999
10004SOL    HW130911   0.302   4.528   3.939
10004SOL    HW230912   0.331   4.488   4.094
10005SOL     OW30913   2.596   5.606   3.470
10005SOL    HW130914   2.501   5.591   3.497
10005SOL    HW230915   2.641   5.664   3.538
10006SOL     OW30916   5.308   1.278   5.220
10006SOL    HW130917   5.272   1.349   5.280
10006SOL    HW230918   5.371   1.219   5.272
10007SOL     OW30919   0.807   5.294   3.828
10007SOL    HW130920   0.769   5.240   3.753
10007SOL    HW230921   0.831   5.233   3.904
10008SOL     OW30922   4.183   0.938   6.296
10008SOL    HW130923   4.213   1.014   6.239
10008SOL    HW230924   4.093   0.906   6.264
10009SOL     OW30925   0.885   4.536   2.235
10009SOL    HW130926   0.827   4.612   2.203
10009SOL    HW230927   0.889   4.537   2.334
10010SOL     OW30928   2.112   4.109   1.153
10010SOL    HW130929   2.070   4.048   1.086
10010SOL    HW230930   2.042   4.170   1.191
10011SOL     OW30931   2.457   2.860   7.013
10011SOL    HW130932   2.511   2.813   0.062
10011SOL    HW230933   2.440   2.955   0.021
10012SOL     OW30934   5.712   1.856   3.291
10012SOL    HW130935   5.694   1.785   3.223
10012SOL    HW230936   5.640   1.925   3.287
10013SOL     OW30937   0.757   6.489   4.405
10013SOL    HW130938   0.810   6.457   4.485
10013SOL    HW230939   0.759   6.418   4.334
10014SOL     OW30940   1.108   1.039   2.670
10014SOL    HW130941   1.041   0.985   2.620
10014SOL    HW230942   1.157   1.099   2.607
10015SOL     OW30943   3.725   6.528   6.049
10015SOL    HW130944   3.743   6.448   6.107
10015SOL    HW230945   3.631   6.559   6.063
10016SOL     OW30946   1.789   0.577   4.369
10016SOL    HW130947   1.747   0.665   4.392
10016SOL    HW230948   1.866   0.559   4.431
10017SOL     OW30949   3.124   2.050   2.304
10017SOL    HW130950   3.074   2.092   2.379
10017SOL    HW230951   3.085   2.080   2.217
10018SOL     OW30952   0.210   3.972   4.992
10018SOL    HW130953   0.131   3.911   5.001
10018SOL    HW230954   0.278   3.948   5.061
10019SOL     OW30955   0.519   2.099   1.771
10019SOL    HW130956   0.523   2.124   1.867
10019SOL    HW230957   0.605   2.126   1.726
10020SOL     OW30958   6.473   1.224   1.955
10020SOL    HW130959   6.560   1.211   2.003
10020SOL    HW230960   6.420   1.294   2.002
10021SOL     OW30961   0.987   3.353   2.152
10021SOL    HW130962   0.929   3.400   2.218
10021SOL    HW230963   0.984   3.400   2.064
10022SOL     OW30964   1.806   5.901   6.334
10022SOL    HW130965   1.764   5.923   6.246
10022SOL    HW230966   1.868   5.824   6.324
10023SOL     OW30967   0.641   1.313   5.848
10023SOL    HW130968   0.709   1.372   5.806
10023SOL    HW230969   0.552   1.329   5.806
10024SOL     OW30970   1.626   4.701   2.792
10024SOL    HW130971   1.580   4.786   2.820
10024SOL    HW230972   1.670   4.714   2.704
10025SOL     OW30973   1.162   3.782   0.711
10025SOL    HW130974   1.082   3.781   0.771
10025SOL    HW230975   1.210   3.869   0.721
10026SOL     OW30976   5.732   1.576   5.045
10026SOL    HW130977   5.710   1.572   5.143
10026SOL    HW230978   5.822   1.617   5.033
10027SOL     OW30979   3.653   1.390   5.336
10027SOL    HW130980   3.576   1.400   5.274
10027SOL    HW230981   3.696   1.480   5.351
10028SOL     OW30982   4.366   6.988   1.577
10028SOL    HW130983   4.315   0.005   1.499
10028SOL    HW230984   4.360   6.889   1.577
10029SOL     OW30985   0.322   4.223   4.282
10029SOL    HW130986   0.228   4.240   4.251
10029SOL    HW230987   0.327   4.132   4.323
10030SOL     OW30988   2.472   0.378   4.549
10030SOL    HW130989   2.380   0.413   4.528
10030SOL    HW230990   2.468   0.324   4.633
10031SOL     OW30991   2.152   5.764   2.688
10031SOL    HW130992   2.160   5.664   2.688
10031SOL    HW230993   2.225   5.803   2.632
10032SOL     OW30994   2.958   6.294   4.742
10032SOL    HW130995   2.930   6.346   4.662
10032SOL    HW230996   2.968   6.197   4.718
10033SOL     OW30997   3.412   1.211   4.578
10033SOL    HW130998   3.454   1.131   4.536
10033SOL    HW230999   3.315   1.194   4.593
10034SOL     OW31000   2.646   1.104   2.999
10034SOL    HW131001   2.596   1.170   3.055
10034SOL    HW231002   2.742   1.132   2.992
10035SOL     OW31003   6.411   3.055   2.335
10035SOL    HW131004   6.426   3.137   2.389
10035SOL    HW231005   6.492   2.996   2.340
10036SOL     OW31006   0.875   1.375   0.063
10036SOL    HW131007   0.920   1.290   0.036
10036SOL    HW231008   0.893   1.393   0.160
10037SOL     OW31009   5.734   6.529   6.700
10037SOL    HW131010   5.753   6.507   6.605
10037SOL    HW231011   5.648   6.486   6.728
10038SOL     OW31012   4.492   6.301   6.357
10038SOL    HW131013   4.589   6.324   6.355
10038SOL    HW231014   4.473   6.230   6.289
10039SOL     OW31015   0.697   6.033   2.593
10039SOL    HW131016   0.684   6.090   2.674
10039SOL    HW231017   0.670   5.939   2.615
10040SOL     OW31018   2.872   0.264   0.838
10040SOL    HW131019   2.802   0.199   0.868
10040SOL    HW231020   2.842   0.357   0.857
10041SOL     OW31021   6.318   5.856   4.963
10041SOL    HW131022   6.345   5.772   5.010
10041SOL    HW231023   6.272   5.833   4.878
10042SOL     OW31024   6.913   0.653   5.118
10042SOL    HW131025   6.945   0.710   5.193
10042SOL    HW231026   6.814   0.662   5.109
10043SOL     OW31027   0.702   0.851   3.453
10043SOL    HW131028   0.743   0.760   3.447
10043SOL    HW231029   0.759   0.909   3.512
10044SOL     OW31030   2.713   1.624   6.913
10044SOL    HW131031   2.777   1.701   6.910
10044SOL    HW231032   2.639   1.640   6.847
10045SOL     OW31033   3.497   6.645   4.770
10045SOL    HW131034   3.495   6.719   4.703
10045SOL    HW231035   3.535   6.562   4.728
10046SOL     OW31036   6.777   2.641   1.398
10046SOL    HW131037   6.763   2.690   1.312
10046SOL    HW231038   6.817   2.551   1.378
10047SOL     OW31039   0.675   1.465   3.180
10047SOL    HW131040   0.642   1.378   3.216
10047SOL    HW231041   0.705   1.523   3.256
10048SOL     OW31042   3.699   2.579   1.599
10048SOL    HW131043   3.635   2.536   1.535
10048SOL    HW231044   3.752   2.509   1.646
10049SOL     OW31045   1.556   6.951   4.216
10049SOL    HW131046   1.574   7.003   4.132
10049SOL    HW231047   1.632   6.888   4.233
10050SOL     OW31048   5.487   1.951   4.523
10050SOL    HW131049   5.467   1.929   4.619
10050SOL    HW231050   5.579   1.990   4.517
10051SOL     OW31051   6.191   2.275   6.344
10051SOL    HW131052   6.229   2.221   6.419
10051SOL    HW231053   6.189   2.372   6.370
10052SOL     OW31054   1.197   4.045   1.545
10052SOL    HW131055   1.276   4.102   1.523
10052SOL    HW231056   1.124   4.102   1.584
10053SOL     OW31057   3.163   6.348   3.708
10053SOL    HW131058   3.148   6.286   3.631
10053SOL    HW231059   3.086   6.340   3.773
10054SOL     OW31060   4.286   5.715   3.974
10054SOL    HW131061   4.258   5.655   4.050
10054SOL    HW231062   4.326   5.659   3.901
10055SOL     OW31063   6.613   3.210   6.562
10055SOL    HW131064   6.669   3.259   6.629
10055SOL    HW231065   6.523   3.191   6.601
10056SOL     OW31066   6.853   5.122   2.085
10056SOL    HW131067   6.906   5.038   2.075
10056SOL    HW231068   6.795   5.117   2.166
10057SOL     OW31069   2.639   2.482   3.941
10057SOL    HW131070   2.715   2.471   3.877
10057SOL    HW231071   2.604   2.392   3.967
10058SOL     OW31072   0.592   4.955   3.579
10058SOL    HW131073   0.650   4.892   3.631
10058SOL    HW231074   0.602   4.936   3.481
10059SOL     OW31075   5.369   0.124   0.991
10059SOL    HW131076   5.367   0.162   1.084
10059SOL    HW231077   5.435   0.174   0.936
10060SOL     OW31078   2.119   2.730   1.796
10060SOL    HW131079   2.180   2.667   1.844
10060SOL    HW231080   2.087   2.800   1.860
10061SOL     OW31081   6.427   2.086   4.878
10061SOL    HW131082   6.391   2.007   4.827
10061SOL    HW231083   6.383   2.090   4.967
10062SOL     OW31084   6.258   5.681   2.889
10062SOL    HW131085   6.236   5.741   2.812
10062SOL    HW231086   6.182   5.618   2.905
10063SOL     OW31087   0.857   2.909   2.699
10063SOL    HW131088   0.890   2.876   2.787
10063SOL    HW231089   0.779   2.971   2.714
10064SOL     OW31090   5.221   6.372   4.361
10064SOL    HW131091   5.222   6.376   4.461
10064SOL    HW231092   5.129   6.389   4.327
10065SOL     OW31093   0.936   6.418   3.216
10065SOL    HW131094   0.885   6.435   3.132
10065SOL    HW231095   1.013   6.480   3.222
10066SOL     OW31096   0.797   0.566   3.458
10066SOL    HW131097   0.831   0.630   3.528
10066SOL    HW231098   0.873   0.516   3.419
10067SOL     OW31099   4.217   5.917   3.569
10067SOL    HW131100   4.259   5.953   3.653
10067SOL    HW231101   4.177   5.992   3.517
10068SOL     OW31102   5.340   3.694   5.557
10068SOL    HW131103   5.270   3.722   5.491
10068SOL    HW231104   5.340   3.595   5.565
10069SOL     OW31105   3.829   0.821   3.587
10069SOL    HW131106   3.818   0.722   3.595
10069SOL    HW231107   3.842   0.845   3.490
10070SOL     OW31108   1.022   6.512   4.802
10070SOL    HW131109   1.085   6.536   4.876
10070SOL    HW231110   1.037   6.574   4.725
10071SOL     OW31111   5.279   5.571   4.981
10071SOL    HW131112   5.343   5.524   5.042
10071SOL    HW231113   5.270   5.519   4.896
10072SOL     OW31114   0.970   6.956   3.504
10072SOL    HW131115   1.027   6.957   3.587
10072SOL    HW231116   0.930   6.865   3.493
10073SOL     OW31117   0.421   5.842   6.578
10073SOL    HW131118   0.343   5.845   6.641
10073SOL    HW231119   0.388   5.839   6.484
10074SOL     OW31120   2.404   6.853   5.778
10074SOL    HW131121   2.477   6.863   5.710
10074SOL    HW231122   2.317   6.836   5.731
10075SOL     OW31123   1.966   2.383   3.973
10075SOL    HW131124   1.867   2.365   3.981
10075SOL    HW231125   1.980   2.470   3.926
10076SOL     OW31126   5.651   0.205   4.706
10076SOL    HW131127   5.627   0.295   4.743
10076SOL    HW231128   5.748   0.203   4.684
10077SOL     OW31129   3.783   1.103   6.759
10077SOL    HW131130   3.798   1.187   6.707
10077SOL    HW231131   3.802   1.120   6.856
10078SOL     OW31132   5.593   6.088   5.636
10078SOL    HW131133   5.575   6.151   5.711
10078SOL    HW231134   5.685   6.051   5.645
10079SOL     OW31135   0.154   4.175   6.769
10079SOL    HW131136   0.088   4.100   6.779
10079SOL    HW231137   0.131   4.227   6.686
10080SOL     OW31138   1.665   3.137   6.167
10080SOL    HW131139   1.723   3.146   6.086
10080SOL    HW231140   1.723   3.134   6.249
10081SOL     OW31141   0.033   0.651   6.590
10081SOL    HW131142   0.107   0.618   6.530
10081SOL    HW231143   6.966   0.643   6.542
10082SOL     OW31144   6.291   0.930   1.435
10082SOL    HW131145   6.207   0.980   1.412
10082SOL    HW231146   6.348   0.923   1.353
10083SOL     OW31147   4.965   1.190   4.105
10083SOL    HW131148   4.952   1.282   4.068
10083SOL    HW231149   5.046   1.149   4.065
10084SOL     OW31150   2.513   1.134   5.981
10084SOL    HW131151   2.509   1.227   5.946
10084SOL    HW231152   2.589   1.125   6.045
10085SOL     OW31153   0.534   5.415   2.900
10085SOL    HW131154   0.480   5.358   2.962
10085SOL    HW231155   0.478   5.490   2.867
10086SOL     OW31156   6.121   3.673   2.372
10086SOL    HW131157   6.145   3.696   2.466
10086SOL    HW231158   6.053   3.600   2.372
10087SOL     OW31159   1.030   0.242   4.137
10087SOL    HW131160   1.049   0.214   4.231
10087SOL    HW231161   1.100   0.307   4.107
10088SOL     OW31162   0.159   0.494   4.547
10088SOL    HW131163   0.208   0.492   4.634
10088SOL    HW231164   0.211   0.550   4.482
10089SOL     OW31165   1.420   3.321   2.448
10089SOL    HW131166   1.434   3.338   2.545
10089SOL    HW231167   1.346   3.378   2.413
10090SOL     OW31168   0.461   4.713   0.992
10090SOL    HW131169   0.378   4.701   0.938
10090SOL    HW231170   0.530   4.647   0.962
10091SOL     OW31171   0.611   2.407   4.036
10091SOL    HW131172   0.693   2.460   4.055
10091SOL    HW231173   0.549   2.460   3.979
10092SOL     OW31174   1.858   4.051   4.890
10092SOL    HW131175   1.932   4.023   4.951
10092SOL    HW231176   1.803   3.971   4.865
10093SOL     OW31177   6.520   4.734   6.409
10093SOL    HW131178   6.594   4.762   6.347
10093SOL    HW231179   6.554   4.662   6.470
10094SOL     OW31180   1.529   0.927   1.762
10094SOL    HW131181   1.529   0.925   1.862
10094SOL    HW231182   1.619   0.956   1.729
10095SOL     OW31183   0.014   0.835   5.815
10095SOL    HW131184   6.990   0.773   5.751
10095SOL    HW231185   0.012   0.795   5.907
10096SOL     OW31186   0.479   5.053   2.418
10096SOL    HW131187   0.520   5.144   2.422
10096SOL    HW231188   0.500   5.010   2.330
10097SOL     OW31189   1.528   1.835   6.800
10097SOL    HW131190   1.454   1.899   6.822
10097SOL    HW231191   1.616   1.883   6.808
10098SOL     OW31192   3.328   4.651   6.357
10098SOL    HW131193   3.348   4.670   6.261
10098SOL    HW231194   3.412   4.627   6.405
10099SOL     OW31195   6.380   5.053   4.542
10099SOL    HW131196   6.359   5.043   4.444
10099SOL    HW231197   6.409   4.965   4.578
10100SOL     OW31198   5.747   1.161   5.770
10100SOL    HW131199   5.648   1.148   5.774
10100SOL    HW231200   5.768   1.255   5.743
10101SOL     OW31201   0.293   4.326   1.906
10101SOL    HW131202   0.304   4.382   1.988
10101SOL    HW231203   0.282   4.230   1.933
10102SOL     OW31204   3.811   1.125   3.329
10102SOL    HW131205   3.894   1.172   3.297
10102SOL    HW231206   3.734   1.188   3.323
10103SOL     OW31207   2.726   2.040   6.844
10103SOL    HW131208   2.807   2.092   6.819
10103SOL    HW231209   2.650   2.103   6.861
10104SOL     OW31210   1.503   5.919   4.859
10104SOL    HW131211   1.439   5.923   4.782
10104SOL    HW231212   1.451   5.908   4.944
10105SOL     OW31213   2.479   0.791   6.225
10105SOL    HW131214   2.524   0.702   6.216
10105SOL    HW231215   2.541   0.855   6.271
10106SOL     OW31216   5.654   5.290   0.686
10106SOL    HW131217   5.642   5.297   0.785
10106SOL    HW231218   5.742   5.331   0.660
10107SOL     OW31219   5.473   1.096   5.798
10107SOL    HW131220   5.412   1.022   5.771
10107SOL    HW231221   5.451   1.124   5.892
10108SOL     OW31222   6.230   6.571   0.303
10108SOL    HW131223   6.314   6.624   0.294
10108SOL    HW231224   6.253   6.478   0.332
10109SOL     OW31225   4.703   5.169   3.044
10109SOL    HW131226   4.750   5.141   2.961
10109SOL    HW231227   4.761   5.151   3.124
10110SOL     OW31228   3.113   1.089   5.732
10110SOL    HW131229   3.062   1.081   5.646
10110SOL    HW231230   3.054   1.129   5.802
10111SOL     OW31231   0.404   2.511   2.795
10111SOL    HW131232   0.390   2.412   2.800
10111SOL    HW231233   0.415   2.538   2.699
10112SOL     OW31234   4.447   3.834   5.800
10112SOL    HW131235   4.366   3.783   5.772
10112SOL    HW231236   4.501   3.858   5.719
10113SOL     OW31237   3.436   6.460   0.055
10113SOL    HW131238   3.403   6.541   0.103
10113SOL    HW231239   3.416   6.469   6.977
10114SOL     OW31240   4.249   1.238   1.100
10114SOL    HW131241   4.185   1.265   1.171
10114SOL    HW231242   4.306   1.163   1.133
10115SOL     OW31243   1.414   2.308   3.582
10115SOL    HW131244   1.426   2.403   3.553
10115SOL    HW231245   1.471   2.249   3.524
10116SOL     OW31246   1.189   1.028   1.163
10116SOL    HW131247   1.230   1.111   1.201
10116SOL    HW231248   1.253   0.986   1.098
10117SOL     OW31249   5.083   0.706   5.609
10117SOL    HW131250   5.003   0.762   5.632
10117SOL    HW231251   5.162   0.764   5.593
10118SOL     OW31252   6.271   5.443   2.553
10118SOL    HW131253   6.256   5.539   2.529
10118SOL    HW231254   6.361   5.434   2.597
10119SOL     OW31255   2.595   0.488   5.493
10119SOL    HW131256   2.657   0.485   5.415
10119SOL    HW231257   2.643   0.522   5.573
10120SOL     OW31258   6.472   3.296   3.511
10120SOL    HW131259   6.539   3.296   3.585
10120SOL    HW231260   6.458   3.389   3.478
10121SOL     OW31261   6.779   4.841   4.499
10121SOL    HW131262   6.823   4.754   4.521
10121SOL    HW231263   6.738   4.835   4.407
10122SOL     OW31264   5.227   3.001   0.471
10122SOL    HW131265   5.149   3.060   0.494
10122SOL    HW231266   5.250   3.013   0.375
10123SOL     OW31267   0.096   0.031   0.363
10123SOL    HW131268   0.028   0.083   0.312
10123SOL    HW231269   0.106   6.960   0.323
10124SOL     OW31270   3.487   4.441   0.818
10124SOL    HW131271   3.410   4.424   0.880
10124SOL    HW231272   3.569   4.395   0.854
10125SOL     OW31273   1.360   6.674   1.772
10125SOL    HW131274   1.395   6.652   1.863
10125SOL    HW231275   1.430   6.652   1.704
10126SOL     OW31276   6.326   4.707   0.356
10126SOL    HW131277   6.384   4.664   0.287
10126SOL    HW231278   6.230   4.692   0.332
10127SOL     OW31279   3.802   4.513   5.511
10127SOL    HW131280   3.705   4.495   5.495
10127SOL    HW231281   3.816   4.538   5.607
10128SOL     OW31282   0.260   1.881   1.014
10128SOL    HW131283   0.276   1.974   1.045
10128SOL    HW231284   0.345   1.828   1.021
10129SOL     OW31285   5.570   2.014   3.016
10129SOL    HW131286   5.620   2.058   2.941
10129SOL    HW231287   5.614   2.039   3.103
10130SOL     OW31288   6.764   5.109   1.811
10130SOL    HW131289   6.834   5.111   1.739
10130SOL    HW231290   6.806   5.124   1.900
10131SOL     OW31291   6.944   1.004   0.933
10131SOL    HW131292   6.903   1.035   1.019
10131SOL    HW231293   7.005   1.074   0.898
10132SOL     OW31294   3.135   6.866   3.104
10132SOL    HW131295   3.074   6.800   3.060
10132SOL    HW231296   3.229   6.833   3.100
10133SOL     OW31297   5.310   5.755   3.067
10133SOL    HW131298   5.391   5.710   3.030
10133SOL    HW231299   5.228   5.710   3.031
10134SOL     OW31300   6.929   1.474   2.542
10134SOL    HW131301   6.872   1.554   2.556
10134SOL    HW231302   7.008   1.478   2.603
10135SOL     OW31303   3.795   5.686   3.385
10135SOL    HW131304   3.835   5.757   3.327
10135SOL    HW231305   3.709   5.656   3.345
10136SOL     OW31306   5.969   6.653   2.445
10136SOL    HW131307   6.066   6.664   2.427
10136SOL    HW231308   5.916   6.686   2.366
10137SOL     OW31309   5.846   5.005   4.029
10137SOL    HW131310   5.872   4.915   3.997
10137SOL    HW231311   5.780   4.997   4.103
10138SOL     OW31312   5.479   2.248   6.282
10138SOL    HW131313   5.547   2.280   6.348
10138SOL    HW231314   5.475   2.312   6.205
10139SOL     OW31315   4.008   3.785   3.053
10139SOL    HW131316   3.934   3.847   3.027
10139SOL    HW231317   4.015   3.711   2.986
10140SOL     OW31318   0.323   4.847   5.888
10140SOL    HW131319   0.298   4.763   5.839
10140SOL    HW231320   0.298   4.837   5.985
10141SOL     OW31321   1.905   0.654   3.692
10141SOL    HW131322   2.000   0.648   3.722
10141SOL    HW231323   1.896   0.614   3.601
10142SOL     OW31324   5.058   5.463   4.395
10142SOL    HW131325   5.079   5.549   4.350
10142SOL    HW231326   4.977   5.422   4.353
10143SOL     OW31327   4.862   0.004   1.280
10143SOL    HW131328   4.893   6.942   1.231
10143SOL    HW231329   4.790   6.999   1.344
10144SOL     OW31330   3.098   5.309   3.504
10144SOL    HW131331   3.089   5.399   3.461
10144SOL    HW231332   3.064   5.239   3.442
10145SOL     OW31333   3.228   5.785   6.067
10145SOL    HW131334   3.313   5.734   6.080
10145SOL    HW231335   3.245   5.860   6.003
10146SOL     OW31336   4.851   4.882   4.069
10146SOL    HW131337   4.914   4.834   4.008
10146SOL    HW231338   4.902   4.934   4.137
10147SOL     OW31339   5.126   4.992   4.890
10147SOL    HW131340   5.051   4.969   4.952
10147SOL    HW231341   5.196   5.042   4.940
10148SOL     OW31342   5.460   5.395   1.126
10148SOL    HW131343   5.364   5.372   1.114
10148SOL    HW231344   5.478   5.411   1.224
10149SOL     OW31345   4.192   2.802   0.724
10149SOL    HW131346   4.096   2.814   0.699
10149SOL    HW231347   4.224   2.883   0.774
10150SOL     OW31348   4.887   4.647   1.168
10150SOL    HW131349   4.892   4.646   1.268
10150SOL    HW231350   4.976   4.674   1.131
10151SOL     OW31351   1.480   7.004   5.444
10151SOL    HW131352   1.427   0.068   5.448
10151SOL    HW231353   1.440   6.942   5.377
10152SOL     OW31354   0.248   5.442   3.709
10152SOL    HW131355   0.298   5.504   3.769
10152SOL    HW231356   0.151   5.445   3.732
10153SOL     OW31357   5.268   6.809   4.220
10153SOL    HW131358   5.363   6.820   4.248
10153SOL    HW231359   5.260   6.828   4.122
10154SOL     OW31360   6.729   5.245   5.663
10154SOL    HW131361   6.655   5.178   5.658
10154SOL    HW231362   6.766   5.259   5.571
10155SOL     OW31363   3.690   1.611   6.295
10155SOL    HW131364   3.635   1.528   6.298
10155SOL    HW231365   3.683   1.659   6.383
10156SOL     OW31366   5.979   0.740   2.207
10156SOL    HW131367   6.072   0.711   2.229
10156SOL    HW231368   5.913   0.682   2.256
10157SOL     OW31369   5.545   0.726   5.902
10157SOL    HW131370   5.512   0.647   5.849
10157SOL    HW231371   5.613   0.695   5.968
10158SOL     OW31372   4.212   3.634   6.799
10158SOL    HW131373   4.306   3.638   6.832
10158SOL    HW231374   4.209   3.663   6.704
10159SOL     OW31375   1.417   1.288   5.888
10159SOL    HW131376   1.452   1.344   5.963
10159SOL    HW231377   1.433   1.335   5.801
10160SOL     OW31378   0.342   5.976   3.709
10160SOL    HW131379   0.395   5.892   3.699
10160SOL    HW231380   0.402   6.055   3.700
10161SOL     OW31381   2.928   5.516   5.914
10161SOL    HW131382   2.952   5.477   5.825
10161SOL    HW231383   2.877   5.448   5.967
10162SOL     OW31384   3.226   2.100   6.690
10162SOL    HW131385   3.236   2.080   6.592
10162SOL    HW231386   3.267   2.025   6.743
10163SOL     OW31387   6.124   3.031   5.554
10163SOL    HW131388   6.035   3.046   5.512
10163SOL    HW231389   6.125   3.071   5.646
10164SOL     OW31390   0.353   3.017   4.532
10164SOL    HW131391   0.284   3.080   4.497
10164SOL    HW231392   0.388   3.051   4.620
10165SOL     OW31393   6.955   1.980   3.246
10165SOL    HW131394   6.900   1.963   3.164
10165SOL    HW231395   6.919   2.060   3.294
10166SOL     OW31396   1.790   0.810   2.032
10166SOL    HW131397   1.844   0.789   1.950
10166SOL    HW231398   1.702   0.763   2.027
10167SOL     OW31399   4.556   0.152   0.127
10167SOL    HW131400   4.642   0.174   0.172
10167SOL    HW231401   4.535   0.223   0.060
10168SOL     OW31402   6.580   4.537   4.323
10168SOL    HW131403   6.574   4.517   4.421
10168SOL    HW231404   6.674   4.525   4.292
10169SOL     OW31405   6.207   4.353   3.866
10169SOL    HW131406   6.192   4.332   3.962
10169SOL    HW231407   6.118   4.360   3.819
10170SOL     OW31408   1.919   4.314   4.806
10170SOL    HW131409   1.979   4.290   4.730
10170SOL    HW231410   1.875   4.231   4.841
10171SOL     OW31411   5.831   3.969   5.836
10171SOL    HW131412   5.796   4.062   5.842
10171SOL    HW231413   5.926   3.968   5.868
10172SOL     OW31414   5.127   0.913   2.839
10172SOL    HW131415   5.038   0.879   2.871
10172SOL    HW231416   5.114   0.963   2.753
10173SOL     OW31417   2.031   1.654   2.254
10173SOL    HW131418   1.956   1.599   2.218
10173SOL    HW231419   2.114   1.599   2.257
10174SOL     OW31420   6.950   4.490   2.122
10174SOL    HW131421   6.850   4.486   2.115
10174SOL    HW231422   6.976   4.538   2.205
10175SOL     OW31423   6.042   2.711   5.690
10175SOL    HW131424   6.137   2.696   5.666
10175SOL    HW231425   6.022   2.809   5.690
10176SOL     OW31426   2.117   4.165   6.956
10176SOL    HW131427   2.033   4.190   6.907
10176SOL    HW231428   2.102   4.175   0.034
10177SOL     OW31429   2.030   6.593   6.850
10177SOL    HW131430   1.939   6.599   6.890
10177SOL    HW231431   2.095   6.561   6.920
10178SOL     OW31432   5.587   2.387   4.854
10178SOL    HW131433   5.618   2.465   4.799
10178SOL    HW231434   5.550   2.421   4.941
10179SOL     OW31435   1.217   3.332   6.366
10179SOL    HW131436   1.277   3.274   6.310
10179SOL    HW231437   1.215   3.424   6.328
10180SOL     OW31438   2.740   6.078   5.896
10180SOL    HW131439   2.641   6.072   5.901
10180SOL    HW231440   2.780   5.987   5.913
10181SOL     OW31441   5.481   3.091   1.424
10181SOL    HW131442   5.503   3.164   1.359
10181SOL    HW231443   5.555   3.023   1.425
10182SOL     OW31444   5.686   1.176   0.706
10182SOL    HW131445   5.617   1.107   0.727
10182SOL    HW231446   5.671   1.212   0.614
10183SOL     OW31447   1.592   1.499   6.409
10183SOL    HW131448   1.689   1.513   6.433
10183SOL    HW231449   1.535   1.553   6.471
10184SOL     OW31450   3.975   0.791   6.185
10184SOL    HW131451   4.001   0.816   6.091
10184SOL    HW231452   3.966   0.692   6.191
10185SOL     OW31453   5.178   6.539   0.739
10185SOL    HW131454   5.194   6.534   0.837
10185SOL    HW231455   5.193   6.448   0.699
10186SOL     OW31456   4.590   2.285   3.107
10186SOL    HW131457   4.563   2.336   3.190
10186SOL    HW231458   4.513   2.228   3.077
10187SOL     OW31459   0.888   1.869   1.500
10187SOL    HW131460   0.943   1.912   1.572
10187SOL    HW231461   0.828   1.800   1.541
10188SOL     OW31462   4.189   5.972   1.014
10188SOL    HW131463   4.254   6.040   1.046
10188SOL    HW231464   4.151   5.922   1.092
10189SOL     OW31465   1.261   6.574   5.550
10189SOL    HW131466   1.332   6.550   5.616
10189SOL    HW231467   1.242   6.496   5.491
10190SOL     OW31468   5.608   2.782   0.323
10190SOL    HW131469   5.568   2.704   0.371
10190SOL    HW231470   5.580   2.779   0.227
10191SOL     OW31471   6.522   4.197   0.148
10191SOL    HW131472   6.617   4.206   0.176
10191SOL    HW231473   6.485   4.288   0.125
10192SOL     OW31474   3.239   0.854   5.818
10192SOL    HW131475   3.201   0.938   5.779
10192SOL    HW231476   3.251   0.786   5.746
10193SOL     OW31477   4.876   3.900   0.523
10193SOL    HW131478   4.808   3.973   0.529
10193SOL    HW231479   4.868   3.855   0.434
10194SOL     OW31480   5.642   3.607   5.238
10194SOL    HW131481   5.600   3.521   5.266
10194SOL    HW231482   5.638   3.673   5.313
10195SOL     OW31483   6.841   4.195   1.738
10195SOL    HW131484   6.781   4.143   1.799
10195SOL    HW231485   6.896   4.259   1.792
10196SOL     OW31486   0.715   1.643   4.633
10196SOL    HW131487   0.760   1.729   4.609
10196SOL    HW231488   0.628   1.662   4.678
10197SOL     OW31489   5.899   0.723   5.801
10197SOL    HW131490   5.864   0.814   5.779
10197SOL    HW231491   5.870   0.697   5.893
10198SOL     OW31492   3.446   6.874   2.950
10198SOL    HW131493   3.504   6.828   2.883
10198SOL    HW231494   3.476   6.849   3.042
10199SOL     OW31495   1.605   2.584   5.285
10199SOL    HW131496   1.696   2.558   5.316
10199SOL    HW231497   1.611   2.624   5.194
10200SOL     OW31498   6.080   3.013   1.642
10200SOL    HW131499   5.988   3.030   1.678
10200SOL    HW231500   6.122   3.099   1.616
10201SOL     OW31501   1.293   3.125   0.581
10201SOL    HW131502   1.220   3.087   0.524
10201SOL    HW231503   1.328   3.209   0.539
10202SOL     OW31504   3.669   0.408   5.271
10202SOL    HW131505   3.677   0.371   5.364
10202SOL    HW231506   3.757   0.401   5.225
10203SOL     OW31507   6.467   2.321   4.571
10203SOL    HW131508   6.479   2.373   4.486
10203SOL    HW231509   6.422   2.234   4.551
10204SOL     OW31510   5.266   5.934   6.745
10204SOL    HW131511   5.189   5.891   6.698
10204SOL    HW231512   5.260   6.034   6.735
10205SOL     OW31513   0.828   0.807   6.216
10205SOL    HW131514   0.881   0.796   6.300
10205SOL    HW231515   0.887   0.846   6.145
10206SOL     OW31516   1.719   1.246   5.095
10206SOL    HW131517   1.709   1.157   5.140
10206SOL    HW231518   1.744   1.231   4.999
10207SOL     OW31519   1.714   2.188   5.080
10207SOL    HW131520   1.633   2.131   5.097
10207SOL    HW231521   1.733   2.244   5.161
10208SOL     OW31522   6.577   4.810   5.604
10208SOL    HW131523   6.665   4.857   5.603
10208SOL    HW231524   6.544   4.802   5.698
10209SOL     OW31525   6.772   6.668   6.243
10209SOL    HW131526   6.704   6.597   6.223
10209SOL    HW231527   6.769   6.690   6.341
10210SOL     OW31528   3.411   6.312   2.166
10210SOL    HW131529   3.352   6.359   2.231
10210SOL    HW231530   3.381   6.332   2.073
10211SOL     OW31531   5.458   6.027   5.408
10211SOL    HW131532   5.467   6.101   5.341
10211SOL    HW231533   5.493   6.057   5.497
10212SOL     OW31534   0.382   0.210   6.538
10212SOL    HW131535   0.473   0.250   6.540
10212SOL    HW231536   0.386   0.121   6.492
10213SOL     OW31537   5.900   1.982   0.964
10213SOL    HW131538   5.853   1.980   0.876
10213SOL    HW231539   5.857   1.916   1.026
10214SOL     OW31540   0.813   2.294   0.789
10214SOL    HW131541   0.887   2.300   0.722
10214SOL    HW231542   0.734   2.249   0.748
10215SOL     OW31543   3.258   3.110   2.225
10215SOL    HW131544   3.305   3.034   2.180
10215SOL    HW231545   3.229   3.176   2.156
10216SOL     OW31546   6.556   6.507   3.032
10216SOL    HW131547   6.531   6.468   3.120
10216SOL    HW231548   6.608   6.591   3.046
10217SOL     OW31549   3.215   0.685   3.987
10217SOL    HW131550   3.216   0.777   3.947
10217SOL    HW231551   3.121   0.660   4.009
10218SOL     OW31552   1.450   2.938   2.876
10218SOL    HW131553   1.411   2.858   2.831
10218SOL    HW231554   1.487   2.912   2.965
10219SOL     OW31555   6.653   0.242   2.977
10219SOL    HW131556   6.679   0.202   2.889
10219SOL    HW231557   6.722   0.310   3.004
10220SOL     OW31558   3.592   2.725   0.942
10220SOL    HW131559   3.521   2.681   0.887
10220SOL    HW231560   3.602   2.677   1.029
10221SOL     OW31561   0.676   5.434   4.093
10221SOL    HW131562   0.670   5.423   3.994
10221SOL    HW231563   0.584   5.449   4.131
10222SOL     OW31564   2.877   3.685   4.253
10222SOL    HW131565   2.899   3.762   4.313
10222SOL    HW231566   2.873   3.716   4.158
10223SOL     OW31567   0.592   6.145   1.914
10223SOL    HW131568   0.644   6.060   1.923
10223SOL    HW231569   0.608   6.185   1.824
10224SOL     OW31570   5.811   4.150   3.098
10224SOL    HW131571   5.853   4.220   3.157
10224SOL    HW231572   5.797   4.067   3.151
10225SOL     OW31573   2.762   3.644   5.797
10225SOL    HW131574   2.714   3.731   5.801
10225SOL    HW231575   2.799   3.622   5.888
10226SOL     OW31576   5.045   2.941   0.034
10226SOL    HW131577   5.011   2.850   0.011
10226SOL    HW231578   4.987   2.983   0.104
10227SOL     OW31579   5.133   3.845   1.471
10227SOL    HW131580   5.097   3.932   1.438
10227SOL    HW231581   5.207   3.862   1.535
10228SOL     OW31582   5.598   0.673   1.109
10228SOL    HW131583   5.536   0.651   1.185
10228SOL    HW231584   5.651   0.592   1.084
10229SOL     OW31585   6.416   3.210   4.866
10229SOL    HW131586   6.333   3.212   4.811
10229SOL    HW231587   6.422   3.294   4.921
10230SOL     OW31588   0.069   6.482   2.361
10230SOL    HW131589   0.008   6.423   2.415
10230SOL    HW231590   0.017   6.557   2.321
10231SOL     OW31591   1.420   5.557   3.013
10231SOL    HW131592   1.447   5.653   3.017
10231SOL    HW231593   1.330   5.546   3.054
10232SOL     OW31594   5.248   4.571   3.987
10232SOL    HW131595   5.311   4.527   4.051
10232SOL    HW231596   5.275   4.549   3.893
10233SOL     OW31597   3.301   3.772   6.166
10233SOL    HW131598   3.267   3.811   6.251
10233SOL    HW231599   3.255   3.815   6.089
10234SOL     OW31600   0.516   1.264   2.726
10234SOL    HW131601   0.456   1.321   2.670
10234SOL    HW231602   0.508   1.169   2.697
10235SOL     OW31603   1.413   1.006   2.968
10235SOL    HW131604   1.324   0.963   2.977
10235SOL    HW231605   1.404   1.093   2.919
10236SOL     OW31606   2.290   6.431   1.984
10236SOL    HW131607   2.280   6.529   1.963
10236SOL    HW231608   2.352   6.420   2.062
10237SOL     OW31609   0.532   3.432   5.344
10237SOL    HW131610   0.589   3.438   5.426
10237SOL    HW231611   0.587   3.451   5.263
10238SOL     OW31612   3.439   0.059   2.081
10238SOL    HW131613   3.354   0.110   2.094
10238SOL    HW231614   3.423   6.983   2.104
10239SOL     OW31615   0.882   2.471   4.055
10239SOL    HW131616   0.899   2.395   4.118
10239SOL    HW231617   0.917   2.447   3.964
10240SOL     OW31618   2.367   6.698   0.627
10240SOL    HW131619   2.418   6.676   0.544
10240SOL    HW231620   2.383   6.628   0.696
10241SOL     OW31621   4.005   2.474   1.490
10241SOL    HW131622   4.066   2.528   1.548
10241SOL    HW231623   3.930   2.438   1.544
10242SOL     OW31624   6.745   2.527   6.908
10242SOL    HW131625   6.746   2.429   6.892
10242SOL    HW231626   6.837   2.564   6.895
10243SOL     OW31627   2.660   5.226   1.345
10243SOL    HW131628   2.621   5.315   1.323
10243SOL    HW231629   2.759   5.233   1.353
10244SOL     OW31630   3.162   4.357   1.431
10244SOL    HW131631   3.209   4.271   1.451
10244SOL    HW231632   3.106   4.383   1.510
10245SOL     OW31633   4.606   4.085   0.826
10245SOL    HW131634   4.699   4.047   0.828
10245SOL    HW231635   4.541   4.013   0.849
10246SOL     OW31636   3.415   3.070   3.918
10246SOL    HW131637   3.405   3.017   4.002
10246SOL    HW231638   3.467   3.153   3.936
10247SOL     OW31639   0.540   2.593   4.533
10247SOL    HW131640   0.454   2.568   4.486
10247SOL    HW231641   0.616   2.587   4.468
10248SOL     OW31642   1.179   0.398   3.842
10248SOL    HW131643   1.253   0.450   3.884
10248SOL    HW231644   1.100   0.458   3.829
10249SOL     OW31645   2.952   5.353   6.332
10249SOL    HW131646   2.899   5.285   6.281
10249SOL    HW231647   2.936   5.444   6.293
10250SOL     OW31648   4.258   2.327   1.034
10250SOL    HW131649   4.228   2.322   0.939
10250SOL    HW231650   4.338   2.387   1.041
10251SOL     OW31651   1.253   0.419   4.155
10251SOL    HW131652   1.235   0.408   4.253
10251SOL    HW231653   1.340   0.374   4.133
10252SOL     OW31654   5.404   4.201   6.260
10252SOL    HW131655   5.500   4.198   6.286
10252SOL    HW231656   5.372   4.109   6.237
10253SOL     OW31657   3.321   6.086   6.445
10253SOL    HW131658   3.371   5.999   6.438
10253SOL    HW231659   3.313   6.111   6.541
10254SOL     OW31660   5.820   1.388   5.666
10254SOL    HW131661   5.898   1.398   5.728
10254SOL    HW231662   5.848   1.338   5.584
10255SOL     OW31663   4.222   4.592   1.679
10255SOL    HW131664   4.227   4.586   1.580
10255SOL    HW231665   4.176   4.511   1.716
10256SOL     OW31666   3.847   1.389   3.533
10256SOL    HW131667   3.942   1.370   3.508
10256SOL    HW231668   3.791   1.391   3.450
10257SOL     OW31669   4.119   5.703   3.306
10257SOL    HW131670   4.081   5.781   3.354
10257SOL    HW231671   4.116   5.719   3.207
10258SOL     OW31672   2.082   1.359   1.912
10258SOL    HW131673   2.109   1.388   2.004
10258SOL    HW231674   2.091   1.260   1.904
10259SOL     OW31675   1.992   4.255   3.945
10259SOL    HW131676   2.029   4.163   3.952
10259SOL    HW231677   1.966   4.287   4.036
10260SOL     OW31678   1.194   0.742   3.499
10260SOL    HW131679   1.179   0.784   3.409
10260SOL    HW231680   1.255   0.663   3.489
10261SOL     OW31681   0.098   3.635   1.174
10261SOL    HW131682   0.021   3.570   1.164
10261SOL    HW231683   0.140   3.622   1.264
10262SOL     OW31684   4.418   1.550   0.595
10262SOL    HW131685   4.404   1.625   0.659
10262SOL    HW231686   4.514   1.523   0.595
10263SOL     OW31687   5.942   1.024   2.250
10263SOL    HW131688   5.995   1.059   2.327
10263SOL    HW231689   5.942   0.924   2.251
10264SOL     OW31690   6.816   6.423   6.581
10264SOL    HW131691   6.740   6.367   6.551
10264SOL    HW231692   6.886   6.365   6.622
10265SOL     OW31693   1.951   1.877   0.977
10265SOL    HW131694   1.864   1.846   1.015
10265SOL    HW231695   1.981   1.813   0.906
10266SOL     OW31696   2.601   3.476   1.720
10266SOL    HW131697   2.521   3.443   1.770
10266SOL    HW231698   2.683   3.431   1.756
10267SOL     OW31699   5.664   0.856   1.660
10267SOL    HW131700   5.644   0.808   1.745
10267SOL    HW231701   5.763   0.866   1.649
10268SOL     OW31702   3.652   6.495   1.575
10268SOL    HW131703   3.565   6.456   1.608
10268SOL    HW231704   3.683   6.444   1.495
10269SOL     OW31705   3.080   2.496   0.663
10269SOL    HW131706   3.124   2.543   0.586
10269SOL    HW231707   3.150   2.451   0.718
10270SOL     OW31708   2.662   0.301   2.787
10270SOL    HW131709   2.583   0.351   2.751
10270SOL    HW231710   2.730   0.366   2.820
10271SOL     OW31711   1.229   1.897   6.713
10271SOL    HW131712   1.285   1.951   6.649
10271SOL    HW231713   1.205   1.953   6.792
10272SOL     OW31714   6.102   0.080   4.746
10272SOL    HW131715   6.121   0.167   4.792
10272SOL    HW231716   6.164   0.010   4.779
10273SOL     OW31717   2.021   5.379   3.272
10273SOL    HW131718   2.092   5.448   3.283
10273SOL    HW231719   2.044   5.299   3.327
10274SOL     OW31720   1.030   4.972   5.468
10274SOL    HW131721   0.981   4.956   5.554
10274SOL    HW231722   0.971   4.945   5.392
10275SOL     OW31723   6.716   0.591   2.680
10275SOL    HW131724   6.723   0.649   2.598
10275SOL    HW231725   6.730   0.647   2.761
10276SOL     OW31726   3.900   5.419   5.296
10276SOL    HW131727   3.865   5.496   5.349
10276SOL    HW231728   3.982   5.448   5.246
10277SOL     OW31729   0.128   6.100   4.343
10277SOL    HW131730   0.191   6.177   4.332
10277SOL    HW231731   0.172   6.030   4.399
10278SOL     OW31732   6.635   0.314   5.007
10278SOL    HW131733   6.648   0.280   5.100
10278SOL    HW231734   6.689   0.259   4.943
10279SOL     OW31735   2.281   6.072   4.179
10279SOL    HW131736   2.275   6.145   4.247
10279SOL    HW231737   2.205   6.082   4.114
10280SOL     OW31738   6.415   4.200   0.592
10280SOL    HW131739   6.343   4.155   0.644
10280SOL    HW231740   6.498   4.206   0.648
10281SOL     OW31741   6.868   1.559   3.385
10281SOL    HW131742   6.800   1.493   3.418
10281SOL    HW231743   6.892   1.622   3.458
10282SOL     OW31744   4.820   3.156   3.572
10282SOL    HW131745   4.753   3.083   3.561
10282SOL    HW231746   4.872   3.167   3.487
10283SOL     OW31747   0.767   2.940   1.108
10283SOL    HW131748   0.803   2.878   1.039
10283SOL    HW231749   0.803   2.914   1.198
10284SOL     OW31750   0.021   3.260   3.775
10284SOL    HW131751   7.001   3.275   3.685
10284SOL    HW231752   6.990   3.312   3.843
10285SOL     OW31753   5.819   5.637   5.352
10285SOL    HW131754   5.809   5.647   5.451
10285SOL    HW231755   5.783   5.719   5.307
10286SOL     OW31756   2.951   1.148   3.307
10286SOL    HW131757   2.962   1.092   3.389
10286SOL    HW231758   2.971   1.094   3.226
10287SOL     OW31759   2.312   5.505   2.843
10287SOL    HW131760   2.352   5.468   2.927
10287SOL    HW231761   2.383   5.511   2.772
10288SOL     OW31762   3.746   6.620   5.352
10288SOL    HW131763   3.667   6.680   5.359
10288SOL    HW231764   3.819   6.666   5.302
10289SOL     OW31765   3.540   5.707   6.690
10289SOL    HW131766   3.614   5.645   6.713
10289SOL    HW231767   3.557   5.797   6.729
10290SOL     OW31768   3.467   2.936   1.818
10290SOL    HW131769   3.560   2.928   1.785
10290SOL    HW231770   3.414   2.856   1.791
10291SOL     OW31771   2.101   1.900   2.093
10291SOL    HW131772   2.121   1.861   2.003
10291SOL    HW231773   2.087   1.827   2.159
10292SOL     OW31774   6.266   6.728   6.513
10292SOL    HW131775   6.237   6.769   6.427
10292SOL    HW231776   6.317   6.794   6.567
10293SOL     OW31777   1.233   4.184   4.716
10293SOL    HW131778   1.270   4.110   4.659
10293SOL    HW231779   1.187   4.251   4.657
10294SOL     OW31780   3.461   1.447   2.370
10294SOL    HW131781   3.489   1.450   2.274
10294SOL    HW231782   3.375   1.498   2.381
10295SOL     OW31783   0.844   1.784   6.616
10295SOL    HW131784   0.797   1.745   6.537
10295SOL    HW231785   0.904   1.858   6.586
10296SOL     OW31786   5.978   1.047   5.844
10296SOL    HW131787   6.031   1.130   5.829
10296SOL    HW231788   5.881   1.068   5.835
10297SOL     OW31789   3.585   0.934   6.688
10297SOL    HW131790   3.657   1.001   6.706
10297SOL    HW231791   3.508   0.951   6.749
10298SOL     OW31792   0.722   2.329   1.851
10298SOL    HW131793   0.697   2.279   1.934
10298SOL    HW231794   0.649   2.393   1.828
10299SOL     OW31795   4.191   6.509   2.988
10299SOL    HW131796   4.146   6.484   3.074
10299SOL    HW231797   4.287   6.530   3.005
10300SOL     OW31798   0.950   3.920   1.454
10300SOL    HW131799   1.011   3.982   1.503
10300SOL    HW231800   0.956   3.828   1.493
10301SOL     OW31801   4.329   0.272   6.596
10301SOL    HW131802   4.297   0.178   6.587
10301SOL    HW231803   4.427   0.276   6.581
10302SOL     OW31804   2.912   6.080   5.133
10302SOL    HW131805   2.986   6.128   5.179
10302SOL    HW231806   2.911   5.984   5.163
10303SOL     OW31807   0.648   5.774   4.867
10303SOL    HW131808   0.651   5.824   4.954
10303SOL    HW231809   0.622   5.679   4.884
10304SOL     OW31810   6.183   6.306   0.384
10304SOL    HW131811   6.141   6.234   0.328
10304SOL    HW231812   6.260   6.267   0.436
10305SOL     OW31813   3.130   4.005   6.030
10305SOL    HW131814   3.205   4.064   6.002
10305SOL    HW231815   3.088   3.963   5.949
10306SOL     OW31816   4.419   0.738   1.202
10306SOL    HW131817   4.484   0.667   1.230
10306SOL    HW231818   4.329   0.717   1.239
10307SOL     OW31819   2.031   0.345   5.066
10307SOL    HW131820   1.993   0.253   5.077
10307SOL    HW231821   2.067   0.378   5.153
10308SOL     OW31822   2.601   5.155   2.499
10308SOL    HW131823   2.632   5.212   2.575
10308SOL    HW231824   2.602   5.059   2.527
10309SOL     OW31825   0.094   1.648   4.616
10309SOL    HW131826   0.113   1.720   4.683
10309SOL    HW231827   0.172   1.586   4.612
10310SOL     OW31828   2.303   4.330   5.848
10310SOL    HW131829   2.237   4.395   5.886
10310SOL    HW231830   2.322   4.353   5.753
10311SOL     OW31831   4.909   5.258   6.847
10311SOL    HW131832   4.980   5.240   6.914
10311SOL    HW231833   4.912   5.354   6.819
10312SOL     OW31834   4.454   0.629   2.188
10312SOL    HW131835   4.495   0.675   2.109
10312SOL    HW231836   4.386   0.688   2.231
10313SOL     OW31837   5.263   0.052   3.290
10313SOL    HW131838   5.212   0.030   3.373
10313SOL    HW231839   5.353   0.009   3.294
10314SOL     OW31840   0.419   0.465   1.141
10314SOL    HW131841   0.433   0.564   1.133
10314SOL    HW231842   0.363   0.445   1.221
10315SOL     OW31843   5.523   5.384   3.562
10315SOL    HW131844   5.578   5.442   3.621
10315SOL    HW231845   5.582   5.319   3.515
10316SOL     OW31846   0.474   2.092   6.589
10316SOL    HW131847   0.448   1.995   6.591
10316SOL    HW231848   0.397   2.147   6.620
10317SOL     OW31849   3.589   5.564   5.388
10317SOL    HW131850   3.681   5.590   5.418
10317SOL    HW231851   3.539   5.646   5.360
10318SOL     OW31852   6.469   6.699   0.232
10318SOL    HW131853   6.504   6.660   0.146
10318SOL    HW231854   6.437   6.792   0.215
10319SOL     OW31855   0.635   4.560   3.806
10319SOL    HW131856   0.674   4.540   3.896
10319SOL    HW231857   0.685   4.635   3.764
10320SOL     OW31858   0.432   6.801   3.856
10320SOL    HW131859   0.517   6.813   3.806
10320SOL    HW231860   0.390   6.890   3.874
10321SOL     OW31861   5.142   2.404   2.264
10321SOL    HW131862   5.224   2.377   2.214
10321SOL    HW231863   5.163   2.480   2.325
10322SOL     OW31864   4.563   4.360   5.173
10322SOL    HW131865   4.496   4.334   5.242
10322SOL    HW231866   4.516   4.380   5.087
10323SOL     OW31867   0.597   4.511   5.272
10323SOL    HW131868   0.509   4.502   5.225
10323SOL    HW231869   0.590   4.470   5.363
10324SOL     OW31870   3.379   3.190   1.888
10324SOL    HW131871   3.458   3.247   1.910
10324SOL    HW231872   3.409   3.098   1.865
10325SOL     OW31873   6.941   5.625   3.378
10325SOL    HW131874   6.966   5.533   3.348
10325SOL    HW231875   0.004   5.678   3.396
10326SOL     OW31876   5.381   3.533   6.770
10326SOL    HW131877   5.338   3.560   6.684
10326SOL    HW231878   5.453   3.465   6.752
10327SOL     OW31879   2.155   4.550   1.342
10327SOL    HW131880   2.065   4.559   1.383
10327SOL    HW231881   2.198   4.466   1.374
10328SOL     OW31882   5.862   2.338   1.903
10328SOL    HW131883   5.873   2.407   1.975
10328SOL    HW231884   5.870   2.247   1.943
10329SOL     OW31885   3.583   1.475   3.032
10329SOL    HW131886   3.552   1.482   2.937
10329SOL    HW231887   3.524   1.533   3.090
10330SOL     OW31888   4.235   1.302   1.535
10330SOL    HW131889   4.268   1.210   1.515
10330SOL    HW231890   4.310   1.367   1.525
10331SOL     OW31891   6.391   5.258   6.954
10331SOL    HW131892   6.343   5.201   6.886
10331SOL    HW231893   6.328   5.282   0.007
10332SOL     OW31894   1.023   1.281   6.849
10332SOL    HW131895   1.112   1.269   6.805
10332SOL    HW231896   0.988   1.373   6.829
10333SOL     OW31897   0.738   4.892   4.765
10333SOL    HW131898   0.671   4.818   4.776
10333SOL    HW231899   0.827   4.853   4.741
10334SOL     OW31900   3.232   6.751   3.482
10334SOL    HW131901   3.281   6.837   3.469
10334SOL    HW231902   3.273   6.701   3.558
10335SOL     OW31903   0.869   2.493   5.634
10335SOL    HW131904   0.772   2.500   5.658
10335SOL    HW231905   0.894   2.396   5.629
10336SOL     OW31906   5.135   6.858   3.659
10336SOL    HW131907   5.135   6.928   3.588
10336SOL    HW231908   5.229   6.837   3.685
10337SOL     OW31909   6.743   5.253   6.526
10337SOL    HW131910   6.660   5.288   6.483
10337SOL    HW231911   6.743   5.153   6.523
10338SOL     OW31912   1.294   6.391   2.017
10338SOL    HW131913   1.195   6.404   2.012
10338SOL    HW231914   1.339   6.481   2.018
10339SOL     OW31915   6.214   2.490   5.341
10339SOL    HW131916   6.216   2.440   5.427
10339SOL    HW231917   6.308   2.505   5.310
10340SOL     OW31918   2.256   3.348   6.350
10340SOL    HW131919   2.282   3.276   6.285
10340SOL    HW231920   2.286   3.437   6.316
10341SOL     OW31921   2.073   2.890   2.849
10341SOL    HW131922   2.161   2.866   2.891
10341SOL    HW231923   2.088   2.957   2.776
10342SOL     OW31924   1.103   1.454   3.599
10342SOL    HW131925   1.142   1.537   3.559
10342SOL    HW231926   1.161   1.376   3.579
10343SOL     OW31927   2.910   5.312   2.040
10343SOL    HW131928   2.834   5.299   2.104
10343SOL    HW231929   2.994   5.276   2.080
10344SOL     OW31930   4.259   5.921   5.913
10344SOL    HW131931   4.203   6.004   5.919
10344SOL    HW231932   4.354   5.947   5.899
10345SOL     OW31933   1.838   3.727   4.283
10345SOL    HW131934   1.796   3.693   4.367
10345SOL    HW231935   1.839   3.827   4.285
10346SOL     OW31936   0.139   5.790   0.742
10346SOL    HW131937   0.069   5.727   0.709
10346SOL    HW231938   0.163   5.855   0.670
10347SOL     OW31939   5.220   1.662   4.082
10347SOL    HW131940   5.149   1.716   4.128
10347SOL    HW231941   5.189   1.638   3.990
10348SOL     OW31942   6.479   3.890   0.689
10348SOL    HW131943   6.565   3.887   0.739
10348SOL    HW231944   6.403   3.875   0.753
10349SOL     OW31945   1.087   6.503   6.699
10349SOL    HW131946   1.172   6.551   6.679
10349SOL    HW231947   1.104   6.404   6.699
10350SOL     OW31948   3.519   0.086   6.062
10350SOL    HW131949   3.423   0.080   6.092
10350SOL    HW231950   3.536   0.177   6.025
10351SOL     OW31951   4.096   5.052   6.585
10351SOL    HW131952   4.054   4.966   6.611
10351SOL    HW231953   4.125   5.047   6.489
10352SOL     OW31954   3.509   3.327   5.895
10352SOL    HW131955   3.552   3.411   5.929
10352SOL    HW231956   3.434   3.350   5.833
10353SOL     OW31957   0.768   2.273   4.829
10353SOL    HW131958   0.820   2.355   4.852
10353SOL    HW231959   0.720   2.287   4.742
10354SOL     OW31960   5.769   1.773   1.673
10354SOL    HW131961   5.780   1.767   1.773
10354SOL    HW231962   5.719   1.693   1.641
10355SOL     OW31963   1.444   5.009   2.295
10355SOL    HW131964   1.413   5.011   2.200
10355SOL    HW231965   1.534   5.052   2.301
10356SOL     OW31966   0.089   3.251   4.191
10356SOL    HW131967   0.070   3.349   4.196
10356SOL    HW231968   0.160   3.234   4.123
10357SOL     OW31969   2.643   1.645   0.592
10357SOL    HW131970   2.654   1.666   0.690
10357SOL    HW231971   2.674   1.552   0.575
10358SOL     OW31972   0.176   1.496   2.262
10358SOL    HW131973   0.195   1.594   2.258
10358SOL    HW231974   0.257   1.446   2.231
10359SOL     OW31975   0.629   1.269   1.600
10359SOL    HW131976   0.724   1.299   1.608
10359SOL    HW231977   0.569   1.341   1.634
10360SOL     OW31978   6.322   6.114   3.906
10360SOL    HW131979   6.387   6.048   3.943
10360SOL    HW231980   6.369   6.175   3.842
10361SOL     OW31981   2.053   4.784   1.254
10361SOL    HW131982   2.026   4.817   1.344
10361SOL    HW231983   2.083   4.689   1.260
10362SOL     OW31984   1.427   5.110   3.985
10362SOL    HW131985   1.449   5.190   4.041
10362SOL    HW231986   1.503   5.045   3.987
10363SOL     OW31987   5.570   0.375   4.023
10363SOL    HW131988   5.597   0.425   4.105
10363SOL    HW231989   5.604   0.422   3.942
10364SOL     OW31990   1.056   4.652   1.421
10364SOL    HW131991   0.996   4.704   1.483
10364SOL    HW231992   1.027   4.668   1.327
10365SOL     OW31993   4.379   5.589   6.752
10365SOL    HW131994   4.345   5.500   6.780
10365SOL    HW231995   4.436   5.579   6.670
10366SOL     OW31996   3.359   6.967   3.809
10366SOL    HW131997   3.411   6.893   3.853
10366SOL    HW231998   3.409   0.033   3.820
10367SOL     OW31999   6.569   2.508   3.010
10367SOL    HW132000   6.616   2.426   3.043
10367SOL    HW232001   6.475   2.509   3.045
10368SOL     OW32002   2.826   0.254   1.207
10368SOL    HW132003   2.787   0.239   1.298
10368SOL    HW232004   2.905   0.314   1.214
10369SOL     OW32005   4.123   2.876   0.216
10369SOL    HW132006   4.049   2.816   0.243
10369SOL    HW232007   4.118   2.893   0.118
10370SOL     OW32008   3.485   0.744   5.130
10370SOL    HW132009   3.483   0.719   5.227
10370SOL    HW232010   3.394   0.770   5.101
10371SOL     OW32011   5.060   6.453   5.871
10371SOL    HW132012   5.047   6.355   5.887
10371SOL    HW232013   5.028   6.504   5.950
10372SOL     OW32014   0.762   0.407   3.191
10372SOL    HW132015   0.794   0.314   3.174
10372SOL    HW232016   0.840   0.470   3.187
10373SOL     OW32017   1.373   5.571   4.852
10373SOL    HW132018   1.398   5.483   4.812
10373SOL    HW232019   1.448   5.635   4.842
10374SOL     OW32020   2.628   2.357   4.422
10374SOL    HW132021   2.675   2.364   4.510
10374SOL    HW232022   2.581   2.443   4.402
10375SOL     OW32023   6.545   2.270   0.378
10375SOL    HW132024   6.598   2.229   0.304
10375SOL    HW232025   6.593   2.350   0.414
10376SOL     OW32026   6.588   1.220   3.775
10376SOL    HW132027   6.521   1.282   3.816
10376SOL    HW232028   6.660   1.200   3.842
10377SOL     OW32029   1.078   6.755   4.655
10377SOL    HW132030   1.081   6.721   4.561
10377SOL    HW232031   1.171   6.761   4.691
10378SOL     OW32032   6.775   6.684   6.511
10378SOL    HW132033   6.803   6.592   6.538
10378SOL    HW232034   6.740   6.733   6.590
10379SOL     OW32035   5.241   1.735   4.886
10379SOL    HW132036   5.163   1.791   4.857
10379SOL    HW232037   5.273   1.681   4.809
10380SOL     OW32038   4.498   0.981   2.976
10380SOL    HW132039   4.535   0.897   3.016
10380SOL    HW232040   4.400   0.987   2.995
10381SOL     OW32041   4.197   5.064   4.836
10381SOL    HW132042   4.168   4.982   4.886
10381SOL    HW232043   4.288   5.050   4.798
10382SOL     OW32044   1.802   5.290   0.544
10382SOL    HW132045   1.722   5.338   0.578
10382SOL    HW232046   1.877   5.300   0.609
10383SOL     OW32047   6.444   2.692   6.561
10383SOL    HW132048   6.461   2.681   6.659
10383SOL    HW232049   6.514   2.644   6.509
10384SOL     OW32050   6.186   0.323   0.121
10384SOL    HW132051   6.269   0.378   0.132
10384SOL    HW232052   6.130   0.361   0.048
10385SOL     OW32053   5.543   2.272   0.018
10385SOL    HW132054   5.544   2.351   6.977
10385SOL    HW232055   5.588   2.296   0.104
10386SOL     OW32056   6.193   2.500   6.474
10386SOL    HW132057   6.248   2.567   6.425
10386SOL    HW232058   6.245   2.463   6.550
10387SOL     OW32059   2.090   3.329   2.809
10387SOL    HW132060   2.077   3.410   2.867
10387SOL    HW232061   2.098   3.358   2.713
10388SOL     OW32062   1.470   4.231   2.405
10388SOL    HW132063   1.560   4.260   2.438
10388SOL    HW232064   1.404   4.305   2.419
10389SOL     OW32065   0.227   5.632   3.127
10389SOL    HW132066   0.320   5.612   3.159
10389SOL    HW232067   0.212   5.731   3.125
10390SOL     OW32068   1.892   3.342   3.165
10390SOL    HW132069   1.911   3.257   3.116
10390SOL    HW232070   1.969   3.364   3.225
10391SOL     OW32071   3.513   6.279   5.201
10391SOL    HW132072   3.471   6.323   5.280
10391SOL    HW232073   3.453   6.204   5.169
10392SOL     OW32074   6.727   4.825   6.770
10392SOL    HW132075   6.813   4.785   6.801
10392SOL    HW232076   6.654   4.804   6.836
10393SOL     OW32077   1.543   1.193   4.017
10393SOL    HW132078   1.586   1.232   3.935
10393SOL    HW232079   1.448   1.224   4.021
10394SOL     OW32080   3.069   6.782   0.022
10394SOL    HW132081   3.082   6.794   0.121
10394SOL    HW232082   3.158   6.761   7.000
10395SOL     OW32083   1.186   1.834   4.946
10395SOL    HW132084   1.279   1.796   4.941
10395SOL    HW232085   1.136   1.808   4.863
10396SOL     OW32086   0.625   0.221   5.114
10396SOL    HW132087   0.683   0.173   5.179
10396SOL    HW232088   0.681   0.285   5.061
10397SOL     OW32089   4.012   2.175   2.846
10397SOL    HW132090   4.013   2.183   2.946
10397SOL    HW232091   4.037   2.082   2.820
10398SOL     OW32092   6.548   3.211   2.533
10398SOL    HW132093   6.625   3.153   2.508
10398SOL    HW232094   6.581   3.301   2.561
10399SOL     OW32095   6.221   2.372   5.611
10399SOL    HW132096   6.139   2.325   5.579
10399SOL    HW232097   6.287   2.305   5.644
10400SOL     OW32098   1.861   4.615   1.506
10400SOL    HW132099   1.850   4.516   1.509
10400SOL    HW232100   1.778   4.659   1.542
10401SOL     OW32101   1.264   5.984   1.304
10401SOL    HW132102   1.257   5.905   1.365
10401SOL    HW232103   1.191   6.049   1.325
10402SOL     OW32104   0.565   2.312   4.354
10402SOL    HW132105   0.497   2.368   4.308
10402SOL    HW232106   0.656   2.349   4.337
10403SOL     OW32107   4.399   1.680   2.012
10403SOL    HW132108   4.496   1.695   2.030
10403SOL    HW232109   4.366   1.605   2.070
10404SOL     OW32110   6.951   6.780   3.649
10404SOL    HW132111   6.920   6.875   3.659
10404SOL    HW232112   6.974   6.762   3.554
10405SOL     OW32113   2.044   6.821   6.668
10405SOL    HW132114   2.133   6.848   6.632
10405SOL    HW232115   2.053   6.733   6.716
10406SOL     OW32116   1.821   5.484   5.596
10406SOL    HW132117   1.761   5.419   5.548
10406SOL    HW232118   1.915   5.450   5.593
10407SOL     OW32119   1.569   1.401   5.697
10407SOL    HW132120   1.574   1.500   5.683
10407SOL    HW232121   1.554   1.355   5.610
10408SOL     OW32122   4.155   6.470   3.245
10408SOL    HW132123   4.070   6.497   3.290
10408SOL    HW232124   4.228   6.463   3.313
10409SOL     OW32125   6.644   4.802   2.241
10409SOL    HW132126   6.644   4.897   2.271
10409SOL    HW232127   6.691   4.795   2.153
10410SOL     OW32128   5.907   6.614   0.721
10410SOL    HW132129   5.980   6.547   0.709
10410SOL    HW232130   5.916   6.686   0.652
10411SOL     OW32131   1.790   4.064   2.563
10411SOL    HW132132   1.784   4.107   2.473
10411SOL    HW232133   1.750   4.125   2.631
10412SOL     OW32134   7.010   2.366   6.731
10412SOL    HW132135   6.943   2.437   6.708
10412SOL    HW232136   6.990   2.283   6.680
10413SOL     OW32137   0.280   2.118   5.839
10413SOL    HW132138   0.310   2.138   5.745
10413SOL    HW232139   0.241   2.026   5.842
10414SOL     OW32140   5.835   6.936   4.912
10414SOL    HW132141   5.922   6.887   4.911
10414SOL    HW232142   5.851   0.014   4.922
10415SOL     OW32143   0.387   5.257   3.094
10415SOL    HW132144   0.448   5.241   3.171
10415SOL    HW232145   0.303   5.301   3.126
10416SOL     OW32146   5.119   0.010   0.149
10416SOL    HW132147   5.076   0.035   0.062
10416SOL    HW232148   5.048   0.004   0.219
10417SOL     OW32149   4.130   4.759   4.440
10417SOL    HW132150   4.214   4.739   4.491
10417SOL    HW232151   4.052   4.717   4.485
10418SOL     OW32152   6.605   3.895   0.237
10418SOL    HW132153   6.590   3.994   0.243
10418SOL    HW232154   6.605   3.856   0.329
10419SOL     OW32155   1.998   1.134   4.072
10419SOL    HW132156   1.976   1.228   4.046
10419SOL    HW232157   1.947   1.070   4.014
10420SOL     OW32158   5.572   3.077   4.315
10420SOL    HW132159   5.647   3.142   4.331
10420SOL    HW232160   5.493   3.103   4.371
10421SOL     OW32161   1.519   4.332   3.495
10421SOL    HW132162   1.580   4.289   3.428
10421SOL    HW232163   1.432   4.353   3.452
10422SOL     OW32164   5.790   2.968   5.316
10422SOL    HW132165   5.798   2.926   5.406
10422SOL    HW232166   5.792   3.068   5.325
10423SOL     OW32167   2.243   5.351   3.663
10423SOL    HW132168   2.276   5.436   3.621
10423SOL    HW232169   2.187   5.374   3.743
10424SOL     OW32170   3.442   1.504   0.878
10424SOL    HW132171   3.357   1.496   0.826
10424SOL    HW232172   3.435   1.453   0.963
10425SOL     OW32173   1.608   3.679   0.643
10425SOL    HW132174   1.635   3.772   0.617
10425SOL    HW232175   1.665   3.648   0.719
10426SOL     OW32176   5.748   2.266   6.029
10426SOL    HW132177   5.837   2.292   5.989
10426SOL    HW232178   5.717   2.181   5.987
10427SOL     OW32179   5.520   1.211   3.554
10427SOL    HW132180   5.578   1.242   3.630
10427SOL    HW232181   5.448   1.152   3.590
10428SOL     OW32182   1.820   6.586   5.476
10428SOL    HW132183   1.863   6.657   5.532
10428SOL    HW232184   1.888   6.549   5.412
10429SOL     OW32185   1.665   3.654   1.575
10429SOL    HW132186   1.647   3.750   1.555
10429SOL    HW232187   1.739   3.647   1.642
10430SOL     OW32188   2.912   0.488   4.357
10430SOL    HW132189   2.831   0.429   4.362
10430SOL    HW232190   2.972   0.468   4.433
10431SOL     OW32191   4.046   1.201   3.932
10431SOL    HW132192   3.961   1.251   3.949
10431SOL    HW232193   4.121   1.267   3.920
10432SOL     OW32194   1.204   5.278   0.174
10432SOL    HW132195   1.184   5.374   0.193
10432SOL    HW232196   1.159   5.220   0.242
10433SOL     OW32197   3.887   6.570   3.989
10433SOL    HW132198   3.972   6.608   4.025
10433SOL    HW232199   3.828   6.542   4.065
10434SOL     OW32200   4.372   0.836   6.462
10434SOL    HW132201   4.302   0.887   6.411
10434SOL    HW232202   4.462   0.874   6.442
10435SOL     OW32203   2.620   1.624   1.278
10435SOL    HW132204   2.573   1.706   1.310
10435SOL    HW232205   2.619   1.555   1.350
10436SOL     OW32206   0.932   3.288   4.843
10436SOL    HW132207   1.008   3.259   4.901
10436SOL    HW232208   0.919   3.387   4.850
10437SOL     OW32209   6.583   6.592   5.387
10437SOL    HW132210   6.556   6.604   5.292
10437SOL    HW232211   6.682   6.601   5.396
10438SOL     OW32212   6.834   5.934   6.992
10438SOL    HW132213   6.814   5.985   6.909
10438SOL    HW232214   6.813   5.837   6.977
10439SOL     OW32215   6.454   5.422   4.975
10439SOL    HW132216   6.445   5.475   5.059
10439SOL    HW232217   6.469   5.484   4.898
10440SOL     OW32218   6.149   2.179   0.859
10440SOL    HW132219   6.068   2.133   0.895
10440SOL    HW232220   6.162   2.266   0.908
10441SOL     OW32221   4.683   1.969   6.807
10441SOL    HW132222   4.658   2.059   6.845
10441SOL    HW232223   4.683   1.901   6.881
10442SOL     OW32224   2.122   1.196   4.687
10442SOL    HW132225   2.182   1.208   4.608
10442SOL    HW232226   2.154   1.119   4.741
10443SOL     OW32227   1.355   0.449   0.858
10443SOL    HW132228   1.453   0.428   0.859
10443SOL    HW232229   1.302   0.364   0.859
10444SOL     OW32230   4.453   4.548   4.133
10444SOL    HW132231   4.525   4.589   4.189
10444SOL    HW232232   4.366   4.593   4.153
10445SOL     OW32233   1.227   3.202   3.973
10445SOL    HW132234   1.147   3.228   4.027
10445SOL    HW232235   1.232   3.257   3.890
10446SOL     OW32236   2.263   5.046   5.578
10446SOL    HW132237   2.271   4.947   5.586
10446SOL    HW232238   2.343   5.083   5.530
10447SOL     OW32239   0.964   1.839   2.715
10447SOL    HW132240   0.867   1.827   2.693
10447SOL    HW232241   0.991   1.774   2.786
10448SOL     OW32242   2.000   5.757   2.126
10448SOL    HW132243   1.939   5.678   2.131
10448SOL    HW232244   2.044   5.771   2.214
10449SOL     OW32245   4.173   5.050   4.513
10449SOL    HW132246   4.160   5.074   4.609
10449SOL    HW232247   4.129   4.963   4.494
10450SOL     OW32248   0.156   1.139   4.346
10450SOL    HW132249   0.156   1.139   4.446
10450SOL    HW232250   0.225   1.074   4.313
10451SOL     OW32251   3.175   1.702   4.667
10451SOL    HW132252   3.275   1.706   4.661
10451SOL    HW232253   3.149   1.680   4.761
10452SOL     OW32254   6.435   2.695   4.621
10452SOL    HW132255   6.522   2.665   4.660
10452SOL    HW232256   6.370   2.713   4.695
10453SOL     OW32257   4.270   5.919   4.438
10453SOL    HW132258   4.303   5.928   4.344
10453SOL    HW232259   4.171   5.908   4.437
10454SOL     OW32260   6.534   1.155   6.450
10454SOL    HW132261   6.434   1.151   6.444
10454SOL    HW232262   6.572   1.063   6.450
10455SOL     OW32263   0.353   6.179   3.118
10455SOL    HW132264   0.406   6.236   3.055
10455SOL    HW232265   0.259   6.215   3.123
10456SOL     OW32266   1.191   5.677   6.684
10456SOL    HW132267   1.115   5.640   6.631
10456SOL    HW232268   1.228   5.758   6.639
10457SOL     OW32269   3.738   1.720   6.545
10457SOL    HW132270   3.820   1.671   6.575
10457SOL    HW232271   3.764   1.813   6.517
10458SOL     OW32272   1.280   6.101   6.537
10458SOL    HW132273   1.297   6.004   6.515
10458SOL    HW232274   1.196   6.130   6.492
10459SOL     OW32275   6.135   5.501   1.341
10459SOL    HW132276   6.197   5.569   1.379
10459SOL    HW232277   6.056   5.546   1.300
10460SOL     OW32278   6.238   0.524   0.636
10460SOL    HW132279   6.226   0.622   0.653
10460SOL    HW232280   6.287   0.511   0.550
10461SOL     OW32281   6.869   4.476   6.283
10461SOL    HW132282   6.812   4.504   6.205
10461SOL    HW232283   6.876   4.377   6.285
10462SOL     OW32284   3.378   3.532   6.072
10462SOL    HW132285   3.342   3.515   5.980
10462SOL    HW232286   3.352   3.624   6.101
10463SOL     OW32287   5.074   2.554   6.776
10463SOL    HW132288   5.019   2.503   6.710
10463SOL    HW232289   5.138   2.492   6.822
10464SOL     OW32290   6.462   4.790   1.810
10464SOL    HW132291   6.408   4.843   1.876
10464SOL    HW232292   6.400   4.740   1.749
10465SOL     OW32293   5.550   4.634   1.299
10465SOL    HW132294   5.642   4.656   1.266
10465SOL    HW232295   5.515   4.710   1.354
10466SOL     OW32296   5.937   4.179   6.086
10466SOL    HW132297   5.996   4.099   6.071
10466SOL    HW232298   5.896   4.207   5.999
10467SOL     OW32299   0.236   2.505   6.711
10467SOL    HW132300   0.244   2.471   6.618
10467SOL    HW232301   0.166   2.452   6.760
10468SOL     OW32302   1.583   4.817   4.221
10468SOL    HW132303   1.659   4.781   4.276
10468SOL    HW232304   1.496   4.782   4.258
10469SOL     OW32305   1.049   1.742   3.875
10469SOL    HW132306   1.075   1.822   3.929
10469SOL    HW232307   1.109   1.666   3.898
10470SOL     OW32308   2.144   3.391   2.520
10470SOL    HW132309   2.197   3.470   2.492
10470SOL    HW232310   2.095   3.353   2.442
10471SOL     OW32311   2.197   5.850   6.634
10471SOL    HW132312   2.163   5.845   6.727
10471SOL    HW232313   2.133   5.902   6.577
10472SOL     OW32314   3.711   4.971   6.726
10472SOL    HW132315   3.767   4.916   6.664
10472SOL    HW232316   3.638   4.913   6.765
10473SOL     OW32317   6.208   4.427   0.668
10473SOL    HW132318   6.186   4.354   0.733
10473SOL    HW232319   6.133   4.437   0.603
10474SOL     OW32320   6.459   0.012   5.080
10474SOL    HW132321   6.427   0.106   5.080
10474SOL    HW232322   6.414   6.981   5.007
10475SOL     OW32323   1.027   5.189   1.366
10475SOL    HW132324   0.932   5.214   1.386
10475SOL    HW232325   1.043   5.194   1.267
10476SOL     OW32326   5.078   6.618   1.419
10476SOL    HW132327   5.090   6.609   1.518
10476SOL    HW232328   5.034   6.535   1.384
10477SOL     OW32329   0.072   5.748   3.694
10477SOL    HW132330   0.115   5.684   3.632
10477SOL    HW232331   0.094   5.842   3.666
10478SOL     OW32332   6.852   1.023   6.598
10478SOL    HW132333   6.855   0.983   6.507
10478SOL    HW232334   6.758   1.018   6.634
10479SOL     OW32335   0.635   2.763   1.844
10479SOL    HW132336   0.701   2.720   1.782
10479SOL    HW232337   0.677   2.842   1.889
10480SOL     OW32338   2.599   1.080   3.381
10480SOL    HW132339   2.562   1.141   3.451
10480SOL    HW232340   2.559   1.102   3.293
10481SOL     OW32341   6.635   1.284   0.920
10481SOL    HW132342   6.637   1.269   1.019
10481SOL    HW232343   6.596   1.204   0.875
10482SOL     OW32344   5.584   2.874   3.634
10482SOL    HW132345   5.550   2.886   3.727
10482SOL    HW232346   5.655   2.943   3.615
10483SOL     OW32347   6.394   6.147   0.275
10483SOL    HW132348   6.355   6.211   0.209
10483SOL    HW232349   6.493   6.140   0.259
10484SOL     OW32350   6.389   1.148   2.303
10484SOL    HW132351   6.381   1.094   2.387
10484SOL    HW232352   6.364   1.243   2.322
10485SOL     OW32353   5.189   3.401   5.135
10485SOL    HW132354   5.248   3.322   5.152
10485SOL    HW232355   5.241   3.475   5.093
10486SOL     OW32356   5.369   2.886   2.603
10486SOL    HW132357   5.435   2.820   2.566
10486SOL    HW232358   5.294   2.837   2.647
10487SOL     OW32359   5.160   6.944   1.783
10487SOL    HW132360   5.258   6.939   1.803
10487SOL    HW232361   5.145   6.996   1.699
10488SOL     OW32362   3.244   3.638   6.726
10488SOL    HW132363   3.297   3.666   6.646
10488SOL    HW232364   3.281   3.553   6.763
10489SOL     OW32365   1.124   5.605   4.952
10489SOL    HW132366   1.221   5.596   4.928
10489SOL    HW232367   1.116   5.648   5.043
10490SOL     OW32368   6.667   0.421   4.517
10490SOL    HW132369   6.617   0.440   4.433
10490SOL    HW232370   6.635   0.334   4.555
10491SOL     OW32371   0.247   5.205   5.371
10491SOL    HW132372   0.336   5.250   5.382
10491SOL    HW232373   0.178   5.253   5.424
10492SOL     OW32374   4.230   4.424   6.039
10492SOL    HW132375   4.308   4.362   6.026
10492SOL    HW232376   4.145   4.371   6.037
10493SOL     OW32377   3.357   1.175   0.741
10493SOL    HW132378   3.315   1.217   0.661
10493SOL    HW232379   3.327   1.222   0.824
10494SOL     OW32380   5.729   2.189   4.736
10494SOL    HW132381   5.823   2.211   4.762
10494SOL    HW232382   5.668   2.265   4.760
10495SOL     OW32383   1.736   6.767   0.556
10495SOL    HW132384   1.684   6.718   0.485
10495SOL    HW232385   1.691   6.755   0.644
10496SOL     OW32386   6.362   0.249   5.504
10496SOL    HW132387   6.405   0.168   5.465
10496SOL    HW232388   6.344   0.233   5.601
10497SOL     OW32389   0.820   2.020   6.813
10497SOL    HW132390   0.750   2.081   6.776
10497SOL    HW232391   0.843   1.950   6.746
10498SOL     OW32392   3.072   4.997   6.151
10498SOL    HW132393   3.144   4.970   6.215
10498SOL    HW232394   3.081   4.946   6.066
10499SOL     OW32395   2.724   5.136   3.162
10499SOL    HW132396   2.723   5.106   3.066
10499SOL    HW232397   2.719   5.236   3.165
10500SOL     OW32398   1.859   2.302   0.053
10500SOL    HW132399   1.834   2.397   0.067
10500SOL    HW232400   1.955   2.296   0.025
10501SOL     OW32401   1.101   2.311   3.403
10501SOL    HW132402   1.024   2.331   3.343
10501SOL    HW232403   1.186   2.321   3.353
10502SOL     OW32404   3.202   5.849   4.966
10502SOL    HW132405   3.268   5.778   4.988
10502SOL    HW232406   3.116   5.831   5.014
10503SOL     OW32407   2.710   3.697   5.299
10503SOL    HW132408   2.700   3.598   5.306
10503SOL    HW232409   2.717   3.736   5.392
10504SOL     OW32410   2.417   3.738   0.946
10504SOL    HW132411   2.354   3.788   1.005
10504SOL    HW232412   2.391   3.749   0.851
10505SOL     OW32413   0.471   0.187   1.047
10505SOL    HW132414   0.452   0.281   1.075
10505SOL    HW232415   0.525   0.187   0.963
10506SOL     OW32416   0.045   3.990   5.540
10506SOL    HW132417   6.967   3.973   5.541
10506SOL    HW232418   0.090   3.922   5.482
10507SOL     OW32419   0.903   0.468   4.357
10507SOL    HW132420   1.000   0.443   4.351
10507SOL    HW232421   0.859   0.409   4.425
10508SOL     OW32422   5.199   3.679   2.167
10508SOL    HW132423   5.207   3.662   2.265
10508SOL    HW232424   5.105   3.661   2.138
10509SOL     OW32425   1.562   0.668   5.386
10509SOL    HW132426   1.616   0.653   5.469
10509SOL    HW232427   1.574   0.763   5.356
10510SOL     OW32428   6.036   6.123   0.265
10510SOL    HW132429   6.018   6.201   0.206
10510SOL    HW232430   6.056   6.042   0.210
10511SOL     OW32431   0.048   2.094   0.721
10511SOL    HW132432   0.080   2.010   0.678
10511SOL    HW232433   6.978   2.079   0.761
10512SOL     OW32434   3.280   6.188   6.723
10512SOL    HW132435   3.202   6.221   6.670
10512SOL    HW232436   3.253   6.178   6.819
10513SOL     OW32437   6.757   2.196   0.644
10513SOL    HW132438   6.745   2.147   0.730
10513SOL    HW232439   6.702   2.280   0.645
10514SOL     OW32440   6.736   3.937   1.604
10514SOL    HW132441   6.830   3.918   1.576
10514SOL    HW232442   6.703   4.019   1.558
10515SOL     OW32443   6.078   2.536   4.461
10515SOL    HW132444   6.024   2.582   4.391
10515SOL    HW232445   6.157   2.592   4.486
10516SOL     OW32446   3.608   0.310   0.254
10516SOL    HW132447   3.509   0.303   0.240
10516SOL    HW232448   3.647   0.218   0.263
10517SOL     OW32449   6.870   2.660   2.681
10517SOL    HW132450   6.859   2.571   2.726
10517SOL    HW232451   6.967   2.683   2.676
10518SOL     OW32452   0.841   6.761   2.601
10518SOL    HW132453   0.769   6.822   2.567
10518SOL    HW232454   0.929   6.788   2.563
10519SOL     OW32455   3.225   3.556   5.265
10519SOL    HW132456   3.233   3.581   5.168
10519SOL    HW232457   3.291   3.485   5.287
10520SOL     OW32458   4.000   4.252   6.103
10520SOL    HW132459   4.000   4.178   6.170
10520SOL    HW232460   3.908   4.292   6.097
10521SOL     OW32461   6.543   5.345   2.307
10521SOL    HW132462   6.514   5.402   2.384
10521SOL    HW232463   6.630   5.379   2.271
10522SOL     OW32464   6.332   0.185   1.894
10522SOL    HW132465   6.335   0.280   1.926
10522SOL    HW232466   6.424   0.147   1.894
10523SOL     OW32467   0.211   5.765   6.741
10523SOL    HW132468   0.142   5.699   6.714
10523SOL    HW232469   0.179   5.815   6.822
10524SOL     OW32470   4.371   0.939   4.492
10524SOL    HW132471   4.272   0.938   4.505
10524SOL    HW232472   4.402   1.032   4.472
10525SOL     OW32473   2.784   6.281   4.953
10525SOL    HW132474   2.845   6.295   4.875
10525SOL    HW232475   2.834   6.235   5.026
10526SOL     OW32476   5.706   6.976   1.899
10526SOL    HW132477   5.721   6.973   1.998
10526SOL    HW232478   5.765   6.908   1.855
10527SOL     OW32479   1.598   2.873   4.496
10527SOL    HW132480   1.529   2.802   4.481
10527SOL    HW232481   1.627   2.872   4.591
10528SOL     OW32482   6.589   4.680   5.345
10528SOL    HW132483   6.568   4.726   5.432
10528SOL    HW232484   6.688   4.676   5.332
10529SOL     OW32485   6.299   6.413   4.300
10529SOL    HW132486   6.265   6.504   4.323
10529SOL    HW232487   6.397   6.408   4.321
10530SOL     OW32488   2.184   1.749   5.711
10530SOL    HW132489   2.192   1.798   5.625
10530SOL    HW232490   2.236   1.664   5.707
10531SOL     OW32491   2.172   2.214   5.995
10531SOL    HW132492   2.235   2.291   5.980
10531SOL    HW232493   2.204   2.134   5.945
10532SOL     OW32494   3.299   3.048   5.403
10532SOL    HW132495   3.274   2.987   5.328
10532SOL    HW232496   3.396   3.036   5.426
10533SOL     OW32497   2.763   0.701   5.950
10533SOL    HW132498   2.703   0.651   6.012
10533SOL    HW232499   2.857   0.696   5.984
10534SOL     OW32500   6.240   5.999   1.337
10534SOL    HW132501   6.200   5.912   1.366
10534SOL    HW232502   6.319   5.982   1.279
10535SOL     OW32503   0.878   1.407   2.556
10535SOL    HW132504   0.860   1.317   2.515
10535SOL    HW232505   0.834   1.412   2.646
10536SOL     OW32506   5.027   6.557   4.051
10536SOL    HW132507   5.001   6.654   4.058
10536SOL    HW232508   5.060   6.538   3.958
10537SOL     OW32509   0.115   5.309   1.469
10537SOL    HW132510   0.150   5.393   1.510
10537SOL    HW232511   0.152   5.299   1.376
10538SOL     OW32512   4.546   4.043   6.847
10538SOL    HW132513   4.458   4.021   6.805
10538SOL    HW232514   4.565   3.978   6.920
10539SOL     OW32515   0.961   3.543   5.827
10539SOL    HW132516   0.884   3.570   5.885
10539SOL    HW232517   0.926   3.491   5.748
10540SOL     OW32518   3.153   0.740   0.194
10540SOL    HW132519   3.194   0.716   0.106
10540SOL    HW232520   3.167   0.665   0.259
10541SOL     OW32521   4.957   2.176   0.661
10541SOL    HW132522   4.912   2.191   0.573
10541SOL    HW232523   4.901   2.114   0.716
10542SOL     OW32524   1.365   2.303   0.145
10542SOL    HW132525   1.421   2.224   0.169
10542SOL    HW232526   1.314   2.283   0.061
10543SOL     OW32527   2.671   0.883   5.513
10543SOL    HW132528   2.652   0.899   5.609
10543SOL    HW232529   2.747   0.941   5.483
10544SOL     OW32530   0.064   2.429   1.852
10544SOL    HW132531   0.147   2.454   1.902
10544SOL    HW232532   0.049   2.330   1.859
10545SOL     OW32533   5.184   0.765   3.420
10545SOL    HW132534   5.226   0.744   3.509
10545SOL    HW232535   5.088   0.790   3.433
10546SOL     OW32536   3.726   1.124   4.935
10546SOL    HW132537   3.689   1.202   4.884
10546SOL    HW232538   3.764   1.058   4.871
10547SOL     OW32539   4.126   0.755   1.022
10547SOL    HW132540   4.110   0.751   1.121
10547SOL    HW232541   4.149   0.849   0.996
10548SOL     OW32542   4.667   4.596   5.158
10548SOL    HW132543   4.648   4.498   5.171
10548SOL    HW232544   4.600   4.634   5.095
10549SOL     OW32545   1.338   1.053   1.587
10549SOL    HW132546   1.386   1.000   1.657
10549SOL    HW232547   1.395   1.061   1.505
10550SOL     OW32548   5.658   0.210   5.160
10550SOL    HW132549   5.636   0.302   5.191
10550SOL    HW232550   5.738   0.213   5.099
10551SOL     OW32551   1.648   2.835   5.844
10551SOL    HW132552   1.720   2.822   5.912
10551SOL    HW232553   1.567   2.783   5.871
10552SOL     OW32554   3.075   2.057   5.173
10552SOL    HW132555   3.135   1.977   5.168
10552SOL    HW232556   3.122   2.137   5.135
10553SOL     OW32557   3.210   4.651   6.025
10553SOL    HW132558   3.196   4.741   5.982
10553SOL    HW232559   3.168   4.580   5.969
10554SOL     OW32560   6.400   4.514   5.449
10554SOL    HW132561   6.493   4.530   5.415
10554SOL    HW232562   6.337   4.506   5.371
10555SOL     OW32563   3.508   2.373   1.474
10555SOL    HW132564   3.601   2.338   1.462
10555SOL    HW232565   3.497   2.409   1.567
10556SOL     OW32566   2.117   3.411   4.309
10556SOL    HW132567   2.141   3.322   4.348
10556SOL    HW232568   2.078   3.469   4.381
10557SOL     OW32569   5.924   1.698   3.692
10557SOL    HW132570   5.839   1.699   3.640
10557SOL    HW232571   5.990   1.638   3.647
10558SOL     OW32572   5.326   5.983   4.814
10558SOL    HW132573   5.330   6.005   4.717
10558SOL    HW232574   5.232   5.962   4.841
10559SOL     OW32575   4.695   2.253   0.902
10559SOL    HW132576   4.740   2.293   0.982
10559SOL    HW232577   4.728   2.159   0.889
10560SOL     OW32578   0.275   3.246   3.985
10560SOL    HW132579   0.198   3.252   3.921
10560SOL    HW232580   0.353   3.204   3.939
10561SOL     OW32581   2.899   4.288   6.067
10561SOL    HW132582   2.838   4.367   6.078
10561SOL    HW232583   2.874   4.240   5.982
10562SOL     OW32584   3.559   1.420   0.556
10562SOL    HW132585   3.467   1.401   0.522
10562SOL    HW232586   3.610   1.335   0.562
10563SOL     OW32587   1.461   1.932   3.867
10563SOL    HW132588   1.528   2.006   3.862
10563SOL    HW232589   1.478   1.877   3.949
10564SOL     OW32590   6.999   2.187   1.583
10564SOL    HW132591   0.012   2.097   1.555
10564SOL    HW232592   0.056   2.249   1.593
10565SOL     OW32593   5.333   1.561   5.085
10565SOL    HW132594   5.413   1.529   5.034
10565SOL    HW232595   5.289   1.635   5.034
10566SOL     OW32596   4.083   5.278   6.705
10566SOL    HW132597   4.072   5.189   6.661
10566SOL    HW232598   4.175   5.286   6.742
10567SOL     OW32599   2.136   4.800   4.008
10567SOL    HW132600   2.193   4.874   4.044
10567SOL    HW232601   2.184   4.753   3.935
10568SOL     OW32602   3.894   1.939   3.064
10568SOL    HW132603   3.830   1.986   3.002
10568SOL    HW232604   3.953   1.878   3.011
10569SOL     OW32605   5.956   3.135   3.142
10569SOL    HW132606   5.862   3.153   3.170
10569SOL    HW232607   6.018   3.158   3.217
10570SOL     OW32608   0.998   4.179   1.667
10570SOL    HW132609   0.982   4.182   1.766
10570SOL    HW232610   0.988   4.271   1.629
10571SOL     OW32611   6.265   6.597   5.203
10571SOL    HW132612   6.326   6.554   5.137
10571SOL    HW232613   6.237   6.687   5.170
10572SOL     OW32614   6.635   3.112   1.579
10572SOL    HW132615   6.624   3.203   1.617
10572SOL    HW232616   6.731   3.094   1.560
10573SOL     OW32617   6.181   4.448   6.150
10573SOL    HW132618   6.116   4.461   6.225
10573SOL    HW232619   6.238   4.368   6.169
10574SOL     OW32620   0.736   2.290   2.999
10574SOL    HW132621   0.638   2.269   3.005
10574SOL    HW232622   0.749   2.373   2.945
10575SOL     OW32623   0.599   6.634   6.103
10575SOL    HW132624   0.620   6.553   6.049
10575SOL    HW232625   0.677   6.655   6.163
10576SOL     OW32626   1.447   4.978   3.095
10576SOL    HW132627   1.538   5.020   3.095
10576SOL    HW232628   1.379   5.046   3.067
10577SOL     OW32629   0.550   3.331   5.653
10577SOL    HW132630   0.556   3.388   5.735
10577SOL    HW232631   0.521   3.239   5.678
10578SOL     OW32632   5.754   0.916   5.662
10578SOL    HW132633   5.772   1.012   5.684
10578SOL    HW232634   5.660   0.893   5.687
10579SOL     OW32635   4.980   0.310   0.702
10579SOL    HW132636   4.964   0.233   0.640
10579SOL    HW232637   5.064   0.294   0.755
10580SOL     OW32638   6.294   6.057   0.508
10580SOL    HW132639   6.381   6.014   0.532
10580SOL    HW232640   6.293   6.079   0.411
10581SOL     OW32641   4.636   1.959   3.587
10581SOL    HW132642   4.620   1.863   3.564
10581SOL    HW232643   4.626   2.015   3.505
10582SOL     OW32644   3.123   4.861   0.199
10582SOL    HW132645   3.111   4.833   0.294
10582SOL    HW232646   3.200   4.924   0.192
10583SOL     OW32647   4.321   1.111   0.846
10583SOL    HW132648   4.303   1.153   0.757
10583SOL    HW232649   4.249   1.139   0.911
10584SOL     OW32650   6.779   0.489   1.454
10584SOL    HW132651   6.797   0.543   1.372
10584SOL    HW232652   6.775   0.392   1.431
10585SOL     OW32653   1.859   4.199   6.521
10585SOL    HW132654   1.851   4.099   6.522
10585SOL    HW232655   1.940   4.225   6.467
10586SOL     OW32656   4.723   1.630   0.241
10586SOL    HW132657   4.733   1.566   0.317
10586SOL    HW232658   4.807   1.631   0.187
10587SOL     OW32659   6.019   3.476   0.700
10587SOL    HW132660   6.085   3.538   0.657
10587SOL    HW232661   6.017   3.390   0.649
10588SOL     OW32662   1.223   5.137   3.125
10588SOL    HW132663   1.261   5.162   3.213
10588SOL    HW232664   1.173   5.051   3.133
10589SOL     OW32665   6.037   1.254   4.289
10589SOL    HW132666   5.963   1.229   4.352
10589SOL    HW232667   5.997   1.284   4.202
10590SOL     OW32668   1.619   0.658   4.921
10590SOL    HW132669   1.681   0.729   4.954
10590SOL    HW232670   1.670   0.590   4.868
10591SOL     OW32671   1.325   2.113   0.548
10591SOL    HW132672   1.423   2.094   0.543
10591SOL    HW232673   1.292   2.094   0.641
10592SOL     OW32674   6.455   1.366   6.809
10592SOL    HW132675   6.361   1.399   6.811
10592SOL    HW232676   6.506   1.406   6.885
10593SOL     OW32677   1.629   4.716   1.598
10593SOL    HW132678   1.611   4.708   1.500
10593SOL    HW232679   1.621   4.811   1.626
10594SOL     OW32680   0.842   1.779   4.386
10594SOL    HW132681   0.827   1.692   4.340
10594SOL    HW232682   0.930   1.775   4.435
10595SOL     OW32683   2.323   6.210   5.139
10595SOL    HW132684   2.409   6.169   5.107
10595SOL    HW232685   2.339   6.305   5.166
10596SOL     OW32686   3.022   0.772   2.430
10596SOL    HW132687   3.110   0.736   2.460
10596SOL    HW232688   3.024   0.872   2.433
10597SOL     OW32689   1.847   0.293   3.555
10597SOL    HW132690   1.898   0.354   3.614
10597SOL    HW232691   1.755   0.329   3.541
10598SOL     OW32692   2.132   1.780   6.736
10598SOL    HW132693   2.112   1.686   6.708
10598SOL    HW232694   2.168   1.781   6.829
10599SOL     OW32695   5.239   0.658   6.676
10599SOL    HW132696   5.286   0.569   6.671
10599SOL    HW232697   5.157   0.649   6.732
10600SOL     OW32698   1.748   2.313   5.611
10600SOL    HW132699   1.742   2.252   5.690
10600SOL    HW232700   1.746   2.408   5.641
10601SOL     OW32701   3.594   5.734   5.714
10601SOL    HW132702   3.563   5.641   5.697
10601SOL    HW232703   3.685   5.732   5.756
10602SOL     OW32704   4.391   1.072   1.510
10602SOL    HW132705   4.478   1.111   1.539
10602SOL    HW232706   4.354   1.015   1.583
10603SOL     OW32707   0.636   4.877   4.453
10603SOL    HW132708   0.638   4.853   4.550
10603SOL    HW232709   0.578   4.957   4.439
10604SOL     OW32710   6.684   4.255   5.120
10604SOL    HW132711   6.665   4.224   5.027
10604SOL    HW232712   6.630   4.202   5.185
10605SOL     OW32713   2.128   5.197   6.007
10605SOL    HW132714   2.071   5.221   6.086
10605SOL    HW232715   2.071   5.197   5.925
10606SOL     OW32716   0.209   0.914   2.843
10606SOL    HW132717   0.204   0.977   2.765
10606SOL    HW232718   0.288   0.938   2.900
10607SOL     OW32719   5.700   4.879   6.885
10607SOL    HW132720   5.664   4.946   6.820
10607SOL    HW232721   5.671   4.787   6.858
10608SOL     OW32722   5.884   0.608   2.796
10608SOL    HW132723   5.968   0.568   2.832
10608SOL    HW232724   5.810   0.595   2.862
10609SOL     OW32725   3.724   6.881   1.911
10609SOL    HW132726   3.814   6.879   1.869
10609SOL    HW232727   3.678   6.967   1.888
10610SOL     OW32728   1.812   3.974   4.614
10610SOL    HW132729   1.776   4.065   4.633
10610SOL    HW232730   1.910   3.971   4.636
10611SOL     OW32731   5.012   2.302   6.332
10611SOL    HW132732   5.012   2.203   6.317
10611SOL    HW232733   5.095   2.341   6.293
10612SOL     OW32734   1.152   6.263   1.040
10612SOL    HW132735   1.248   6.237   1.029
10612SOL    HW232736   1.146   6.349   1.091
10613SOL     OW32737   0.568   6.293   6.782
10613SOL    HW132738   0.575   6.201   6.823
10613SOL    HW232739   0.544   6.285   6.686
10614SOL     OW32740   6.746   0.966   4.259
10614SOL    HW132741   6.669   0.980   4.198
10614SOL    HW232742   6.712   0.948   4.352
10615SOL     OW32743   0.190   5.810   5.385
10615SOL    HW132744   0.178   5.901   5.345
10615SOL    HW232745   0.227   5.819   5.478
10616SOL     OW32746   3.074   6.185   0.570
10616SOL    HW132747   3.139   6.256   0.545
10616SOL    HW232748   3.111   6.095   0.545
10617SOL     OW32749   6.974   2.085   6.578
10617SOL    HW132750   6.922   2.050   6.655
10617SOL    HW232751   6.983   2.014   6.508
10618SOL     OW32752   6.110   4.197   1.277
10618SOL    HW132753   6.121   4.133   1.201
10618SOL    HW232754   6.200   4.218   1.316
10619SOL     OW32755   0.300   3.964   3.545
10619SOL    HW132756   0.272   4.024   3.620
10619SOL    HW232757   0.372   4.008   3.492
10620SOL     OW32758   1.143   5.577   4.191
10620SOL    HW132759   1.091   5.564   4.107
10620SOL    HW232760   1.121   5.504   4.256
10621SOL     OW32761   2.602   6.477   0.575
10621SOL    HW132762   2.667   6.416   0.530
10621SOL    HW232763   2.626   6.486   0.672
10622SOL     OW32764   4.602   1.822   1.484
10622SOL    HW132765   4.688   1.780   1.515
10622SOL    HW232766   4.533   1.812   1.556
10623SOL     OW32767   6.950   0.828   4.058
10623SOL    HW132768   6.937   0.841   4.156
10623SOL    HW232769   6.862   0.822   4.012
10624SOL     OW32770   2.531   2.060   4.294
10624SOL    HW132771   2.489   2.051   4.384
10624SOL    HW232772   2.630   2.072   4.304
10625SOL     OW32773   0.189   3.332   0.143
10625SOL    HW132774   0.131   3.408   0.115
10625SOL    HW232775   0.132   3.256   0.174
10626SOL     OW32776   6.209   1.469   1.788
10626SOL    HW132777   6.236   1.434   1.699
10626SOL    HW232778   6.124   1.425   1.818
10627SOL     OW32779   6.359   5.548   4.595
10627SOL    HW132780   6.324   5.592   4.512
10627SOL    HW232781   6.388   5.455   4.573
10628SOL     OW32782   6.972   6.151   6.075
10628SOL    HW132783   6.947   6.129   5.980
10628SOL    HW232784   0.015   6.229   6.075
10629SOL     OW32785   2.824   5.122   6.219
10629SOL    HW132786   2.896   5.058   6.191
10629SOL    HW232787   2.737   5.073   6.229
10630SOL     OW32788   6.476   0.768   2.963
10630SOL    HW132789   6.485   0.838   3.034
10630SOL    HW232790   6.566   0.741   2.931
10631SOL     OW32791   0.873   6.821   5.055
10631SOL    HW132792   0.967   6.832   5.087
10631SOL    HW232793   0.829   6.746   5.105
10632SOL     OW32794   0.517   3.073   5.305
10632SOL    HW132795   0.437   3.125   5.337
10632SOL    HW232796   0.582   3.063   5.380
10633SOL     OW32797   1.105   4.895   0.589
10633SOL    HW132798   1.056   4.912   0.675
10633SOL    HW232799   1.039   4.874   0.517
10634SOL     OW32800   4.093   6.543   1.494
10634SOL    HW132801   4.024   6.470   1.500
10634SOL    HW232802   4.120   6.555   1.399
10635SOL     OW32803   1.543   0.833   1.401
10635SOL    HW132804   1.612   0.904   1.409
10635SOL    HW232805   1.576   0.749   1.444
10636SOL     OW32806   6.245   1.275   0.798
10636SOL    HW132807   6.332   1.227   0.809
10636SOL    HW232808   6.257   1.372   0.820
10637SOL     OW32809   4.050   4.715   5.753
10637SOL    HW132810   4.077   4.775   5.678
10637SOL    HW232811   4.075   4.620   5.731
10638SOL     OW32812   6.752   0.580   5.959
10638SOL    HW132813   6.730   0.485   5.979
10638SOL    HW232814   6.783   0.587   5.864
10639SOL     OW32815   3.163   1.535   5.482
10639SOL    HW132816   3.123   1.565   5.569
10639SOL    HW232817   3.253   1.495   5.498
10640SOL     OW32818   4.182   6.400   1.028
10640SOL    HW132819   4.086   6.406   1.055
10640SOL    HW232820   4.187   6.381   0.930
10641SOL     OW32821   4.303   0.682   6.812
10641SOL    HW132822   4.289   0.777   6.840
10641SOL    HW232823   4.246   0.662   6.733
10642SOL     OW32824   0.034   4.118   0.649
10642SOL    HW132825   0.037   4.027   0.608
10642SOL    HW232826   6.975   4.125   0.709
10643SOL     OW32827   4.201   3.210   5.278
10643SOL    HW132828   4.207   3.294   5.332
10643SOL    HW232829   4.213   3.131   5.338
10644SOL     OW32830   3.407   1.535   4.930
10644SOL    HW132831   3.456   1.503   5.011
10644SOL    HW232832   3.471   1.586   4.871
10645SOL     OW32833   2.256   6.806   5.358
10645SOL    HW132834   2.192   6.852   5.419
10645SOL    HW232835   2.207   6.767   5.280
10646SOL     OW32836   0.947   4.349   6.687
10646SOL    HW132837   0.874   4.283   6.668
10646SOL    HW232838   0.914   4.441   6.668
10647SOL     OW32839   0.722   5.315   0.799
10647SOL    HW132840   0.797   5.332   0.736
10647SOL    HW232841   0.635   5.325   0.751
10648SOL     OW32842   4.452   5.022   6.173
10648SOL    HW132843   4.481   5.116   6.190
10648SOL    HW232844   4.512   4.980   6.104
10649SOL     OW32845   0.213   4.625   5.772
10649SOL    HW132846   0.266   4.562   5.829
10649SOL    HW232847   0.123   4.640   5.814
10650SOL     OW32848   2.966   1.022   4.555
10650SOL    HW132849   3.053   0.991   4.516
10650SOL    HW232850   2.923   0.947   4.606
10651SOL     OW32851   2.868   0.150   5.328
10651SOL    HW132852   2.917   0.063   5.325
10651SOL    HW232853   2.820   0.158   5.415
10652SOL     OW32854   4.041   1.032   0.480
10652SOL    HW132855   4.062   1.123   0.443
10652SOL    HW232856   3.942   1.016   0.472
10653SOL     OW32857   5.955   2.565   4.002
10653SOL    HW132858   6.049   2.531   3.993
10653SOL    HW232859   5.947   2.653   3.956
10654SOL     OW32860   4.392   1.031   1.243
10654SOL    HW132861   4.374   1.052   1.339
10654SOL    HW232862   4.402   0.932   1.232
10655SOL     OW32863   3.048   5.549   1.366
10655SOL    HW132864   3.033   5.517   1.460
10655SOL    HW232865   3.120   5.618   1.366
10656SOL     OW32866   6.541   2.928   6.212
10656SOL    HW132867   6.609   3.000   6.228
10656SOL    HW232868   6.489   2.949   6.129
10657SOL     OW32869   6.152   0.106   1.485
10657SOL    HW132870   6.237   0.158   1.489
10657SOL    HW232871   6.146   0.045   1.563
10658SOL     OW32872   0.506   6.680   4.929
10658SOL    HW132873   0.594   6.637   4.912
10658SOL    HW232874   0.517   6.751   4.999
10659SOL     OW32875   5.153   0.947   0.583
10659SOL    HW132876   5.242   0.975   0.547
10659SOL    HW232877   5.164   0.867   0.642
10660SOL     OW32878   5.413   5.166   5.743
10660SOL    HW132879   5.332   5.223   5.734
10660SOL    HW232880   5.397   5.078   5.698
10661SOL     OW32881   0.881   0.368   2.091
10661SOL    HW132882   0.963   0.313   2.074
10661SOL    HW232883   0.889   0.456   2.046
10662SOL     OW32884   5.709   1.649   0.758
10662SOL    HW132885   5.680   1.726   0.815
10662SOL    HW232886   5.735   1.682   0.668
10663SOL     OW32887   0.668   0.924   0.437
10663SOL    HW132888   0.765   0.944   0.421
10663SOL    HW232889   0.614   1.008   0.429
10664SOL     OW32890   1.873   5.099   6.291
10664SOL    HW132891   1.919   5.184   6.265
10664SOL    HW232892   1.827   5.061   6.211
10665SOL     OW32893   5.687   1.203   6.714
10665SOL    HW132894   5.680   1.208   6.814
10665SOL    HW232895   5.753   1.133   6.689
10666SOL     OW32896   0.722   0.161   0.297
10666SOL    HW132897   0.721   0.233   0.366
10666SOL    HW232898   0.814   0.152   0.259
10667SOL     OW32899   3.309   2.177   5.616
10667SOL    HW132900   3.211   2.184   5.635
10667SOL    HW232901   3.352   2.122   5.687
10668SOL     OW32902   2.237   0.749   6.449
10668SOL    HW132903   2.259   0.805   6.368
10668SOL    HW232904   2.234   0.653   6.423
10669SOL     OW32905   1.253   6.494   6.982
10669SOL    HW132906   1.196   6.545   0.026
10669SOL    HW232907   1.293   6.414   0.007
10670SOL     OW32908   6.879   4.804   4.950
10670SOL    HW132909   6.905   4.850   4.865
10670SOL    HW232910   6.958   4.796   5.010
10671SOL     OW32911   1.846   2.101   3.698
10671SOL    HW132912   1.797   2.175   3.652
10671SOL    HW232913   1.807   2.087   3.789
10672SOL     OW32914   0.174   2.422   1.253
10672SOL    HW132915   0.197   2.436   1.156
10672SOL    HW232916   0.246   2.370   1.298
10673SOL     OW32917   3.563   3.584   4.834
10673SOL    HW132918   3.544   3.557   4.739
10673SOL    HW232919   3.538   3.509   4.895
10674SOL     OW32920   3.816   1.508   2.720
10674SOL    HW132921   3.906   1.551   2.722
10674SOL    HW232922   3.766   1.539   2.639
10675SOL     OW32923   0.501   0.933   6.367
10675SOL    HW132924   0.510   1.007   6.300
10675SOL    HW232925   0.585   0.926   6.421
10676SOL     OW32926   6.419   6.980   0.176
10676SOL    HW132927   6.375   6.988   0.087
10676SOL    HW232928   6.518   6.995   0.165
10677SOL     OW32929   6.291   1.256   0.527
10677SOL    HW132930   6.260   1.284   0.618
10677SOL    HW232931   6.390   1.243   0.527
10678SOL     OW32932   1.719   5.230   3.525
10678SOL    HW132933   1.679   5.312   3.483
10678SOL    HW232934   1.703   5.151   3.465
10679SOL     OW32935   5.296   5.193   3.395
10679SOL    HW132936   5.294   5.106   3.345
10679SOL    HW232937   5.367   5.190   3.466
10680SOL     OW32938   1.158   2.684   3.747
10680SOL    HW132939   1.252   2.716   3.730
10680SOL    HW232940   1.108   2.683   3.661
10681SOL     OW32941   0.385   2.179   6.308
10681SOL    HW132942   0.309   2.154   6.248
10681SOL    HW232943   0.365   2.149   6.402
10682SOL     OW32944   6.230   2.079   2.456
10682SOL    HW132945   6.276   2.162   2.487
10682SOL    HW232946   6.293   2.001   2.463
10683SOL     OW32947   1.620   0.480   4.007
10683SOL    HW132948   1.679   0.552   3.972
10683SOL    HW232949   1.636   0.468   4.105
10684SOL     OW32950   5.706   6.049   0.947
10684SOL    HW132951   5.651   6.026   0.867
10684SOL    HW232952   5.802   6.024   0.930
10685SOL     OW32953   6.251   2.915   2.148
10685SOL    HW132954   6.302   2.845   2.098
10685SOL    HW232955   6.313   2.967   2.206
10686SOL     OW32956   4.642   4.476   0.654
10686SOL    HW132957   4.616   4.543   0.584
10686SOL    HW232958   4.597   4.389   0.635
10687SOL     OW32959   6.669   5.561   1.048
10687SOL    HW132960   6.672   5.473   1.001
10687SOL    HW232961   6.590   5.563   1.108
10688SOL     OW32962   0.068   5.645   0.993
10688SOL    HW132963   0.068   5.704   0.912
10688SOL    HW232964   0.142   5.577   0.984
10689SOL     OW32965   0.857   0.498   1.318
10689SOL    HW132966   0.786   0.521   1.251
10689SOL    HW232967   0.927   0.441   1.274
10690SOL     OW32968   4.990   6.329   2.850
10690SOL    HW132969   5.063   6.386   2.813
10690SOL    HW232970   5.018   6.232   2.846
10691SOL     OW32971   6.253   1.765   1.450
10691SOL    HW132972   6.250   1.751   1.351
10691SOL    HW232973   6.197   1.697   1.496
10692SOL     OW32974   5.734   6.539   4.255
10692SOL    HW132975   5.812   6.492   4.213
10692SOL    HW232976   5.702   6.485   4.333
10693SOL     OW32977   5.029   2.796   3.534
10693SOL    HW132978   5.018   2.729   3.607
10693SOL    HW232979   5.117   2.842   3.544
10694SOL     OW32980   3.059   6.556   0.681
10694SOL    HW132981   3.053   6.469   0.731
10694SOL    HW232982   3.030   6.631   0.741
10695SOL     OW32983   5.590   2.834   5.176
10695SOL    HW132984   5.600   2.735   5.192
10695SOL    HW232985   5.662   2.882   5.226
10696SOL     OW32986   6.674   6.723   1.875
10696SOL    HW132987   6.612   6.655   1.912
10696SOL    HW232988   6.622   6.803   1.845
10697SOL     OW32989   2.330   6.586   3.261
10697SOL    HW132990   2.292   6.675   3.286
10697SOL    HW232991   2.302   6.563   3.168
10698SOL     OW32992   2.737   0.495   3.766
10698SOL    HW132993   2.755   0.576   3.821
10698SOL    HW232994   2.667   0.516   3.697
10699SOL     OW32995   2.362   2.535   3.421
10699SOL    HW132996   2.428   2.544   3.496
10699SOL    HW232997   2.349   2.623   3.377
10700SOL     OW32998   0.336   1.179   2.374
10700SOL    HW132999   0.392   1.165   2.293
10700SOL    HW233000   0.366   1.261   2.422
10701SOL     OW33001   3.268   0.015   1.116
10701SOL    HW133002   3.308   0.106   1.110
10701SOL    HW233003   3.173   0.019   1.084
10702SOL     OW33004   5.044   2.486   0.804
10702SOL    HW133005   5.015   2.543   0.881
10702SOL    HW233006   5.049   2.391   0.833
10703SOL     OW33007   4.057   3.159   3.807
10703SOL    HW133008   4.068   3.175   3.709
10703SOL    HW233009   4.092   3.238   3.858
10704SOL     OW33010   5.755   6.265   2.052
10704SOL    HW133011   5.712   6.179   2.081
10704SOL    HW233012   5.835   6.245   1.997
10705SOL     OW33013   1.600   3.459   6.069
10705SOL    HW133014   1.607   3.449   5.970
10705SOL    HW233015   1.558   3.377   6.107
10706SOL     OW33016   3.691   2.558   1.151
10706SOL    HW133017   3.600   2.561   1.192
10706SOL    HW233018   3.709   2.465   1.119
10707SOL     OW33019   6.289   6.740   6.200
10707SOL    HW133020   6.308   6.835   6.225
10707SOL    HW233021   6.245   6.737   6.111
10708SOL     OW33022   4.884   1.525   1.203
10708SOL    HW133023   4.797   1.572   1.190
10708SOL    HW233024   4.890   1.489   1.296
10709SOL     OW33025   0.760   0.118   6.076
10709SOL    HW133026   0.755   0.216   6.096
10709SOL    HW233027   0.668   0.079   6.077
10710SOL     OW33028   6.769   6.159   4.029
10710SOL    HW133029   6.822   6.140   3.946
10710SOL    HW233030   6.823   6.133   4.109
10711SOL     OW33031   2.418   5.634   5.509
10711SOL    HW133032   2.342   5.569   5.520
10711SOL    HW233033   2.384   5.717   5.464
10712SOL     OW33034   3.874   1.369   6.298
10712SOL    HW133035   3.870   1.455   6.248
10712SOL    HW233036   3.883   1.293   6.233
10713SOL     OW33037   2.121   6.192   0.747
10713SOL    HW133038   2.086   6.116   0.802
10713SOL    HW233039   2.058   6.212   0.673
10714SOL     OW33040   6.461   5.646   5.148
10714SOL    HW133041   6.559   5.653   5.135
10714SOL    HW233042   6.437   5.672   5.241
10715SOL     OW33043   5.854   1.216   3.362
10715SOL    HW133044   5.934   1.263   3.399
10715SOL    HW233045   5.826   1.144   3.425
10716SOL     OW33046   0.067   0.931   2.413
10716SOL    HW133047   0.114   0.843   2.401
10716SOL    HW233048   0.088   0.968   2.503
10717SOL     OW33049   6.948   6.678   1.927
10717SOL    HW133050   6.954   6.595   1.983
10717SOL    HW233051   6.852   6.706   1.920
10718SOL     OW33052   0.795   4.069   5.583
10718SOL    HW133053   0.799   4.078   5.484
10718SOL    HW233054   0.781   3.972   5.607
10719SOL     OW33055   3.630   6.515   2.139
10719SOL    HW133056   3.578   6.433   2.163
10719SOL    HW233057   3.714   6.488   2.091
10720SOL     OW33058   0.246   3.427   6.526
10720SOL    HW133059   0.259   3.336   6.564
10720SOL    HW233060   0.282   3.495   6.589
10721SOL     OW33061   5.353   2.209   4.881
10721SOL    HW133062   5.434   2.267   4.871
10721SOL    HW233063   5.283   2.239   4.816
10722SOL     OW33064   6.864   4.560   0.099
10722SOL    HW133065   6.892   4.480   0.046
10722SOL    HW233066   6.900   4.554   0.191
10723SOL     OW33067   6.334   4.365   7.003
10723SOL    HW133068   6.234   4.364   7.009
10723SOL    HW233069   6.362   4.335   6.912
10724SOL     OW33070   3.099   0.279   5.704
10724SOL    HW133071   3.099   0.374   5.674
10724SOL    HW233072   3.172   0.265   5.771
10725SOL     OW33073   6.872   0.406   5.290
10725SOL    HW133074   6.906   0.481   5.234
10725SOL    HW233075   6.897   0.318   5.248
10726SOL     OW33076   6.508   0.891   3.709
10726SOL    HW133077   6.604   0.915   3.715
10726SOL    HW233078   6.486   0.865   3.614
10727SOL     OW33079   3.919   6.785   6.404
10727SOL    HW133080   3.943   6.881   6.388
10727SOL    HW233081   3.987   6.744   6.465
10728SOL     OW33082   5.916   5.556   3.937
10728SOL    HW133083   5.911   5.656   3.932
10728SOL    HW233084   5.915   5.527   4.032
10729SOL     OW33085   5.811   3.341   3.656
10729SOL    HW133086   5.726   3.294   3.631
10729SOL    HW233087   5.887   3.276   3.651
10730SOL     OW33088   1.304   5.947   3.935
10730SOL    HW133089   1.292   6.043   3.911
10730SOL    HW233090   1.220   5.897   3.914
10731SOL     OW33091   5.061   5.508   6.601
10731SOL    HW133092   5.021   5.461   6.523
10731SOL    HW233093   4.994   5.511   6.676
10732SOL     OW33094   6.704   5.978   2.470
10732SOL    HW133095   6.781   5.947   2.414
10732SOL    HW233096   6.634   5.907   2.473
10733SOL     OW33097   0.650   1.636   6.006
10733SOL    HW133098   0.630   1.555   6.060
10733SOL    HW233099   0.730   1.682   6.045
10734SOL     OW33100   0.993   0.592   4.724
10734SOL    HW133101   0.913   0.541   4.756
10734SOL    HW233102   1.071   0.530   4.716
10735SOL     OW33103   0.307   0.513   2.125
10735SOL    HW133104   0.391   0.481   2.171
10735SOL    HW233105   0.228   0.474   2.172
10736SOL     OW33106   6.085   5.734   3.623
10736SOL    HW133107   6.090   5.733   3.523
10736SOL    HW233108   5.989   5.735   3.652
10737SOL     OW33109   6.521   0.656   1.776
10737SOL    HW133110   6.589   0.699   1.836
10737SOL    HW233111   6.516   0.706   1.690
10738SOL     OW33112   2.568   6.705   1.588
10738SOL    HW133113   2.586   6.634   1.521
10738SOL    HW233114   2.584   6.669   1.680
10739SOL     OW33115   4.877   3.113   4.247
10739SOL    HW133116   4.804   3.135   4.182
10739SOL    HW233117   4.886   3.187   4.313
10740SOL     OW33118   2.988   0.086   5.999
10740SOL    HW133119   3.064   0.098   6.063
10740SOL    HW233120   2.983   0.166   5.939
10741SOL     OW33121   1.387   2.792   3.652
10741SOL    HW133122   1.342   2.863   3.598
10741SOL    HW233123   1.447   2.834   3.720
10742SOL     OW33124   6.585   0.096   1.969
10742SOL    HW133125   6.608   0.052   1.882
10742SOL    HW233126   6.634   0.183   1.976
10743SOL     OW33127   3.677   2.008   6.081
10743SOL    HW133128   3.600   1.946   6.071
10743SOL    HW233129   3.644   2.103   6.080
10744SOL     OW33130   2.546   2.110   1.332
10744SOL    HW133131   2.627   2.152   1.373
10744SOL    HW233132   2.470   2.175   1.333
10745SOL     OW33133   3.002   4.860   1.458
10745SOL    HW133134   2.942   4.864   1.538
10745SOL    HW233135   2.948   4.879   1.375
10746SOL     OW33136   2.476   5.413   6.345
10746SOL    HW133137   2.464   5.507   6.313
10746SOL    HW233138   2.528   5.414   6.430
10747SOL     OW33139   0.152   1.274   4.603
10747SOL    HW133140   0.192   1.263   4.694
10747SOL    HW233141   0.187   1.357   4.561
10748SOL     OW33142   2.768   6.360   2.433
10748SOL    HW133143   2.733   6.290   2.496
10748SOL    HW233144   2.863   6.379   2.454
10749SOL     OW33145   6.061   4.259   2.124
10749SOL    HW133146   6.087   4.286   2.031
10749SOL    HW233147   6.062   4.159   2.131
10750SOL     OW33148   3.838   2.157   4.526
10750SOL    HW133149   3.829   2.139   4.624
10750SOL    HW233150   3.748   2.164   4.485
10751SOL     OW33151   6.491   6.399   4.521
10751SOL    HW133152   6.534   6.327   4.466
10751SOL    HW233153   6.448   6.359   4.602
10752SOL     OW33154   6.675   6.319   0.218
10752SOL    HW133155   6.662   6.378   0.138
10752SOL    HW233156   6.687   6.375   0.299
10753SOL     OW33157   5.356   6.898   5.241
10753SOL    HW133158   5.443   6.888   5.191
10753SOL    HW233159   5.351   6.989   5.282
10754SOL     OW33160   1.048   5.487   1.898
10754SOL    HW133161   1.054   5.388   1.900
10754SOL    HW233162   1.139   5.527   1.906
10755SOL     OW33163   0.802   2.208   1.501
10755SOL    HW133164   0.891   2.254   1.498
10755SOL    HW233165   0.812   2.120   1.547
10756SOL     OW33166   1.158   0.448   6.989
10756SOL    HW133167   1.143   0.357   6.950
10756SOL    HW233168   1.074   0.481   0.012
10757SOL     OW33169   0.294   2.956   2.382
10757SOL    HW133170   0.307   2.898   2.463
10757SOL    HW233171   0.219   2.920   2.327
10758SOL     OW33172   1.089   0.685   0.228
10758SOL    HW133173   1.169   0.702   0.171
10758SOL    HW233174   1.103   0.602   0.281
10759SOL     OW33175   3.270   2.930   4.877
10759SOL    HW133176   3.370   2.927   4.872
10759SOL    HW233177   3.231   2.866   4.811
10760SOL     OW33178   0.590   4.903   0.216
10760SOL    HW133179   0.501   4.891   0.261
10760SOL    HW233180   0.621   4.997   0.228
10761SOL     OW33181   1.317   1.764   5.995
10761SOL    HW133182   1.367   1.826   6.055
10761SOL    HW233183   1.316   1.800   5.902
10762SOL     OW33184   2.003   5.785   0.134
10762SOL    HW133185   1.996   5.884   0.134
10762SOL    HW233186   1.941   5.747   0.202
10763SOL     OW33187   4.711   0.720   3.365
10763SOL    HW133188   4.621   0.763   3.370
10763SOL    HW233189   4.705   0.628   3.403
10764SOL     OW33190   4.890   6.008   4.514
10764SOL    HW133191   4.869   5.964   4.601
10764SOL    HW233192   4.835   5.968   4.441
10765SOL     OW33193   1.061   2.202   0.984
10765SOL    HW133194   0.984   2.138   0.982
10765SOL    HW233195   1.027   2.296   0.989
10766SOL     OW33196   2.876   5.292   6.600
10766SOL    HW133197   2.903   5.320   6.508
10766SOL    HW233198   2.957   5.289   6.658
10767SOL     OW33199   1.639   4.659   0.004
10767SOL    HW133200   1.650   4.743   6.971
10767SOL    HW233201   1.619   4.583   6.963
10768SOL     OW33202   5.250   6.289   6.951
10768SOL    HW133203   5.321   6.360   6.952
10768SOL    HW233204   5.175   6.316   7.011
10769SOL     OW33205   3.243   3.013   4.573
10769SOL    HW133206   3.183   2.991   4.496
10769SOL    HW233207   3.197   3.077   4.634
10770SOL     OW33208   5.410   0.282   3.002
10770SOL    HW133209   5.436   0.192   3.036
10770SOL    HW233210   5.315   0.301   3.026
10771SOL     OW33211   4.781   5.958   5.876
10771SOL    HW133212   4.687   5.987   5.893
10771SOL    HW233213   4.797   5.955   5.777
10772SOL     OW33214   5.489   4.671   2.476
10772SOL    HW133215   5.567   4.728   2.504
10772SOL    HW233216   5.424   4.728   2.426
10773SOL     OW33217   0.710   3.466   0.344
10773SOL    HW133218   0.799   3.453   0.301
10773SOL    HW233219   0.716   3.442   0.441
10774SOL     OW33220   0.726   3.333   0.658
10774SOL    HW133221   0.789   3.284   0.598
10774SOL    HW233222   0.711   3.280   0.742
10775SOL     OW33223   2.071   3.675   0.103
10775SOL    HW133224   2.063   3.601   0.037
10775SOL    HW233225   1.981   3.713   0.123
10776SOL     OW33226   1.154   3.170   3.462
10776SOL    HW133227   1.206   3.148   3.379
10776SOL    HW233228   1.191   3.118   3.539
10777SOL     OW33229   1.603   0.018   1.098
10777SOL    HW133230   1.606   6.953   1.152
10777SOL    HW233231   1.695   0.054   1.087
10778SOL     OW33232   4.537   0.173   3.222
10778SOL    HW133233   4.529   0.167   3.123
10778SOL    HW233234   4.459   0.128   3.265
10779SOL     OW33235   5.814   2.889   6.065
10779SOL    HW133236   5.729   2.910   6.017
10779SOL    HW233237   5.853   2.974   6.103
10780SOL     OW33238   1.697   5.075   4.699
10780SOL    HW133239   1.732   5.071   4.606
10780SOL    HW233240   1.604   5.039   4.701
10781SOL     OW33241   5.443   1.875   5.466
10781SOL    HW133242   5.534   1.896   5.502
10781SOL    HW233243   5.447   1.791   5.412
10782SOL     OW33244   1.342   2.785   5.403
10782SOL    HW133245   1.279   2.765   5.478
10782SOL    HW233246   1.322   2.725   5.326
10783SOL     OW33247   1.659   3.465   3.278
10783SOL    HW133248   1.721   3.417   3.216
10783SOL    HW233249   1.564   3.444   3.254
10784SOL     OW33250   4.502   5.625   3.792
10784SOL    HW133251   4.591   5.606   3.750
10784SOL    HW233252   4.458   5.538   3.816
10785SOL     OW33253   2.076   5.259   1.795
10785SOL    HW133254   2.140   5.282   1.868
10785SOL    HW233255   2.124   5.209   1.723
10786SOL     OW33256   4.498   1.762   2.281
10786SOL    HW133257   4.560   1.720   2.215
10786SOL    HW233258   4.432   1.819   2.233
10787SOL     OW33259   3.801   2.000   3.737
10787SOL    HW133260   3.821   1.907   3.766
10787SOL    HW233261   3.886   2.047   3.714
10788SOL     OW33262   2.278   3.155   0.116
10788SOL    HW133263   2.359   3.185   0.065
10788SOL    HW233264   2.199   3.151   0.054
10789SOL     OW33265   6.753   1.205   2.113
10789SOL    HW133266   6.847   1.192   2.144
10789SOL    HW233267   6.748   1.285   2.053
10790SOL     OW33268   7.011   2.234   5.503
10790SOL    HW133269   6.952   2.178   5.446
10790SOL    HW233270   6.978   2.329   5.503
10791SOL     OW33271   1.554   2.575   3.528
10791SOL    HW133272   1.499   2.639   3.582
10791SOL    HW233273   1.622   2.626   3.476
10792SOL     OW33274   3.668   1.560   2.500
10792SOL    HW133275   3.694   1.639   2.443
10792SOL    HW233276   3.593   1.511   2.455
10793SOL     OW33277   3.524   2.000   4.713
10793SOL    HW133278   3.446   2.036   4.764
10793SOL    HW233279   3.500   1.910   4.675
10794SOL     OW33280   5.009   2.246   6.883
10794SOL    HW133281   5.032   2.337   6.919
10794SOL    HW233282   5.077   2.219   6.815
10795SOL     OW33283   6.673   3.717   3.092
10795SOL    HW133284   6.684   3.748   2.998
10795SOL    HW233285   6.753   3.663   3.119
10796SOL     OW33286   0.165   1.558   6.087
10796SOL    HW133287   0.241   1.504   6.050
10796SOL    HW233288   0.086   1.499   6.100
10797SOL     OW33289   4.830   4.335   6.995
10797SOL    HW133290   4.906   4.322   0.039
10797SOL    HW233291   4.813   4.433   6.984
10798SOL     OW33292   2.135   6.121   0.318
10798SOL    HW133293   2.156   6.218   0.329
10798SOL    HW233294   2.046   6.111   0.272
10799SOL     OW33295   3.493   0.380   2.445
10799SOL    HW133296   3.488   0.424   2.355
10799SOL    HW233297   3.496   0.280   2.433
10800SOL     OW33298   1.855   6.800   5.671
10800SOL    HW133299   1.820   6.854   5.595
10800SOL    HW233300   1.805   6.824   5.754
10801SOL     OW33301   2.676   6.250   6.683
10801SOL    HW133302   2.652   6.246   6.780
10801SOL    HW233303   2.719   6.164   6.656
10802SOL     OW33304   0.580   4.643   4.327
10802SOL    HW133305   0.666   4.599   4.303
10802SOL    HW233306   0.598   4.738   4.352
10803SOL     OW33307   6.829   4.461   4.217
10803SOL    HW133308   6.780   4.404   4.151
10803SOL    HW233309   6.906   4.507   4.171
10804SOL     OW33310   4.709   4.431   1.232
10804SOL    HW133311   4.698   4.402   1.137
10804SOL    HW233312   4.767   4.512   1.236
10805SOL     OW33313   3.986   5.984   0.815
10805SOL    HW133314   4.069   6.009   0.864
10805SOL    HW233315   3.961   5.889   0.837
10806SOL     OW33316   5.625   3.797   6.300
10806SOL    HW133317   5.641   3.785   6.398
10806SOL    HW233318   5.704   3.763   6.249
10807SOL     OW33319   4.545   2.189   4.430
10807SOL    HW133320   4.498   2.119   4.483
10807SOL    HW233321   4.479   2.238   4.373
10808SOL     OW33322   0.758   1.771   0.082
10808SOL    HW133323   0.777   1.822   0.165
10808SOL    HW233324   0.685   1.815   0.031
10809SOL     OW33325   2.387   1.112   2.302
10809SOL    HW133326   2.331   1.057   2.364
10809SOL    HW233327   2.398   1.203   2.341
10810SOL     OW33328   1.985   1.142   6.581
10810SOL    HW133329   2.061   1.104   6.529
10810SOL    HW233330   1.899   1.122   6.534
10811SOL     OW33331   4.320   5.237   6.488
10811SOL    HW133332   4.363   5.146   6.492
10811SOL    HW233333   4.312   5.275   6.580
10812SOL     OW33334   6.470   2.636   2.249
10812SOL    HW133335   6.538   2.564   2.238
10812SOL    HW233336   6.383   2.595   2.280
10813SOL     OW33337   3.521   5.855   2.466
10813SOL    HW133338   3.555   5.828   2.376
10813SOL    HW233339   3.546   5.786   2.534
10814SOL     OW33340   1.972   6.096   4.354
10814SOL    HW133341   1.887   6.114   4.404
10814SOL    HW233342   2.026   6.179   4.348
10815SOL     OW33343   4.727   1.607   4.627
10815SOL    HW133344   4.786   1.569   4.555
10815SOL    HW233345   4.784   1.646   4.699
10816SOL     OW33346   2.371   2.319   1.367
10816SOL    HW133347   2.366   2.402   1.311
10816SOL    HW233348   2.330   2.336   1.456
10817SOL     OW33349   3.959   1.165   1.790
10817SOL    HW133350   3.954   1.066   1.773
10817SOL    HW233351   4.052   1.190   1.813
10818SOL     OW33352   4.286   3.180   6.776
10818SOL    HW133353   4.268   3.170   6.874
10818SOL    HW233354   4.384   3.180   6.759
10819SOL     OW33355   1.111   3.797   5.491
10819SOL    HW133356   1.066   3.722   5.443
10819SOL    HW233357   1.143   3.765   5.580
10820SOL     OW33358   0.573   6.745   4.679
10820SOL    HW133359   0.673   6.753   4.681
10820SOL    HW233360   0.540   6.726   4.772
10821SOL     OW33361   0.503   0.495   0.044
10821SOL    HW133362   0.470   0.534   0.130
10821SOL    HW233363   0.430   0.440   0.002
10822SOL     OW33364   0.580   4.375   6.747
10822SOL    HW133365   0.516   4.336   6.814
10822SOL    HW233366   0.547   4.465   6.718
10823SOL     OW33367   2.024   2.564   1.344
10823SOL    HW133368   2.055   2.569   1.439
10823SOL    HW233369   1.935   2.609   1.336
10824SOL     OW33370   5.143   0.995   3.635
10824SOL    HW133371   5.151   1.085   3.592
10824SOL    HW233372   5.068   0.945   3.592
10825SOL     OW33373   3.153   1.131   2.760
10825SOL    HW133374   3.236   1.174   2.795
10825SOL    HW233375   3.091   1.111   2.836
10826SOL     OW33376   6.963   3.066   1.308
10826SOL    HW133377   6.920   3.140   1.359
10826SOL    HW233378   0.009   3.019   1.367
10827SOL     OW33379   0.442   2.907   4.027
10827SOL    HW133380   0.445   2.841   3.951
10827SOL    HW233381   0.442   3.000   3.990
10828SOL     OW33382   2.562   5.388   0.422
10828SOL    HW133383   2.493   5.371   0.352
10828SOL    HW233384   2.596   5.302   0.458
10829SOL     OW33385   2.144   3.904   1.597
10829SOL    HW133386   2.150   3.852   1.682
10829SOL    HW233387   2.148   4.002   1.618
10830SOL     OW33388   5.792   0.999   3.745
10830SOL    HW133389   5.786   1.055   3.662
10830SOL    HW233390   5.752   0.910   3.727
10831SOL     OW33391   5.664   3.061   2.208
10831SOL    HW133392   5.678   3.120   2.128
10831SOL    HW233393   5.567   3.063   2.233
10832SOL     OW33394   0.778   3.881   2.814
10832SOL    HW133395   0.873   3.853   2.829
10832SOL    HW233396   0.777   3.969   2.767
10833SOL     OW33397   3.114   6.709   3.987
10833SOL    HW133398   3.103   6.800   4.025
10833SOL    HW233399   3.030   6.681   3.941
10834SOL     OW33400   6.829   1.221   5.723
10834SOL    HW133401   6.856   1.314   5.747
10834SOL    HW233402   6.861   1.158   5.794
10835SOL     OW33403   0.636   2.231   1.024
10835SOL    HW133404   0.625   2.154   1.087
10835SOL    HW233405   0.727   2.229   0.984
10836SOL     OW33406   1.110   2.826   0.990
10836SOL    HW133407   1.195   2.877   0.985
10836SOL    HW233408   1.098   2.772   0.907
10837SOL     OW33409   1.232   5.765   1.458
10837SOL    HW133410   1.133   5.753   1.460
10837SOL    HW233411   1.271   5.709   1.385
10838SOL     OW33412   6.505   6.287   0.565
10838SOL    HW133413   6.547   6.196   0.556
10838SOL    HW233414   6.415   6.278   0.607
10839SOL     OW33415   1.470   1.591   6.949
10839SOL    HW133416   1.376   1.573   6.975
10839SOL    HW233417   1.474   1.676   6.897
10840SOL     OW33418   2.617   0.028   2.730
10840SOL    HW133419   2.642   0.125   2.740
10840SOL    HW233420   2.695   6.997   2.693
10841SOL     OW33421   4.537   3.260   0.418
10841SOL    HW133422   4.620   3.211   0.444
10841SOL    HW233423   4.555   3.359   0.418
10842SOL     OW33424   6.126   2.805   1.469
10842SOL    HW133425   6.112   2.894   1.513
10842SOL    HW233426   6.204   2.759   1.512
10843SOL     OW33427   0.498   1.515   1.451
10843SOL    HW133428   0.457   1.511   1.542
10843SOL    HW233429   0.597   1.504   1.459
10844SOL     OW33430   4.396   0.466   3.283
10844SOL    HW133431   4.419   0.499   3.375
10844SOL    HW233432   4.466   0.403   3.251
10845SOL     OW33433   2.137   3.149   0.980
10845SOL    HW133434   2.226   3.148   0.933
10845SOL    HW233435   2.087   3.066   0.957
10846SOL     OW33436   3.265   2.217   1.439
10846SOL    HW133437   3.261   2.137   1.498
10846SOL    HW233438   3.350   2.267   1.457
10847SOL     OW33439   4.962   2.424   5.057
10847SOL    HW133440   4.862   2.434   5.066
10847SOL    HW233441   5.005   2.449   5.144
10848SOL     OW33442   1.293   0.890   6.516
10848SOL    HW133443   1.307   0.882   6.418
10848SOL    HW233444   1.359   0.832   6.565
10849SOL     OW33445   1.624   5.091   3.716
10849SOL    HW133446   1.655   5.107   3.810
10849SOL    HW233447   1.677   5.148   3.653
10850SOL     OW33448   5.529   0.626   2.115
10850SOL    HW133449   5.462   0.614   2.042
10850SOL    HW233450   5.514   0.557   2.186
10851SOL     OW33451   4.207   2.238   0.077
10851SOL    HW133452   4.160   2.310   0.026
10851SOL    HW233453   4.241   2.170   0.013
10852SOL     OW33454   6.315   0.451   6.169
10852SOL    HW133455   6.348   0.545   6.176
10852SOL    HW233456   6.281   0.435   6.076
10853SOL     OW33457   2.593   0.905   4.406
10853SOL    HW133458   2.621   0.986   4.355
10853SOL    HW233459   2.638   0.824   4.367
10854SOL     OW33460   0.155   0.600   1.084
10854SOL    HW133461   0.201   0.513   1.072
10854SOL    HW233462   0.067   0.598   1.037
10855SOL     OW33463   6.998   5.903   1.099
10855SOL    HW133464   7.014   5.810   1.066
10855SOL    HW233465   6.914   5.939   1.057
10856SOL     OW33466   5.373   0.079   6.452
10856SOL    HW133467   5.396   0.161   6.399
10856SOL    HW233468   5.322   0.106   6.533
10857SOL     OW33469   6.162   0.321   4.887
10857SOL    HW133470   6.162   0.250   4.958
10857SOL    HW233471   6.247   0.317   4.836
10858SOL     OW33472   2.050   1.765   0.516
10858SOL    HW133473   2.087   1.856   0.536
10858SOL    HW233474   2.118   1.695   0.538
10859SOL     OW33475   1.379   5.190   2.521
10859SOL    HW133476   1.382   5.130   2.441
10859SOL    HW233477   1.469   5.232   2.535
10860SOL     OW33478   5.722   2.239   1.441
10860SOL    HW133479   5.729   2.143   1.469
10860SOL    HW233480   5.769   2.297   1.507
10861SOL     OW33481   1.554   4.161   1.852
10861SOL    HW133482   1.470   4.196   1.810
10861SOL    HW233483   1.559   4.190   1.947
10862SOL     OW33484   3.772   4.082   5.142
10862SOL    HW133485   3.725   4.055   5.225
10862SOL    HW233486   3.864   4.115   5.165
10863SOL     OW33487   1.961   6.979   3.399
10863SOL    HW133488   2.005   0.048   3.387
10863SOL    HW233489   1.909   6.979   3.484
10864SOL     OW33490   2.851   3.395   1.773
10864SOL    HW133491   2.874   3.315   1.717
10864SOL    HW233492   2.933   3.427   1.821
10865SOL     OW33493   3.266   1.534   2.698
10865SOL    HW133494   3.323   1.615   2.685
10865SOL    HW233495   3.170   1.561   2.708
10866SOL     OW33496   1.063   3.767   4.320
10866SOL    HW133497   1.128   3.741   4.391
10866SOL    HW233498   0.978   3.798   4.363
10867SOL     OW33499   4.215   3.326   0.227
10867SOL    HW133500   4.222   3.297   0.323
10867SOL    HW233501   4.252   3.254   0.168
10868SOL     OW33502   1.140   6.369   5.030
10868SOL    HW133503   1.086   6.360   5.114
10868SOL    HW233504   1.237   6.355   5.051
10869NA      NA33505   0.105   1.080   6.359
10870NA      NA33506   4.720   4.709   5.372
10871NA      NA33507   0.886   4.925   2.708
10872NA      NA33508   5.889   3.548   3.157
10873NA      NA33509   3.819   2.729   5.453
10874NA      NA33510   2.275   4.554   6.850
10875NA      NA33511   1.529   5.315   6.827
10876NA      NA33512   4.268   5.014   1.840
10877NA      NA33513   5.068   4.272   0.776
10878NA      NA33514   3.634   1.535   0.742
10879NA      NA33515   5.532   6.776   1.315
10880NA      NA33516   2.496   6.802   5.364
10881NA      NA33517   4.293   4.946   2.873
10882NA      NA33518   4.177   4.063   6.684
   7.02015   7.02015   7.02015
